Membrane in water
40155
    1TCq1    O1    1   0.563   0.969  10.969 -0.3871 -0.5187 -0.6148
    1TCq1    C1    2   0.504   0.847  10.936  0.3058 -0.2499 -0.3741
    1TCq1    O2    3   0.519   0.803  10.824 -0.2488  0.4382  0.1293
    1TCq1    C2    4   0.371   0.874  10.983 -0.2405 -0.0203  0.1989
    1TCq1    C3    5   0.279   0.907  10.896 -0.0041 -0.2060 -0.4184
    1TCq1    C4    6   0.148   0.886  10.927 -0.2419  0.3267  0.5219
    1TCq1    C5    7   0.106   0.857  11.058  0.6848 -0.3071  0.7484
    1TCq1    C6    8   0.204   0.836  11.149 -0.5620  0.2730 -0.7351
    1TCq1    C7    9   0.338   0.843  11.113  0.1233  0.5681 -0.4889
    1TCq1    C8   10   0.178   0.842  11.292  0.2918 -0.1896 -1.5585
    1TCq1    O4   11   0.080   0.907  11.327  0.1758 -0.4434  0.3290
    1TCq1    C9   12   0.049   0.908  10.826 -0.2839  0.2710  0.4847
    1TCq1    O5   13   4.658   0.876  10.865 -0.2696 -0.0428  0.4169
    1TCq1    O6   14   0.078   0.989  10.736 -0.2954  0.1823  0.6196
    1TCq1    H1   15   0.521   1.001  11.052 -0.8712 -2.9250  0.0431
    1TCq1    H2   16   0.306   0.918  10.792 -0.5989  1.3141 -0.4066
    1TCq1    H3   17   4.722   0.849  11.079 -0.1273  1.9428 -2.4825
    1TCq1    H4   18   0.417   0.822  11.184 -0.1298 -3.0651 -1.2552
    2MPD2     C   19   0.282   0.694  11.780  0.1149 -0.0132 -0.2139
    2MPD2    C1   20   0.174   0.763  11.733 -0.5359 -0.1312 -0.4832
    2MPD2    C2   21   0.173   0.798  11.596  0.1294  0.0215 -0.5345
    2MPD2    C3   22   0.274   0.762  11.514  0.3199 -0.1034 -0.9244
    2MPD2    C4   23   0.383   0.694  11.566 -0.3104 -0.2560 -0.1346
    2MPD2    C5   24   0.387   0.664  11.696 -0.3586  1.1314  0.2593
    2MPD2     H   25   0.086   0.853  11.564  0.3200  0.1747 -0.7873
    2MPD2    H1   26   0.464   0.659  11.503  0.4837 -0.9185  1.2465
    2MPD2    H2   27   0.280   0.663  11.884 -3.2451 -0.9021 -0.5720
    2MPD2    H3   28   0.476   0.612  11.730  0.7106  1.0041 -2.7693
    2MPD2     N   29   0.276   0.782  11.369 -0.1163 -0.2331 -0.0955
    2MPD2    H5   30   0.357   0.738  11.326 -0.3417 -1.0419  0.2972
    2MPD2    N1   31   0.063   0.793  11.812 -0.7658 -0.1124  0.7233
    2MPD2    H7   32   4.711   0.840  11.762  0.7214  0.2907 -1.1144
    3TCq1    O1   33   3.796   1.329  10.779  0.7181  0.4022  0.4587
    3TCq1    C1   34   3.902   1.386  10.823  0.3223  0.0933 -0.3607
    3TCq1    O2   35   4.000   1.409  10.752 -0.1493  0.1138 -0.5615
    3TCq1    C2   36   3.877   1.446  10.954  0.2509  0.1946  0.1205
    3TCq1    C3   37   3.986   1.486  11.024  0.1393 -0.5465 -0.7046
    3TCq1    C4   38   3.978   1.589  11.114 -0.2467  0.1709  1.3213
    3TCq1    C5   39   3.870   1.668  11.125 -0.1629 -0.0236 -0.1317
    3TCq1    C6   40   3.759   1.636  11.044 -0.2153  0.3912  0.4245
    3TCq1    C7   41   3.758   1.522  10.962  0.1805 -0.1351  0.7775
    3TCq1    C8   42   3.635   1.708  11.071 -0.5496  0.0098 -0.5269
    3TCq1    O4   43   3.527   1.655  11.062 -0.2199 -0.5956 -0.3518
    3TCq1    C9   44   4.093   1.612  11.192  0.6591  0.1844 -0.1543
    3TCq1    O5   45   4.205   1.618  11.140  0.3177  0.6364  0.2521
    3TCq1    O6   46   4.071   1.692  11.286  0.4293 -0.2202  0.2472
    3TCq1    H1   47   3.727   1.303  10.844  0.9558 -0.8728  0.2057
    3TCq1    H2   48   4.074   1.424  11.017  0.8546  0.4066 -0.0890
    3TCq1    H3   49   3.879   1.744  11.202  1.0939  0.9904 -1.2913
    3TCq1    H4   50   3.668   1.493  10.908 -1.4624  1.1863  2.8202
    4MPD2     C   51   3.371   2.131  11.236  0.2363  0.6226  0.4120
    4MPD2    C1   52   3.504   2.164  11.236  0.0697  0.5857 -0.3775
    4MPD2    C2   53   3.598   2.067  11.201 -0.0557 -0.4411 -0.0904
    4MPD2    C3   54   3.561   1.942  11.153  0.2575  0.1645 -0.4563
    4MPD2    C4   55   3.422   1.912  11.152 -0.4099 -0.0514 -0.9297
    4MPD2    C5   56   3.328   2.005  11.200 -0.9603  0.1389  0.6265
    4MPD2     H   57   3.704   2.090  11.191  0.0276 -1.0898 -0.7082
    4MPD2    H1   58   3.388   1.820  11.107 -1.3629 -1.1395  1.9790
    4MPD2    H2   59   3.288   2.193  11.269 -0.8659 -0.5266 -0.2139
    4MPD2    H3   60   3.221   1.991  11.213 -1.2776  0.9027 -1.1421
    4MPD2     N   61   3.655   1.846  11.103  0.2969 -0.1938  0.0903
    4MPD2    H5   62   3.748   1.887  11.096 -0.2010  0.9797  0.4164
    4MPD2    N1   63   3.552   2.293  11.278  0.6305  1.1927 -0.4685
    4MPD2    H7   64   3.648   2.317  11.257  0.9037  2.3766  2.2801
    5TCq1    O1   65   4.006   4.270  11.236  0.0279 -0.5679 -0.1298
    5TCq1    C1   66   4.064   4.228  11.125  0.0919  1.3152 -0.0579
    5TCq1    O2   67   4.174   4.172  11.120 -0.4483  0.5688 -0.9484
    5TCq1    C2   68   3.949   4.193  11.055  0.1981 -0.0531 -0.6601
    5TCq1    C3   69   3.841   4.277  11.060 -0.2682  0.0430 -0.3022
    5TCq1    C4   70   3.727   4.235  10.997 -0.7095 -0.6099  0.2218
    5TCq1    C5   71   3.719   4.115  10.934 -0.1509 -0.4130  0.5953
    5TCq1    C6   72   3.823   4.028  10.943  0.0902 -0.1170 -0.2707
    5TCq1    C7   73   3.941   4.066  10.994 -0.3236  0.3479  0.0954
    5TCq1    C8   74   3.825   3.918  10.845  0.4327 -0.0694  0.7101
    5TCq1    O4   75   3.928   3.857  10.832 -0.3718  0.0467 -0.6330
    5TCq1    C9   76   3.609   4.323  10.980 -0.0731  0.4948  0.6784
    5TCq1    O5   77   3.495   4.268  10.965 -0.3206 -0.4158 -0.5669
    5TCq1    O6   78   3.632   4.441  11.007  0.0885  0.1218  0.4548
    5TCq1    H1   79   3.909   4.281  11.233  0.0038 -0.6810  0.3157
    5TCq1    H2   80   3.852   4.380  11.092  3.5864  0.4081 -2.8109
    5TCq1    H3   81   3.633   4.104  10.869 -2.0538 -1.1621  3.2380
    5TCq1    H4   82   4.029   4.002  10.992 -0.5034  0.1917 -2.6210
    6MPD2     C   83   3.524   3.769  10.687  0.5596 -0.4539  0.2858
    6MPD2    C1   84   3.656   3.772  10.722  1.2881 -0.4182  0.2702
    6MPD2    C2   85   3.741   3.673  10.676 -0.6449 -0.5073  0.0660
    6MPD2    C3   86   3.692   3.569  10.601  0.3726  0.5940 -0.0537
    6MPD2    C4   87   3.560   3.572  10.549  0.0894  0.0334  0.8528
    6MPD2    C5   88   3.483   3.672  10.600 -0.0545  0.4057 -1.0548
    6MPD2     H   89   3.845   3.674  10.707 -0.0004 -1.3942 -2.0606
    6MPD2    H1   90   3.508   3.501  10.485  1.8996  1.9554 -2.7590
    6MPD2    H2   91   3.442   3.824  10.731  0.1673  0.3626 -1.4242
    6MPD2    H3   92   3.376   3.674  10.583  0.2452 -2.3815 -3.4824
    6MPD2     N   93   3.783   3.466  10.577  0.3323  0.2003 -1.1670
    6MPD2    H5   94   3.867   3.465  10.634  0.2414 -0.3603 -1.0494
    6MPD2    N1   95   3.695   3.880  10.808 -0.2746  0.4987  0.3227
    6MPD2    H7   96   3.626   3.952  10.830 -4.0665 -2.6777 -1.3002
    7TCq1    O1   97   1.973   3.792  13.087 -0.5020  0.4157 -0.1465
    7TCq1    C1   98   1.901   3.734  12.988 -0.6046 -0.4369  0.5039
    7TCq1    O2   99   1.826   3.781  12.902 -0.4232  0.1940 -0.9065
    7TCq1    C2  100   1.843   3.613  13.053  0.5801  0.2317  0.4518
    7TCq1    C3  101   1.702   3.606  13.067  0.9129 -0.5166 -0.5821
    7TCq1    C4  102   1.656   3.504  13.141 -0.7171 -0.5809  0.7807
    7TCq1    C5  103   1.743   3.410  13.191 -0.5021 -0.4336 -0.2192
    7TCq1    C6  104   1.879   3.430  13.182 -0.1926  0.4891 -0.3017
    7TCq1    C7  105   1.933   3.529  13.103 -0.0360  0.3194  0.0157
    7TCq1    C8  106   1.962   3.339  13.264 -0.2327 -0.2104  0.0978
    7TCq1    O4  107   1.909   3.232  13.301 -0.3816  0.0286 -0.6082
    7TCq1    C9  108   1.516   3.476  13.167  0.0542 -1.7645 -0.2700
    7TCq1    O5  109   1.489   3.390  13.252 -0.4999  0.2513  0.6808
    7TCq1    O6  110   1.426   3.537  13.105  0.1423  0.0573 -0.3752
    7TCq1    H1  111   2.006   3.740  13.163 -1.0372  0.9041  0.4164
    7TCq1    H2  112   1.636   3.684  13.029  3.2879  1.8866  0.2099
    7TCq1    H3  113   1.706   3.333  13.257 -2.5919 -0.0405 -0.9279
    7TCq1    H4  114   2.041   3.536  13.090  0.1312 -1.1913  0.5713
    8MPD2     C  115   2.418   3.197  13.424  0.7420 -0.1330  0.7523
    8MPD2    C1  116   2.307   3.122  13.412 -0.3610  0.7933  0.5796
    8MPD2    C2  117   2.189   3.188  13.380 -0.2144  0.8955  0.1588
    8MPD2    C3  118   2.191   3.323  13.358  0.4285 -0.1083  0.6248
    8MPD2    C4  119   2.307   3.396  13.390  0.2317 -0.8694  0.5682
    8MPD2    C5  120   2.425   3.336  13.412  0.2604 -0.6647  0.1669
    8MPD2     H  121   2.095   3.140  13.356  0.2777 -1.1384  2.3319
    8MPD2    H1  122   2.302   3.504  13.385 -0.6198 -1.0030 -1.6543
    8MPD2    H2  123   2.508   3.150  13.462  0.6369 -1.4102 -0.6005
    8MPD2    H3  124   2.521   3.381  13.436 -0.1307  0.1418  0.2156
    8MPD2     N  125   2.078   3.392  13.306  0.5327 -0.0617 -0.2778
    8MPD2    H5  126   2.089   3.493  13.298 -0.8594 -0.0369 -1.8622
    8MPD2    N1  127   2.316   2.984  13.430 -0.3495  0.0326 -0.5206
    8MPD2    H7  128   2.405   2.952  13.467 -0.0537 -0.6713 -1.8169
    9TCq1    O1  129   0.174   1.806  11.131 -0.1120 -0.5221 -0.0283
    9TCq1    C1  130   0.095   1.912  11.158  0.3472  0.6066 -0.5102
    9TCq1    O2  131   4.716   1.916  11.224 -0.2905 -0.1331  0.2479
    9TCq1    C2  132   0.168   2.036  11.152  0.5197  0.3361 -0.3766
    9TCq1    C3  133   0.293   2.045  11.208  0.2858 -0.4485 -0.0077
    9TCq1    C4  134   0.324   2.164  11.264  0.2262  0.2288 -0.0546
    9TCq1    C5  135   0.243   2.276  11.257  0.0414 -0.1247 -0.3051
    9TCq1    C6  136   0.121   2.271  11.199  0.0900 -0.6678  0.6961
    9TCq1    C7  137   0.077   2.144  11.153  0.2718  0.4467  0.1977
    9TCq1    C8  138   0.019   2.357  11.253  0.2526 -0.9440  0.1721
    9TCq1    O4  139   0.045   2.475  11.262 -0.3031  0.1485 -0.0071
    9TCq1    C9  140   0.455   2.168  11.334 -0.2437  0.3313 -0.5685
    9TCq1    O5  141   0.483   2.270  11.403 -0.5655 -0.8460  0.1872
    9TCq1    O6  142   0.528   2.065  11.314  0.1545  0.4401  0.8491
    9TCq1    H1  143   0.250   1.823  11.071 -1.3211  2.1352 -0.8147
    9TCq1    H2  144   0.362   1.961  11.200 -0.0535 -0.9703  2.6056
    9TCq1    H3  145   0.280   2.364  11.309 -1.4548  1.2673 -1.6483
    9TCq1    H4  146   4.701   2.116  11.120  0.3428 -2.0188  2.1022
   10MPD2     C  147   4.460   2.454  11.306 -0.4629  0.4464  0.5001
   10MPD2    C1  148   4.505   2.318  11.307  0.2578 -0.5624 -0.0408
   10MPD2    C2  149   4.416   2.223  11.371  0.8053 -0.0880 -0.2764
   10MPD2    C3  150   4.299   2.259  11.429  0.7167 -0.0261 -0.5824
   10MPD2    C4  151   4.279   2.397  11.449  0.2690  0.6496 -0.9589
   10MPD2    C5  152   4.358   2.492  11.386 -0.3961 -0.2407 -0.4231
   10MPD2     H  153   4.451   2.120  11.371  0.0528 -0.3423 -0.7724
   10MPD2    H1  154   4.207   2.427  11.523  0.9005  0.7328 -0.3778
   10MPD2    H2  155   4.521   2.524  11.251  2.0767  0.2230  2.9923
   10MPD2    H3  156   4.338   2.597  11.404 -1.3590 -0.6270  0.7371
   10MPD2     N  157   4.238   2.173  11.516 -0.3699 -0.6504 -0.0762
   10MPD2    H5  158   4.183   2.208  11.593 -1.6935  0.1485 -1.3711
   10MPD2    N1  159   4.629   2.279  11.260  0.5472 -0.4303 -0.1926
   10MPD2    H7  160   4.638   2.177  11.262  1.1058 -0.4027 -1.0353
   11TCq1    O1  161   0.778   2.002  13.895  0.1844  0.6569  0.0202
   11TCq1    C1  162   0.912   2.020  13.928 -0.2939  0.1980 -0.3193
   11TCq1    O2  163   1.006   2.026  13.848 -0.0223 -0.2649 -0.2847
   11TCq1    C2  164   0.934   1.964  14.062 -0.0266 -0.0279 -0.1229
   11TCq1    C3  165   1.049   1.996  14.127  0.3210  0.1488 -0.1888
   11TCq1    C4  166   1.055   1.961  14.262 -0.8138  0.1072  0.0541
   11TCq1    C5  167   0.957   1.900  14.338 -0.4377 -0.1936 -0.0278
   11TCq1    C6  168   0.843   1.864  14.263  0.1379  0.0277 -1.1120
   11TCq1    C7  169   0.830   1.901  14.131 -0.2259 -1.1187 -0.5897
   11TCq1    C8  170   0.729   1.813  14.347 -0.4177 -0.4959 -0.3922
   11TCq1    O4  171   0.738   1.801  14.470  0.4819 -0.3333  0.0101
   11TCq1    C9  172   1.179   1.997  14.330 -0.4298 -0.6619  0.3826
   11TCq1    O5  173   1.202   1.945  14.445 -0.3400  0.0411  0.2585
   11TCq1    O6  174   1.250   2.083  14.275  0.1964  0.1012 -0.1307
   11TCq1    H1  175   0.723   2.000  13.977 -0.9229 -0.8314 -0.7551
   11TCq1    H2  176   1.133   2.030  14.067  1.7469 -2.1393  0.5171
   11TCq1    H3  177   0.965   1.884  14.445 -0.0325  0.0366 -0.0228
   11TCq1    H4  178   0.747   1.857  14.077 -0.4631  0.1662 -1.2699
   12MPD2     C  179   0.446   1.742  14.421  0.4872  0.1098  0.4474
   12MPD2    C1  180   0.499   1.725  14.296  0.3145  0.1000 -0.6349
   12MPD2    C2  181   0.425   1.660  14.195 -0.4751  0.8180 -0.0273
   12MPD2    C3  182   0.304   1.596  14.235  0.2641 -0.3034 -0.5876
   12MPD2    C4  183   0.261   1.598  14.370  0.5456  0.3256 -0.8740
   12MPD2    C5  184   0.333   1.677  14.460  0.8942 -0.1360 -0.4405
   12MPD2     H  185   0.459   1.661  14.092  3.1852  1.2045  1.1566
   12MPD2    H1  186   0.163   1.562  14.399 -0.5267  2.6778 -1.5342
   12MPD2    H2  187   0.498   1.796  14.500 -0.0103  1.0391  0.1326
   12MPD2    H3  188   0.299   1.686  14.563 -0.7988 -0.3796 -0.9819
   12MPD2     N  189   0.234   1.511  14.141 -0.0142 -0.1529  0.0631
   12MPD2    H5  190   0.193   1.423  14.172 -1.3236  0.4181 -0.0604
   12MPD2    N1  191   0.629   1.772  14.265  0.1313 -0.0875 -0.5912
   12MPD2    H7  192   0.652   1.751  14.168  2.1729  0.3241 -0.2087
   13TCq1    O1  193   0.120   2.009  11.479 -0.5534 -0.5199 -0.9199
   13TCq1    C1  194   0.006   1.986  11.545 -0.0827  0.1674 -0.4051
   13TCq1    O2  195   4.637   2.065  11.542  0.5545  0.0447 -0.2657
   13TCq1    C2  196   0.002   1.845  11.555  0.2455  0.2101 -0.6468
   13TCq1    C3  197   0.113   1.771  11.598  0.0953 -0.4995 -0.1870
   13TCq1    C4  198   0.098   1.635  11.590  0.5169 -0.3470  0.1461
   13TCq1    C5  199   4.713   1.571  11.537 -0.4515  0.9561  0.5929
   13TCq1    C6  200   4.619   1.650  11.479  0.1873  0.0499  0.3451
   13TCq1    C7  201   4.618   1.783  11.499  1.3204 -0.0998  0.2963
   13TCq1    C8  202   4.487   1.598  11.440 -0.7343  0.1599 -0.2929
   13TCq1    O4  203   4.399   1.686  11.430 -0.3200  0.2663 -0.4200
   13TCq1    C9  204   0.214   1.554  11.622 -0.7604  0.1793  0.5232
   13TCq1    O5  205   0.316   1.620  11.631  0.1865  0.1873  0.3531
   13TCq1    O6  206   0.199   1.427  11.620  0.3846  0.4725 -0.2016
   13TCq1    H1  207   0.194   1.944  11.481  0.4472  0.6957  1.8796
   13TCq1    H2  208   0.204   1.823  11.625 -1.0057  0.3324  1.9344
   13TCq1    H3  209   4.706   1.465  11.516 -0.4219  1.2233 -0.7701
   13TCq1    H4  210   4.532   1.845  11.475  1.1706 -0.7908 -0.9892
   14MPD2     C  211   4.375   1.271  11.306  0.4309  0.4313 -0.4449
   14MPD2    C1  212   4.365   1.389  11.374  0.3434 -0.4402  0.2296
   14MPD2    C2  213   4.243   1.434  11.418  0.1790 -0.2754 -0.0118
   14MPD2    C3  214   4.127   1.355  11.393  0.2658  0.6574  0.0579
   14MPD2    C4  215   4.143   1.241  11.319  0.3282 -0.0755  0.1698
   14MPD2    C5  216   4.265   1.201  11.272  0.0527  0.5280 -0.0223
   14MPD2     H  217   4.231   1.527  11.472 -0.6807 -0.9858  1.0346
   14MPD2    H1  218   4.066   1.168  11.298 -1.3785  1.0758  2.3914
   14MPD2    H2  219   4.467   1.231  11.265  0.8288  2.3142 -1.3582
   14MPD2    H3  220   4.272   1.110  11.214 -0.0909 -0.3521  1.3435
   14MPD2     N  221   4.009   1.407  11.445 -0.4035  0.4133 -0.6418
   14MPD2    H5  222   4.015   1.489  11.505  0.8430  0.8165 -1.3196
   14MPD2    N1  223   4.486   1.466  11.396 -0.1883  0.7858 -0.4649
   14MPD2    H7  224   4.571   1.416  11.371 -0.5601 -0.7709  1.4351
   15TCq1    O1  225   1.318   0.709   2.004 -0.1186  0.3882  0.3480
   15TCq1    C1  226   1.277   0.632   1.906  0.4632  0.3246 -0.9180
   15TCq1    O2  227   1.208   0.672   1.812  0.2628  0.5365  0.1045
   15TCq1    C2  228   1.392   0.552   1.888 -0.7013 -0.2459 -0.1474
   15TCq1    C3  229   1.430   0.477   1.992 -0.1770 -0.1130  0.0529
   15TCq1    C4  230   1.549   0.409   1.985  1.4192  0.1559  0.7179
   15TCq1    C5  231   1.638   0.441   1.880  0.0703  0.0653 -0.0126
   15TCq1    C6  232   1.592   0.520   1.780 -0.1130  1.1534  0.5764
   15TCq1    C7  233   1.461   0.568   1.771  0.9911  0.1511  0.1059
   15TCq1    C8  234   1.665   0.506   1.658  0.2589 -0.5184 -0.1236
   15TCq1    O4  235   1.783   0.477   1.658 -0.3682  0.6250 -0.2774
   15TCq1    C9  236   1.593   0.335   2.103 -0.6157 -0.4429  0.3716
   15TCq1    O5  237   1.705   0.276   2.090 -0.3218  0.0457  0.0652
   15TCq1    O6  238   1.524   0.352   2.214 -0.8966  0.1612  0.3674
   15TCq1    H1  239   1.407   0.677   2.031  1.0397  1.3059 -2.4119
   15TCq1    H2  240   1.364   0.448   2.073  0.9783 -2.8844 -0.0122
   15TCq1    H3  241   1.742   0.414   1.894  0.6915  1.8577 -1.1601
   15TCq1    H4  242   1.426   0.647   1.706  1.7112  1.4329  1.2653
   16MPD2     C  243   1.508   0.500   1.324  0.3995  0.4111  0.1143
   16MPD2    C1  244   1.615   0.490   1.406  0.1347  0.4203 -0.1113
   16MPD2    C2  245   1.741   0.466   1.367  0.8613  0.8674  0.7280
   16MPD2    C3  246   1.761   0.445   1.230  0.6923  0.2094 -0.5890
   16MPD2    C4  247   1.650   0.450   1.150  0.2742  0.0903  0.1272
   16MPD2    C5  248   1.527   0.481   1.193  0.0428  0.2010 -0.9363
   16MPD2     H  249   1.828   0.469   1.430  2.0920 -0.8243 -0.8923
   16MPD2    H1  250   1.659   0.414   1.048  2.3188  0.2289  0.2445
   16MPD2    H2  251   1.410   0.535   1.352  0.4828  1.3923 -0.8301
   16MPD2    H3  252   1.444   0.488   1.124  0.4688 -2.0544 -1.6461
   16MPD2     N  253   1.888   0.441   1.177 -0.4039  0.1098 -0.2025
   16MPD2    H5  254   1.965   0.448   1.243 -0.9354 -5.1190  0.9824
   16MPD2    N1  255   1.587   0.521   1.544 -0.4850 -0.1183 -0.1248
   16MPD2    H7  256   1.488   0.536   1.559 -0.7158  0.0458 -1.8176
   17TCq1    O1  257   4.119   0.220  10.394  0.4148 -0.0706  0.1654
   17TCq1    C1  258   4.091   0.337  10.326  0.3395 -0.2687  0.1825
   17TCq1    O2  259   4.014   0.349  10.234 -0.1794 -0.1494 -0.6441
   17TCq1    C2  260   4.210   0.418  10.326  0.1430  1.0758 -0.1221
   17TCq1    C3  261   4.239   0.489  10.215 -0.8161 -0.3994  0.7221
   17TCq1    C4  262   4.365   0.537  10.197 -0.5963  0.2607  0.5449
   17TCq1    C5  263   4.462   0.522  10.295  0.1298  0.1638 -0.7548
   17TCq1    C6  264   4.434   0.451  10.409  0.3255 -0.1411  0.2896
   17TCq1    C7  265   4.308   0.393  10.418 -0.1890 -0.0781 -0.2381
   17TCq1    C8  266   4.517   0.463  10.526  0.4868 -0.0743 -0.2549
   17TCq1    O4  267   4.489   0.406  10.629 -0.4973 -0.1650  0.7033
   17TCq1    C9  268   4.390   0.627  10.087 -0.0291  0.2904 -0.2454
   17TCq1    O5  269   4.287   0.648  10.019 -0.0062 -0.3762 -0.4400
   17TCq1    O6  270   4.506   0.665  10.053  0.1999 -0.5936  0.2509
   17TCq1    H1  271   4.212   0.212  10.424  0.3361 -1.0207  0.1630
   17TCq1    H2  272   4.162   0.496  10.140 -1.5440 -3.8046  1.1521
   17TCq1    H3  273   4.553   0.573  10.268  0.7880  0.2362  1.6247
   17TCq1    H4  274   4.288   0.333  10.506 -1.3771  1.9525  0.8764
   18MPD2     C  275   0.036   0.508  10.710  0.4028  0.0185  0.6492
   18MPD2    C1  276   0.012   0.572  10.592  0.0579  0.0453  0.8538
   18MPD2    C2  277   0.105   0.662  10.548 -0.0681 -0.4674  0.1867
   18MPD2    C3  278   0.211   0.702  10.625  0.1208  0.3612 -1.0017
   18MPD2    C4  279   0.233   0.633  10.744  0.2907  0.3337  0.1983
   18MPD2    C5  280   0.145   0.541  10.785 -0.3976  0.9861 -0.4934
   18MPD2     H  281   0.094   0.717  10.455  0.2912  0.6266  0.7867
   18MPD2    H1  282   0.308   0.659  10.817  2.6015 -0.2952 -1.9645
   18MPD2    H2  283   4.698   0.421  10.737 -1.9015  1.2553 -0.5328
   18MPD2    H3  284   0.164   0.490  10.879 -1.9065  0.5512 -0.4115
   18MPD2     N  285   0.323   0.792  10.592  0.9142 -0.4728  0.0849
   18MPD2    H5  286   0.403   0.793  10.653  0.2025  0.0823  1.0088
   18MPD2    N1  287   4.625   0.546  10.500 -0.6768  0.1725 -0.2809
   18MPD2    H7  288   4.622   0.593  10.411  1.8310  1.0167  0.0745
   19TMC2    C1  289   1.279   1.502  13.647 -0.0621 -0.3984 -0.0716
   19TMC2    C2  290   1.232   1.478  13.520  0.2036  0.2559 -0.2810
   19TMC2    C3  291   1.127   1.386  13.506 -0.3591  0.8723  0.2696
   19TMC2    C4  292   1.232   1.441  13.761 -0.1453 -0.4064 -0.0396
   19TMC2    C5  293   1.144   1.338  13.736 -0.6068 -0.1529 -0.0501
   19TMC2    C6  294   1.096   1.305  13.609  0.4029  0.3366 -0.2581
   19TMC2     C  295   1.390   1.600  13.656  0.4447  1.4822  0.9785
   19TMC2     O  296   1.402   1.666  13.554  0.2261  0.0859  0.5425
   19TMC2     H  297   1.262   1.535  13.433  1.4727  0.3722  0.2320
   19TMC2    H1  298   1.259   1.475  13.861  0.2403  0.6053 -0.4955
   19TMC2    H2  299   1.038   1.218  13.583  1.0052 -0.2499  0.3451
   19TMC2    C7  300   1.103   1.256  13.847 -0.3066  0.3418 -0.5369
   19TMC2    C8  301   1.092   1.341  13.376  0.4393  0.2604  0.1497
   19TMC2    O1  302   1.000   1.193  13.835  0.4522  0.0701 -0.2660
   19TMC2    O2  303   1.169   1.360  13.281 -0.1612  0.2221  0.1635
   19TMC2    O5  304   0.957   1.338  13.362 -0.3073 -0.0201 -0.1534
   19TMC2    H5  305   0.913   1.361  13.447  1.2991  1.1299  0.3632
   20MPD2     C  306   1.646   1.735  13.703 -0.3535 -0.1406 -0.5309
   20MPD2    C1  307   1.583   1.657  13.794  0.3328 -0.1621 -0.0380
   20MPD2    C2  308   1.656   1.626  13.906 -0.4429 -0.2220 -0.0249
   20MPD2    C3  309   1.781   1.671  13.932 -0.0587 -0.3928  0.0785
   20MPD2    C4  310   1.833   1.763  13.843  0.1293  0.3153 -0.2652
   20MPD2    C5  311   1.768   1.788  13.728  0.2455  0.3031 -0.1959
   20MPD2     H  312   1.594   1.567  13.974  0.1168  0.7563  1.3400
   20MPD2    H1  313   1.935   1.796  13.853  0.3633  0.0777 -1.8778
   20MPD2    H2  314   1.603   1.766  13.608 -3.3970  0.6664  1.1097
   20MPD2    H3  315   1.811   1.853  13.653 -0.5477  1.1607  0.0954
   20MPD2     N  316   1.849   1.634  14.048  0.2422 -0.0334  0.4260
   20MPD2    H5  317   1.939   1.682  14.053  0.9971 -1.6537  2.5590
   20MPD2    N1  318   1.467   1.585  13.768 -0.6922  0.3849  0.2775
   20MPD2    H7  319   1.445   1.515  13.839 -0.1465  0.3714  0.4311
   21MPD2     C  320   4.101   2.271  14.323 -0.0680 -0.4506 -0.4314
   21MPD2    C1  321   4.104   2.133  14.321  0.2658  0.5026  0.0437
   21MPD2    C2  322   3.998   2.065  14.372  0.5717  0.0440  0.2761
   21MPD2    C3  323   3.883   2.124  14.424  0.1449  0.1708 -0.5055
   21MPD2    C4  324   3.886   2.261  14.419  0.1503 -0.2471  0.0612
   21MPD2    C5  325   3.993   2.333  14.374  0.1208  0.4556  0.5116
   21MPD2     H  326   4.006   1.957  14.375  0.6867  0.0296 -0.4646
   21MPD2    H1  327   3.797   2.316  14.450 -0.6176 -1.0490 -0.7251
   21MPD2    H2  328   4.181   2.333  14.284 -1.7372  1.5044 -0.7641
   21MPD2    H3  329   3.985   2.441  14.366 -0.6296  0.2290 -1.7305
   21MPD2     N  330   3.776   2.046  14.478  0.0653 -0.0878  0.2956
   21MPD2    H5  331   3.691   2.099  14.499 -0.6610 -0.8053 -0.8426
   21MPD2    N1  332   4.212   2.054  14.271  0.0310 -0.2997 -0.1581
   21MPD2    H7  333   4.197   1.953  14.268  2.0779 -0.6399  1.4509
   22TCq2    C1  334   3.762   1.906  14.471  0.0137 -1.0772  0.5512
   22TCq2    O2  335   3.849   1.824  14.457 -0.0954 -0.1895 -0.5572
   22TCq2    C2  336   3.624   1.866  14.500  0.0721 -0.7021  0.4200
   22TCq2    C3  337   3.600   1.726  14.517  1.0691 -0.1482  0.1358
   22TCq2    C4  338   3.475   1.689  14.548  0.1121  0.2486 -0.1535
   22TCq2    C5  339   3.372   1.780  14.558 -0.0818 -0.1478 -0.2568
   22TCq2    C6  340   3.399   1.913  14.551 -0.2560 -0.5639 -0.2189
   22TCq2    C7  341   3.525   1.960  14.524  0.0307  0.4073 -0.0267
   22TCq2    C8  342   3.322   2.010  14.629 -0.2773 -0.5895  0.7439
   22TCq2    O4  343   3.388   2.097  14.683 -0.1403  0.4613  0.3630
   22TCq2    C9  344   3.447   1.547  14.573  0.1795 -0.7748  0.2304
   22TCq2    O5  345   3.541   1.466  14.579 -0.0524 -0.0567 -0.3562
   22TCq2    O6  346   3.323   1.516  14.574  0.2101 -0.6441 -0.2173
   22TCq2    H2  347   3.670   1.650  14.481 -1.0012 -0.4273 -3.3379
   22TCq2    H3  348   3.275   1.753  14.597  0.1936  0.2105  0.6706
   22TCq2    H4  349   3.530   2.064  14.493  0.1881  0.6182  0.7192
   23MPD2     C  350   0.502   2.531  14.427 -0.3141 -0.0604 -0.0302
   23MPD2    C1  351   0.418   2.588  14.524 -0.5750 -0.3515  0.0117
   23MPD2    C2  352   0.323   2.686  14.483 -0.8527  0.1529 -0.1560
   23MPD2    C3  353   0.331   2.733  14.354  0.8844 -0.3458 -0.4495
   23MPD2    C4  354   0.412   2.676  14.265  0.0007  0.3388  0.1823
   23MPD2    C5  355   0.499   2.577  14.300 -0.0953 -0.3715 -0.0582
   23MPD2     H  356   0.257   2.739  14.552  0.8683  0.9081  0.8962
   23MPD2    H1  357   0.417   2.715  14.164  1.4191 -0.5700 -0.1050
   23MPD2    H2  358   0.569   2.449  14.451  0.4056  0.2848 -0.8961
   23MPD2    H3  359   0.578   2.546  14.233 -0.0326  0.1991 -0.2508
   23MPD2     N  360   0.257   2.841  14.309  0.4702  0.4755 -0.4737
   23MPD2    H5  361   0.260   2.871  14.212 -0.0448 -0.1161 -0.6748
   23MPD2    N1  362   0.404   2.538  14.657 -0.1466  0.1255  0.6098
   23MPD2    H7  363   0.325   2.584  14.701  0.0437  2.2689 -1.3193
   24TCq2    C1  364   0.176   2.924  14.385 -0.0547  0.4458  0.6914
   24TCq2    O2  365   0.187   2.947  14.507 -0.2946 -0.9367  0.4298
   24TCq2    C2  366   0.070   2.993  14.306  0.3511  0.0626  0.2649
   24TCq2    C3  367   0.005   3.091  14.379 -0.1999  0.3757 -0.1087
   24TCq2    C4  368   4.603   3.133  14.335  0.3892 -0.5546 -0.9527
   24TCq2    C5  369   4.539   3.081  14.231 -0.4985 -0.9193 -0.1150
   24TCq2    C6  370   4.603   2.978  14.166 -0.5106  0.3459 -0.0794
   24TCq2    C7  371   0.003   2.927  14.205  0.8130 -0.4687 -0.5411
   24TCq2    C8  372   4.556   2.942  14.035  0.5801  0.2749  0.4397
   24TCq2    O4  373   4.639   2.931  13.942  0.4635 -0.8296 -0.6120
   24TCq2    C9  374   4.537   3.241  14.405  0.4400 -0.3303  0.4318
   24TCq2    O5  375   4.601   3.346  14.438 -0.8501  0.1076  0.0485
   24TCq2    O6  376   4.412   3.244  14.383 -0.3288 -0.9726  0.0614
   24TCq2    H2  377   0.049   3.132  14.469 -0.1376 -0.5473  0.2833
   24TCq2    H3  378   4.446   3.129  14.203  0.2146 -0.0480 -1.0212
   24TCq2    H4  379   0.056   2.848  14.154  1.9729  0.7062 -1.1419
   25TMC2    C1  380   4.067   0.337  11.573  0.3008 -0.2700  0.4080
   25TMC2    C2  381   4.187   0.408  11.584 -0.3389 -0.0878 -0.3747
   25TMC2    C3  382   4.234   0.452  11.704 -0.4956  0.3246 -0.5220
   25TMC2    C4  383   3.990   0.309  11.681  0.0088 -0.3221 -0.7789
   25TMC2    C5  384   4.039   0.357  11.800 -0.9695 -0.2519  0.1272
   25TMC2    C6  385   4.151   0.432  11.805  0.2804  0.4079 -0.1780
   25TMC2     C  386   4.053   0.260  11.453 -0.2231  0.6811 -0.1409
   25TMC2     O  387   4.133   0.285  11.362  0.1040 -0.8203  0.3332
   25TMC2     H  388   4.238   0.427  11.490 -1.4409 -2.4833 -1.4746
   25TMC2    H1  389   3.902   0.246  11.671 -1.0584  1.0961 -0.3085
   25TMC2    H2  390   4.185   0.474  11.899 -1.7648 -1.1291  1.2405
   25TMC2    C7  391   3.941   0.370  11.902 -0.0815 -0.5435  0.2723
   25TMC2    C8  392   4.337   0.556  11.705 -1.1868  0.4379  0.0130
   25TMC2    O1  393   3.975   0.373  12.018  0.3151  0.0320  0.0585
   25TMC2    O2  394   4.330   0.668  11.762  0.0978 -0.2738  0.1258
   25TMC2    O5  395   4.429   0.515  11.612  0.1884  0.3587 -0.2735
   25TMC2    H5  396   4.431   0.417  11.605 -1.4279  0.3380 -0.3692
   26MPD2     C  397   3.813   4.662  11.123  0.3699  0.0428  0.0577
   26MPD2    C1  398   3.739   4.660  11.243  0.1603 -0.3334  0.4333
   26MPD2    C2  399   3.789   0.011  11.353 -0.1311 -0.3715  0.1079
   26MPD2    C3  400   3.901   0.093  11.337  1.1066 -0.0336 -0.1214
   26MPD2    C4  401   3.953   0.105  11.212 -0.1719 -0.2520 -0.6322
   26MPD2    C5  402   3.915   0.030  11.105  0.1575  0.0800 -0.2666
   26MPD2     H  403   3.733   0.012  11.446 -1.8912  1.4280 -0.9608
   26MPD2    H1  404   4.037   0.171  11.194  0.6716 -1.6336 -1.7818
   26MPD2    H2  405   3.788   4.606  11.033  0.7341  1.7171 -1.0866
   26MPD2    H3  406   3.958   0.048  11.007  1.2580 -0.6253  0.0934
   26MPD2     N  407   3.948   0.174  11.444 -0.8193 -0.0643 -0.1799
   26MPD2    H5  408   3.892   0.163  11.527 -0.8743 -1.3943 -0.4033
   26MPD2    N1  409   3.632   4.568  11.241  0.3604  0.4909 -0.4687
   26MPD2    H7  410   3.614   4.523  11.152  0.2805  0.0100 -0.2115
   27TMC2    C1  411   2.187   1.973  11.808 -0.2357  0.0263  0.4935
   27TMC2    C2  412   2.235   1.984  11.682  0.7037 -0.6229  0.3001
   27TMC2    C3  413   2.229   2.106  11.616  0.1312  0.1359  0.2951
   27TMC2    C4  414   2.137   2.087  11.869  0.3769 -0.5742  0.3056
   27TMC2    C5  415   2.150   2.210  11.814 -0.0841  0.4486 -0.0571
   27TMC2    C6  416   2.204   2.225  11.687 -0.0444  0.0829 -0.5330
   27TMC2     C  417   2.239   1.864  11.891  0.3066 -0.3704 -0.0769
   27TMC2     O  418   2.279   1.761  11.836 -0.0802  0.3955  0.3464
   27TMC2     H  419   2.286   1.899  11.637 -2.0332  0.6477 -5.1653
   27TMC2    H1  420   2.097   2.077  11.969 -0.8011  2.7455  0.1340
   27TMC2    H2  421   2.225   2.319  11.637  1.7751  0.3612  0.7568
   27TMC2    C7  422   2.192   2.300  11.912  0.9936  0.0744  0.8674
   27TMC2    C8  423   2.292   2.116  11.482 -0.4292  0.3353  0.0694
   27TMC2    O1  424   2.223   2.251  12.016 -0.3416 -0.1913  0.1077
   27TMC2    O2  425   2.329   2.224  11.440 -0.5436  0.0824  0.0515
   27TMC2    O5  426   2.283   1.995  11.421  0.0453 -0.1697 -0.3341
   27TMC2    H5  427   2.214   1.942  11.467 -1.1482  1.9287  0.3036
   28MPD2     C  428   2.295   1.707  12.374 -0.0315  0.4401 -0.3308
   28MPD2    C1  429   2.283   1.849  12.381  0.1874 -0.8686 -0.2319
   28MPD2    C2  430   2.290   1.915  12.257  0.4412  0.4137  0.3535
   28MPD2    C3  431   2.294   1.840  12.134 -0.9128  0.2112  0.4496
   28MPD2    C4  432   2.314   1.701  12.132  0.1302  0.3005  0.0564
   28MPD2    C5  433   2.306   1.640  12.257 -0.2516 -0.1502 -0.2317
   28MPD2     H  434   2.266   2.020  12.245  1.1175  0.4343 -0.8211
   28MPD2    H1  435   2.315   1.632  12.048  1.1242 -1.5676  1.5928
   28MPD2    H2  436   2.290   1.649  12.466  1.6860  0.3996 -0.2689
   28MPD2    H3  437   2.325   1.533  12.257 -2.8264 -0.5887 -0.5288
   28MPD2     N  438   2.269   1.915  12.018 -0.0351 -0.3748  0.3993
   28MPD2    H5  439   2.265   2.015  12.034  0.2936 -0.3496  0.3280
   28MPD2    N1  440   2.255   1.912  12.509 -0.1239  0.0636  0.1637
   28MPD2    H7  441   2.264   1.850  12.589  1.4613 -0.1970 -0.2278
   29MPD2     C  442   2.345   0.080  14.661 -0.2316  0.5763 -0.8538
   29MPD2    C1  443   2.477   0.047  14.638 -0.3384  0.9679 -0.1024
   29MPD2    C2  444   2.576   0.133  14.675 -0.7965 -0.0003  0.1962
   29MPD2    C3  445   2.545   0.253  14.734  0.2827 -0.9443 -0.1573
   29MPD2    C4  446   2.414   0.277  14.766  0.4050 -0.0398  0.2015
   29MPD2    C5  447   2.308   0.194  14.729  0.3286  0.1296 -0.7978
   29MPD2     H  448   2.674   0.120  14.630 -0.5805 -0.0575  0.6874
   29MPD2    H1  449   2.393   0.374  14.810 -0.3101  0.0175 -0.2587
   29MPD2    H2  450   2.267   0.016  14.624 -0.0860 -0.3458  0.4010
   29MPD2    H3  451   2.208   0.221  14.760  0.8478  0.4601  0.6268
   29MPD2     N  452   2.639   0.360  14.760  0.1033  0.5374 -0.3294
   29MPD2    H5  453   2.597   0.433  14.816 -0.8325 -0.5119  0.3459
   29MPD2    N1  454   2.528   4.657  14.561  0.0554 -0.1285 -0.0689
   29MPD2    H7  455   2.628   4.657  14.548 -0.2371  0.8944 -2.4576
   30TCq2    C1  456   2.774   0.359  14.727 -0.0162  0.0140 -0.3738
   30TCq2    O2  457   2.836   0.271  14.667  0.8337  0.6891 -0.5045
   30TCq2    C2  458   2.850   0.474  14.780 -1.4051  0.2572  0.5464
   30TCq2    C3  459   2.825   0.531  14.905 -0.1125  0.0383  0.4149
   30TCq2    C4  460   2.884   0.649  14.939 -0.3217 -0.4524  0.0914
   30TCq2    C5  461   2.965   0.712  14.853 -0.8385 -0.4357  0.5558
   30TCq2    C6  462   2.998   0.649  14.734 -0.1536  0.0701  0.4696
   30TCq2    C7  463   2.946   0.532  14.697  1.6900  0.0372 -0.5920
   30TCq2    C8  464   3.069   0.718  14.626  0.0687  0.2012 -0.6351
   30TCq2    O4  465   3.057   0.668  14.513  0.6949  0.5575  0.1085
   30TCq2    C9  466   2.858   0.695  15.078 -0.9763 -0.4214 -0.1159
   30TCq2    O5  467   2.867   0.821  15.093  0.1447  0.2917  0.5554
   30TCq2    O6  468   2.814   0.610  15.161  0.2088  0.4595  0.0421
   30TCq2    H2  469   2.755   0.481  14.971 -1.8633 -0.0984 -1.5415
   30TCq2    H3  470   3.017   0.800  14.889  0.2974  0.4031 -3.1017
   30TCq2    H4  471   2.973   0.482  14.605  0.7001 -1.7838  0.0948
   31MPD2     C  472   0.641   3.462  14.917  0.1534  0.3759 -0.0648
   31MPD2    C1  473   0.523   3.498  14.869  0.0298 -0.8672  0.1091
   31MPD2    C2  474   0.413   3.505  14.957  0.8290  0.3135  0.3179
   31MPD2    C3  475   0.429   3.468  15.085 -0.3911  0.9392  0.9306
   31MPD2    C4  476   0.554   3.430  15.128 -0.1373  0.3955 -0.5459
   31MPD2    C5  477   0.662   3.419  15.040 -0.0287 -0.5752 -0.8482
   31MPD2     H  478   0.313   3.519  14.920 -0.1411 -1.4451  2.2506
   31MPD2    H1  479   0.578   3.416  15.233 -1.3824  1.2143 -0.1564
   31MPD2    H2  480   0.733   3.462  14.860 -1.1533 -0.7210 -2.2214
   31MPD2    H3  481   0.763   3.400  15.077 -0.5387  0.0548  0.8375
   31MPD2     N  482   0.317   3.477  15.178 -0.0394 -0.1301 -0.2481
   31MPD2    H5  483   0.339   3.436  15.268 -0.4468 -1.3555 -0.7132
   31MPD2    N1  484   0.529   3.556  14.740 -0.4122 -0.1332  0.9191
   31MPD2    H7  485   0.617   3.542  14.691  0.6887 -3.0992  3.7099
   32TCq2    C1  486   0.185   3.512  15.156 -0.4300  0.2233  0.4252
   32TCq2    O2  487   0.140   3.580  15.062  0.7029 -0.0630  0.1340
   32TCq2    C2  488   0.090   3.472  15.261  0.0737  0.1987 -0.5662
   32TCq2    C3  489   4.697   3.539  15.258  0.5335 -0.1476 -0.4318
   32TCq2    C4  490   4.606   3.545  15.365  0.0940 -0.1136  0.2856
   32TCq2    C5  491   4.639   3.480  15.481 -0.5002 -0.4346 -0.1172
   32TCq2    C6  492   0.038   3.412  15.485 -0.1296  0.1043 -0.4197
   32TCq2    C7  493   0.130   3.417  15.381 -0.0785 -0.5918 -0.3314
   32TCq2    C8  494   0.091   3.386  15.616 -0.1928 -0.5696  0.3368
   32TCq2    O4  495   0.177   3.305  15.630 -0.7608 -0.1390  0.1971
   32TCq2    C9  496   4.481   3.610  15.345 -0.3488  0.3483  0.1478
   32TCq2    O5  497   4.425   3.653  15.448 -0.8312 -0.9338  0.3402
   32TCq2    O6  498   4.443   3.620  15.226 -0.3441 -0.0410 -0.0568
   32TCq2    H2  499   4.669   3.580  15.162  1.5979  1.1713 -0.1818
   32TCq2    H3  500   4.567   3.475  15.561  2.7652 -1.8957  2.7260
   32TCq2    H4  501   0.228   3.375  15.400 -0.0364  0.1507  1.0507
   33MPD2     C  502   0.893   1.424  10.313 -0.7229  0.1646  0.0954
   33MPD2    C1  503   0.770   1.394  10.266  0.1652  0.4590  0.5353
   33MPD2    C2  504   0.692   1.496  10.199  0.2961  0.3462  0.3534
   33MPD2    C3  505   0.749   1.626  10.181  0.0753  0.9006 -0.4277
   33MPD2    C4  506   0.872   1.649  10.243 -0.4156  0.1781 -0.1001
   33MPD2    C5  507   0.949   1.550  10.293 -0.1263 -0.2260  0.0615
   33MPD2     H  508   0.596   1.466  10.157  0.9760 -0.0955 -0.8925
   33MPD2    H1  509   0.934   1.734  10.218  0.1881 -1.2920 -3.6404
   33MPD2    H2  510   0.955   1.347  10.355 -1.0705  0.2842  0.8175
   33MPD2    H3  511   1.050   1.570  10.326 -0.3787  0.5925  0.3192
   33MPD2     N  512   0.705   1.726  10.096  0.3820  0.3596  0.4859
   33MPD2    H5  513   0.754   1.814  10.104 -1.4805  1.5197 -0.7654
   33MPD2    N1  514   0.721   1.263  10.291  0.3053  0.0855  0.2086
   33MPD2    H7  515   0.784   1.201  10.341  0.8215  0.8655  0.5120
   34TCq2    C1  516   0.590   1.718  10.013  0.1575  0.6203  0.0434
   34TCq2    O2  517   0.524   1.620   9.982 -0.0319  0.0432 -0.0671
   34TCq2    C2  518   0.578   1.841   9.927 -0.1112 -0.1011 -0.6837
   34TCq2    C3  519   0.505   1.827   9.806 -0.3067  0.2211  0.5731
   34TCq2    C4  520   0.499   1.938   9.733  0.2908 -0.4115  0.4062
   34TCq2    C5  521   0.531   2.065   9.776 -0.7098 -0.8339  0.2435
   34TCq2    C6  522   0.591   2.074   9.896  0.2666 -0.0582 -0.2224
   34TCq2    C7  523   0.610   1.964   9.979 -0.0399 -0.2096 -0.0853
   34TCq2    C8  524   0.637   2.202   9.953 -1.0704 -0.3241 -0.3675
   34TCq2    O4  525   0.633   2.305   9.885  0.2880 -0.2237  0.5621
   34TCq2    C9  526   0.434   1.935   9.605  0.7077 -0.3003  0.1793
   34TCq2    O5  527   0.354   1.838   9.602 -0.5632 -0.5146  0.4664
   34TCq2    O6  528   0.484   2.004   9.513  0.5814  0.5281  0.3835
   34TCq2    H2  529   0.464   1.732   9.773  0.5833 -0.0019  0.0986
   34TCq2    H3  530   0.490   2.153   9.729 -0.6777 -2.1405 -2.2312
   34TCq2    H4  531   0.683   1.967  10.059 -1.0810  2.4994  0.7637
   35MPD2     C  532   2.059   3.041  12.182 -0.0896  0.0366 -0.3166
   35MPD2    C1  533   2.020   2.909  12.160 -0.6925  0.2863  0.0875
   35MPD2    C2  534   1.946   2.881  12.046 -1.0416  0.2824 -0.0248
   35MPD2    C3  535   1.930   2.982  11.956  0.1810  0.5374  0.2164
   35MPD2    C4  536   1.980   3.113  11.974  0.1596  0.0594  0.2569
   35MPD2    C5  537   2.039   3.144  12.093 -0.1192  0.3139  0.5950
   35MPD2     H  538   1.919   2.779  12.022 -1.2643  0.2903  0.1858
   35MPD2    H1  539   1.961   3.199  11.911  1.9953  1.4131  1.5468
   35MPD2    H2  540   2.081   3.075  12.282  0.4232 -1.0951 -0.0435
   35MPD2    H3  541   2.054   3.247  12.122 -0.5880  0.2477  1.0784
   35MPD2     N  542   1.871   2.953  11.826 -1.0227 -0.5606 -0.5138
   35MPD2    H5  543   1.831   2.860  11.826 -0.0852 -0.9721  2.4813
   35MPD2    N1  544   2.043   2.808  12.259  0.7248 -0.3887 -0.0773
   35MPD2    H7  545   2.096   2.840  12.340  1.1725  2.4820 -1.4858
   36TCq2    C1  546   1.847   3.035  11.716 -0.0282 -1.1954 -0.8219
   36TCq2    O2  547   1.888   3.150  11.697 -0.5885  0.0221  0.0057
   36TCq2    C2  548   1.793   2.968  11.597  0.2383  0.1041 -0.4464
   36TCq2    C3  549   1.791   3.046  11.490  0.5462  0.2630 -0.5966
   36TCq2    C4  550   1.720   3.007  11.374 -0.1635  0.1468  0.4208
   36TCq2    C5  551   1.653   2.888  11.371 -0.2075  0.3268  0.5690
   36TCq2    C6  552   1.649   2.812  11.491 -0.7849 -0.3448  0.4287
   36TCq2    C7  553   1.725   2.850  11.601  0.6227  0.0395  0.4811
   36TCq2    C8  554   1.579   2.686  11.492 -0.2939  0.8307 -0.0894
   36TCq2    O4  555   1.595   2.608  11.582  0.6650  0.1652 -0.3045
   36TCq2    C9  556   1.722   3.084  11.245  0.7926 -0.0356 -0.0216
   36TCq2    O5  557   1.826   3.147  11.209 -0.7856  0.2211 -0.0761
   36TCq2    O6  558   1.624   3.063  11.172  0.1869 -0.0918 -0.3693
   36TCq2    H2  559   1.845   3.140  11.480  2.3032 -0.5995  0.9889
   36TCq2    H3  560   1.595   2.874  11.281  0.7852 -0.5111  0.0601
   36TCq2    H4  561   1.711   2.792  11.692  2.2121 -2.7416 -1.0379
   37TMC2    C1  562   3.916   2.982  11.620  0.1898 -0.4516  0.8319
   37TMC2    C2  563   3.924   3.010  11.486  0.0544 -0.2555 -0.1148
   37TMC2    C3  564   4.033   3.068  11.438  0.1464 -0.2984  0.3674
   37TMC2    C4  565   4.020   3.000  11.707  0.5247  0.7348 -0.3036
   37TMC2    C5  566   4.130   3.060  11.653  0.3685  0.6196 -0.1394
   37TMC2    C6  567   4.130   3.098  11.523  0.0375  0.6446  0.0261
   37TMC2     C  568   3.780   2.960  11.678  0.4461 -0.2656 -1.1057
   37TMC2     O  569   3.686   2.960  11.595  0.1865 -0.5939  0.2237
   37TMC2     H  570   3.831   3.016  11.430 -0.1384  1.7272  0.4049
   37TMC2    H1  571   4.020   2.974  11.813 -0.2065  1.7142 -0.0600
   37TMC2    H2  572   4.215   3.142  11.474 -0.0293  1.1273  0.3471
   37TMC2    C7  573   4.253   3.064  11.728 -0.1469 -0.1540  0.1256
   37TMC2    C8  574   4.059   3.112  11.300 -0.0297  0.1225  0.0849
   37TMC2    O1  575   4.244   3.024  11.842  0.6487  0.3055  0.1862
   37TMC2    O2  576   4.125   3.208  11.267  0.1271 -0.2410  0.6255
   37TMC2    O5  577   3.954   3.069  11.232 -0.8635  0.1421  0.4387
   37TMC2    H5  578   3.913   2.986  11.263 -0.4467 -0.0073  0.5879
   38MPD2     C  579   3.464   2.929  12.086 -0.0357  0.3590 -0.5419
   38MPD2    C1  580   3.590   2.904  12.138 -0.7145 -0.3002 -0.1293
   38MPD2    C2  581   3.692   2.904  12.039 -0.0701  0.1428  0.4766
   38MPD2    C3  582   3.662   2.923  11.900  0.3889  0.8897  0.5998
   38MPD2    C4  583   3.534   2.950  11.860  0.0797  0.1772  0.5194
   38MPD2    C5  584   3.437   2.936  11.952  0.4799  0.9748  0.5800
   38MPD2     H  585   3.793   2.895  12.078 -1.0332 -3.0168  2.2695
   38MPD2    H1  586   3.497   2.967  11.759 -2.9269 -0.3950  1.5482
   38MPD2    H2  587   3.381   2.946  12.153  0.9271  1.0935  0.4896
   38MPD2    H3  588   3.345   2.974  11.908  1.5115  1.0155 -1.5427
   38MPD2     N  589   3.779   2.930  11.815  0.4660 -0.9701  0.8330
   38MPD2    H5  590   3.868   2.907  11.857  1.0046  0.2902  0.3682
   38MPD2    N1  591   3.623   2.891  12.273 -0.3501 -0.4867 -0.1143
   38MPD2    H7  592   3.722   2.873  12.287 -0.7529 -1.5102  1.3404
   39MPD2     C  593   2.587   0.134   1.200  0.8350 -0.3747  0.1573
   39MPD2    C1  594   2.506   0.228   1.257 -0.6038 -0.0360  0.2340
   39MPD2    C2  595   2.368   0.206   1.258  0.0865 -0.4841 -0.1160
   39MPD2    C3  596   2.313   0.090   1.205 -0.2438 -0.6399  0.1762
   39MPD2    C4  597   2.400   4.714   1.168  0.5947  0.1058 -0.0904
   39MPD2    C5  598   2.533   0.016   1.165 -0.2841  0.3239  0.1147
   39MPD2     H  599   2.306   0.286   1.298 -1.2160 -1.1747 -0.7482
   39MPD2    H1  600   2.373   4.621   1.118  2.6976  0.0123 -1.0411
   39MPD2    H2  601   2.694   0.144   1.188  0.8418 -0.9326 -0.2645
   39MPD2    H3  602   2.596   4.667   1.115 -0.5889  0.1040  0.0462
   39MPD2     N  603   2.176   0.073   1.170  0.5731  0.6433 -0.0521
   39MPD2    H5  604   2.165   4.712   1.114 -0.3397  0.1830  0.8031
   39MPD2    N1  605   2.565   0.338   1.329  0.3821  0.2585 -0.5563
   39MPD2    H7  606   2.665   0.342   1.317  0.4945  0.3650  0.3896
   40TCq2    C1  607   2.504   0.430   1.416  0.6550  0.5034  0.5022
   40TCq2    O2  608   2.383   0.442   1.445  0.6813 -0.6269 -0.1494
   40TCq2    C2  609   2.597   0.499   1.491  0.0921  0.5523  0.0717
   40TCq2    C3  610   2.555   0.620   1.536  0.7344 -0.8308 -0.6939
   40TCq2    C4  611   2.652   0.701   1.594  1.0373  0.3860 -0.5703
   40TCq2    C5  612   2.782   0.679   1.570 -0.4602  0.1998  0.2454
   40TCq2    C6  613   2.818   0.557   1.524  0.0587  0.0719 -0.0943
   40TCq2    C7  614   2.727   0.461   1.488  0.3362 -0.4859  0.8078
   40TCq2    C8  615   2.969   0.528   1.507  0.3699 -0.5419  0.5194
   40TCq2    O4  616   3.008   0.423   1.455  0.4035  0.0113 -0.4270
   40TCq2    C9  617   2.622   0.836   1.639 -0.4485 -0.2547 -0.2084
   40TCq2    O5  618   2.716   0.903   1.690 -0.4084  0.1173 -0.1174
   40TCq2    O6  619   2.500   0.855   1.654  0.1876  0.5776 -0.4342
   40TCq2    H2  620   2.450   0.647   1.529  0.6607 -1.3054 -1.3731
   40TCq2    H3  621   2.845   0.766   1.585  0.7652 -0.9675  1.7634
   40TCq2    H4  622   2.765   0.365   1.454  1.4783  0.0366  0.5978
   41TMC2    C1  623   0.815   2.534  13.650  0.4892  0.1871 -0.3239
   41TMC2    C2  624   0.765   2.653  13.697 -0.1252 -0.1349  0.2259
   41TMC2    C3  625   0.768   2.750  13.601  0.2410 -1.6515  0.2615
   41TMC2    C4  626   0.810   2.501  13.521  0.1512 -0.1649 -0.9177
   41TMC2    C5  627   0.793   2.600  13.428  0.1677  0.0530 -0.4296
   41TMC2    C6  628   0.781   2.733  13.461 -1.1578 -0.3144 -0.3465
   41TMC2     C  629   0.896   2.460  13.732 -0.1354 -0.3697 -0.0524
   41TMC2     O  630   0.884   2.338  13.717 -0.3044 -0.1198  0.4225
   41TMC2     H  631   0.779   2.674  13.803  2.8330 -0.8995  0.0006
   41TMC2    H1  632   0.826   2.398  13.490  0.4552  0.2224 -2.0786
   41TMC2    H2  633   0.772   2.817  13.393  0.2993 -0.5042 -0.7800
   41TMC2    C7  634   0.765   2.548  13.296  0.2185  0.5992  0.3255
   41TMC2    C8  635   0.771   2.891  13.650  0.0405 -0.0431  0.0076
   41TMC2    O1  636   0.740   2.430  13.283 -0.3300 -1.0381  0.5737
   41TMC2    O2  637   0.717   2.922  13.752 -0.5706 -0.3139  0.4019
   41TMC2    O5  638   0.883   2.949  13.593  0.0641 -0.5494  0.2419
   41TMC2    H5  639   0.939   2.893  13.536  0.9107 -0.5078  1.0472
   42MPD2     C  640   1.106   2.374  13.921  0.6270  0.0282  0.7653
   42MPD2    C1  641   1.073   2.507  13.900  0.7553  0.9427  0.6333
   42MPD2    C2  642   1.148   2.606  13.968  0.1528  0.1491 -0.2344
   42MPD2    C3  643   1.225   2.582  14.075  0.3565  0.0904 -0.6436
   42MPD2    C4  644   1.240   2.448  14.109  0.2249  0.3898 -0.7441
   42MPD2    C5  645   1.185   2.343  14.032 -0.0094  0.7999  0.0458
   42MPD2     H  646   1.140   2.711  13.943 -1.4335 -0.1180 -0.7850
   42MPD2    H1  647   1.301   2.422  14.195 -2.6584 -2.3610  0.4817
   42MPD2    H2  648   1.075   2.291  13.859  0.6719  0.2094  0.5025
   42MPD2    H3  649   1.208   2.239  14.053 -4.2107  0.0462  0.8875
   42MPD2     N  650   1.294   2.679  14.147  0.2750 -0.3222 -0.0492
   42MPD2    H5  651   1.346   2.643  14.226  0.2131 -0.4210 -0.0532
   42MPD2    N1  652   0.975   2.545  13.805  0.0111 -0.9633  0.5631
   42MPD2    H7  653   0.976   2.643  13.779 -0.3801 -0.9372  0.6526
   43MPD2     C  654   2.906   1.736   0.551 -0.1109 -1.0258 -0.1771
   43MPD2    C1  655   2.907   1.594   0.568 -1.1149 -0.4990  0.4836
   43MPD2    C2  656   2.832   1.537   0.674  0.4064  0.3727  0.4321
   43MPD2    C3  657   2.757   1.617   0.760  0.1039  0.1047  0.8822
   43MPD2    C4  658   2.759   1.757   0.731 -0.1255 -0.5679  0.0873
   43MPD2    C5  659   2.827   1.818   0.629 -0.3382 -0.4036  0.1763
   43MPD2     H  660   2.843   1.430   0.689  2.3389  0.7015  1.3797
   43MPD2    H1  661   2.707   1.818   0.804 -1.2112 -2.1018  0.5878
   43MPD2    H2  662   2.980   1.785   0.489 -0.7135  1.5127  1.0723
   43MPD2    H3  663   2.829   1.926   0.617  1.7075 -0.5971 -1.0859
   43MPD2     N  664   2.676   1.562   0.865  0.0787  0.1402  0.2397
   43MPD2    H5  665   2.621   1.625   0.923  1.4822 -0.1130  1.8539
   43MPD2    N1  666   3.003   1.511   0.508  0.4743  0.1026 -0.0402
   43MPD2    H7  667   3.009   1.420   0.552  0.8794 -0.2347 -0.7896
   44TCq2    C1  668   2.587   1.502   1.361 -0.5410 -0.3347 -0.0750
   44TCq2    O2  669   2.656   1.601   1.355 -0.0415 -0.3512  0.1850
   44TCq2    C2  670   2.560   1.430   1.235 -0.4202  0.3164 -0.7614
   44TCq2    C3  671   2.450   1.353   1.234  0.6514  0.2028 -0.1866
   44TCq2    C4  672   2.418   1.289   1.122 -0.2682 -0.4119  0.1355
   44TCq2    C5  673   2.477   1.314   1.003  0.1231  0.0888  0.5121
   44TCq2    C6  674   2.578   1.406   1.004 -0.2382 -0.1647 -0.6570
   44TCq2    C7  675   2.627   1.467   1.122 -0.0853  0.4564 -0.2890
   44TCq2    C8  676   2.654   1.431   0.884  1.1259  0.2971 -0.1440
   44TCq2    O4  677   2.678   1.338   0.813  0.2851 -0.2558 -0.1346
   44TCq2    C9  678   2.317   1.194   1.126 -0.2998  0.6240 -0.0252
   44TCq2    O5  679   2.235   1.192   1.223  0.2229 -0.0690 -1.1525
   44TCq2    O6  680   2.303   1.110   1.033 -0.1249  0.2272 -0.1747
   44TCq2    H2  681   2.388   1.335   1.321  2.1601  0.2191  0.9038
   44TCq2    H3  682   2.436   1.265   0.915  0.0775  1.1621 -0.0555
   44TCq2    H4  683   2.720   1.522   1.122  0.6085 -0.7472  2.5039
   45TMC2    C1  684   2.922   3.568   9.227  0.3576 -0.2573  0.5437
   45TMC2    C2  685   2.901   3.584   9.089  0.5460 -0.6533 -0.5734
   45TMC2    C3  686   2.940   3.701   9.032  0.1000  0.3205 -0.6588
   45TMC2    C4  687   2.980   3.661   9.304 -0.6045 -0.0685  0.6352
   45TMC2    C5  688   3.025   3.779   9.239  0.1305  0.3268  0.3757
   45TMC2    C6  689   3.013   3.797   9.102  0.3949 -0.3104  0.1377
   45TMC2     C  690   2.925   3.423   9.263 -0.3192 -0.3776 -0.1396
   45TMC2     O  691   3.005   3.388   9.349 -0.3703 -0.0425  0.4754
   45TMC2     H  692   2.871   3.502   9.024 -1.1456  0.4843 -1.2259
   45TMC2    H1  693   2.979   3.645   9.411 -2.3536 -0.8527  0.4965
   45TMC2    H2  694   3.043   3.886   9.046  1.1106  0.6041  1.9778
   45TMC2    C7  695   3.018   3.903   9.309  0.3179  0.6439  0.6607
   45TMC2    C8  696   2.915   3.708   8.888 -0.2299  0.3082  0.4499
   45TMC2    O1  697   2.999   3.993   9.231 -0.2623 -0.0546 -0.5391
   45TMC2    O2  698   2.918   3.610   8.816  0.3918  0.0985 -0.4254
   45TMC2    O5  699   2.828   3.813   8.865 -0.0209  0.0646  0.4327
   45TMC2    H5  700   2.819   3.883   8.933  1.1333 -0.5905  1.2731
   46MPD2     C  701   2.928   3.138   9.183  0.7358  0.2290  0.4811
   46MPD2    C1  702   2.822   3.225   9.161 -0.0136  0.5603 -0.0118
   46MPD2    C2  703   2.702   3.178   9.116  0.3592  0.1344  0.0403
   46MPD2    C3  704   2.684   3.044   9.093  0.1719  0.6939  0.1436
   46MPD2    C4  705   2.785   2.953   9.111 -0.3621 -0.8096 -0.3527
   46MPD2    C5  706   2.906   3.001   9.150 -0.1766  0.2801 -0.0215
   46MPD2     H  707   2.620   3.249   9.109 -0.7998 -1.1021  1.0874
   46MPD2    H1  708   2.771   2.846   9.116 -1.1850 -0.6283  1.4014
   46MPD2    H2  709   3.025   3.177   9.211  1.2226 -0.9849  0.4850
   46MPD2    H3  710   2.989   2.934   9.166  0.3251  1.0941  0.8207
   46MPD2     N  711   2.561   3.002   9.045  0.3102 -0.1278  1.0192
   46MPD2    H5  712   2.496   3.080   9.047  1.5521  0.9639 -1.1665
   46MPD2    N1  713   2.826   3.359   9.196  0.1721 -0.7633 -0.3820
   46MPD2    H7  714   2.753   3.418   9.157  0.7865  0.9627  1.1214
   47TMC2    C1  715   0.115   4.426   9.841  0.1029 -0.6365 -0.4924
   47TMC2    C2  716   0.086   4.339   9.948 -0.2283 -0.4029 -0.1941
   47TMC2    C3  717   4.685   4.292   9.957  0.5170  0.1544  0.1886
   47TMC2    C4  718   0.023   4.471   9.753 -0.0165  0.0006  0.0482
   47TMC2    C5  719   4.618   4.411   9.757 -0.4286 -0.0445  0.2579
   47TMC2    C6  720   4.588   4.326   9.866  0.0316 -0.2596 -0.1973
   47TMC2     C  721   0.254   4.452   9.813 -0.8130 -0.1397  0.5491
   47TMC2     O  722   0.280   4.559   9.762 -0.1049 -0.2561 -0.5856
   47TMC2     H  723   0.162   4.312  10.020 -1.0525  1.3362  1.3384
   47TMC2    H1  724   0.064   4.523   9.668 -1.9066  1.7773  0.2358
   47TMC2    H2  725   4.486   4.290   9.867 -0.0222 -0.0986 -0.0212
   47TMC2    C7  726   4.538   4.395   9.630 -0.0201  0.0709 -0.3238
   47TMC2    C8  727   4.637   4.212  10.065 -0.1177 -0.2015  0.3443
   47TMC2    O1  728   4.430   4.338   9.649  0.2523 -0.0776 -0.2989
   47TMC2    O2  729   4.516   4.204  10.079  0.6482 -0.6104  0.5288
   47TMC2    O5  730   0.005   4.111  10.078  0.0554 -0.2653 -0.2703
   47TMC2    H5  731   0.096   4.116  10.040  0.6211 -2.1661  0.8618
   48MPD2     C  732   0.555   4.461   9.755  0.6969 -0.5545 -0.4183
   48MPD2    C1  733   0.487   4.351   9.812 -0.4053  0.5054  0.3833
   48MPD2    C2  734   0.566   4.247   9.841 -0.5293  1.2185 -0.3954
   48MPD2    C3  735   0.701   4.236   9.818  0.7547  0.6707 -0.0351
   48MPD2    C4  736   0.758   4.345   9.749 -0.0875  0.1507  0.0410
   48MPD2    C5  737   0.687   4.460   9.724 -0.1251 -0.2386 -0.7574
   48MPD2     H  738   0.513   4.165   9.888 -1.3421  1.6024 -0.6547
   48MPD2    H1  739   0.862   4.334   9.720 -0.5260 -0.5119 -1.3034
   48MPD2    H2  740   0.494   4.548   9.732 -1.0419 -1.8405 -0.7530
   48MPD2    H3  741   0.739   4.546   9.683  1.7267 -1.6326 -1.3803
   48MPD2     N  742   0.765   4.111   9.847 -0.1384 -0.4896 -0.7217
   48MPD2    H5  743   0.699   4.040   9.876 -0.3428 -0.1596 -0.3723
   48MPD2    N1  744   0.341   4.346   9.832  0.2438 -0.1073  0.7186
   48MPD2    H7  745   0.309   4.261   9.878 -0.4949  0.4713  1.2786
   49MPD2     C  746   3.809   0.747   9.889  0.1175 -0.1002  0.2621
   49MPD2    C1  747   3.813   0.635   9.973  0.4512  0.0695 -0.9728
   49MPD2    C2  748   3.882   0.647  10.098  0.3873 -1.1292  0.2085
   49MPD2    C3  749   3.955   0.762  10.131  0.4720  0.3813 -0.3630
   49MPD2    C4  750   3.958   0.860  10.035 -0.4536  0.3113  0.5087
   49MPD2    C5  751   3.883   0.855   9.919 -0.3839  0.0495  0.0073
   49MPD2     H  752   3.893   0.565  10.168 -1.1136 -1.0517  0.5480
   49MPD2    H1  753   4.014   0.951  10.056 -1.4571  1.2082 -0.6917
   49MPD2    H2  754   3.753   0.751   9.797 -0.4155 -1.5976  0.5167
   49MPD2    H3  755   3.868   0.940   9.854 -0.3733  0.4487  0.5342
   49MPD2     N  756   4.027   0.792  10.243  0.4481  0.1418  0.6231
   49MPD2    H5  757   4.071   0.882  10.257 -0.8359  0.4366  2.8591
   49MPD2    N1  758   3.741   0.519   9.938  0.3770  0.2556  0.1881
   49MPD2    H7  759   3.735   0.440  10.001  0.5626  0.3190  0.2834
   50TCq2    C1  760   3.663   0.505   9.826  0.4171  0.5528  0.2887
   50TCq2    O2  761   3.659   0.571   9.723 -0.6421  0.1260 -0.0686
   50TCq2    C2  762   3.570   0.383   9.829  0.4058  0.3222 -0.5349
   50TCq2    C3  763   3.507   0.345   9.716  0.3699 -0.2121  0.7683
   50TCq2    C4  764   3.434   0.230   9.705  0.0328  0.1301 -0.1928
   50TCq2    C5  765   3.406   0.159   9.816  0.0505 -1.0000  0.7066
   50TCq2    C6  766   3.462   0.207   9.933 -0.2605  0.0305 -0.3814
   50TCq2    C7  767   3.556   0.311   9.942 -0.8050  0.7945  0.2191
   50TCq2    C8  768   3.437   0.126  10.049  0.6746  0.6816  0.4946
   50TCq2    O4  769   3.346   0.041  10.049 -0.1200 -0.1858  0.0412
   50TCq2    C9  770   3.358   0.209   9.587 -0.3494  0.9005  0.4718
   50TCq2    O5  771   3.362   0.300   9.499 -0.4158  0.0487  0.6044
   50TCq2    O6  772   3.282   0.104   9.582  0.0688 -0.1722  0.2335
   50TCq2    H2  773   3.509   0.416   9.634  1.3555 -0.6621  0.4089
   50TCq2    H3  774   3.337   0.076   9.820 -1.2054 -0.0803 -1.9216
   50TCq2    H4  775   3.573   0.375  10.028 -1.3440  1.4255 -0.1394
   51MPD2     C  776   4.535   3.913   1.496 -0.0002 -0.0391 -0.6051
   51MPD2    C1  777   4.468   3.801   1.544 -0.6767  0.5716 -0.5149
   51MPD2    C2  778   4.500   3.764   1.674  0.1197  0.0276  0.3374
   51MPD2    C3  779   4.603   3.829   1.746  0.0502  0.2288  0.2562
   51MPD2    C4  780   4.679   3.925   1.691 -0.4908 -0.3502  0.9546
   51MPD2    C5  781   4.636   3.974   1.574  0.2387  0.2197 -0.5695
   51MPD2     H  782   4.438   3.686   1.716  1.3202  0.0937  2.2290
   51MPD2    H1  783   0.024   3.984   1.752  1.1504 -0.2178 -1.0057
   51MPD2    H2  784   4.512   3.964   1.403  1.8369 -0.3666 -1.2497
   51MPD2    H3  785   4.682   4.066   1.540  1.4829 -0.3410 -0.4063
   51MPD2     N  786   4.619   3.796   1.884  0.2901  0.1004 -0.3217
   51MPD2    H5  787   4.690   3.852   1.930  1.2581  0.1102 -1.8061
   51MPD2    N1  788   4.364   3.737   1.475  0.5924 -0.0689  0.5027
   51MPD2    H7  789   4.318   3.656   1.515 -0.3133  0.5489  0.7328
   52TCq2    C1  790   4.549   3.701   1.954  0.2536  0.0792 -0.2014
   52TCq2    O2  791   4.472   3.613   1.917  0.1274  0.0750 -0.1286
   52TCq2    C2  792   4.588   3.703   2.092  1.0843  0.0382  0.1177
   52TCq2    C3  793   4.539   3.599   2.170 -0.4268 -0.6955  0.5504
   52TCq2    C4  794   4.546   3.595   2.301 -0.5444 -0.2209 -0.8106
   52TCq2    C5  795   4.590   3.709   2.359 -0.1582 -1.1970  0.3624
   52TCq2    C6  796   4.633   3.820   2.287 -0.0064  0.2633 -0.7988
   52TCq2    C7  797   4.628   3.823   2.146 -0.9688 -0.0749  0.2375
   52TCq2    C8  798   4.710   3.918   2.357  0.7696 -0.3613 -0.2443
   52TCq2    O4  799   0.010   4.013   2.288 -0.5660 -0.5338 -0.1402
   52TCq2    C9  800   4.475   3.491   2.368  0.1573 -1.0506 -0.3353
   52TCq2    O5  801   4.459   3.507   2.492  0.0926 -0.1873 -0.1671
   52TCq2    O6  802   4.398   3.414   2.305  0.2719 -0.4076  0.4217
   52TCq2    H2  803   4.486   3.516   2.125 -0.7362 -0.8543  1.2137
   52TCq2    H3  804   4.585   3.702   2.467 -2.3998 -1.3982  0.2476
   52TCq2    H4  805   4.667   3.904   2.085 -1.0569 -1.5169 -1.7254
   53TMC2    C1  806   0.085   3.132  12.222 -0.2446 -0.3311 -0.2695
   53TMC2    C2  807   0.166   3.046  12.282 -0.5581 -0.4897 -0.1039
   53TMC2    C3  808   0.105   2.970  12.379  0.0885 -0.2916 -0.3823
   53TMC2    C4  809   4.677   3.158  12.263  0.1203  0.4526  0.0537
   53TMC2    C5  810   4.621   3.088  12.360  0.6446 -0.7601  0.9467
   53TMC2    C6  811   4.696   2.983  12.409  0.0305  0.3719 -0.4745
   53TMC2     C  812   0.086   3.116  12.077  0.2357 -0.4964 -0.0274
   53TMC2     O  813   0.195   3.121  12.029  0.3761 -0.4109  0.5738
   53TMC2     H  814   0.268   3.030  12.250 -0.2236 -0.3250  0.8696
   53TMC2    H1  815   4.616   3.233  12.215  2.5292  1.6957 -1.0989
   53TMC2    H2  816   4.664   2.921  12.492  0.2863  1.9443  0.7851
   53TMC2    C7  817   4.472   3.087  12.366  0.0234  0.6884 -0.2110
   53TMC2    C8  818   0.176   2.846  12.417 -0.8044 -0.2567  0.2646
   53TMC2    O1  819   4.418   3.102  12.258  0.0385 -0.0377 -0.2510
   53TMC2    O2  820   0.295   2.855  12.432 -1.0116 -0.0340  0.2528
   53TMC2    O5  821   0.119   2.750  12.333  0.7024 -0.1578  0.0894
   53TMC2    H5  822   0.023   2.763  12.315  0.0397 -4.2551  0.6892
   54MPD2     C  823   0.041   3.116  11.793  0.5354  0.3602  0.1915
   54MPD2    C1  824   4.663   3.108  11.885 -0.3954 -0.7190 -0.4678
   54MPD2    C2  825   4.530   3.108  11.844  0.0018  0.0468  0.1020
   54MPD2    C3  826   4.501   3.091  11.709  0.1696  0.2943  0.2248
   54MPD2    C4  827   4.602   3.106  11.616 -0.4555 -0.1731 -0.0185
   54MPD2    C5  828   0.008   3.118  11.659  0.3359 -0.3320  1.0689
   54MPD2     H  829   4.452   3.105  11.919 -0.1184  2.5700  0.0689
   54MPD2    H1  830   4.574   3.094  11.512 -0.4591 -0.4619  0.0154
   54MPD2    H2  831   0.147   3.124  11.811  0.7693  0.1011 -1.0294
   54MPD2    H3  832   0.085   3.124  11.582  0.6498  0.0189  1.4091
   54MPD2     N  833   4.367   3.090  11.654 -0.2497  0.1294  0.1010
   54MPD2    H5  834   4.357   3.094  11.553  0.2732  2.9012  0.1464
   54MPD2    N1  835   4.679   3.109  12.024 -0.9730  0.2230 -0.0390
   54MPD2    H7  836   4.599   3.084  12.081 -1.0952 -0.6279 -0.5711
   55MPD2     C  837   0.540   0.951   0.102 -0.2174  0.2014  0.0475
   55MPD2    C1  838   0.515   0.860   0.203  0.3438 -0.0231 -0.2717
   55MPD2    C2  839   0.453   0.909   0.321  0.2655  0.4268  0.0403
   55MPD2    C3  840   0.431   1.041   0.342 -0.0837 -0.3778  0.5395
   55MPD2    C4  841   0.466   1.131   0.239 -0.3219 -0.3995  0.3370
   55MPD2    C5  842   0.517   1.086   0.118  0.2860 -0.3842 -0.6785
   55MPD2     H  843   0.437   0.848   0.409 -0.6857 -0.4652 -0.7366
   55MPD2    H1  844   0.451   1.237   0.255 -0.0145 -0.0976 -1.4165
   55MPD2    H2  845   0.588   0.916   0.012 -0.0059  3.1535 -0.9787
   55MPD2    H3  846   0.554   1.150   0.039  0.4695  2.2124  1.5049
   55MPD2     N  847   0.372   1.082   0.466 -0.2719 -0.2803  0.4815
   55MPD2    H5  848   0.362   1.009   0.536 -0.5848 -1.1373 -0.4474
   55MPD2    N1  849   0.535   0.730   0.172 -0.6108 -0.3996  0.2621
   55MPD2    H7  850   0.543   0.706   0.074  0.3133  3.2646 -0.5507
   56TCq2    C1  851   0.544   0.631   0.263 -0.6007  0.2748  0.3186
   56TCq2    O2  852   0.524   0.639   0.385 -0.9296  0.8589  0.2314
   56TCq2    C2  853   0.545   0.492   0.215  0.1150 -0.1817  0.5209
   56TCq2    C3  854   0.547   0.469   0.076  0.0282 -0.7407 -0.1767
   56TCq2    C4  855   0.546   0.340   0.038 -0.6749  0.4226 -0.1122
   56TCq2    C5  856   0.547   0.235   0.130 -0.4158 -0.0995 -1.0210
   56TCq2    C6  857   0.552   0.267   0.271 -0.4885 -0.5366  0.1557
   56TCq2    C7  858   0.549   0.397   0.310 -0.0479  0.1698 -0.0310
   56TCq2    C8  859   0.528   0.160   0.370 -0.0744  1.0635 -0.2573
   56TCq2    O4  860   0.572   0.050   0.342 -0.3881 -0.1797  0.2332
   56TCq2    C9  861   0.548   0.310  17.586  0.0510  0.2387  0.3019
   56TCq2    O5  862   0.512   0.398  17.505  0.1763  0.0089  0.0098
   56TCq2    O6  863   0.565   0.188  17.567 -0.2058 -0.2803 -0.2682
   56TCq2    H2  864   0.537   0.541  17.689  1.5611  1.0920  1.2886
   56TCq2    H3  865   0.551   0.129   0.107  1.1311 -0.9850  3.1091
   56TCq2    H4  866   0.553   0.421   0.416 -2.6983  1.0235 -0.1248
   57TMC2    C1  867   4.406   2.161  13.688  0.0534  0.1886 -0.2251
   57TMC2    C2  868   4.502   2.098  13.770 -0.0012  0.1963 -0.0189
   57TMC2    C3  869   4.612   2.056  13.701 -0.4122 -0.2774 -0.1954
   57TMC2    C4  870   4.411   2.176  13.552  0.7101  0.0486  0.4613
   57TMC2    C5  871   4.507   2.111  13.481  0.0942 -0.0618  0.6645
   57TMC2    C6  872   4.611   2.058  13.559  0.1567 -0.0875  0.7117
   57TMC2     C  873   4.280   2.163  13.750  0.7036 -0.2699  0.2037
   57TMC2     O  874   4.197   2.233  13.693  0.2180 -0.0803 -0.4569
   57TMC2     H  875   4.504   2.111  13.877 -1.2964  2.9817 -0.3205
   57TMC2    H1  876   4.333   2.242  13.516  1.8177  0.0280 -1.9918
   57TMC2    H2  877   4.700   2.022  13.510 -1.6834 -2.9278 -0.5321
   57TMC2    C7  878   4.468   2.040  13.359 -0.3340 -0.0151  0.2726
   57TMC2    C8  879   4.713   1.978  13.763 -0.1460 -0.0880  0.1369
   57TMC2    O1  880   4.365   2.081  13.309  0.4881  0.2074  0.2219
   57TMC2    O2  881   4.697   1.922  13.870  0.0744 -0.3348  0.3431
   57TMC2    O5  882   0.097   2.052  13.735  0.1426 -0.8111  0.5068
   57TMC2    H5  883   0.072   2.125  13.674  0.2946  0.4544  1.9649
   58MPD2     C  884   3.933   1.930  14.062 -0.2386 -0.1174  0.6527
   58MPD2    C1  885   3.951   2.064  14.035  0.0634 -0.7542 -0.1054
   58MPD2    C2  886   4.053   2.108  13.955 -0.0557  0.6287 -0.4956
   58MPD2    C3  887   4.151   2.019  13.909  0.1664 -0.1123 -0.1131
   58MPD2    C4  888   4.148   1.888  13.950  0.1829  0.1736  0.5803
   58MPD2    C5  889   4.043   1.850  14.029  0.2373 -0.1825  0.0841
   58MPD2     H  890   4.066   2.214  13.934  0.6915  0.3568 -1.3668
   58MPD2    H1  891   4.227   1.830  13.905 -0.2047 -0.1368  0.3024
   58MPD2    H2  892   3.851   1.887  14.118 -1.1584  3.4686  2.0847
   58MPD2    H3  893   4.031   1.746  14.058 -0.3892  0.6925  2.9451
   58MPD2     N  894   4.263   2.052  13.828 -0.3110 -0.1707  0.5658
   58MPD2    H5  895   4.318   1.973  13.797 -0.4644 -0.8372  1.9766
   58MPD2    N1  896   3.854   2.160  14.079  0.6678 -0.3008  0.2649
   58MPD2    H7  897   3.877   2.257  14.059 -1.1155  0.3680  1.4617
   59MPD2     C  898   1.905   1.612  13.298 -0.2919  0.0669 -0.0877
   59MPD2    C1  899   1.932   1.666  13.172  0.8013  0.0082 -0.0111
   59MPD2    C2  900   2.018   1.773  13.172 -0.1807 -0.2772  0.6218
   59MPD2    C3  901   2.087   1.821  13.285 -0.2510  0.5879 -0.1002
   59MPD2    C4  902   2.038   1.781  13.407 -0.3075 -0.0815  0.5012
   59MPD2    C5  903   1.956   1.664  13.412  0.6212 -0.6926  0.2392
   59MPD2     H  904   2.038   1.834  13.085  2.4100  0.6321  1.8539
   59MPD2    H1  905   2.098   1.823  13.487 -0.2291  1.7014 -0.4970
   59MPD2    H2  906   1.838   1.527  13.308 -2.0843  1.4934 -0.0182
   59MPD2    H3  907   1.923   1.634  13.511 -0.0367 -0.8825 -0.0324
   59MPD2     N  908   2.188   1.921  13.288  0.4942  0.0557  0.2581
   59MPD2    H5  909   2.225   1.957  13.375  3.4288  0.1910 -1.0503
   59MPD2    N1  910   1.881   1.618  13.056  0.5692 -0.3446  0.2510
   59MPD2    H7  911   1.911   1.666  12.972 -0.1209 -0.8787 -0.3086
   60TCq2    C1  912   1.798   1.510  13.043  0.4826  0.5615 -0.6561
   60TCq2    O2  913   1.750   1.440  13.127  0.4197 -0.0061  0.1603
   60TCq2    C2  914   1.729   1.516  12.911 -0.4387  0.0049  0.4165
   60TCq2    C3  915   1.595   1.485  12.907  0.0220 -0.4641  0.3521
   60TCq2    C4  916   1.526   1.517  12.791 -0.3321  0.7619  0.0782
   60TCq2    C5  917   1.580   1.576  12.680 -0.3064 -0.4309 -0.2730
   60TCq2    C6  918   1.718   1.598  12.688 -0.8577 -0.1812  0.2790
   60TCq2    C7  919   1.792   1.562  12.797 -0.2251 -0.0306  0.7245
   60TCq2    C8  920   1.790   1.660  12.582  0.2327  0.6761 -0.3104
   60TCq2    O4  921   1.872   1.588  12.526 -0.1781  0.3415  0.1601
   60TCq2    C9  922   1.380   1.497  12.801 -0.5478 -0.1200 -0.0743
   60TCq2    O5  923   1.338   1.495  12.916  0.0957  0.4122  0.3832
   60TCq2    O6  924   1.321   1.445  12.702 -0.9446 -0.2658 -0.7938
   60TCq2    H2  925   1.543   1.435  12.988 -0.0427 -1.8647 -0.5419
   60TCq2    H3  926   1.516   1.596  12.595  0.3861  0.6476 -0.5427
   60TCq2    H4  927   1.900   1.576  12.801  0.1561 -2.0459 -2.7403
   61MPD2     C  928   1.397   3.303  15.309 -0.5685  0.2105 -0.5372
   61MPD2    C1  929   1.428   3.426  15.360  0.1623  0.0103 -0.3851
   61MPD2    C2  930   1.518   3.504  15.285 -0.0485 -0.0949  0.2401
   61MPD2    C3  931   1.572   3.453  15.163  0.2183  0.8054  0.4776
   61MPD2    C4  932   1.539   3.331  15.118  0.2849  0.1754  0.4890
   61MPD2    C5  933   1.455   3.251  15.196 -0.1498  0.1200 -0.5453
   61MPD2     H  934   1.560   3.588  15.339  2.5472 -0.6287 -0.9669
   61MPD2    H1  935   1.566   3.289  15.022 -1.2598 -1.4013  0.7285
   61MPD2    H2  936   1.344   3.228  15.367  2.4649 -1.1040  0.5372
   61MPD2    H3  937   1.413   3.157  15.162 -0.8295  0.6508 -1.1718
   61MPD2     N  938   1.670   3.527  15.087 -0.6135 -0.2256  0.0708
   61MPD2    H5  939   1.696   3.475  15.004 -0.7527  0.9745 -0.7331
   61MPD2    N1  940   1.394   3.465  15.491  0.1171  0.2994 -0.8010
   61MPD2    H7  941   1.424   3.556  15.524  1.6186 -0.5276  0.0779
   62TCq2    C1  942   1.302   3.399  15.573  0.3591  0.3494  0.5016
   62TCq2    O2  943   1.228   3.310  15.555 -0.0196 -0.6929 -0.4921
   62TCq2    C2  944   1.287   3.474  15.705  0.9567  0.4575 -0.3836
   62TCq2    C3  945   1.210   3.414  15.804  0.0886  0.0214 -0.4015
   62TCq2    C4  946   1.178   3.484  15.920  0.0194 -0.3487  0.8944
   62TCq2    C5  947   1.221   3.613  15.930  0.3261  0.1368  0.7690
   62TCq2    C6  948   1.280   3.676  15.825 -0.9108  0.5475  0.6297
   62TCq2    C7  949   1.307   3.612  15.709  0.4494 -0.3100  0.4503
   62TCq2    C8  950   1.351   3.797  15.852  0.3927 -0.5200 -0.1638
   62TCq2    O4  951   1.422   3.846  15.766 -0.2750 -0.3725 -0.4504
   62TCq2    C9  952   1.111   3.412  16.027 -0.5911  0.0907 -0.0829
   62TCq2    O5  953   1.134   3.284  16.025  0.1625 -0.6838  0.0525
   62TCq2    O6  954   1.075   3.482  16.127 -0.1207  0.5168 -0.0505
   62TCq2    H2  955   1.195   3.307  15.802 -1.7719  0.3371 -2.3961
   62TCq2    H3  956   1.189   3.669  16.018 -0.4632  1.9479 -0.6736
   62TCq2    H4  957   1.357   3.663  15.628  0.1144 -1.0792 -0.2471
   63TMC2    C1  958   1.158   3.344  11.207  0.2837  0.4469 -0.1216
   63TMC2    C2  959   1.292   3.332  11.244 -0.4334  0.5137  0.3578
   63TMC2    C3  960   1.377   3.349  11.145 -1.3464 -0.1185 -0.1128
   63TMC2    C4  961   1.117   3.380  11.081 -0.2861  0.5353 -0.2812
   63TMC2    C5  962   1.212   3.409  10.991 -0.3492 -0.3946  0.5698
   63TMC2    C6  963   1.344   3.380  11.018  0.1054 -0.4621  0.8928
   63TMC2     C  964   1.077   3.258  11.282  0.2517  0.7133  0.7762
   63TMC2     O  965   1.092   3.255  11.404  0.1683 -0.4178  0.1863
   63TMC2     H  966   1.320   3.297  11.343 -2.1110  1.6232  1.2233
   63TMC2    H1  967   1.013   3.395  11.053 -1.0432 -1.2386  1.5959
   63TMC2    H2  968   1.422   3.383  10.943 -3.5866  3.7946 -2.7661
   63TMC2    C7  969   1.170   3.428  10.856  0.7191  0.7382  0.4858
   63TMC2    C8  970   1.514   3.360  11.178  0.0974 -0.3646  0.3657
   63TMC2    O1  971   1.058   3.385  10.835 -0.1263 -0.6703  0.3311
   63TMC2    O2  972   1.599   3.369  11.093 -0.4711 -0.2092 -0.7110
   63TMC2    O5  973   1.510   3.439  11.284 -0.3963  0.4406  0.2408
   63TMC2    H5  974   1.479   3.384  11.359 -0.9539  1.8984  1.0769
   64MPD2     C  975   0.695   2.920  11.231 -0.2996  0.9775  0.8604
   64MPD2    C1  976   0.751   2.933  11.105 -0.1196  0.1838 -0.2966
   64MPD2    C2  977   0.848   3.033  11.096 -0.1027 -0.2055  0.2006
   64MPD2    C3  978   0.898   3.097  11.209 -0.8902  0.4013  0.3296
   64MPD2    C4  979   0.850   3.058  11.333  0.1192  0.4144  0.3756
   64MPD2    C5  980   0.743   2.979  11.350  0.3233 -1.1532  0.4847
   64MPD2     H  981   0.886   3.059  10.998 -0.9967 -0.0549 -0.1008
   64MPD2    H1  982   0.902   3.112  11.411 -1.6240  0.9123  1.1727
   64MPD2    H2  983   0.619   2.844  11.247  0.8780 -0.7891 -1.9568
   64MPD2    H3  984   0.708   2.955  11.450  1.3646 -0.4923  1.0025
   64MPD2     N  985   1.007   3.183  11.190  0.2359 -0.2056 -0.5550
   64MPD2    H5  986   1.025   3.205  11.093  1.3209 -1.6552 -0.6830
   64MPD2    N1  987   0.714   2.864  10.987 -0.1176  0.2280 -0.1903
   64MPD2    H7  988   0.761   2.878  10.898  2.3683  1.0212  1.2334
   65MPD2     C  989   2.120   2.675  15.884  0.5264 -0.0499 -0.0791
   65MPD2    C1  990   2.135   2.699  15.752 -0.2992 -0.7633 -0.1384
   65MPD2    C2  991   2.065   2.625  15.663  0.2738  0.2013 -0.0747
   65MPD2    C3  992   1.967   2.535  15.700  0.1131 -0.3517 -0.1715
   65MPD2    C4  993   1.951   2.512  15.834  0.2082 -0.2983  1.0977
   65MPD2    C5  994   2.021   2.584  15.921  0.0485 -0.6513 -0.1327
   65MPD2     H  995   2.092   2.644  15.560  0.3284  0.8677  0.0612
   65MPD2    H1  996   1.885   2.436  15.871 -2.0595  1.5877  0.9090
   65MPD2    H2  997   2.177   2.741  15.949  2.3173 -0.9064 -0.7911
   65MPD2    H3  998   2.008   2.572  16.028 -3.0618  0.4971 -0.3824
   65MPD2     N  999   1.897   2.467  15.599  0.6115  0.8459  0.0562
   65MPD2    H5 1000   1.832   2.394  15.628 -0.5077  1.9956  0.4031
   65MPD2    N1 1001   2.224   2.802  15.697 -0.3943 -0.8361 -0.2759
   65MPD2    H7 1002   2.232   2.807  15.596  1.1699 -0.0761 -0.1036
   66TCq2    C1 1003   2.299   2.893  15.766 -0.5965 -0.2133 -0.4137
   66TCq2    O2 1004   2.298   2.918  15.885  0.3764  1.0795 -0.0931
   66TCq2    C2 1005   2.373   2.988  15.679  0.4221 -0.0959  0.0480
   66TCq2    C3 1006   2.382   2.960  15.548  0.1979 -0.0705  0.8458
   66TCq2    C4 1007   2.440   3.052  15.469 -0.3735 -0.3549  0.0394
   66TCq2    C5 1008   2.489   3.172  15.518  0.4236 -0.3824 -0.3019
   66TCq2    C6 1009   2.477   3.191  15.651  0.2536  0.0717 -0.4165
   66TCq2    C7 1010   2.421   3.097  15.734  0.1509 -0.5992  0.4825
   66TCq2    C8 1011   2.519   3.322  15.703  0.4008 -0.0761 -0.4945
   66TCq2    O4 1012   2.591   3.396  15.634  0.3306  0.5024 -0.3815
   66TCq2    C9 1013   2.436   3.026  15.326 -0.9451 -0.1931  0.4990
   66TCq2    O5 1014   2.407   2.906  15.291  0.1817 -0.4203 -0.0722
   66TCq2    O6 1015   2.508   3.103  15.257 -0.1961  0.4563  0.0417
   66TCq2    H2 1016   2.332   2.877  15.501  1.0414  0.0532 -0.2509
   66TCq2    H3 1017   2.530   3.253  15.459 -1.8507  0.8582 -0.2183
   66TCq2    H4 1018   2.427   3.108  15.841 -1.8705 -0.3131  0.5648
   67MPD2     C 1019   1.904   2.194  13.931  0.0701 -0.2608  0.5364
   67MPD2    C1 1020   1.918   2.332  13.968 -1.1491  1.0898 -0.3427
   67MPD2    C2 1021   1.878   2.433  13.879  0.1852  0.2516  0.3355
   67MPD2    C3 1022   1.815   2.403  13.757  0.5605 -0.2470 -0.0188
   67MPD2    C4 1023   1.796   2.269  13.723 -0.4869  0.0360  0.5428
   67MPD2    C5 1024   1.842   2.169  13.814  0.2078  0.4365 -0.0956
   67MPD2     H 1025   1.886   2.531  13.923 -3.3973  1.4514 -1.6565
   67MPD2    H1 1026   1.769   2.241  13.621 -1.2568 -2.0581  1.3197
   67MPD2    H2 1027   1.934   2.104  13.984 -0.8374 -0.3381  0.9298
   67MPD2    H3 1028   1.855   2.068  13.777 -0.8143 -0.1650  1.1924
   67MPD2     N 1029   1.762   2.490  13.660  0.3471 -0.5140  0.0197
   67MPD2    H5 1030   1.710   2.456  13.580  3.6943 -0.9490 -1.9807
   67MPD2    N1 1031   1.967   2.372  14.096 -0.1649  0.2572 -0.1146
   67MPD2    H7 1032   1.975   2.472  14.116 -0.0745  0.1930  0.1730
   68TCq2    C1 1033   2.027   2.292  14.192  0.1161  0.5596  0.0596
   68TCq2    O2 1034   2.046   2.170  14.193 -0.2212  0.2890 -0.4821
   68TCq2    C2 1035   2.066   2.363  14.315 -0.0187  0.3819 -0.1966
   68TCq2    C3 1036   2.020   2.492  14.348 -0.1084  0.3867 -0.0680
   68TCq2    C4 1037   2.072   2.552  14.457  0.4424  0.4319 -0.9142
   68TCq2    C5 1038   2.165   2.483  14.540 -0.0185  0.3229 -1.1798
   68TCq2    C6 1039   2.206   2.356  14.507 -0.9482  0.2601 -0.1642
   68TCq2    C7 1040   2.157   2.296  14.393  0.2126 -0.5822  0.0055
   68TCq2    C8 1041   2.320   2.301  14.571  0.5807  0.2052 -0.2841
   68TCq2    O4 1042   2.381   2.212  14.512  0.6864 -0.7891 -0.1884
   68TCq2    C9 1043   2.022   2.675  14.492 -0.0065  0.4706 -0.0171
   68TCq2    O5 1044   2.098   2.745  14.566  0.3325 -0.4079  0.2302
   68TCq2    O6 1045   1.924   2.724  14.427 -0.0522 -0.4022 -0.3896
   68TCq2    H2 1046   1.954   2.544  14.280 -1.0057  1.1284  1.3573
   68TCq2    H3 1047   2.201   2.536  14.627 -1.8108 -0.5621  0.1035
   68TCq2    H4 1048   2.181   2.191  14.377  2.6392 -0.2898  1.8467
   69TMC2    C1 1049   3.551   3.556  11.888 -0.4640  0.4677  0.1021
   69TMC2    C2 1050   3.420   3.572  11.903 -0.2352  0.5615  0.2995
   69TMC2    C3 1051   3.344   3.582  11.787  0.3071 -0.7990  0.1335
   69TMC2    C4 1052   3.614   3.564  11.767 -0.7048  0.4583 -0.0799
   69TMC2    C5 1053   3.541   3.574  11.655 -0.0786  0.1913 -0.2250
   69TMC2    C6 1054   3.403   3.574  11.664  0.5956 -0.0563  0.0399
   69TMC2     C 1055   3.633   3.580  12.004  0.6543  0.1809  0.4800
   69TMC2     O 1056   3.574   3.568  12.111  0.3405  0.2808  0.2760
   69TMC2     H 1057   3.374   3.551  11.999 -3.1137  0.1017 -1.1885
   69TMC2    H1 1058   3.721   3.548  11.758 -0.7998  1.0065 -2.2252
   69TMC2    H2 1059   3.344   3.587  11.574  0.9140 -0.5048 -0.2257
   69TMC2    C7 1060   3.600   3.637  11.542 -0.9304  0.0465  0.2259
   69TMC2    C8 1061   3.201   3.598  11.794  0.2518 -0.6939 -0.5368
   69TMC2    O1 1062   3.705   3.686  11.571 -0.0492 -0.1236 -0.0036
   69TMC2    O2 1063   3.131   3.554  11.705 -0.2371  0.0701  0.0786
   69TMC2    O5 1064   3.161   3.634  11.919  0.0124  1.0553 -0.1966
   69TMC2    H5 1065   3.243   3.677  11.951  1.2189 -0.1038 -1.7052
   70MPD2     C 1066   3.962   3.734  12.005  0.6524 -0.2052 -0.4336
   70MPD2    C1 1067   3.852   3.667  12.057 -0.4412  0.0287 -0.6133
   70MPD2    C2 1068   3.855   3.622  12.191  0.1012 -0.1031 -0.0750
   70MPD2    C3 1069   3.960   3.656  12.276 -0.5407  0.6149 -0.5220
   70MPD2    C4 1070   4.067   3.720  12.224 -0.3080  0.4476  0.3043
   70MPD2    C5 1071   4.067   3.756  12.091 -0.0351 -0.6511  0.4226
   70MPD2     H 1072   3.776   3.559  12.232  0.6533  1.4645  3.4260
   70MPD2    H1 1073   4.152   3.741  12.288 -1.0612  1.3090  1.0381
   70MPD2    H2 1074   3.964   3.764  11.901  0.8908 -1.5173 -0.8141
   70MPD2    H3 1075   4.157   3.799  12.047 -0.9478  0.4520 -0.3534
   70MPD2     N 1076   3.968   3.615  12.416  0.3088  0.5838 -0.3444
   70MPD2    H5 1077   4.043   3.663  12.465 -0.6298  0.9571  0.7153
   70MPD2    N1 1078   3.755   3.638  11.966 -0.5990 -0.0849  0.2811
   70MPD2    H7 1079   3.773   3.660  11.869  0.6975  3.5766  1.3640
   71TMC2    C1 1080   2.580   4.155   1.640  0.5703 -0.0099 -0.0922
   71TMC2    C2 1081   2.626   4.066   1.738 -0.1015  0.0457 -0.5587
   71TMC2    C3 1082   2.615   4.108   1.867 -0.4219 -0.4612  0.4219
   71TMC2    C4 1083   2.514   4.271   1.669  0.3314 -0.3549 -0.8765
   71TMC2    C5 1084   2.513   4.308   1.795  0.1873 -0.6608 -0.2945
   71TMC2    C6 1085   2.551   4.223   1.896  0.4825  0.5709  0.7675
   71TMC2     C 1086   2.581   4.115   1.501 -0.5517  0.8923  0.3247
   71TMC2     O 1087   2.534   4.195   1.420  0.0801  0.1123 -0.0892
   71TMC2     H 1088   2.657   3.966   1.709 -0.6996  0.3185 -2.1481
   71TMC2    H1 1089   2.494   4.342   1.589 -0.0390  0.5657  0.0395
   71TMC2    H2 1090   2.528   4.256   1.997  1.8234 -1.5042  1.7655
   71TMC2    C7 1091   2.437   4.426   1.825 -0.4289  0.4817  0.1669
   71TMC2    C8 1092   2.639   4.017   1.972  0.2460  0.2826 -0.2825
   71TMC2    O1 1093   2.465   4.477   1.931 -0.1899  0.3266  0.2675
   71TMC2    O2 1094   2.740   3.945   1.979  0.7137  0.0565  0.1157
   71TMC2    O5 1095   2.516   3.977   2.012 -0.1418 -0.1631 -0.2256
   71TMC2    H5 1096   2.442   4.029   1.974 -0.5611 -0.8971 -0.4001
   72MPD2     C 1097   2.777   3.885   1.090 -0.3760  0.4266  0.0108
   72MPD2    C1 1098   2.676   3.976   1.108 -0.7730 -0.5012  0.6749
   72MPD2    C2 1099   2.632   4.011   1.236  0.0683  0.1180 -1.0043
   72MPD2    C3 1100   2.702   3.969   1.349  0.2076  0.6609 -0.0744
   72MPD2    C4 1101   2.789   3.861   1.332 -0.0961 -0.1583 -0.5831
   72MPD2    C5 1102   2.829   3.826   1.200 -0.5027  0.7173 -0.6166
   72MPD2     H 1103   2.557   4.088   1.235  1.1620  1.1849 -0.3741
   72MPD2    H1 1104   2.837   3.829   1.424 -0.4388 -0.0444 -0.3639
   72MPD2    H2 1105   2.830   3.862   0.998  0.4399 -0.1251  0.6151
   72MPD2    H3 1106   2.901   3.746   1.192 -1.2744  0.1782 -2.2118
   72MPD2     N 1107   2.667   4.010   1.479 -0.2998 -0.0485  0.1713
   72MPD2    H5 1108   2.718   3.969   1.556 -0.2458 -0.1944  0.0560
   72MPD2    N1 1109   2.619   4.041   0.995  0.4173 -0.1371  0.0651
   72MPD2    H7 1110   2.546   4.110   1.014  0.0857 -1.2639  2.8840
   73TMC2    C1 1111   1.379   0.873  14.047 -0.4501 -0.2874  0.1019
   73TMC2    C2 1112   1.405   0.750  13.995  0.8158 -0.0331 -0.5680
   73TMC2    C3 1113   1.478   0.658  14.063 -0.0649  0.0356  0.5038
   73TMC2    C4 1114   1.438   0.911  14.164  0.2476  0.2685  0.7609
   73TMC2    C5 1115   1.521   0.818  14.226 -0.0529  0.8301  0.3683
   73TMC2    C6 1116   1.529   0.690  14.186 -0.1131  0.3467  0.1469
   73TMC2     C 1117   1.415   0.984  13.960 -0.2829 -0.0207  0.1973
   73TMC2     O 1118   1.504   1.061  13.990  0.7951  0.3522  0.6748
   73TMC2     H 1119   1.365   0.722  13.898  1.1093 -0.3637 -0.5919
   73TMC2    H1 1120   1.408   1.000  14.218 -3.7930 -1.0610  0.6757
   73TMC2    H2 1121   1.604   0.623  14.227 -2.8573 -2.7979  0.0932
   73TMC2    C7 1122   1.653   0.864  14.268 -0.4592 -0.1118  0.2211
   73TMC2    C8 1123   1.455   0.514  14.047  0.5684  0.2717  0.5895
   73TMC2    O1 1124   1.725   0.785  14.327  0.0536 -0.1360  0.4258
   73TMC2    O2 1125   1.456   0.437  14.144  0.7977  0.3443 -0.3173
   73TMC2    O5 1126   1.453   0.479  13.920  0.1141  0.3326  0.5843
   73TMC2    H5 1127   1.487   0.543  13.854 -1.2102  1.6853  1.2114
   74MPD2     C 1128   1.410   1.142  13.479 -0.2280  0.1638  0.0217
   74MPD2    C1 1129   1.489   1.180  13.582  0.3950 -0.2719  0.3450
   74MPD2    C2 1130   1.467   1.119  13.700 -0.0549  0.6178 -0.0648
   74MPD2    C3 1131   1.361   1.032  13.725 -0.0857  0.1860 -1.0557
   74MPD2    C4 1132   1.273   1.004  13.616  0.4712 -0.0373  1.1003
   74MPD2    C5 1133   1.301   1.062  13.495  0.4825 -0.3392  0.0831
   74MPD2     H 1134   1.528   1.137  13.788 -1.8094 -2.1886  1.7196
   74MPD2    H1 1135   1.198   0.926  13.619 -0.3437  0.7822  2.3802
   74MPD2    H2 1136   1.430   1.184  13.381 -1.6504  1.1507  0.1563
   74MPD2    H3 1137   1.251   1.032  13.404  1.1241 -2.5932  0.4629
   74MPD2     N 1138   1.338   0.967  13.849 -0.4067  0.5644 -0.1655
   74MPD2    H5 1139   1.255   0.908  13.856  0.7914 -1.0751  0.0886
   74MPD2    N1 1140   1.597   1.268  13.559  1.0052  0.2066 -0.0854
   74MPD2    H7 1141   1.620   1.294  13.464 -0.0583 -1.3390 -0.7677
   75TCq2    C1 1142   1.788   2.625  13.667  0.2598  0.2734  0.6051
   75TCq2    O2 1143   1.861   2.682  13.749 -0.4179 -0.4727  0.0259
   75TCq2    C2 1144   1.703   2.709  13.590 -1.0735 -0.8010 -0.0999
   75TCq2    C3 1145   1.677   2.832  13.649  0.7663  0.4142 -0.0601
   75TCq2    C4 1146   1.594   2.924  13.588  0.2128  0.1931  0.2254
   75TCq2    C5 1147   1.528   2.882  13.480 -0.0753  0.4861 -0.0214
   75TCq2    C6 1148   1.555   2.758  13.420  0.0428  0.0590  0.2334
   75TCq2    C7 1149   1.636   2.666  13.479 -0.2877  0.6068  0.1717
   75TCq2    C8 1150   1.482   2.711  13.302 -0.5907 -0.2533  0.1280
   75TCq2    O4 1151   1.490   2.595  13.268 -0.2319 -0.5337 -0.4366
   75TCq2    C9 1152   1.586   3.058  13.646  0.2008 -0.4040 -0.4698
   75TCq2    O5 1153   1.666   3.089  13.737 -0.2050  0.4177 -0.7014
   75TCq2    O6 1154   1.483   3.121  13.599  0.2726  0.9400  0.6875
   75TCq2    H2 1155   1.733   2.864  13.736  0.9936 -1.8319  0.6109
   75TCq2    H3 1156   1.466   2.961  13.440  1.3930  0.7476 -1.7491
   75TCq2    H4 1157   1.680   2.581  13.430 -1.1866  0.1634  0.1436
   76MPD2     C 1158   4.415   3.699  11.715 -0.5567  0.5094 -0.5951
   76MPD2    C1 1159   4.481   3.683  11.597 -0.0774  0.0999 -0.3282
   76MPD2    C2 1160   4.608   3.634  11.604  0.5161  0.1787  0.0887
   76MPD2    C3 1161   4.664   3.594  11.728 -0.0092  0.5384  0.0761
   76MPD2    C4 1162   4.596   3.622  11.842  0.0513 -0.1257 -0.4318
   76MPD2    C5 1163   4.473   3.670  11.831 -0.0938 -0.1031  0.1029
   76MPD2     H 1164   4.665   3.615  11.514  1.6133 -0.4743  0.9019
   76MPD2    H1 1165   4.644   3.589  11.933 -0.6646 -0.9071 -0.3435
   76MPD2    H2 1166   4.314   3.738  11.721 -0.3969  0.9467 -0.8040
   76MPD2    H3 1167   4.413   3.678  11.921  0.7186 -1.7307  0.7880
   76MPD2     N 1168   0.068   3.521  11.744  0.0871 -0.1648 -0.1892
   76MPD2    H5 1169   0.109   3.517  11.837  0.1276 -2.8829 -0.3446
   76MPD2    N1 1170   4.409   3.719  11.483  0.3958  0.3246  0.5059
   76MPD2    H7 1171   4.313   3.747  11.502  0.1448 -1.3248  1.6636
   77TCq2    C1 1172   0.136   3.465  11.644  0.2375  0.7773 -0.7122
   77TCq2    O2 1173   0.092   3.439  11.536  0.3455 -0.1511  0.4360
   77TCq2    C2 1174   0.265   3.412  11.677 -0.4019 -0.2831 -0.6746
   77TCq2    C3 1175   0.316   3.304  11.610 -0.4913  0.1612  0.6433
   77TCq2    C4 1176   0.421   3.236  11.657  0.5153 -0.3820  0.3101
   77TCq2    C5 1177   0.477   3.280  11.773 -0.2748 -0.8428 -0.2796
   77TCq2    C6 1178   0.435   3.392  11.835 -0.8692  0.8702 -0.0436
   77TCq2    C7 1179   0.321   3.456  11.795  0.4490 -0.0900  0.5405
   77TCq2    C8 1180   0.524   3.479  11.917  0.7769 -0.4701  0.1160
   77TCq2    O4 1181   0.549   3.594  11.877  0.0507  0.9385  0.5758
   77TCq2    C9 1182   0.473   3.122  11.588  0.9094 -0.1910  0.1334
   77TCq2    O5 1183   0.566   3.060  11.641 -0.0965  0.3372  0.1382
   77TCq2    O6 1184   0.409   3.086  11.486  0.2773  0.1143 -0.2117
   77TCq2    H2 1185   0.272   3.270  11.516  0.2073 -2.1058  1.1361
   77TCq2    H3 1186   0.566   3.229  11.807 -1.9870 -3.6378 -0.0232
   77TCq2    H4 1187   0.301   3.555  11.834 -0.4729 -0.5839  1.3159
   78MPD1     C 1188   1.313   4.073   1.759 -0.1408  0.5915 -0.2398
   78MPD1    C1 1189   1.326   4.174   1.860  0.4044  0.1534  0.3039
   78MPD1    C2 1190   1.451   4.196   1.916  0.0002  0.2262  0.3026
   78MPD1    C3 1191   1.557   4.122   1.869  0.8249 -0.1110  0.5232
   78MPD1    C4 1192   1.539   4.011   1.784 -0.7635  0.1884  0.6094
   78MPD1    C5 1193   1.415   3.994   1.724  0.6269  0.2642  0.1339
   78MPD1     H 1194   1.461   4.276   1.989 -2.4377 -1.0535  2.0474
   78MPD1    H1 1195   1.611   3.931   1.769  2.4161  2.8859  1.4842
   78MPD1    H2 1196   1.218   4.058   1.708 -0.9017  1.1372  0.9992
   78MPD1    H3 1197   1.404   3.923   1.643 -0.0046  1.0229 -0.4508
   78MPD1     N 1198   1.696   4.146   1.895 -0.0833 -0.4200 -0.0807
   78MPD1    H5 1199   1.760   4.071   1.875  1.7699  0.8929  0.8963
   78MPD1    N1 1200   1.215   4.240   1.913 -0.3861 -0.6354 -0.8913
   78MPD1    H6 1201   1.254   4.334   1.925  0.4875 -1.1469  0.2855
   78MPD1    H7 1202   1.135   4.250   1.850 -2.0036 -0.7637  1.1309
   79TCq2    C1 1203   1.743   4.255   1.969  0.2725 -0.0769  0.6032
   79TCq2    O2 1204   1.682   4.352   2.014 -0.2757  0.0967  0.4217
   79TCq2    C2 1205   1.881   4.241   1.992  0.6418  0.4390  0.3070
   79TCq2    C3 1206   1.926   4.331   2.090  1.1744  0.5609  0.5592
   79TCq2    C4 1207   2.063   4.335   2.106  0.5002 -0.0904  0.3806
   79TCq2    C5 1208   2.149   4.254   2.035 -0.0937 -0.0437  0.2107
   79TCq2    C6 1209   2.097   4.167   1.943 -0.4228  0.1139 -0.0216
   79TCq2    C7 1210   1.962   4.169   1.914 -0.3241  0.3363  0.2344
   79TCq2    C8 1211   2.188   4.098   1.850  0.6840  0.1277 -0.0590
   79TCq2    O4 1212   2.303   4.079   1.886  0.1585  0.0681  0.3474
   79TCq2    C9 1213   2.121   4.417   2.211 -0.3702  0.1107  0.3708
   79TCq2    O5 1214   2.245   4.403   2.247 -0.7877 -0.4224  0.1072
   79TCq2    O6 1215   2.040   4.484   2.282  0.4303  0.3119 -0.4891
   79TCq2    H2 1216   1.865   4.393   2.155  1.2848  0.8747  0.3657
   79TCq2    H3 1217   2.255   4.254   2.058 -0.4271 -1.1748  1.7477
   79TCq2    H4 1218   1.920   4.106   1.837  2.4655 -1.2146  0.0027
   80MPD2     C 1219   4.476   2.706  12.429 -0.1593 -0.0692 -0.1506
   80MPD2    C1 1220   4.380   2.732  12.330  0.0797 -0.2561  0.2263
   80MPD2    C2 1221   4.247   2.743  12.368  0.4283  0.3551 -0.1176
   80MPD2    C3 1222   4.216   2.729  12.502 -0.0478  0.2177 -0.0182
   80MPD2    C4 1223   4.308   2.706  12.602 -1.2931  0.7559 -0.7208
   80MPD2    C5 1224   4.442   2.695  12.563  0.0898 -0.0648  0.0039
   80MPD2     H 1225   4.172   2.746  12.290 -1.5268 -0.1824  1.7624
   80MPD2    H1 1226   4.277   2.690  12.704 -0.5191  1.6501 -0.3514
   80MPD2    H2 1227   4.578   2.680  12.405 -0.7604 -2.7832  0.2519
   80MPD2    H3 1228   4.521   2.683  12.635  2.2809  0.8384 -2.2417
   80MPD2     N 1229   4.082   2.733  12.547 -0.0863  0.1258 -0.4778
   80MPD2    H5 1230   4.060   2.701  12.641 -1.6955  1.0854 -0.5272
   80MPD2    N1 1231   4.404   2.749  12.196  0.0077 -1.1749 -0.3492
   80MPD2    H7 1232   4.322   2.769  12.139  0.7468  2.2618 -0.2436
   81TCq2    C1 1233   4.526   2.755  12.135  0.0017  0.4554 -0.2054
   81TCq2    O2 1234   4.636   2.754  12.188 -0.1874 -0.1152  0.0280
   81TCq2    C2 1235   4.518   2.773  11.986  0.2633  0.3231 -0.2341
   81TCq2    C3 1236   4.638   2.770  11.927  0.2719  0.6754 -1.0093
   81TCq2    C4 1237   4.641   2.765  11.793  0.0438  0.5533  0.3726
   81TCq2    C5 1238   4.530   2.753  11.717 -0.1581 -0.0294 -0.3499
   81TCq2    C6 1239   4.409   2.733  11.788  0.0674  0.4590 -0.0006
   81TCq2    C7 1240   4.397   2.750  11.922 -0.5944 -0.1460 -0.1174
   81TCq2    C8 1241   4.295   2.690  11.711 -0.0433 -0.6418 -0.6004
   81TCq2    O4 1242   4.285   2.747  11.604 -0.3331 -0.1078 -0.0269
   81TCq2    C9 1243   0.044   2.762  11.732 -0.4806  0.7037  0.5103
   81TCq2    O5 1244   0.148   2.770  11.801 -0.4292 -0.1055 -0.4243
   81TCq2    O6 1245   0.047   2.717  11.617  0.1272  0.7405  0.1615
   81TCq2    H2 1246   0.007   2.772  11.985  0.9895  0.5882 -2.1362
   81TCq2    H3 1247   4.539   2.717  11.615 -3.0364  0.6374 -0.8311
   81TCq2    H4 1248   4.302   2.747  11.975  1.2013 -1.1876  3.0104
   82MPD2     C 1249   2.755   2.491  10.643 -0.2277 -0.5542 -0.2939
   82MPD2    C1 1250   2.704   2.362  10.628  0.4434  0.2029 -0.2203
   82MPD2    C2 1251   2.742   2.266  10.719  0.1172  0.2273  0.1285
   82MPD2    C3 1252   2.841   2.291  10.813  0.3447  0.0908  0.3297
   82MPD2    C4 1253   2.907   2.413  10.820 -0.2593 -0.3516 -0.2403
   82MPD2    C5 1254   2.858   2.515  10.732  0.1637  0.0529 -0.1108
   82MPD2     H 1255   2.706   2.164  10.713  1.3821 -0.0290 -3.4268
   82MPD2    H1 1256   2.975   2.432  10.902  0.2414 -0.3576 -0.6445
   82MPD2    H2 1257   2.729   2.574  10.579  0.4596  0.3057  0.5504
   82MPD2    H3 1258   2.913   2.608  10.719 -1.7146  1.2010  0.1050
   82MPD2     N 1259   2.873   2.193  10.911 -1.1394 -0.7475  0.2836
   82MPD2    H5 1260   2.939   2.223  10.982 -0.2567 -3.5946  0.6331
   82MPD2    N1 1261   2.607   2.335  10.526 -0.2838 -0.1440  0.1342
   82MPD2    H7 1262   2.575   2.409  10.464  3.0847  0.6673 -0.6597
   83TCq2    C1 1263   2.806   2.078  10.945  0.4683  0.0191 -0.7935
   83TCq2    O2 1264   2.718   2.018  10.889 -0.4604  0.0395 -0.3538
   83TCq2    C2 1265   2.850   2.036  11.078  0.3133 -0.6842 -0.4168
   83TCq2    C3 1266   2.918   2.125  11.165 -0.0332  0.4526  0.3644
   83TCq2    C4 1267   2.956   2.075  11.287 -0.2726  0.6961 -1.1795
   83TCq2    C5 1268   2.915   1.947  11.331 -0.6267  0.8208 -0.2383
   83TCq2    C6 1269   2.837   1.865  11.249  0.1974  0.0913 -0.2738
   83TCq2    C7 1270   2.811   1.911  11.121 -0.0692  0.2974 -0.4133
   83TCq2    C8 1271   2.806   1.732  11.294 -0.5994 -0.5324  0.2596
   83TCq2    O4 1272   2.842   1.704  11.409 -0.0022 -0.1667 -0.1158
   83TCq2    C9 1273   3.033   2.154  11.380  0.4342 -0.0446 -0.1185
   83TCq2    O5 1274   3.109   2.085  11.454  0.0510  0.2683  0.0539
   83TCq2    O6 1275   3.050   2.277  11.344  0.3859 -0.5481  0.3301
   83TCq2    H2 1276   2.952   2.226  11.142  0.7530 -0.0686 -0.7924
   83TCq2    H3 1277   2.957   1.916  11.425  0.3255  0.8055 -0.6689
   83TCq2    H4 1278   2.753   1.849  11.053  0.2214 -2.2929  1.6783
   84TCq2    C1 1279   4.024   0.717  10.362  0.1821 -0.5733 -0.2758
   84TCq2    O2 1280   3.951   0.621  10.387  0.2218  0.3700  0.0802
   84TCq2    C2 1281   4.126   0.769  10.458  0.8451  0.8295 -0.2466
   84TCq2    C3 1282   4.247   0.817  10.405  0.7394 -1.2837 -0.5430
   84TCq2    C4 1283   4.347   0.827  10.497  0.3036 -0.1014 -0.3036
   84TCq2    C5 1284   4.324   0.800  10.630 -0.2168 -0.2529 -0.3005
   84TCq2    C6 1285   4.207   0.751  10.677 -0.1964 -0.4727 -0.5411
   84TCq2    C7 1286   4.106   0.732  10.586  0.7433  0.9474  0.4073
   84TCq2    C8 1287   4.174   0.757  10.825  0.4544  0.2289 -0.6640
   84TCq2    O4 1288   4.059   0.751  10.857 -0.8945 -0.3422 -0.0935
   84TCq2    C9 1289   4.472   0.893  10.452  0.4290 -0.0670  0.6478
   84TCq2    O5 1290   4.552   0.931  10.542  0.0594 -0.1765 -0.0761
   84TCq2    O6 1291   4.498   0.894  10.330 -0.4230 -0.3221  0.3947
   84TCq2    H2 1292   4.258   0.827  10.297 -0.6083  1.4165 -0.4321
   84TCq2    H3 1293   4.403   0.840  10.693 -0.3384  1.0377 -0.9609
   84TCq2    H4 1294   4.004   0.701  10.607  0.9256 -0.6276 -0.9837
   85MPD2     C 1295   4.478   3.796  16.188 -0.3125 -0.3968 -0.4547
   85MPD2    C1 1296   4.412   3.796  16.071 -0.8221  0.5128 -0.7269
   85MPD2    C2 1297   4.442   3.896  15.981 -0.4518  0.3949  0.0065
   85MPD2    C3 1298   4.539   3.996  16.011 -0.1842 -0.1455 -0.4196
   85MPD2    C4 1299   4.613   3.986  16.129  0.2155 -0.2309 -0.5683
   85MPD2    C5 1300   4.574   3.889  16.217 -0.4668  0.0320 -0.1769
   85MPD2     H 1301   4.379   3.903  15.893 -1.1213  0.0610  0.4609
   85MPD2    H1 1302   4.684   4.057  16.170 -0.5823  0.3702 -0.2484
   85MPD2    H2 1303   4.459   3.716  16.259 -0.5165 -1.0224 -1.2088
   85MPD2    H3 1304   4.625   3.879  16.312 -1.7848 -1.2770  0.3972
   85MPD2     N 1305   4.557   4.107  15.922  1.0762 -0.0883 -0.0325
   85MPD2    H5 1306   4.521   4.107  15.827 -1.4042  1.6994  0.8950
   85MPD2    N1 1307   4.305   3.704  16.041 -0.1085 -0.3004  0.0733
   85MPD2    H7 1308   4.264   3.718  15.949  1.2097  1.8648 -0.1908
   86TCq2    C1 1309   4.605   4.228  15.967 -0.2067 -0.0273  0.1650
   86TCq2    O2 1310   4.618   4.269  16.079  0.0287  0.1664 -0.4455
   86TCq2    C2 1311   4.629   4.325  15.861  0.2641  0.4576 -0.2056
   86TCq2    C3 1312   4.622   4.458  15.890 -0.4216 -0.2340  0.1580
   86TCq2    C4 1313   4.657   4.544  15.789  0.0092 -0.1198 -0.0038
   86TCq2    C5 1314   4.700   4.514  15.665 -0.2834 -0.7488  0.2101
   86TCq2    C6 1315   4.708   4.370  15.644  0.4683  0.2375 -0.9771
   86TCq2    C7 1316   4.674   4.276  15.739 -0.1777  0.5004  0.3035
   86TCq2    C8 1317   0.049   4.317  15.521 -0.6711  0.6627  0.8513
   86TCq2    O4 1318   0.076   4.197  15.523  0.0148  0.1379 -0.6104
   86TCq2    C9 1319   4.665   4.687  15.818 -0.3785  0.1335  0.4599
   86TCq2    O5 1320   4.687   0.037  15.715  0.3744  0.3260 -0.4640
   86TCq2    O6 1321   4.620   0.007  15.925 -0.0556 -0.2167 -0.1209
   86TCq2    H2 1322   4.579   4.493  15.983 -0.4827  2.3301 -0.8235
   86TCq2    H3 1323   0.018   4.587  15.596  1.4084  1.2467  3.2921
   86TCq2    H4 1324   4.662   4.172  15.710 -1.8743  1.8078 -3.6968
   87MPD2     C 1325   2.172   2.441   2.057  0.1855 -1.1130  0.1268
   87MPD2    C1 1326   2.141   2.423   1.928  0.3606  0.0041 -0.1294
   87MPD2    C2 1327   2.081   2.525   1.853  0.0607  0.6348 -0.3112
   87MPD2    C3 1328   2.066   2.655   1.908 -0.4680 -0.4831 -0.4128
   87MPD2    C4 1329   2.105   2.667   2.040 -0.7731  0.2782  0.5403
   87MPD2    C5 1330   2.160   2.565   2.113  0.5206  0.6215  0.3045
   87MPD2     H 1331   2.047   2.507   1.752 -1.0837 -4.2995  0.9619
   87MPD2    H1 1332   2.104   2.762   2.093 -1.4938  0.1193  0.8143
   87MPD2    H2 1333   2.201   2.361   2.124  0.8755 -1.4517 -0.5729
   87MPD2    H3 1334   2.169   2.577   2.220  1.1340  0.8738  0.2234
   87MPD2     N 1335   2.003   2.762   1.844 -0.8436  0.0615 -0.1219
   87MPD2    H5 1336   2.011   2.855   1.885  1.0048  1.0139 -2.6331
   87MPD2    N1 1337   2.162   2.292   1.881  0.4967  0.1029  0.3618
   87MPD2    H7 1338   2.191   2.220   1.946  0.9471  0.8112  0.9482
   88TCq2    C1 1339   2.136   2.255   1.751  0.5881  0.1626  0.2499
   88TCq2    O2 1340   2.143   2.329   1.654 -0.9588  0.3004  0.2953
   88TCq2    C2 1341   2.098   2.118   1.731 -0.0255  0.1564  0.5070
   88TCq2    C3 1342   1.990   2.079   1.813 -0.1365  0.0635  0.0898
   88TCq2    C4 1343   1.899   1.992   1.764  0.1164 -0.7737 -0.1331
   88TCq2    C5 1344   1.914   1.934   1.642 -0.5872 -0.1288 -0.0081
   88TCq2    C6 1345   2.016   1.975   1.561  0.4055  0.2324 -0.0411
   88TCq2    C7 1346   2.110   2.066   1.601 -0.0680 -0.3423  0.9742
   88TCq2    C8 1347   2.013   1.945   1.417 -0.4351  0.6816  0.4078
   88TCq2    O4 1348   2.118   1.972   1.359  0.7961 -0.2536  0.3070
   88TCq2    C9 1349   1.784   1.958   1.833 -0.4079 -0.2619 -0.4935
   88TCq2    O5 1350   1.686   1.895   1.776 -0.2781  0.4164 -0.1050
   88TCq2    O6 1351   1.780   1.987   1.957  0.7475 -0.3297  0.0304
   88TCq2    H2 1352   1.964   2.136   1.902 -0.5589 -1.5892  1.0352
   88TCq2    H3 1353   1.842   1.855   1.621 -0.3043  0.3283 -2.7739
   88TCq2    H4 1354   2.182   2.101   1.527  0.2011 -0.8104  1.0182
   89MPD2     C 1355   3.253   0.504   1.570  0.2046 -1.0087 -0.6156
   89MPD2    C1 1356   3.180   0.617   1.589  0.2882 -0.6648  0.8023
   89MPD2    C2 1357   3.247   0.734   1.630  0.4402 -0.4815  0.0238
   89MPD2    C3 1358   3.388   0.737   1.623 -0.3936 -0.2469  0.1750
   89MPD2    C4 1359   3.464   0.630   1.591 -0.5605 -0.1868 -0.1199
   89MPD2    C5 1360   3.392   0.513   1.575 -0.6664 -0.1939  0.3474
   89MPD2     H 1361   3.191   0.820   1.665 -1.1073 -1.4882  0.0337
   89MPD2    H1 1362   3.570   0.633   1.571 -0.5024  0.5516  0.2851
   89MPD2    H2 1363   3.205   0.407   1.564  0.5885 -1.1995 -0.6229
   89MPD2    H3 1364   3.456   0.427   1.559  0.8084  0.9238  0.1617
   89MPD2     N 1365   3.445   0.858   1.664  0.2938 -0.4056  0.2484
   89MPD2    H5 1366   3.380   0.931   1.691 -0.2755  0.2916 -3.0240
   89MPD2    N1 1367   3.042   0.619   1.582  0.1308  0.2698 -0.1529
   89MPD2    H7 1368   2.999   0.706   1.613 -0.0258  0.7986 -1.8382
   90TCq2    C1 1369   3.580   0.882   1.689 -0.3474  0.2560 -0.2389
   90TCq2    O2 1370   3.678   0.820   1.647  0.6239 -0.1067  0.3428
   90TCq2    C2 1371   3.605   1.018   1.736 -0.2176 -0.1741 -0.4412
   90TCq2    C3 1372   3.505   1.088   1.786 -0.3400  0.3273 -0.3257
   90TCq2    C4 1373   3.526   1.224   1.828 -0.2899  0.0070 -0.5527
   90TCq2    C5 1374   3.647   1.283   1.794 -0.1006  0.3267 -0.1130
   90TCq2    C6 1375   3.745   1.214   1.738 -0.0305 -0.6356 -0.1938
   90TCq2    C7 1376   3.723   1.080   1.697 -0.3858  0.3194  0.5035
   90TCq2    C8 1377   3.858   1.278   1.685 -0.1864 -0.2038  0.0907
   90TCq2    O4 1378   3.887   1.242   1.571 -0.3713 -0.6004 -0.4868
   90TCq2    C9 1379   3.425   1.309   1.898 -0.0486 -0.1866 -0.2511
   90TCq2    O5 1380   3.326   1.237   1.933 -0.0782  0.4511 -0.0844
   90TCq2    O6 1381   3.450   1.429   1.933 -0.2248 -0.0900 -0.0503
   90TCq2    H2 1382   3.415   1.044   1.827  1.1132 -1.9933  0.3853
   90TCq2    H3 1383   3.665   1.388   1.814  0.8782  0.0694  0.3746
   90TCq2    H4 1384   3.809   1.021   1.669 -1.6326 -0.7565 -1.0194
   91TMC2    C1 1385   4.607   0.490  16.697  0.5113 -0.2043  0.3619
   91TMC2    C2 1386   4.673   0.490  16.820 -0.0457 -0.1387  0.4010
   91TMC2    C3 1387   4.638   0.401  16.913  0.8535  0.8828  0.4103
   91TMC2    C4 1388   4.493   0.405  16.683 -0.0046  0.0466  0.5574
   91TMC2    C5 1389   4.448   0.326  16.793  0.3229 -0.1364 -0.1407
   91TMC2    C6 1390   4.522   0.330  16.911  0.1250 -0.2566 -0.0861
   91TMC2     C 1391   4.648   0.565  16.581 -0.1093 -0.3619 -0.2094
   91TMC2     O 1392   4.564   0.603  16.502  0.5145  0.6220 -0.2744
   91TMC2     H 1393   0.046   0.537  16.839 -0.1869  1.2756 -2.3199
   91TMC2    H1 1394   4.439   0.408  16.589  2.1404  0.8451 -0.6336
   91TMC2    H2 1395   4.487   0.275  16.997  0.3424  0.6843  0.6042
   91TMC2    C7 1396   4.308   0.270  16.800 -0.8094  0.1817 -0.5706
   91TMC2    C8 1397   4.704   0.398  17.038 -0.1617 -0.5011 -0.6481
   91TMC2    O1 1398   4.293   0.170  16.863  0.8369 -0.3445  0.1880
   91TMC2    O2 1399   4.666   0.470  17.126  0.0048 -0.4256  0.2164
   91TMC2    O5 1400   4.721   0.267  17.062 -0.2002  0.2832 -0.5301
   91TMC2    H5 1401   0.030   0.223  16.980  0.1064  0.3823 -0.4654
   92MPD2     C 1402   0.059   0.755  16.394 -0.5731 -0.2912  0.0040
   92MPD2    C1 1403   0.119   0.703  16.507 -0.3931  0.0830  1.3337
   92MPD2    C2 1404   0.244   0.744  16.548  0.8429  0.4939  0.2168
   92MPD2    C3 1405   0.316   0.838  16.475 -0.4055 -0.3155  0.3558
   92MPD2    C4 1406   0.258   0.884  16.361 -0.0028  0.7248  0.8096
   92MPD2    C5 1407   0.128   0.844  16.322  0.0250 -0.0722  0.1175
   92MPD2     H 1408   0.290   0.700  16.636 -0.1491  0.3662  0.6840
   92MPD2    H1 1409   0.308   0.953  16.295 -0.2800 -0.3207 -0.4981
   92MPD2    H2 1410   4.690   0.715  16.353 -1.1433  1.0779 -0.0549
   92MPD2    H3 1411   0.085   0.881  16.230 -0.2185  0.1520  0.3235
   92MPD2     N 1412   0.453   0.882  16.517 -0.4798 -0.0687  0.3404
   92MPD2    H5 1413   0.494   0.837  16.598 -2.0703  0.4219  1.4312
   92MPD2    N1 1414   0.058   0.590  16.584 -0.0926  0.1134  0.2559
   92MPD2    H7 1415   0.115   0.556  16.661 -0.2683  1.1456  0.8340
   93MPD2     C 1416   1.565   0.352  13.517 -0.2501  0.6878 -0.6849
   93MPD2    C1 1417   1.546   0.272  13.628  0.5851 -0.7645 -0.1431
   93MPD2    C2 1418   1.431   0.198  13.627  0.0556  0.4066 -0.4804
   93MPD2    C3 1419   1.334   0.204  13.529  0.0559  0.1037  0.9806
   93MPD2    C4 1420   1.363   0.284  13.422  0.6163 -0.0205 -0.3170
   93MPD2    C5 1421   1.470   0.364  13.416 -0.2165 -0.3604 -0.2685
   93MPD2     H 1422   1.423   0.127  13.709  0.6198 -0.7965 -1.4712
   93MPD2    H1 1423   1.284   0.296  13.349 -2.0333  1.1580  2.7644
   93MPD2    H2 1424   1.652   0.415  13.503 -0.2175  1.0495  1.0990
   93MPD2    H3 1425   1.485   0.446  13.347  0.2706 -2.4007 -2.6002
   93MPD2     N 1426   1.207   0.137  13.530  0.0417 -0.1108 -0.6775
   93MPD2    H5 1427   1.143   0.145  13.451 -0.0761  1.1625 -0.4471
   93MPD2    N1 1428   1.630   0.268  13.743  0.4316 -0.9379  0.2793
   93MPD2    H7 1429   1.594   0.212  13.820 -0.5038  1.3490  1.4924
   94TCq2    C1 1430   1.752   0.334  13.760 -0.2118  0.3406 -0.2712
   94TCq2    O2 1431   1.823   0.396  13.682 -0.2135 -0.5311  0.5567
   94TCq2    C2 1432   1.802   0.316  13.895 -0.3928  0.3944  0.2449
   94TCq2    C3 1433   1.713   0.286  13.998  0.5835  0.0073 -0.6383
   94TCq2    C4 1434   1.763   0.264  14.124  0.5005  0.1204  0.2842
   94TCq2    C5 1435   1.893   0.276  14.150  0.9510 -1.1106 -0.1825
   94TCq2    C6 1436   1.980   0.319  14.048 -0.4622  0.5722  0.2363
   94TCq2    C7 1437   1.939   0.349  13.921  1.3311  0.1976  0.1845
   94TCq2    C8 1438   2.128   0.299  14.064  0.5208  0.0035 -0.2427
   94TCq2    O4 1439   2.196   0.270  13.962 -0.0355  0.1766  0.1252
   94TCq2    C9 1440   1.671   0.227  14.225 -0.4024  0.1251 -0.1827
   94TCq2    O5 1441   1.565   0.173  14.189 -0.4105 -0.1390  0.1168
   94TCq2    O6 1442   1.710   0.222  14.345 -0.2355  0.3833  0.1875
   94TCq2    H2 1443   1.605   0.282  13.989  0.2656  3.1023  1.7763
   94TCq2    H3 1444   1.933   0.251  14.247 -0.2171  1.8162  1.0452
   94TCq2    H4 1445   2.010   0.375  13.843 -0.4283  0.4206 -1.3137
   95TMC2    C1 1446   1.244   1.857  15.932 -0.8594  0.5051  0.0595
   95TMC2    C2 1447   1.282   1.729  15.918 -0.2669 -0.1267 -0.2448
   95TMC2    C3 1448   1.330   1.661  16.027 -0.2254  0.3689 -0.3774
   95TMC2    C4 1449   1.257   1.928  16.047  0.1934  0.2319 -0.4295
   95TMC2    C5 1450   1.306   1.857  16.157  0.8396  0.4075 -0.5185
   95TMC2    C6 1451   1.345   1.725  16.144  0.1650 -0.0941 -0.2199
   95TMC2     C 1452   1.253   1.945  15.816 -0.2232 -0.7111  0.1386
   95TMC2     O 1453   1.332   2.041  15.825  0.4065 -0.0840 -0.6142
   95TMC2     H 1454   1.281   1.679  15.821  0.8362  1.0313 -0.8505
   95TMC2    H1 1455   1.249   2.036  16.046 -0.8049  0.1718  0.9813
   95TMC2    H2 1456   1.369   1.675  16.236 -0.0966 -1.5738 -0.9463
   95TMC2    C7 1457   1.349   1.937  16.279 -0.4140  0.1649  0.2855
   95TMC2    C8 1458   1.404   1.538  16.002  0.0732 -0.1102 -0.3819
   95TMC2    O1 1459   1.399   1.882  16.378 -0.2402 -0.0164 -0.5001
   95TMC2    O2 1460   1.375   1.443  15.929 -0.3766  0.3865  0.2336
   95TMC2    O5 1461   1.521   1.544  16.069 -0.2161 -0.0109 -0.3429
   95TMC2    H5 1462   1.547   1.634  16.098 -0.3573 -0.0712 -0.0333
   96MPD2     C 1463   1.306   1.920  15.311 -0.3624 -0.6066  0.3313
   96MPD2    C1 1464   1.363   2.004  15.397 -0.6683 -0.6141 -0.8304
   96MPD2    C2 1465   1.319   1.996  15.529 -0.3856 -0.2039 -0.3381
   96MPD2    C3 1466   1.222   1.898  15.571  0.4842 -0.3236 -0.4082
   96MPD2    C4 1467   1.165   1.808  15.480  0.4628  0.5684  0.1242
   96MPD2    C5 1468   1.217   1.826  15.353 -0.4781  0.0948  0.5737
   96MPD2     H 1469   1.364   2.057  15.606 -0.3940  0.1738 -0.6296
   96MPD2    H1 1470   1.093   1.735  15.515 -1.6083  1.9123 -1.2836
   96MPD2    H2 1471   1.347   1.920  15.211  1.7890 -2.9594  1.1946
   96MPD2    H3 1472   1.183   1.755  15.278 -0.2398 -0.0483  0.6020
   96MPD2     N 1473   1.190   1.881  15.707 -0.3104 -0.2448  1.0504
   96MPD2    H5 1474   1.151   1.790  15.727  1.2053 -1.4739 -1.6133
   96MPD2    N1 1475   1.473   2.090  15.352 -0.1502 -0.0390 -0.0641
   96MPD2    H7 1476   1.520   2.058  15.268 -0.2108  0.9859 -0.4828
   97MPD2     C 1477   3.374   4.072   0.916  0.0410  0.1399  0.1163
   97MPD2    C1 1478   3.403   4.200   0.926 -0.1861 -0.1267  0.2391
   97MPD2    C2 1479   3.413   4.277   0.811  0.6964 -0.2280  0.1206
   97MPD2    C3 1480   3.404   4.217   0.680  0.7005 -0.1215 -0.1196
   97MPD2    C4 1481   3.378   4.082   0.677  0.2968  0.3055  0.3212
   97MPD2    C5 1482   3.369   4.013   0.794  0.0425 -0.0625 -0.1102
   97MPD2     H 1483   3.443   4.380   0.826  0.7628 -0.7371  3.6614
   97MPD2    H1 1484   3.388   4.022   0.586 -1.3979 -0.4503  0.6292
   97MPD2    H2 1485   3.370   4.003   1.000 -1.0272 -0.7350 -0.6513
   97MPD2    H3 1486   3.353   3.907   0.781 -1.3526  0.1732 -0.2645
   97MPD2     N 1487   3.416   4.288   0.562  0.1491  0.0526 -0.7041
   97MPD2    H5 1488   3.397   4.235   0.478 -2.3776 -0.8218  0.3991
   97MPD2    N1 1489   3.449   4.243   1.051 -0.0391  0.1747  0.5171
   97MPD2    H7 1490   3.465   4.179   1.129  1.1694 -1.7379 -1.3174
   98TCq2    C1 1491   3.426   4.422   0.556  0.5037 -0.3043  0.9932
   98TCq2    O2 1492   3.439   4.507   0.641 -0.1264  0.0425 -0.1206
   98TCq2    C2 1493   3.453   4.466   0.421 -0.5195 -0.6555  0.4868
   98TCq2    C3 1494   3.510   4.388   0.322  0.3627  0.3346 -0.1323
   98TCq2    C4 1495   3.585   4.443   0.213 -0.8707  0.3550  0.1564
   98TCq2    C5 1496   3.612   4.575   0.222  0.1583  0.1584  0.3512
   98TCq2    C6 1497   3.551   4.650   0.315 -0.0908  0.1966 -0.3198
   98TCq2    C7 1498   3.465   4.603   0.412  1.1502  0.3525  0.3608
   98TCq2    C8 1499   3.607   0.060   0.336  0.5639 -0.3065 -0.3639
   98TCq2    O4 1500   3.720   0.094   0.311  0.8122  0.3335  0.0413
   98TCq2    C9 1501   3.636   4.358   0.112 -0.5256  0.0697 -0.2244
   98TCq2    O5 1502   3.724   4.405   0.031 -0.3654  0.1596  0.1072
   98TCq2    O6 1503   3.631   4.234   0.134 -0.4349 -0.5375 -0.1189
   98TCq2    H2 1504   3.491   4.282   0.319 -0.5982  0.5213 -0.6374
   98TCq2    H3 1505   3.675   4.629   0.152 -0.3328  0.2989  0.0177
   98TCq2    H4 1506   3.428   4.672   0.487 -1.0589 -0.0318 -0.3527
   99MPD2     C 1507   2.470   1.633   1.854 -0.4793  0.3138 -0.1934
   99MPD2    C1 1508   2.408   1.519   1.821  0.5661  0.6184  0.0343
   99MPD2    C2 1509   2.416   1.461   1.693 -0.3914  0.7507 -0.1400
   99MPD2    C3 1510   2.503   1.519   1.607 -0.0801 -0.1590  0.0445
   99MPD2    C4 1511   2.570   1.635   1.637  0.1265 -0.1507  1.2055
   99MPD2    C5 1512   2.544   1.695   1.755 -0.3455 -0.4641 -0.8089
   99MPD2     H 1513   2.374   1.360   1.693  0.3107  0.4582  0.1102
   99MPD2    H1 1514   2.646   1.678   1.573  0.0741 -2.3337 -0.3212
   99MPD2    H2 1515   2.455   1.677   1.952 -0.3923 -1.4920  0.6237
   99MPD2    H3 1516   2.592   1.788   1.782  0.3386 -0.8730 -0.6238
   99MPD2     N 1517   2.513   1.462   1.472  0.3856  0.5438 -0.2365
   99MPD2    H5 1518   2.459   1.377   1.464  1.5781 -0.0327 -2.0969
   99MPD2    N1 1519   2.319   1.448   1.903 -0.0926  0.2240  0.1727
   99MPD2    H7 1520   2.282   1.363   1.863  1.3581 -0.2450 -0.1381
  100TCq2    C1 1521   2.266   1.492   2.020 -0.0780 -0.1595  0.1583
  100TCq2    O2 1522   2.286   1.599   2.079  0.1940 -0.7178  0.6081
  100TCq2    C2 1523   2.159   1.408   2.074  0.1004  0.0588  0.2120
  100TCq2    C3 1524   2.152   1.271   2.048 -0.1135 -0.7622  0.1838
  100TCq2    C4 1525   2.049   1.202   2.102 -0.2597 -0.0972  0.8082
  100TCq2    C5 1526   1.953   1.261   2.180 -0.9822 -0.0791  0.7320
  100TCq2    C6 1527   1.973   1.395   2.211  0.5770  0.0335  0.0717
  100TCq2    C7 1528   2.081   1.468   2.175  0.2816 -0.6283  0.0095
  100TCq2    C8 1529   1.878   1.472   2.282 -0.0538 -0.2774  0.8899
  100TCq2    O4 1530   1.902   1.585   2.329  0.1884  0.5391 -0.5149
  100TCq2    C9 1531   2.035   1.062   2.077 -0.3138 -0.2207 -0.5454
  100TCq2    O5 1532   2.131   1.002   2.016 -0.3182  0.2949  0.8882
  100TCq2    O6 1533   1.929   1.005   2.118 -0.3498 -0.8142  0.6395
  100TCq2    H2 1534   2.228   1.213   1.997 -2.9769 -0.8634 -3.9091
  100TCq2    H3 1535   1.869   1.201   2.214 -0.9832 -0.3919  0.1689
  100TCq2    H4 1536   2.096   1.573   2.196 -1.2666 -0.2062 -0.9843
  101MPD2     C 1537   2.923   2.499  12.756  0.2497 -0.5720 -1.1479
  101MPD2    C1 1538   2.850   2.574  12.844 -0.4345 -0.4014 -0.5136
  101MPD2    C2 1539   2.776   2.504  12.943  0.9066  0.0435 -1.0633
  101MPD2    C3 1540   2.775   2.371  12.958  0.5470 -0.1564 -0.3538
  101MPD2    C4 1541   2.849   2.302  12.868  0.6525  0.1966 -0.6551
  101MPD2    C5 1542   2.908   2.363  12.765  0.4424 -0.0184 -0.2836
  101MPD2     H 1543   2.707   2.562  13.004  0.5919 -1.1771 -0.2589
  101MPD2    H1 1544   2.860   2.194  12.868  0.7181  0.2027  0.4629
  101MPD2    H2 1545   2.963   2.531  12.661 -0.0240 -2.1871 -1.8168
  101MPD2    H3 1546   2.948   2.288  12.699  2.2620 -1.1125  2.0670
  101MPD2     N 1547   2.696   2.317  13.069 -0.1395  0.1502  0.3358
  101MPD2    H5 1548   2.651   2.380  13.136  1.3846  1.1583  0.4075
  101MPD2    N1 1549   2.842   2.712  12.816  0.4682 -0.4783 -0.0615
  101MPD2    H7 1550   2.889   2.743  12.731  0.5012 -0.0488  0.1133
  102TCq2    C1 1551   2.993   3.073  12.565  0.1520 -0.4064  0.2494
  102TCq2    O2 1552   3.111   3.043  12.583 -0.3053 -0.5810 -0.6273
  102TCq2    C2 1553   2.906   3.071  12.682  0.4399  0.0281  0.5712
  102TCq2    C3 1554   2.791   3.138  12.655 -0.3806  0.3264 -0.0592
  102TCq2    C4 1555   2.679   3.110  12.729  0.1645  0.3205  0.9214
  102TCq2    C5 1556   2.681   3.003  12.811  0.5590 -0.0700 -0.2905
  102TCq2    C6 1557   2.795   2.936  12.834 -0.6096 -0.1154  0.2750
  102TCq2    C7 1558   2.913   2.967  12.771  0.2043  0.6944 -0.2706
  102TCq2    C8 1559   2.797   2.809  12.899 -0.1623 -0.3560  0.2277
  102TCq2    O4 1560   2.734   2.808  13.002  0.0189  0.2025  0.1754
  102TCq2    C9 1561   2.557   3.181  12.704  0.8592 -0.2953 -0.7130
  102TCq2    O5 1562   2.451   3.114  12.711 -0.3886  0.2831 -0.5337
  102TCq2    O6 1563   2.569   3.290  12.643 -0.0665 -0.0153  0.0939
  102TCq2    H2 1564   2.791   3.222  12.587  2.5307  0.6880  0.3942
  102TCq2    H3 1565   2.590   2.987  12.867 -0.4737  1.8310 -1.4180
  102TCq2    H4 1566   3.002   2.907  12.784 -0.3681 -0.0862  0.1156
  103TMC2    C1 1567   0.966   3.164  12.525  0.5742 -0.0455 -0.3002
  103TMC2    C2 1568   1.084   3.232  12.545 -0.1721  0.3639 -0.3314
  103TMC2    C3 1569   1.159   3.188  12.653  0.1702 -0.4973 -0.4316
  103TMC2    C4 1570   0.928   3.064  12.610  0.0018  0.4531  0.1393
  103TMC2    C5 1571   1.010   3.028  12.712  0.1574 -0.0280 -0.4533
  103TMC2    C6 1572   1.122   3.094  12.741  0.5229 -0.2060 -0.1244
  103TMC2     C 1573   0.868   3.209  12.431 -0.0991  0.0576 -0.0275
  103TMC2     O 1574   0.769   3.149  12.409  0.8001  0.2849  0.4690
  103TMC2     H 1575   1.127   3.312  12.487 -0.1791  0.0536 -0.7616
  103TMC2    H1 1576   0.826   3.029  12.612  0.6243 -1.3863 -0.3324
  103TMC2    H2 1577   1.190   3.065  12.820 -1.7499  0.7638  2.1619
  103TMC2    C7 1578   0.966   2.935  12.814  0.0333 -0.5483 -0.6892
  103TMC2    C8 1579   1.266   3.276  12.705  0.3475 -0.8029  0.4550
  103TMC2    O1 1580   1.027   2.951  12.919  0.2054  0.8619 -0.2382
  103TMC2    O2 1581   1.284   3.286  12.825  0.2135 -0.1789  0.0956
  103TMC2    O5 1582   1.357   3.310  12.605  0.0263  1.0159 -0.1893
  103TMC2    H5 1583   1.339   3.272  12.516 -1.2133  0.0405  0.4729
  104MPD2     C 1584   0.896   3.541  12.293  0.4070 -0.2361 -0.1093
  104MPD2    C1 1585   0.854   3.413  12.290 -0.4773 -0.1583 -0.2433
  104MPD2    C2 1586   0.760   3.361  12.197 -0.1682  1.1323 -1.2670
  104MPD2    C3 1587   0.703   3.446  12.104  0.0212 -0.0115 -0.4138
  104MPD2    C4 1588   0.753   3.577  12.097 -0.0123  0.3099  0.8959
  104MPD2    C5 1589   0.846   3.618  12.195  0.3032 -0.2807  0.7587
  104MPD2     H 1590   0.720   3.261  12.205 -0.2316  1.1773 -1.0150
  104MPD2    H1 1591   0.722   3.649  12.022  0.8117  1.1655  1.3881
  104MPD2    H2 1592   0.978   3.574  12.356  0.5074 -1.6402  0.5074
  104MPD2    H3 1593   0.895   3.714  12.193  0.4598 -0.4266 -1.5295
  104MPD2     N 1594   0.588   3.406  12.017  0.9920 -0.1780 -0.9049
  104MPD2    H5 1595   0.544   3.315  12.033 -1.5611  1.1123 -0.5026
  104MPD2    N1 1596   0.906   3.339  12.396 -0.8381  0.5173  0.7091
  104MPD2    H7 1597   0.985   3.384  12.442 -1.0791  1.6594  0.0113
  105MPD2     C 1598   2.441   1.729  17.574  0.1892 -0.0573  0.1001
  105MPD2    C1 1599   2.446   1.868  17.607 -0.3241  0.5412 -0.2069
  105MPD2    C2 1600   2.409   1.899   0.044  0.0303  0.2433  0.4185
  105MPD2    C3 1601   2.374   1.806   0.136 -0.2929 -0.1964 -1.0548
  105MPD2    C4 1602   2.374   1.670   0.099 -0.3328 -0.0525 -0.5709
  105MPD2    C5 1603   2.409   1.634  17.665 -0.3067  0.2445 -0.6956
  105MPD2     H 1604   2.395   2.001   0.077 -1.7735  0.2121 -0.2277
  105MPD2    H1 1605   2.351   1.592   0.171  0.7350  0.5823  0.4536
  105MPD2    H2 1606   2.474   1.698  17.476  0.7337 -4.9552  1.7807
  105MPD2    H3 1607   2.436   1.533  17.635  1.2976  0.9998 -1.7865
  105MPD2     N 1608   2.338   1.842   0.271 -0.0565 -0.1564  0.1170
  105MPD2    H5 1609   2.357   1.938   0.298  0.2112 -0.0987 -0.2847
  105MPD2    N1 1610   2.470   1.971  17.511 -0.1585 -0.1135 -0.0131
  105MPD2    H7 1611   2.443   2.061  17.548  0.0221 -0.1955  0.3160
  106TCq2    C1 1612   2.247   1.775   0.353 -0.1631  0.0488  0.2622
  106TCq2    O2 1613   2.168   1.689   0.312  0.0965 -0.2705 -0.0586
  106TCq2    C2 1614   2.215   1.845   0.471 -0.4111 -0.1507 -0.6044
  106TCq2    C3 1615   2.319   1.921   0.528 -0.5504  0.4156  0.0209
  106TCq2    C4 1616   2.295   1.979   0.649 -0.3840 -0.3166  0.0894
  106TCq2    C5 1617   2.190   1.945   0.724 -0.8517 -0.5075  0.3301
  106TCq2    C6 1618   2.100   1.852   0.678 -0.2523  0.1199  1.2394
  106TCq2    C7 1619   2.109   1.802   0.550  0.8854  0.7049  0.0256
  106TCq2    C8 1620   1.997   1.809   0.767 -0.5437 -0.0119  0.6402
  106TCq2    O4 1621   1.918   1.722   0.729  0.1544  0.5482 -0.5939
  106TCq2    C9 1622   2.389   2.071   0.704 -0.1123 -0.4494  0.3735
  106TCq2    O5 1623   2.494   2.088   0.638 -0.9247 -0.0051 -0.2522
  106TCq2    O6 1624   2.361   2.134   0.808 -0.0933 -0.2674  0.2017
  106TCq2    H2 1625   2.417   1.947   0.489 -1.3935  2.0889 -1.0095
  106TCq2    H3 1626   2.188   1.998   0.819  0.4494 -0.5739  0.3915
  106TCq2    H4 1627   2.045   1.723   0.513  3.0330 -0.6041 -0.8929
  107TMC2    C1 1628   3.778   0.902  11.697 -0.1515  0.4663 -0.1738
  107TMC2    C2 1629   3.686   0.957  11.611 -0.4019 -0.3351  0.1403
  107TMC2    C3 1630   3.724   0.973  11.477  0.1642  0.0396 -0.7685
  107TMC2    C4 1631   3.892   0.856  11.650  0.1230 -0.1980  0.0228
  107TMC2    C5 1632   3.918   0.850  11.514 -0.0948  0.6333  0.3880
  107TMC2    C6 1633   3.841   0.923  11.431 -0.3450  0.4079  1.0115
  107TMC2     C 1634   3.736   0.880  11.833 -0.3925  0.3365 -0.1326
  107TMC2     O 1635   3.636   0.941  11.860 -0.5842 -0.5337  0.6166
  107TMC2     H 1636   3.585   0.988  11.637 -0.7807  0.6722 -2.5418
  107TMC2    H1 1637   3.961   0.803  11.714  1.7730  0.1374 -1.4516
  107TMC2    H2 1638   3.884   0.949  11.335 -0.9654  1.1474  0.9408
  107TMC2    C7 1639   4.053   0.804  11.473  0.2410  0.3649  0.6103
  107TMC2    C8 1640   3.620   1.022  11.387  0.7212  0.6803  1.0717
  107TMC2    O1 1641   4.132   0.791  11.568 -0.2851 -0.3212 -0.2718
  107TMC2    O2 1642   3.523   1.088  11.424 -0.1545  0.1552 -0.0551
  107TMC2    O5 1643   3.664   1.006  11.257  0.5305  0.3015 -0.3652
  107TMC2    H5 1644   3.722   0.927  11.258  0.1086 -0.0304 -1.3317
  108MPD2     C 1645   3.882   0.692  12.128 -0.1639 -0.3237  0.4717
  108MPD2    C1 1646   3.804   0.777  12.056 -0.2794  0.0338  0.4366
  108MPD2    C2 1647   3.697   0.842  12.125  0.0450  0.5236  0.5510
  108MPD2    C3 1648   3.676   0.822  12.257  0.2381  0.1649  0.1617
  108MPD2    C4 1649   3.757   0.735  12.331 -0.0790 -0.5190  0.1531
  108MPD2    C5 1650   3.862   0.672  12.265 -0.0151 -0.4953  0.7281
  108MPD2     H 1651   3.637   0.908  12.064  0.9719  1.9371  1.1679
  108MPD2    H1 1652   3.734   0.717  12.435 -1.9453  2.3247  0.2176
  108MPD2    H2 1653   3.958   0.631  12.080  1.9199  2.8759 -0.3181
  108MPD2    H3 1654   3.924   0.608  12.325  2.5943 -0.1350 -1.5977
  108MPD2     N 1655   3.561   0.876  12.323 -0.2839 -0.2668  0.9409
  108MPD2    H5 1656   3.548   0.844  12.419  2.8649 -0.2017  1.3792
  108MPD2    N1 1657   3.820   0.800  11.912 -0.1512  0.1008  0.2365
  108MPD2    H7 1658   3.896   0.749  11.868 -0.0813  0.0543  0.4141
  109MPD2     C 1659   3.009   3.614   2.180 -0.3551  0.0765 -0.1297
  109MPD2    C1 1660   3.051   3.638   2.049  0.0807  0.7102  0.3013
  109MPD2    C2 1661   3.187   3.666   2.030  0.7210 -0.1623 -0.1963
  109MPD2    C3 1662   3.280   3.652   2.132 -0.0570  0.1619  0.1978
  109MPD2    C4 1663   3.235   3.622   2.262  0.5290  0.9384 -0.3731
  109MPD2    C5 1664   3.100   3.604   2.283  0.0014  0.1920  0.0532
  109MPD2     H 1665   3.219   3.696   1.931 -0.3589 -1.4772 -0.9427
  109MPD2    H1 1666   3.297   3.605   2.349 -0.0348  1.7742  0.1924
  109MPD2    H2 1667   2.911   3.571   2.197  0.5278 -1.0817  2.0528
  109MPD2    H3 1668   3.071   3.575   2.383  0.9844  0.6326  0.4689
  109MPD2     N 1669   3.416   3.666   2.097 -0.1321  0.1471 -0.2692
  109MPD2    H5 1670   3.438   3.678   1.999 -0.0846  1.8621 -0.0517
  109MPD2    N1 1671   2.942   3.630   1.959 -0.0194  0.2261  0.5247
  109MPD2    H7 1672   2.847   3.612   1.992 -0.9827  0.5657 -2.0641
  110TCq2    C1 1673   3.528   3.652   2.177 -0.8089 -0.2323  0.0918
  110TCq2    O2 1674   3.529   3.645   2.300  0.2223 -0.1025 -0.3768
  110TCq2    C2 1675   3.653   3.660   2.109  0.1437 -0.1642  0.4448
  110TCq2    C3 1676   3.763   3.608   2.171  0.0016 -0.2380 -0.0086
  110TCq2    C4 1677   3.892   3.629   2.122 -0.3412 -0.2778 -0.4305
  110TCq2    C5 1678   3.910   3.698   2.004 -0.3246 -0.0362  0.0985
  110TCq2    C6 1679   3.795   3.732   1.937 -0.6457  0.7137  0.3763
  110TCq2    C7 1680   3.666   3.725   1.992  0.9833 -0.0187 -0.0932
  110TCq2    C8 1681   3.808   3.818   1.825  0.1838  0.2705  0.2554
  110TCq2    O4 1682   3.706   3.874   1.783  0.2190 -0.5160  0.5163
  110TCq2    C9 1683   4.008   3.587   2.194  0.3252  0.0134  0.2834
  110TCq2    O5 1684   3.993   3.532   2.307 -0.4113  0.7453 -0.0027
  110TCq2    O6 1685   4.123   3.599   2.147  0.3956  0.0362 -0.3574
  110TCq2    H2 1686   3.758   3.555   2.265 -0.7815 -0.2037 -0.0286
  110TCq2    H3 1687   4.007   3.734   1.972 -0.2224 -0.6541 -0.3128
  110TCq2    H4 1688   3.592   3.768   1.925  1.3609  0.7420 -0.0160
  111TMC2    C1 1689   3.678   3.183  11.085  0.0760 -0.3672 -0.3057
  111TMC2    C2 1690   3.780   3.223  10.997  0.1001 -0.0841  0.1065
  111TMC2    C3 1691   3.865   3.320  11.039 -0.2342 -0.3007  0.2534
  111TMC2    C4 1692   3.666   3.226  11.218 -0.2208 -0.2618 -0.1101
  111TMC2    C5 1693   3.761   3.322  11.252  0.1058 -0.0492  0.1833
  111TMC2    C6 1694   3.860   3.367  11.170  0.0256 -0.8139  0.4256
  111TMC2     C 1695   3.555   3.169  11.010 -0.4569 -0.0375  0.1907
  111TMC2     O 1696   3.555   3.236  10.909 -0.2299  0.3884  0.1946
  111TMC2     H 1697   3.767   3.197  10.893 -3.3874 -3.9173  1.5054
  111TMC2    H1 1698   3.586   3.190  11.281  0.3049  1.0915  1.3191
  111TMC2    H2 1699   3.922   3.451  11.198  0.6323 -0.7887 -0.9882
  111TMC2    C7 1700   3.786   3.344  11.392 -0.1266  0.6621 -0.5127
  111TMC2    C8 1701   3.975   3.370  10.962 -0.9537  0.4225 -0.1417
  111TMC2    O1 1702   3.710   3.279  11.466 -0.3975 -0.5117 -0.1849
  111TMC2    O2 1703   4.005   3.491  10.968  0.1174 -0.3205  0.1455
  111TMC2    O5 1704   3.982   3.293  10.851  0.6488  0.2225 -0.1206
  111TMC2    H5 1705   3.967   3.198  10.869 -1.0431  0.4302 -0.4792
  112MPD2     C 1706   3.112   2.947  10.882  1.1428 -0.2387 -0.2132
  112MPD2    C1 1707   3.189   3.038  10.816 -0.3474  0.2272 -0.2411
  112MPD2    C2 1708   3.302   3.088  10.880 -0.0276 -0.6438  0.4335
  112MPD2    C3 1709   3.348   3.036  10.995  0.1759 -0.0473  0.2628
  112MPD2    C4 1710   3.282   2.927  11.048 -0.6399  0.1729 -0.5621
  112MPD2    C5 1711   3.163   2.889  10.998 -0.1095  0.6633  0.1379
  112MPD2     H 1712   3.360   3.162  10.826 -1.0627  0.6472  1.0855
  112MPD2    H1 1713   3.313   2.870  11.135 -1.2472  1.1646  0.3086
  112MPD2    H2 1714   3.011   2.926  10.848  1.0056  0.6787 -0.3723
  112MPD2    H3 1715   3.111   2.809  11.051  0.6754  0.0859  0.0356
  112MPD2     N 1716   3.463   3.080  11.063 -0.1748 -0.3079  0.4744
  112MPD2    H5 1717   3.496   3.033  11.146 -0.5732  1.1222  1.4499
  112MPD2    N1 1718   3.158   3.098  10.690 -0.4772 -0.1367  0.3517
  112MPD2    H7 1719   3.210   3.181  10.660 -1.6049  1.1377  1.9157
  113MPD2     C 1720   1.589   1.244   1.111 -0.4441  0.3809  0.1390
  113MPD2    C1 1721   1.468   1.223   1.176 -0.1625 -0.1439 -0.4828
  113MPD2    C2 1722   1.350   1.213   1.106 -0.9591 -0.0914  0.4141
  113MPD2    C3 1723   1.350   1.236   0.973 -0.0438  0.3579 -0.8615
  113MPD2    C4 1724   1.468   1.250   0.902 -0.7459 -0.0989 -0.0234
  113MPD2    C5 1725   1.586   1.262   0.972  0.2413  0.7208 -0.2351
  113MPD2     H 1726   1.255   1.193   1.154 -1.1003 -1.8484 -0.5638
  113MPD2    H1 1727   1.471   1.273   0.796 -1.5577  1.2086  0.2313
  113MPD2    H2 1728   1.684   1.241   1.162  0.2905 -3.2090 -1.4345
  113MPD2    H3 1729   1.674   1.273   0.910  1.0327 -1.3387  0.5095
  113MPD2     N 1730   1.233   1.231   0.892 -0.0349  0.1666  0.5628
  113MPD2    H5 1731   1.259   1.235   0.794 -1.5686 -0.0127  0.1573
  113MPD2    N1 1732   1.465   1.221   1.314  0.3677 -0.2965  0.1770
  113MPD2    H7 1733   1.377   1.214   1.364 -0.1379  1.7020 -0.4421
  114TCq2    C1 1734   1.104   1.198   0.931 -0.0596  0.3118 -0.5029
  114TCq2    O2 1735   1.064   1.166   1.037  0.3279  0.0780 -0.6435
  114TCq2    C2 1736   1.014   1.173   0.819  0.4133  0.0575 -0.2720
  114TCq2    C3 1737   1.032   1.224   0.698  0.2375 -0.2225 -0.2590
  114TCq2    C4 1738   0.983   1.164   0.585  0.4133  0.1736 -0.0209
  114TCq2    C5 1739   0.912   1.047   0.593  0.0026 -0.3086  0.3312
  114TCq2    C6 1740   0.897   0.985   0.710 -0.3436 -0.7927  1.4156
  114TCq2    C7 1741   0.946   1.048   0.826 -0.4651  0.3360  0.0163
  114TCq2    C8 1742   0.802   0.868   0.716  0.2406 -0.7735  0.6104
  114TCq2    O4 1743   0.730   0.854   0.618 -0.4587 -0.3217  0.1284
  114TCq2    C9 1744   1.017   1.211   0.457 -0.1289 -0.8819  0.9802
  114TCq2    O5 1745   0.944   1.175   0.363 -0.0542  0.0678 -0.6747
  114TCq2    O6 1746   1.095   1.309   0.451 -0.2715 -0.1475  0.4764
  114TCq2    H2 1747   1.093   1.314   0.693 -0.7271  0.4444  0.0958
  114TCq2    H3 1748   0.896   0.997   0.498  3.0984  1.6032 -1.2019
  114TCq2    H4 1749   0.930   1.011   0.926  0.3549  0.6607  0.2685
  115TMC2    C1 1750   1.716   4.594   0.028  0.2393 -0.4321 -0.1345
  115TMC2    C2 1751   1.621   4.629   0.124  0.5489 -0.6016 -0.2940
  115TMC2    C3 1752   1.613   0.038   0.151 -0.5639  0.0273  0.6862
  115TMC2    C4 1753   1.811   4.684  17.666 -0.0817  0.0009  0.3618
  115TMC2    C5 1754   1.795   0.097   0.012  0.7805 -0.5148  0.0211
  115TMC2    C6 1755   1.694   0.129   0.100 -0.7284 -0.1379 -0.1696
  115TMC2     C 1756   1.746   4.455   0.033 -0.1458  0.0122  0.3267
  115TMC2     O 1757   1.761   4.393  17.618  0.9334  0.3586  0.0291
  115TMC2     H 1758   1.540   4.561   0.145  1.9344 -2.6044 -1.4687
  115TMC2    H1 1759   1.892   4.644  17.606 -1.0226 -1.7299  0.2622
  115TMC2    H2 1760   1.685   0.235   0.120 -0.9540 -0.1464 -0.2301
  115TMC2    C7 1761   1.903   0.184  17.663  0.1935 -0.3842 -0.0123
  115TMC2    C8 1762   1.480   0.098   0.181  0.5915 -0.0856  0.0434
  115TMC2    O1 1763   1.957   0.163  17.554  0.1413 -0.2158 -0.3064
  115TMC2    O2 1764   1.404   0.029   0.242 -0.0671 -0.2431  0.0229
  115TMC2    O5 1765   1.448   0.164   0.076  0.5554  0.4560 -0.4165
  115TMC2    H5 1766   1.512   0.191   0.006  1.9794 -1.6091  0.0954
  116MPD2     C 1767   1.898   4.044   0.290  0.2459  0.5450  0.0405
  116MPD2    C1 1768   1.870   4.061   0.158 -0.3220  0.2743  0.8232
  116MPD2    C2 1769   1.829   4.185   0.113  0.8460 -0.0230  0.1050
  116MPD2    C3 1770   1.811   4.288   0.201  0.7681  0.0750  0.1459
  116MPD2    C4 1771   1.841   4.267   0.339  0.1635  0.4354 -0.2770
  116MPD2    C5 1772   1.888   4.143   0.374  0.4376  0.2342  0.3508
  116MPD2     H 1773   1.831   4.209   0.007  2.4357  1.9006  0.5644
  116MPD2    H1 1774   1.836   4.347   0.412  0.8890 -0.0512  0.3092
  116MPD2    H2 1775   1.926   3.944   0.321  1.2915  1.0359  0.6574
  116MPD2    H3 1776   1.929   4.128   0.473  1.3156  2.9087  0.4081
  116MPD2     N 1777   1.765   4.421   0.160  0.1149 -0.2235  0.2601
  116MPD2    H5 1778   1.755   4.490   0.234  0.3162 -0.0175  0.0945
  116MPD2    N1 1779   1.892   3.948   0.075 -0.2377 -0.5562  0.3522
  116MPD2    H7 1780   1.930   3.860   0.109 -0.3594 -0.6980  0.1301
  117TMC2    C1 1781   0.730   0.561  14.161  0.1527 -0.2973 -0.1944
  117TMC2    C2 1782   0.703   0.524  14.294  0.2728  0.4521  0.4907
  117TMC2    C3 1783   0.760   0.600  14.386  0.6872 -0.0798  0.7025
  117TMC2    C4 1784   0.799   0.677  14.122 -0.1530  0.0993 -0.0461
  117TMC2    C5 1785   0.852   0.749  14.224  0.6455  0.4909  0.9348
  117TMC2    C6 1786   0.838   0.714  14.361  0.5168  0.2929  0.0221
  117TMC2     C 1787   0.618   0.540  14.081 -0.0595  0.1032 -0.2176
  117TMC2     O 1788   0.600   0.426  14.038 -0.2928 -0.3559 -0.3917
  117TMC2     H 1789   0.649   0.431  14.305  1.6202 -0.6195 -2.0778
  117TMC2    H1 1790   0.804   0.715  14.021  0.2565  1.4581  0.4797
  117TMC2    H2 1791   0.880   0.775  14.440  0.3444  1.1010 -0.5080
  117TMC2    C7 1792   0.891   0.884  14.188 -0.0525 -0.1307  0.2479
  117TMC2    C8 1793   0.751   0.575  14.524  0.1679 -0.3579 -0.0143
  117TMC2    O1 1794   0.837   0.934  14.087  0.0351 -0.3767 -0.2395
  117TMC2    O2 1795   0.733   0.656  14.613 -0.2019 -0.4582 -0.0387
  117TMC2    O5 1796   0.808   0.455  14.539  0.1307 -0.2096  0.0296
  117TMC2    H5 1797   0.827   0.414  14.452  2.5701 -0.0067  0.4668
  118MPD2     C 1798   1.154   1.085  14.333 -0.6190  0.6550  0.1826
  118MPD2    C1 1799   1.082   1.036  14.225 -0.2477 -0.1458  0.4652
  118MPD2    C2 1800   1.088   1.106  14.108  0.1146  0.0671  0.5184
  118MPD2    C3 1801   1.166   1.212  14.088 -0.4734 -0.2989  0.4328
  118MPD2    C4 1802   1.246   1.255  14.191  0.0222 -0.8529 -0.2304
  118MPD2    C5 1803   1.236   1.190  14.311  0.3511  0.0182  0.0966
  118MPD2     H 1804   1.011   1.078  14.037  2.2937 -2.3113 -0.9131
  118MPD2    H1 1805   1.315   1.337  14.183  1.4217 -1.8291  1.7973
  118MPD2    H2 1806   1.154   1.054  14.437 -0.0877  1.1380  0.3282
  118MPD2    H3 1807   1.300   1.226  14.390 -2.3468  0.1635  2.2324
  118MPD2     N 1808   1.171   1.280  13.964 -0.3013 -0.1481 -0.6295
  118MPD2    H5 1809   1.249   1.343  13.952  0.5474 -1.2689 -0.9849
  118MPD2    N1 1810   1.000   0.928  14.261 -0.3901 -0.1133  0.4876
  118MPD2    H7 1811   1.027   0.886  14.349  1.3261 -0.6714 -0.2976
  119MPD2     C 1812   4.043   2.660  14.130  0.7519  0.5137 -0.4870
  119MPD2    C1 1813   3.914   2.617  14.104 -0.0114  0.5204  0.5936
  119MPD2    C2 1814   3.876   2.567  13.984 -0.1492 -0.4303 -0.7839
  119MPD2    C3 1815   3.977   2.517  13.908 -0.2901  0.8889  0.3794
  119MPD2    C4 1816   4.104   2.535  13.944  0.4343  0.8769 -0.2169
  119MPD2    C5 1817   4.140   2.614  14.048  0.3357  0.5915  0.2246
  119MPD2     H 1818   3.773   2.542  13.958 -0.7692  0.8535  0.4270
  119MPD2    H1 1819   4.175   2.489  13.875 -0.0195  0.3807 -0.3491
  119MPD2    H2 1820   4.071   2.715  14.219 -0.6814 -0.5132  0.5904
  119MPD2    H3 1821   4.245   2.638  14.062  0.1246  2.3023 -1.0723
  119MPD2     N 1822   3.947   2.434  13.796 -0.4419  0.0173 -0.2824
  119MPD2    H5 1823   4.025   2.413  13.734 -0.4060  1.3198 -0.6755
  119MPD2    N1 1824   3.819   2.643  14.206  0.0222  0.2539  0.1408
  119MPD2    H7 1825   3.847   2.711  14.276  0.5285  0.2291 -0.0335
  120TCq2    C1 1826   3.819   2.381  13.764 -0.1446  0.1103 -0.0136
  120TCq2    O2 1827   3.733   2.337  13.844 -0.2893  0.0555 -0.8893
  120TCq2    C2 1828   3.821   2.316  13.633  0.0616  0.2132  0.0144
  120TCq2    C3 1829   3.921   2.341  13.538 -0.0331 -0.6809 -0.4023
  120TCq2    C4 1830   3.916   2.291  13.415  1.1978  0.2600  0.1563
  120TCq2    C5 1831   3.819   2.194  13.386 -0.2673  0.2117 -0.3158
  120TCq2    C6 1832   3.722   2.174  13.482 -0.2227 -0.8182 -0.0614
  120TCq2    C7 1833   3.707   2.238  13.607  0.0711  0.4027 -0.3109
  120TCq2    C8 1834   3.609   2.085  13.455  0.1122 -0.3175 -0.3478
  120TCq2    O4 1835   3.578   2.083  13.338 -0.0752  0.4581 -0.2630
  120TCq2    C9 1836   4.021   2.315  13.318 -0.4372 -0.1785 -0.0842
  120TCq2    O5 1837   4.031   2.237  13.220  0.5264  0.2267 -0.4062
  120TCq2    O6 1838   4.079   2.426  13.330 -0.1092 -0.2263 -0.5787
  120TCq2    H2 1839   4.009   2.402  13.553 -0.8453 -0.6961  4.4201
  120TCq2    H3 1840   3.823   2.140  13.292  1.2016 -0.0031 -0.1335
  120TCq2    H4 1841   3.612   2.229  13.657  0.5498  0.6115  0.6442
  121TMC2    C1 1842   0.657   3.542  14.184 -0.2115  0.0611 -0.7735
  121TMC2    C2 1843   0.625   3.424  14.248  0.0526 -0.1143 -0.6428
  121TMC2    C3 1844   0.491   3.396  14.260 -0.3046 -1.3018  0.4934
  121TMC2    C4 1845   0.562   3.634  14.147  0.2178 -0.4383 -0.3341
  121TMC2    C5 1846   0.430   3.606  14.166 -0.7207 -0.2564 -0.7502
  121TMC2    C6 1847   0.396   3.482  14.215 -0.7962  1.1235  0.1216
  121TMC2     C 1848   0.791   3.582  14.186  0.5553 -0.5329  0.0362
  121TMC2     O 1849   0.864   3.518  14.257  0.4336 -0.2827  0.0993
  121TMC2     H 1850   0.703   3.352  14.270 -0.4788 -1.4584 -3.2082
  121TMC2    H1 1851   0.587   3.737  14.126  1.4888 -0.5816  0.4802
  121TMC2    H2 1852   0.293   3.448  14.213 -0.4243  0.0031  0.0262
  121TMC2    C7 1853   0.338   3.702  14.110 -0.2845 -0.1182 -0.2806
  121TMC2    C8 1854   0.440   3.307  14.363 -0.5454  0.3680 -0.2198
  121TMC2    O1 1855   0.384   3.793  14.043  0.1345  0.1028 -0.4832
  121TMC2    O2 1856   0.327   3.332  14.406 -0.4240 -0.5760 -0.0284
  121TMC2    O5 1857   0.539   3.275  14.441  0.0461  0.0666 -0.1227
  121TMC2    H5 1858   0.626   3.261  14.399  0.7378  3.5290  0.1387
  122MPD2     C 1859   1.048   3.726  14.166  0.2676  0.0819 -0.0912
  122MPD2    C1 1860   0.950   3.730  14.065 -0.4291  0.3595  0.5236
  122MPD2    C2 1861   0.969   3.812  13.959 -0.4193 -1.1444 -0.2092
  122MPD2    C3 1862   1.087   3.892  13.950 -0.1130  0.5510 -0.5616
  122MPD2    C4 1863   1.196   3.868  14.032 -0.4251  0.5036  0.0604
  122MPD2    C5 1864   1.171   3.801  14.148 -0.8259 -0.5078  0.1049
  122MPD2     H 1865   0.890   3.820  13.886 -0.9557 -0.9917  0.3828
  122MPD2    H1 1866   1.289   3.921  14.023 -0.9217  1.1026 -1.4748
  122MPD2    H2 1867   1.027   3.674  14.259  1.1491 -0.6583 -0.3022
  122MPD2    H3 1868   1.250   3.797  14.223  0.4009 -1.3258 -1.2323
  122MPD2     N 1869   1.106   3.988  13.852 -0.7372  0.0499  0.6761
  122MPD2    H5 1870   1.201   4.021  13.844 -0.5684 -0.5977  0.0566
  122MPD2    N1 1871   0.823   3.664  14.083  0.1685  0.3847 -0.2499
  122MPD2    H7 1872   0.749   3.689  14.018  0.8661 -0.5293 -1.3920
  123MPD2     C 1873   3.605   1.774  10.265 -0.2734 -0.1440  0.4836
  123MPD2    C1 1874   3.584   1.881  10.179 -0.1838 -0.2103 -0.4218
  123MPD2    C2 1875   3.648   1.992  10.204  0.6114  0.4037 -0.1971
  123MPD2    C3 1876   3.722   2.010  10.322 -0.1199  0.3814  0.2704
  123MPD2    C4 1877   3.724   1.913  10.417  0.2384  0.6784 -0.2582
  123MPD2    C5 1878   3.665   1.795  10.388  0.0679  0.3207 -0.2817
  123MPD2     H 1879   3.653   2.069  10.127 -2.4257  1.6155  0.8367
  123MPD2    H1 1880   3.776   1.927  10.510  0.1498  0.8356 -0.2331
  123MPD2    H2 1881   3.585   1.674  10.227 -1.7357  1.2376 -2.4141
  123MPD2    H3 1882   3.675   1.712  10.457 -1.2431 -0.9630 -1.6233
  123MPD2     N 1883   3.793   2.130  10.334  0.0469  0.1914  0.2829
  123MPD2    H5 1884   3.786   2.200  10.261  0.7741 -0.3319 -0.2832
  123MPD2    N1 1885   3.502   1.857  10.072  0.4299 -0.4643 -0.1338
  123MPD2    H7 1886   3.477   1.761  10.055 -0.9972  0.0249 -0.8025
  124TCq2    C1 1887   3.869   2.174  10.442  0.3552 -0.1527  0.3833
  124TCq2    O2 1888   3.897   2.111  10.540 -0.3668  0.0342  0.1249
  124TCq2    C2 1889   3.969   2.268  10.396  0.5479 -0.7234 -0.3570
  124TCq2    C3 1890   3.929   2.380  10.324  0.3529 -1.0284  0.1140
  124TCq2    C4 1891   4.032   2.463  10.288 -0.3928  0.4520  0.4152
  124TCq2    C5 1892   4.163   2.441  10.324 -0.1425  0.7327 -0.3182
  124TCq2    C6 1893   4.188   2.327  10.386  1.0325  0.2198  0.3489
  124TCq2    C7 1894   4.097   2.236  10.422  0.2821  0.7028  0.0865
  124TCq2    C8 1895   4.332   2.301  10.417 -0.5315  0.4802  0.3758
  124TCq2    O4 1896   4.414   2.389  10.420  0.1399  0.7908  0.2710
  124TCq2    C9 1897   4.008   2.572  10.195 -0.0474  0.2666  0.1648
  124TCq2    O5 1898   4.112   2.619  10.142 -0.5555  0.3213  0.8858
  124TCq2    O6 1899   3.896   2.566  10.136  0.1634 -0.2868  0.2257
  124TCq2    H2 1900   3.829   2.392  10.283  0.0706 -0.1486  1.0279
  124TCq2    H3 1901   4.246   2.505  10.299 -1.1580  1.7619 -1.0210
  124TCq2    H4 1902   4.124   2.150  10.482 -0.2432  2.5935  3.0605
  125TMC2    C1 1903   3.812   4.420   9.339 -0.5301 -0.6752 -0.4025
  125TMC2    C2 1904   3.716   4.507   9.290 -0.3312  0.2045  0.9529
  125TMC2    C3 1905   3.766   4.615   9.223  0.5847  0.9716  0.0600
  125TMC2    C4 1906   3.942   4.431   9.302  0.4345 -0.1971  0.4911
  125TMC2    C5 1907   3.978   4.530   9.214 -0.3203  0.7420 -0.3342
  125TMC2    C6 1908   3.887   4.614   9.159  0.5409 -0.0924  0.2034
  125TMC2     C 1909   3.772   4.311   9.420  0.2275 -0.5416 -0.5940
  125TMC2     O 1910   3.682   4.328   9.500 -0.1416  0.3748 -0.0066
  125TMC2     H 1911   3.617   4.505   9.334 -1.1388  0.3611 -0.8822
  125TMC2    H1 1912   4.017   4.357   9.326 -1.0410 -1.8803 -0.0975
  125TMC2    H2 1913   3.912   4.696   9.093  1.4788 -0.5577 -0.0198
  125TMC2    C7 1914   4.115   4.561   9.173 -0.2838  0.0710 -0.2586
  125TMC2    C8 1915   3.667   4.705   9.173 -0.2087 -0.3880 -0.3226
  125TMC2    O1 1916   4.139   4.642   9.089 -0.0160 -0.1170  0.3781
  125TMC2    O2 1917   3.557   4.670   9.129 -0.4680 -0.2292 -0.0770
  125TMC2    O5 1918   3.716   0.110   9.173 -0.2764  0.2361 -0.2654
  125TMC2    H5 1919   3.799   0.118   9.225  0.4177 -2.0740 -1.0168
  126MPD1     C 1920   3.769   3.796   9.464 -0.6621 -0.0114  0.3620
  126MPD1    C1 1921   3.874   3.827   9.379  0.1890  0.1673 -0.9086
  126MPD1    C2 1922   3.889   3.960   9.351  0.4028  0.6722  0.3626
  126MPD1    C3 1923   3.813   4.059   9.412 -0.1277  0.3624  0.4889
  126MPD1    C4 1924   3.729   4.029   9.516 -0.1370  0.1571  0.3321
  126MPD1    C5 1925   3.709   3.895   9.542 -0.2279  0.6364 -0.7679
  126MPD1     H 1926   3.966   3.989   9.280 -2.3104  1.0412 -2.4320
  126MPD1    H1 1927   3.667   4.098   9.572 -1.2799 -1.3242  0.9143
  126MPD1    H2 1928   3.735   3.695   9.482  0.1595 -0.3138  0.2177
  126MPD1    H3 1929   3.639   3.860   9.618  0.3480 -0.5161 -0.7646
  126MPD1     N 1930   3.832   4.193   9.371 -0.4518 -0.0441 -0.3742
  126MPD1    H5 1931   3.892   4.210   9.291 -0.0613  1.0959  0.1509
  126MPD1    N1 1932   3.946   3.729   9.304  0.0926 -0.5462  0.0929
  126MPD1    H6 1933   4.035   3.766   9.269 -0.5432  0.1861 -0.7372
  126MPD1    H7 1934   3.968   3.639   9.347  1.3428 -0.1176  0.3594
  127MPD2     C 1935   0.685   3.128   9.890 -0.7407  0.0337  0.3219
  127MPD2    C1 1936   0.819   3.140   9.919 -0.2997 -0.5245  0.0794
  127MPD2    C2 1937   0.876   3.265   9.921  0.3635  0.1870 -0.9480
  127MPD2    C3 1938   0.804   3.376   9.906  0.2618  0.1533  0.2987
  127MPD2    C4 1939   0.676   3.361   9.868 -0.1116  0.2727  1.0805
  127MPD2    C5 1940   0.611   3.238   9.868  0.3910  0.3012 -0.2944
  127MPD2     H 1941   0.980   3.275   9.953 -0.1308 -1.8385  1.2866
  127MPD2    H1 1942   0.614   3.449   9.853 -0.9071 -0.1462  1.8699
  127MPD2    H2 1943   0.629   3.035   9.889  1.6442 -1.3949 -0.6806
  127MPD2    H3 1944   0.506   3.225   9.842 -0.0891  1.6804  0.9418
  127MPD2     N 1945   0.878   3.498   9.914  0.0745  0.1998 -0.1853
  127MPD2    H5 1946   0.973   3.498   9.950  0.4463 -1.4027 -1.1490
  127MPD2    N1 1947   0.890   3.015   9.948 -0.4227 -0.0855 -0.4172
  127MPD2    H7 1948   0.839   2.927   9.939  0.1183 -0.3746 -0.6316
  128TCq2    C1 1949   1.023   2.997   9.961 -0.4767  0.6495  0.2296
  128TCq2    O2 1950   1.114   3.079   9.923  0.0933 -0.2773 -0.1459
  128TCq2    C2 1951   1.074   2.871  10.019  0.1455  0.5834 -0.4004
  128TCq2    C3 1952   1.203   2.887  10.063  0.2658 -0.1593  0.8100
  128TCq2    C4 1953   1.243   2.848  10.187 -0.2611 -0.1321  0.1816
  128TCq2    C5 1954   1.153   2.788  10.270  0.6447 -0.4653 -0.7828
  128TCq2    C6 1955   1.027   2.763  10.221 -0.4259  0.6174  0.0160
  128TCq2    C7 1956   0.983   2.805  10.098  0.2352  0.0262 -0.4893
  128TCq2    C8 1957   0.936   2.680  10.295  0.5604 -0.3840  0.5493
  128TCq2    O4 1958   0.947   2.664  10.416 -0.5517 -0.0458  0.2188
  128TCq2    C9 1959   1.383   2.873  10.215 -0.4758  0.0887  0.3967
  128TCq2    O5 1960   1.469   2.893  10.126  0.7014 -0.7939 -0.2428
  128TCq2    O6 1961   1.416   2.891  10.334  0.5738 -0.1780  0.0929
  128TCq2    H2 1962   1.274   2.943  10.003  0.8450  0.2351  1.8629
  128TCq2    H3 1963   1.183   2.746  10.366 -0.8430  0.6502  0.1802
  128TCq2    H4 1964   0.878   2.796  10.072  0.2761 -2.9847  0.3563
  129MPD2     C 1965   3.601   3.425   1.771  0.0852 -0.0583 -0.0121
  129MPD2    C1 1966   3.730   3.381   1.808 -0.3943  0.3188 -0.1637
  129MPD2    C2 1967   3.830   3.420   1.714  0.1602 -0.1084  0.1844
  129MPD2    C3 1968   3.804   3.492   1.598  0.0079  0.2220 -0.5041
  129MPD2    C4 1969   3.676   3.554   1.585  0.9105  0.0484  0.4505
  129MPD2    C5 1970   3.574   3.513   1.666  0.1544 -0.1352  0.4133
  129MPD2     H 1971   3.935   3.396   1.728 -0.0922 -0.8628  0.8156
  129MPD2    H1 1972   3.657   3.631   1.512 -1.8008 -1.3734 -0.3244
  129MPD2    H2 1973   3.521   3.387   1.833 -1.2327  2.2078 -0.3185
  129MPD2    H3 1974   3.473   3.547   1.649  0.5765  0.6882 -0.4591
  129MPD2     N 1975   3.914   3.513   1.510 -0.3206  0.5458 -0.0288
  129MPD2    H5 1976   4.001   3.485   1.553 -2.0647 -1.8111  1.9090
  129MPD2    N1 1977   3.766   3.298   1.913  0.6759  0.1838  0.0572
  129MPD2    H7 1978   3.866   3.302   1.928  0.7079  0.2766 -0.1885
  130TCq2    C1 1979   3.685   3.279   2.025  0.2551 -0.7207 -0.1072
  130TCq2    O2 1980   3.565   3.293   2.031  0.3189  0.0999  0.1440
  130TCq2    C2 1981   3.746   3.200   2.132 -0.0798  0.5367  0.4881
  130TCq2    C3 1982   3.881   3.209   2.160  0.0621  0.6748  0.5161
  130TCq2    C4 1983   3.937   3.123   2.249 -0.0383 -0.3206 -0.3610
  130TCq2    C5 1984   3.861   3.020   2.301  0.3779 -0.0348 -0.5618
  130TCq2    C6 1985   3.732   3.013   2.263  0.4965  0.4702 -0.1294
  130TCq2    C7 1986   3.669   3.093   2.179 -0.0138 -0.5988 -0.5232
  130TCq2    C8 1987   3.652   2.885   2.286 -0.0865 -0.4826 -0.2082
  130TCq2    O4 1988   3.533   2.882   2.267 -0.4471 -0.0847 -0.3293
  130TCq2    C9 1989   4.074   3.133   2.289 -0.1762 -0.7881 -0.0890
  130TCq2    O5 1990   4.112   3.035   2.361 -0.1128  0.2448  0.2806
  130TCq2    O6 1991   4.152   3.222   2.244 -0.1753  0.2064  0.1213
  130TCq2    H2 1992   3.935   3.294   2.120 -1.2267  0.8782 -0.7722
  130TCq2    H3 1993   3.896   2.954   2.379 -0.6195  0.9336  0.7034
  130TCq2    H4 1994   3.571   3.074   2.137 -1.2851  1.9557  1.2436
  131MPD2     C 1995   3.049   2.394   9.302  0.1881  0.1593 -0.1227
  131MPD2    C1 1996   3.126   2.432   9.408 -0.2601 -0.5200  0.1684
  131MPD2    C2 1997   3.160   2.345   9.511 -0.3180 -0.0373  0.4922
  131MPD2    C3 1998   3.123   2.215   9.504 -0.1202 -0.7043 -0.0372
  131MPD2    C4 1999   3.051   2.171   9.396 -0.9201 -0.0681  0.3264
  131MPD2    C5 2000   3.021   2.263   9.293  0.2443 -0.1564 -0.5155
  131MPD2     H 2001   3.217   2.374   9.598 -0.5059 -0.1551  0.6550
  131MPD2    H1 2002   3.045   2.065   9.370 -0.3832  0.6373 -2.5951
  131MPD2    H2 2003   3.006   2.465   9.232  0.4457  0.3041 -0.1339
  131MPD2    H3 2004   2.975   2.229   9.202  1.5356 -2.0187 -0.4799
  131MPD2     N 2005   3.153   2.126   9.610  0.0836  0.2258 -0.3322
  131MPD2    H5 2006   3.207   2.169   9.684 -2.1097  1.3613  0.6084
  131MPD2    N1 2007   3.170   2.565   9.428 -0.0993 -0.8684 -0.0489
  131MPD2    H7 2008   3.229   2.593   9.506  2.0546  1.5036 -2.5129
  132TCq2    C1 2009   3.279   3.094   9.188  0.4181 -0.0205  0.3542
  132TCq2    O2 2010   3.257   3.046   9.079 -0.2840  0.3279  0.4079
  132TCq2    C2 2011   3.284   3.010   9.309  0.3925  0.9435  0.5143
  132TCq2    C3 2012   3.229   3.054   9.426 -0.2488 -0.0821  0.7195
  132TCq2    C4 2013   3.171   2.969   9.518 -0.6170  0.0874 -0.9450
  132TCq2    C5 2014   3.166   2.839   9.483 -0.1907 -0.1867 -0.2815
  132TCq2    C6 2015   3.213   2.793   9.365 -0.6051 -0.2850  0.7683
  132TCq2    C7 2016   3.264   2.877   9.274  0.4319  0.1253  0.3355
  132TCq2    C8 2017   3.155   2.669   9.327 -0.7168  0.8360  0.0580
  132TCq2    O4 2018   3.112   2.670   9.212  0.3869 -0.3899  0.6026
  132TCq2    C9 2019   3.101   3.020   9.635  0.0682  0.5587 -0.3868
  132TCq2    O5 2020   3.039   2.935   9.701  0.0631  0.3491 -0.1164
  132TCq2    O6 2021   3.103   3.145   9.644 -0.5997 -0.1975  0.1828
  132TCq2    H2 2022   3.211   3.160   9.442  1.0687  0.1468  0.6615
  132TCq2    H3 2023   3.114   2.767   9.546 -2.0018  0.9396 -0.4791
  132TCq2    H4 2024   3.298   2.838   9.178 -0.1618  1.2220 -0.3156
  133MPD2     C 2025   2.118   3.615   9.309 -0.2240 -0.0939  0.0624
  133MPD2    C1 2026   2.241   3.564   9.279 -0.2069 -0.1612 -0.0861
  133MPD2    C2 2027   2.244   3.436   9.222  0.2610 -0.7446 -0.3363
  133MPD2    C3 2028   2.125   3.363   9.200  0.1852  0.0657  0.9026
  133MPD2    C4 2029   2.006   3.410   9.240  0.1079 -0.0033  0.3431
  133MPD2    C5 2030   2.004   3.533   9.303 -0.1457 -0.5066 -0.1441
  133MPD2     H 2031   2.345   3.398   9.217 -0.3581 -2.1417 -1.9005
  133MPD2    H1 2032   1.917   3.350   9.225 -0.3240  0.7962 -0.3043
  133MPD2    H2 2033   2.123   3.714   9.353  2.1243 -0.2901  0.2280
  133MPD2    H3 2034   1.911   3.573   9.341  0.7292  0.5287  0.9173
  133MPD2     N 2035   2.123   3.235   9.139 -0.7357  0.6583  0.2933
  133MPD2    H5 2036   2.030   3.196   9.151 -0.6375 -0.3352 -2.2856
  133MPD2    N1 2037   2.354   3.646   9.308 -0.0659  0.0251 -0.3792
  133MPD2    H7 2038   2.336   3.737   9.350  0.0164 -0.0543 -0.1705
  134TCq2    C1 2039   2.487   3.601   9.310  0.4472  0.2328  0.0012
  134TCq2    O2 2040   2.535   3.491   9.278  0.1420 -0.6096  0.5479
  134TCq2    C2 2041   2.571   3.691   9.388  0.3014  1.1039  0.8108
  134TCq2    C3 2042   2.562   3.823   9.373  0.6405  0.7120  0.2753
  134TCq2    C4 2043   2.642   3.904   9.444 -0.0495 -0.0874 -0.3511
  134TCq2    C5 2044   2.723   3.859   9.540 -1.1264 -0.2231  0.3118
  134TCq2    C6 2045   2.743   3.721   9.550 -0.0560  0.5744 -0.2744
  134TCq2    C7 2046   2.661   3.634   9.473  0.0435  0.6036  0.6814
  134TCq2    C8 2047   2.828   3.661   9.649 -0.2204 -0.2030 -0.2638
  134TCq2    O4 2048   2.865   3.547   9.650 -0.2554 -0.3273  0.5169
  134TCq2    C9 2049   2.617   4.048   9.435  0.4169  0.7458 -0.4886
  134TCq2    O5 2050   2.645   4.108   9.544  0.4872 -0.2756  0.5165
  134TCq2    O6 2051   2.521   4.091   9.363 -0.2121 -0.3641 -0.8811
  134TCq2    H2 2052   2.495   3.863   9.298  1.8056 -0.4527 -1.3790
  134TCq2    H3 2053   2.787   3.934   9.586 -0.1362 -0.6798 -0.3312
  134TCq2    H4 2054   2.672   3.527   9.489  0.3557  0.7842  1.6328
  135MPD2     C 2055   4.711   0.334   9.117  1.3673 -0.5552  0.3407
  135MPD2    C1 2056   4.702   0.207   9.167  0.0348 -0.5563 -0.0392
  135MPD2    C2 2057   0.092   0.135   9.195  0.0015 -0.2650  0.3407
  135MPD2    C3 2058   0.219   0.174   9.171  0.2223  0.5154 -0.5607
  135MPD2    C4 2059   0.228   0.301   9.117  0.6639  0.3859  0.2454
  135MPD2    C5 2060   0.118   0.378   9.102  0.8034 -0.2697 -0.1961
  135MPD2     H 2061   0.080   0.036   9.237  0.6980 -0.7213 -0.5322
  135MPD2    H1 2062   0.323   0.346   9.093  0.9706 -0.2629  0.2474
  135MPD2    H2 2063   4.628   0.402   9.102  0.3605 -0.9390  4.3577
  135MPD2    H3 2064   0.127   0.480   9.068  1.3755 -0.1173  0.4056
  135MPD2     N 2065   0.331   0.105   9.211 -0.0177  0.1318  0.2078
  135MPD2    H5 2066   0.418   0.157   9.214  1.9343 -2.9836 -2.0483
  135MPD2    N1 2067   4.580   0.158   9.219  0.0307 -0.1722  0.2525
  135MPD2    H7 2068   4.585   0.071   9.272  2.9613  1.8640  3.3416
  136TCq2    C1 2069   4.450   0.221   9.206 -0.8995 -0.1324 -0.5733
  136TCq2    O2 2070   4.406   0.312   9.135  0.5149  0.0017 -0.2684
  136TCq2    C2 2071   4.353   0.162   9.304 -0.4840  0.1834  0.8378
  136TCq2    C3 2072   4.223   0.174   9.281 -0.3687  0.4543 -0.5022
  136TCq2    C4 2073   4.134   0.134   9.378  0.8060 -0.1073 -0.0423
  136TCq2    C5 2074   4.180   0.097   9.502 -0.0261 -0.3989  0.2106
  136TCq2    C6 2075   4.315   0.097   9.528  0.4209  0.0316  0.3671
  136TCq2    C7 2076   4.404   0.109   9.422  0.8811  0.6976  0.1065
  136TCq2    C8 2077   4.367   0.025   9.644  0.6970  0.4778  0.5219
  136TCq2    O4 2078   4.488   0.008   9.652  0.2540 -0.2935 -0.3943
  136TCq2    C9 2079   3.992   0.132   9.359  0.1895  0.2535 -0.4754
  136TCq2    O5 2080   3.951   0.182   9.254 -0.5085 -0.3177 -0.4137
  136TCq2    O6 2081   3.925   0.080   9.448  0.2534  0.2268  0.3597
  136TCq2    H2 2082   4.193   0.191   9.178  0.1103  0.6008 -0.6162
  136TCq2    H3 2083   4.112   0.097   9.587  0.4219  1.5585  0.5503
  136TCq2    H4 2084   4.508   0.106   9.450  0.9954  0.8990 -0.2986
  137MPD2     C 2085   0.008   4.132   9.554 -0.3841 -0.2660 -0.2762
  137MPD2    C1 2086   4.621   4.077   9.491  0.3242 -0.2081  0.6218
  137MPD2    C2 2087   4.560   3.962   9.553 -0.0622  0.5297 -0.4354
  137MPD2    C3 2088   4.598   3.919   9.677 -0.0051 -0.4926  0.7146
  137MPD2    C4 2089   4.694   3.989   9.738 -0.2021  0.3472 -0.0092
  137MPD2    C5 2090   0.040   4.093   9.677 -0.6631  0.1483 -0.4302
  137MPD2     H 2091   4.490   3.897   9.502 -0.4058  0.1229  0.5496
  137MPD2    H1 2092   4.718   3.967   9.841 -2.2701  0.0101  0.3982
  137MPD2    H2 2093   0.053   4.219   9.508  1.3854 -0.6470  0.7263
  137MPD2    H3 2094   0.128   4.137   9.722 -0.6156  2.3058 -2.6011
  137MPD2     N 2095   4.545   3.798   9.733 -0.1553  0.0526 -0.5999
  137MPD2    H5 2096   4.467   3.761   9.679 -0.4378  2.2694 -1.7198
  137MPD2    N1 2097   4.584   4.116   9.360  0.2977 -0.6050 -0.0697
  137MPD2    H7 2098   4.647   4.183   9.317  0.5882 -0.8966 -0.1003
  138TCq2    C1 2099   4.474   4.078   9.291  0.6815 -0.4861  0.0640
  138TCq2    O2 2100   4.378   4.007   9.334 -0.1218  0.4147  0.4160
  138TCq2    C2 2101   4.466   4.137   9.157  0.6999 -0.7726  0.8605
  138TCq2    C3 2102   4.579   4.181   9.098 -0.2114 -0.6003  0.0153
  138TCq2    C4 2103   4.567   4.239   8.974 -0.0081 -0.9135  0.3819
  138TCq2    C5 2104   4.447   4.267   8.915 -1.2269 -0.0169 -0.4375
  138TCq2    C6 2105   4.334   4.232   8.986  0.7324 -1.2239 -0.3075
  138TCq2    C7 2106   4.341   4.163   9.101 -0.0125  0.4441  0.3944
  138TCq2    C8 2107   4.220   4.314   8.954 -0.7994 -0.1692  0.1943
  138TCq2    O4 2108   4.236   4.416   8.888 -0.5090  0.3610 -0.0521
  138TCq2    C9 2109   4.690   4.298   8.915 -0.3648  0.0234 -0.0549
  138TCq2    O5 2110   4.671   4.368   8.812 -0.2807  0.4606 -0.3244
  138TCq2    O6 2111   0.070   4.304   8.991 -0.0653 -0.3446 -0.2868
  138TCq2    H2 2112   4.677   4.154   9.137  0.5615  0.1521 -1.3948
  138TCq2    H3 2113   4.436   4.335   8.831  0.7103 -0.8447 -1.3521
  138TCq2    H4 2114   4.247   4.144   9.152 -0.6325 -1.5565 -1.4771
  139TMC2    C1 2115   0.151   1.810  13.096  0.6981 -0.5424  0.0376
  139TMC2    C2 2116   0.102   1.774  12.976 -0.1902 -0.4896 -0.2845
  139TMC2    C3 2117   0.023   1.861  12.913 -0.3814 -0.8111 -0.1313
  139TMC2    C4 2118   0.126   1.934  13.149 -0.5713  0.6132  0.5164
  139TMC2    C5 2119   0.042   2.020  13.076  0.4886 -0.0148  0.3781
  139TMC2    C6 2120   4.699   1.982  12.960  0.5814  0.7500  0.2312
  139TMC2     C 2121   0.250   1.722  13.155 -0.6418  0.1007  0.2489
  139TMC2     O 2122   0.270   1.611  13.105 -0.1590  0.4765 -0.0302
  139TMC2     H 2123   0.114   1.674  12.935 -0.6999 -1.0563  0.9461
  139TMC2    H1 2124   0.161   1.958  13.248  0.5396  0.8936  0.0523
  139TMC2    H2 2125   4.643   2.048  12.894  2.0563 -0.9241 -2.7204
  139TMC2    C7 2126   0.041   2.163  13.097  0.0215  0.0866 -0.3458
  139TMC2    C8 2127   4.711   1.825  12.778 -0.3907 -0.2614 -0.4019
  139TMC2    O1 2128   0.118   2.200  13.185  0.1999 -0.4507  0.1559
  139TMC2    O2 2129   4.592   1.830  12.740  0.4579  0.8365  0.0334
  139TMC2    O5 2130   0.086   1.892  12.714 -0.3133  0.0366 -0.3016
  139TMC2    H5 2131   0.168   1.895  12.767 -0.9834  2.4036  0.5978
  140MPD2     C 2132   0.319   1.740  13.517  0.4180 -0.4333 -0.7595
  140MPD2    C1 2133   0.326   1.687  13.388 -0.4318  0.9393 -0.5808
  140MPD2    C2 2134   0.375   1.558  13.368  0.4270  0.3680  0.2660
  140MPD2    C3 2135   0.427   1.487  13.476 -0.0171 -0.2790 -0.0545
  140MPD2    C4 2136   0.417   1.537  13.604  0.2832  0.2304 -0.2352
  140MPD2    C5 2137   0.366   1.667  13.618  0.3175 -0.8614  0.7584
  140MPD2     H 2138   0.370   1.511  13.270  3.5544 -0.7335  0.6430
  140MPD2    H1 2139   0.462   1.492  13.692 -0.4395 -0.7429 -0.3585
  140MPD2    H2 2140   0.285   1.842  13.533  0.4441 -0.2875 -1.6246
  140MPD2    H3 2141   0.360   1.717  13.714 -2.4619  0.5498 -0.1612
  140MPD2     N 2142   0.473   1.359  13.453  0.2428  0.3712 -0.6635
  140MPD2    H5 2143   0.478   1.316  13.361 -0.2729  0.8160 -0.9013
  140MPD2    N1 2144   0.283   1.765  13.279  0.4468 -0.3178  0.9409
  140MPD2    H7 2145   0.249   1.858  13.304  1.6864  0.1261  0.9566
  141TCq2    C1 2146   1.288   2.817  14.129  0.6121  0.1694 -0.0671
  141TCq2    O2 2147   1.246   2.890  14.035  0.3158 -0.5967  0.5208
  141TCq2    C2 2148   1.356   2.884  14.241 -0.0284  0.2795  0.1465
  141TCq2    C3 2149   1.372   2.816  14.363  0.0764  0.2957  0.2152
  141TCq2    C4 2150   1.466   2.874  14.453  0.1597  0.0299  0.0084
  141TCq2    C5 2151   1.520   2.990  14.422  0.2001  0.4747 -0.3691
  141TCq2    C6 2152   1.501   3.051  14.300  0.0373  0.3461  0.2488
  141TCq2    C7 2153   1.419   2.999  14.211 -0.8400  0.0542 -0.7920
  141TCq2    C8 2154   1.561   3.173  14.266 -0.5525  0.1406 -0.1097
  141TCq2    O4 2155   1.564   3.198  14.148 -0.1750 -0.3985  0.2162
  141TCq2    C9 2156   1.490   2.810  14.581 -0.8013  0.4446  0.5503
  141TCq2    O5 2157   1.571   2.861  14.660  0.1281 -0.8395 -0.1871
  141TCq2    O6 2158   1.443   2.694  14.597  0.0987 -0.0303 -0.3811
  141TCq2    H2 2159   1.323   2.723  14.388  2.9790 -1.0798  0.8505
  141TCq2    H3 2160   1.583   3.037  14.497  0.7294 -0.5799 -0.1526
  141TCq2    H4 2161   1.402   3.042  14.112  2.6791  2.9008 -0.1834
  142MPD2     C 2162   3.877   0.997  10.552 -0.0995  0.0528  0.3363
  142MPD2    C1 2163   3.896   1.045  10.429 -0.5684 -0.7990 -0.0896
  142MPD2    C2 2164   4.001   1.131  10.401  0.5065  0.5338  0.8294
  142MPD2    C3 2165   4.100   1.147  10.499  0.1649  0.3951  1.3063
  142MPD2    C4 2166   4.074   1.108  10.632 -0.5699 -0.3669  0.2246
  142MPD2    C5 2167   3.959   1.036  10.651  0.7372 -0.5310  0.2673
  142MPD2     H 2168   4.019   1.175  10.304  0.7591 -3.3049 -0.8722
  142MPD2    H1 2169   4.139   1.129  10.716 -0.3996  1.7845 -0.4595
  142MPD2    H2 2170   3.788   0.944  10.581  0.1227 -0.0891  0.7616
  142MPD2    H3 2171   3.939   1.021  10.757 -0.4660  1.1124  0.2605
  142MPD2     N 2172   4.222   1.213  10.475 -0.4651  0.1582  0.3753
  142MPD2    H5 2173   4.278   1.223  10.559 -1.3295 -0.8339  1.0705
  142MPD2    N1 2174   3.784   1.019  10.343  0.0086  0.4041 -0.4301
  142MPD2    H7 2175   3.705   0.964  10.375  2.0152 -0.6198  2.7494
  143TCq2    C1 2176   4.261   1.274  10.357 -0.0285 -0.8117  0.0198
  143TCq2    O2 2177   4.206   1.285  10.252  0.4305  0.6522 -0.1486
  143TCq2    C2 2178   4.384   1.339  10.378 -0.2455  1.2464 -0.2347
  143TCq2    C3 2179   4.472   1.291  10.468  0.2748 -0.2850  0.3460
  143TCq2    C4 2180   4.585   1.366  10.484  0.6597  0.1815 -0.1911
  143TCq2    C5 2181   4.606   1.489  10.427 -0.7734  0.0352 -0.8175
  143TCq2    C6 2182   4.514   1.530  10.342  0.0201 -0.2965 -0.3862
  143TCq2    C7 2183   4.401   1.458  10.325  0.0368  0.2351 -0.0471
  143TCq2    C8 2184   4.494   1.675  10.319 -0.0383 -1.0711 -0.9072
  143TCq2    O4 2185   4.387   1.708  10.272  0.2293  0.2210 -0.2646
  143TCq2    C9 2186   4.683   1.317  10.581 -0.3473  0.7248 -0.5109
  143TCq2    O5 2187   0.040   1.399  10.635 -0.1289 -1.1593 -0.5694
  143TCq2    O6 2188   4.656   1.199  10.621  0.1148 -0.3647  0.6914
  143TCq2    H2 2189   4.463   1.194  10.515 -1.1460  0.5288  1.7214
  143TCq2    H3 2190   4.691   1.555  10.442 -1.0281  0.0646  0.5188
  143TCq2    H4 2191   4.313   1.496  10.274 -0.6198 -2.5294 -0.9418
  144MPD2     C 2192   1.153   0.847   0.531 -0.6334  0.5736 -0.0280
  144MPD2    C1 2193   1.160   0.759   0.639 -0.6587  0.1962  0.1364
  144MPD2    C2 2194   1.233   0.789   0.750 -0.1143  0.1620 -0.1820
  144MPD2    C3 2195   1.326   0.888   0.742  0.0193  0.9800 -0.9950
  144MPD2    C4 2196   1.333   0.958   0.622  0.1455  0.0136  0.0109
  144MPD2    C5 2197   1.242   0.945   0.527 -0.6352 -0.9771 -1.0971
  144MPD2     H 2198   1.229   0.714   0.828  0.4008  0.7742  0.4342
  144MPD2    H1 2199   1.406   1.038   0.611 -0.3926 -0.1078 -4.3118
  144MPD2    H2 2200   1.095   0.826   0.442  1.6496 -0.4281 -1.2826
  144MPD2    H3 2201   1.243   1.007   0.438 -1.7565  0.6917  0.0568
  144MPD2     N 2202   1.425   0.920   0.842 -0.2451  0.0240 -0.3009
  144MPD2    H5 2203   1.500   0.976   0.803 -1.2800  2.3795  1.0382
  144MPD2    N1 2204   1.106   0.627   0.636  0.4241  0.3280 -0.1914
  144MPD2    H7 2205   1.122   0.565   0.715 -0.0312 -0.3544 -0.6264
  145TCq2    C1 2206   1.429   0.851   0.964 -0.5162 -0.5687 -0.3300
  145TCq2    O2 2207   1.334   0.797   1.021  0.1418 -0.1553 -0.5439
  145TCq2    C2 2208   1.560   0.869   1.033 -0.0858 -0.5962  1.2213
  145TCq2    C3 2209   1.666   0.899   0.958 -0.2036  1.2056 -0.4102
  145TCq2    C4 2210   1.790   0.890   1.005 -0.2349 -0.5278  0.1627
  145TCq2    C5 2211   1.814   0.845   1.137  0.0171 -0.4286  0.5032
  145TCq2    C6 2212   1.702   0.826   1.215 -0.8581  0.6080 -0.1729
  145TCq2    C7 2213   1.574   0.834   1.165  0.1887 -0.1888 -0.1840
  145TCq2    C8 2214   1.722   0.822   1.355 -0.1174  0.1740  0.5833
  145TCq2    O4 2215   1.838   0.821   1.394  0.2693  0.2033  0.5173
  145TCq2    C9 2216   1.904   0.931   0.923  0.3076 -0.6613 -0.1060
  145TCq2    O5 2217   2.018   0.919   0.978 -0.2692  0.0937 -0.2571
  145TCq2    O6 2218   1.876   0.997   0.820  0.1415 -0.5746 -0.0328
  145TCq2    H2 2219   1.660   0.908   0.850 -1.5334 -1.3081 -0.5414
  145TCq2    H3 2220   1.912   0.846   1.183  0.4942  3.5401 -0.5515
  145TCq2    H4 2221   1.489   0.808   1.227  1.7572 -1.4373  1.4550
  146TMC2    C1 2222   2.519   3.990  12.535 -0.0601 -0.5638  1.0549
  146TMC2    C2 2223   2.415   4.044  12.474 -0.2274 -0.7174  0.2842
  146TMC2    C3 2224   2.375   3.998  12.352  0.4329 -0.4346 -0.6558
  146TMC2    C4 2225   2.586   3.879  12.492 -0.2639  0.2793  0.0121
  146TMC2    C5 2226   2.550   3.840  12.362  0.2023 -0.3517 -0.2183
  146TMC2    C6 2227   2.456   3.902  12.289  0.2763  0.1601 -0.1809
  146TMC2     C 2228   2.575   4.076  12.644 -0.0884 -0.3182 -0.1960
  146TMC2     O 2229   2.522   4.185  12.651  0.0939  0.0840  0.1932
  146TMC2     H 2230   2.353   4.117  12.524  0.9656  0.8210 -0.4650
  146TMC2    H1 2231   2.671   3.839  12.546 -0.4839  0.2733  0.3529
  146TMC2    H2 2232   2.443   3.872  12.186  1.6967  0.7659 -0.5327
  146TMC2    C7 2233   2.614   3.725  12.302  0.2755  0.1065  0.0523
  146TMC2    C8 2234   2.276   4.075  12.277  0.5126  0.1752  0.0682
  146TMC2    O1 2235   2.590   3.705  12.183  0.5956  0.1156  0.2076
  146TMC2    O2 2236   2.274   4.195  12.293 -0.2266 -0.9888 -0.3964
  146TMC2    O5 2237   2.165   3.995  12.295 -0.2585 -0.4353 -0.8305
  146TMC2    H5 2238   2.187   3.900  12.279  0.6745 -0.4939  0.7572
  147MPD2     C 2239   3.047   3.466  12.257 -0.1005 -0.4654  0.3208
  147MPD2    C1 2240   3.027   3.485  12.393 -1.0705  0.2878 -0.1143
  147MPD2    C2 2241   2.909   3.530  12.430  0.6660  0.7422  0.3187
  147MPD2    C3 2242   2.816   3.583  12.335  1.2994  0.7917 -0.7214
  147MPD2    C4 2243   2.845   3.566  12.200 -0.0071  0.0776  0.6879
  147MPD2    C5 2244   2.961   3.501  12.160  0.1259 -0.6453  0.0633
  147MPD2     H 2245   2.887   3.539  12.536 -1.5839 -0.5790 -0.0254
  147MPD2    H1 2246   2.783   3.602  12.119 -0.5676 -2.0326  0.1770
  147MPD2    H2 2247   3.131   3.403  12.230 -0.7034 -1.5256  0.9467
  147MPD2    H3 2248   2.985   3.482  12.056  1.4155  0.3931  0.1525
  147MPD2     N 2249   2.709   3.666  12.383 -0.3679 -0.4423 -0.0373
  147MPD2    H5 2250   2.699   3.677  12.483  0.3133 -1.5731  0.1533
  147MPD2    N1 2251   3.130   3.440  12.476  0.4338  0.1009  0.1980
  147MPD2    H7 2252   3.222   3.418  12.439  1.0921  0.3251  1.6986
  148MPD2     C 2253   3.367   2.942  10.405 -0.2791 -0.0646  0.2638
  148MPD2    C1 2254   3.362   2.849  10.499 -0.5061 -0.6474  0.4925
  148MPD2    C2 2255   3.273   2.743  10.485 -0.5819  0.1935  0.4379
  148MPD2    C3 2256   3.196   2.723  10.375  0.1885  0.0894 -0.0908
  148MPD2    C4 2257   3.203   2.818  10.279 -0.5409  0.1407 -0.4243
  148MPD2    C5 2258   3.289   2.924  10.294  0.3654 -0.3320 -0.5232
  148MPD2     H 2259   3.257   2.683  10.574  1.0170 -2.4513 -1.0756
  148MPD2    H1 2260   3.156   2.805  10.182 -2.3294 -2.0777  0.7518
  148MPD2    H2 2261   3.430   3.031  10.399 -0.5288 -0.0910 -2.9168
  148MPD2    H3 2262   3.279   3.003  10.221 -1.1147  0.6164  0.7088
  148MPD2     N 2263   3.108   2.612  10.354 -0.0707 -0.2656  0.7896
  148MPD2    H5 2264   3.050   2.612  10.270 -1.0722 -0.4486  1.4772
  148MPD2    N1 2265   3.441   2.842  10.618 -0.0822  0.9222  0.0148
  148MPD2    H7 2266   3.435   2.764  10.682 -1.3734 -2.2156 -3.9219
  149TCq2    C1 2267   3.530   2.939  10.660  0.0883 -0.1962  0.0139
  149TCq2    O2 2268   3.541   3.051  10.617 -0.0462  0.6201 -0.6193
  149TCq2    C2 2269   3.609   2.888  10.774  0.8690  0.3550 -0.5894
  149TCq2    C3 2270   3.735   2.940  10.799 -0.1443 -0.6663  0.2026
  149TCq2    C4 2271   3.814   2.884  10.901  1.0902 -0.3408 -0.7187
  149TCq2    C5 2272   3.786   2.753  10.935 -0.3862  0.8936  0.2336
  149TCq2    C6 2273   3.657   2.705  10.918 -0.1493  0.3841  0.5144
  149TCq2    C7 2274   3.565   2.771  10.842 -0.1480 -0.2939 -0.1198
  149TCq2    C8 2275   3.622   2.564  10.938  0.6286  1.0186  0.3673
  149TCq2    O4 2276   3.510   2.529  10.910 -0.5158  0.3948 -0.6319
  149TCq2    C9 2277   3.953   2.922  10.904  0.0067 -0.0977 -0.0247
  149TCq2    O5 2278   3.983   3.035  10.855 -0.5056  0.3932  0.3531
  149TCq2    O6 2279   4.032   2.839  10.956 -0.5481 -0.1437 -0.2017
  149TCq2    H2 2280   3.766   3.031  10.750  2.1838 -1.3506  0.4349
  149TCq2    H3 2281   3.861   2.692  10.983  0.3570  1.5346 -0.1051
  149TCq2    H4 2282   3.460   2.742  10.843 -0.3954  0.6028  1.0300
  150MPD2     C 2283   0.064   1.736  11.973  0.3812  0.3893  0.7024
  150MPD2    C1 2284   4.718   1.845  11.926  0.7460  0.0524 -0.9814
  150MPD2    C2 2285   0.058   1.971  11.938 -0.2420  0.0481  0.8416
  150MPD2    C3 2286   0.186   1.984  11.999 -0.7777 -1.2313  0.1730
  150MPD2    C4 2287   0.249   1.870  12.036 -0.3500  0.0922  0.3965
  150MPD2    C5 2288   0.191   1.743  12.023 -0.1701 -0.5227 -0.0563
  150MPD2     H 2289   0.024   2.068  11.903 -1.1701 -0.7263 -0.4011
  150MPD2    H1 2290   0.345   1.870  12.084 -0.7834 -2.6328  1.3049
  150MPD2    H2 2291   0.020   1.636  11.969 -1.9495  1.4528 -0.2318
  150MPD2    H3 2292   0.244   1.655  12.057 -0.5903 -0.0963  1.6791
  150MPD2     N 2293   0.251   2.109  12.003 -0.5971  0.4134  0.4880
  150MPD2    H5 2294   0.208   2.181  11.947  1.3668  0.4063 -1.0536
  150MPD2    N1 2295   4.585   1.829  11.882  0.6654 -0.0536 -0.1336
  150MPD2    H7 2296   4.554   1.733  11.892 -0.4791  0.5104  1.6221
  151TCq2    C1 2297   0.363   2.141  12.074 -0.4899 -0.2985 -0.0514
  151TCq2    O2 2298   0.419   2.072  12.160 -0.2517 -0.3691  0.3094
  151TCq2    C2 2299   0.426   2.271  12.039  0.1411  0.2323  0.4726
  151TCq2    C3 2300   0.412   2.337  11.922  0.6083 -0.4593 -0.0396
  151TCq2    C4 2301   0.450   2.466  11.898  0.2597 -0.2389 -0.0674
  151TCq2    C5 2302   0.528   2.520  11.995  0.6346 -0.3265  0.6219
  151TCq2    C6 2303   0.555   2.451  12.110 -0.4778  0.2668 -0.0017
  151TCq2    C7 2304   0.491   2.329  12.143 -0.8360 -0.3146 -0.1895
  151TCq2    C8 2305   0.682   2.480  12.184  0.1393 -0.4452  0.1870
  151TCq2    O4 2306   0.721   2.595  12.181  0.3939  0.5460 -0.3218
  151TCq2    C9 2307   0.422   2.551  11.774 -0.3097 -0.0874 -0.6785
  151TCq2    O5 2308   0.375   2.493  11.674  0.0142  0.2278 -0.0149
  151TCq2    O6 2309   0.420   2.677  11.788  0.2274 -0.1456 -0.7699
  151TCq2    H2 2310   0.359   2.297  11.837 -1.1080 -0.9235  1.2594
  151TCq2    H3 2311   0.592   2.605  11.973  0.7489 -0.3794  0.7484
  151TCq2    H4 2312   0.508   2.286  12.241  2.3144 -2.0883 -1.5174
  152MPD2     C 2313   4.394   1.557  12.159 -1.0644  0.0555  0.7748
  152MPD2    C1 2314   4.399   1.698  12.159 -0.2956  0.2292  0.2413
  152MPD2    C2 2315   4.294   1.769  12.100  0.8145 -0.1703  0.0710
  152MPD2    C3 2316   4.181   1.706  12.058 -0.8154  0.0303 -0.2865
  152MPD2    C4 2317   4.169   1.567  12.073 -0.1035 -0.1433 -0.0944
  152MPD2    C5 2318   4.286   1.496  12.115 -0.2672 -0.6337  0.0192
  152MPD2     H 2319   4.304   1.877  12.088  1.5718 -0.5292 -2.6073
  152MPD2    H1 2320   4.080   1.509  12.054  0.6948 -0.5028 -2.7819
  152MPD2    H2 2321   4.475   1.496  12.197 -1.2463  0.0063  1.0814
  152MPD2    H3 2322   4.291   1.388  12.110  1.7917 -0.4390 -2.3041
  152MPD2     N 2323   4.078   1.787  12.000  0.3925  0.1432 -0.4233
  152MPD2    H5 2324   4.084   1.888  12.005 -0.6066  0.2804 -1.7790
  152MPD2    N1 2325   4.507   1.752  12.222 -0.5073 -0.1982 -0.6167
  152MPD2    H7 2326   4.560   1.683  12.275 -1.1992  0.1064  0.4749
  153TCq2    C1 2327   4.540   1.884  12.230  0.6123 -0.1879 -0.4262
  153TCq2    O2 2328   4.485   1.987  12.189  1.0124  0.1830 -0.0933
  153TCq2    C2 2329   4.668   1.898  12.306 -0.3472 -0.1374 -0.2169
  153TCq2    C3 2330   0.008   1.786  12.367  0.0244 -0.1060  0.2827
  153TCq2    C4 2331   0.139   1.806  12.391  0.5840 -0.2735 -0.5052
  153TCq2    C5 2332   0.207   1.928  12.378  0.2173 -0.2924 -0.1180
  153TCq2    C6 2333   0.131   2.037  12.332 -0.3419  0.0529 -0.4485
  153TCq2    C7 2334   0.003   2.024  12.291  0.5320  0.5774  0.3650
  153TCq2    C8 2335   0.179   2.173  12.346 -0.6033  0.3850  0.6963
  153TCq2    O4 2336   0.109   2.259  12.300  0.1854 -0.3919 -0.0120
  153TCq2    C9 2337   0.216   1.703  12.454 -0.3852 -0.2553 -0.3787
  153TCq2    O5 2338   0.163   1.592  12.450 -0.0292 -1.0730 -0.3497
  153TCq2    O6 2339   0.330   1.723  12.496 -0.6046  0.0100  0.0846
  153TCq2    H2 2340   4.679   1.697  12.400  2.1971 -0.9125  1.5628
  153TCq2    H3 2341   0.311   1.938  12.407  0.4010 -0.9909 -0.5253
  153TCq2    H4 2342   4.671   2.108  12.250  1.0688  2.3206  3.1720
  154MPD2     C 2343   1.938   2.047   0.425 -0.6124  0.7206 -0.5226
  154MPD2    C1 2344   1.940   2.161   0.505  0.0594 -0.7431 -0.2809
  154MPD2    C2 2345   1.838   2.172   0.601  0.5214  0.2448  0.2735
  154MPD2    C3 2346   1.739   2.080   0.617  0.0378 -0.2987 -0.3895
  154MPD2    C4 2347   1.727   1.974   0.527 -0.6918  0.0354 -0.1756
  154MPD2    C5 2348   1.827   1.963   0.434 -0.7976 -0.2700  0.4548
  154MPD2     H 2349   1.841   2.258   0.666  0.8883 -0.9967  1.8830
  154MPD2    H1 2350   1.647   1.902   0.532 -0.4723 -0.3016 -1.5248
  154MPD2    H2 2351   2.009   2.012   0.351 -1.5176 -0.5350 -0.7977
  154MPD2    H3 2352   1.823   1.876   0.370  0.0664 -0.5738  0.8152
  154MPD2     N 2353   1.648   2.101   0.719 -0.0674 -0.0049 -0.1371
  154MPD2    H5 2354   1.659   2.192   0.764  1.1301 -1.0694  1.6850
  154MPD2    N1 2355   2.043   2.258   0.477  0.3861 -0.0334  0.2148
  154MPD2    H7 2356   2.100   2.235   0.397  0.1015  1.6816 -0.4792
  155TCq2    C1 2357   2.074   2.371   0.545  0.0296 -0.9036  0.1464
  155TCq2    O2 2358   2.031   2.426   0.644 -0.0010  0.3160 -0.0780
  155TCq2    C2 2359   2.208   2.419   0.499  0.0914 -0.2652  0.2210
  155TCq2    C3 2360   2.252   2.392   0.370  0.5020 -0.3152 -0.1455
  155TCq2    C4 2361   2.343   2.470   0.314 -0.4847  0.6972 -0.4456
  155TCq2    C5 2362   2.397   2.576   0.376  0.0841  0.1378 -0.2510
  155TCq2    C6 2363   2.355   2.594   0.502 -0.4646  0.1892 -0.1652
  155TCq2    C7 2364   2.254   2.525   0.563  0.3267 -0.6078  0.4514
  155TCq2    C8 2365   2.422   2.693   0.583 -0.1117 -0.2938  0.0869
  155TCq2    O4 2366   2.357   2.732   0.681  0.2479  0.3813 -0.1478
  155TCq2    C9 2367   2.369   2.452   0.173  0.0749  0.0630  0.1333
  155TCq2    O5 2368   2.353   2.340   0.123  0.2066 -0.1236 -0.4807
  155TCq2    O6 2369   2.420   2.549   0.111 -0.0494 -0.5564  0.2283
  155TCq2    H2 2370   2.220   2.310   0.306  0.5791 -1.4215  1.2450
  155TCq2    H3 2371   2.474   2.639   0.334  0.4420  0.2443  0.5882
  155TCq2    H4 2372   2.224   2.549   0.664 -1.5146 -0.3084 -0.1646
  156MPD2     C 2373   0.940   4.285  12.493 -0.1512  0.0995  0.4459
  156MPD2    C1 2374   0.832   4.255  12.418  0.2909 -0.4170  0.2977
  156MPD2    C2 2375   0.715   4.233  12.479 -0.1188  0.2247 -0.2933
  156MPD2    C3 2376   0.707   4.199  12.618  0.3981 -0.1471 -0.2459
  156MPD2    C4 2377   0.822   4.211  12.688  0.2205  0.9364  0.3253
  156MPD2    C5 2378   0.933   4.264  12.628 -0.7321  0.7654 -0.0995
  156MPD2     H 2379   0.625   4.204  12.427 -0.1732 -0.4281  0.1778
  156MPD2    H1 2380   0.840   4.189  12.793 -1.4689 -1.5871  0.1074
  156MPD2    H2 2381   1.038   4.304  12.450  0.7071 -0.4372  2.1473
  156MPD2    H3 2382   1.024   4.284  12.684 -2.2070  1.5635  2.0072
  156MPD2     N 2383   0.591   4.139  12.666  0.4260 -0.1137  0.6996
  156MPD2    H5 2384   0.515   4.131  12.599 -0.8248 -1.7741  2.3344
  156MPD2    N1 2385   0.836   4.250  12.275  0.1761 -0.1669 -0.0038
  156MPD2    H7 2386   0.748   4.253  12.225  0.2718 -0.6160 -0.1989
  157TCq2    C1 2387   0.952   4.251  12.198  0.6279 -0.4833 -0.0893
  157TCq2    O2 2388   1.065   4.211  12.235 -0.3017  0.3205  0.0658
  157TCq2    C2 2389   0.934   4.242  12.052 -0.2548  0.2401  0.8863
  157TCq2    C3 2390   1.017   4.165  11.979  0.2292  0.2395  0.5100
  157TCq2    C4 2391   0.996   4.159  11.848  0.1688  0.2223  0.0862
  157TCq2    C5 2392   0.884   4.215  11.787 -0.4786  0.1055  0.8342
  157TCq2    C6 2393   0.802   4.288  11.865  0.5164  0.0436 -0.0724
  157TCq2    C7 2394   0.822   4.298  11.996  0.2784 -0.0246 -0.7777
  157TCq2    C8 2395   0.695   4.367  11.799  0.4114 -1.2951  0.2515
  157TCq2    O4 2396   0.665   4.480  11.837 -0.0554  0.0404  0.5109
  157TCq2    C9 2397   1.082   4.076  11.770 -0.3575  0.1160 -0.3529
  157TCq2    O5 2398   1.079   4.096  11.641 -0.4165  0.3100  0.4429
  157TCq2    O6 2399   1.156   3.992  11.836  0.1894 -0.2458  0.3331
  157TCq2    H2 2400   1.108   4.126  12.023  0.0145 -1.9073 -0.9503
  157TCq2    H3 2401   0.873   4.191  11.682  0.5555  0.2310  0.7005
  157TCq2    H4 2402   0.748   4.351  12.054  2.0806  0.9197  0.6655
  158TMC2    C1 2403   1.023   3.193  14.088 -0.5624  0.0744  0.5060
  158TMC2    C2 2404   1.127   3.284  14.073 -0.4005 -0.3858 -0.5676
  158TMC2    C3 2405   1.101   3.392  13.995  0.4772 -0.5420 -0.3103
  158TMC2    C4 2406   0.902   3.209  14.016 -0.7316  0.7525  0.0615
  158TMC2    C5 2407   0.890   3.317  13.929 -0.9887 -0.6675 -0.1232
  158TMC2    C6 2408   0.989   3.410  13.920  0.6129 -0.3019  0.3467
  158TMC2     C 2409   1.042   3.102  14.194 -0.9446  1.3719  0.1830
  158TMC2     O 2410   1.108   3.134  14.291 -0.1678  0.2833 -0.4627
  158TMC2     H 2411   1.221   3.261  14.121 -0.9952 -0.2538  0.6715
  158TMC2    H1 2412   0.830   3.129  14.020  0.9383 -0.7274  0.5851
  158TMC2    H2 2413   0.969   3.496  13.858 -1.0998 -1.6866 -1.0427
  158TMC2    C7 2414   0.811   3.304  13.805 -0.6400 -0.0171  0.1186
  158TMC2    C8 2415   1.211   3.492  13.966  0.4421 -0.3665  0.1750
  158TMC2    O1 2416   0.845   3.369  13.707  0.1176 -0.1458 -0.2678
  158TMC2    O2 2417   1.219   3.546  13.856 -0.1445 -0.2506 -0.2224
  158TMC2    O5 2418   1.315   3.467  14.053 -0.1681  0.5115  0.5599
  158TMC2    H5 2419   1.278   3.434  14.138 -2.1232  0.1358 -0.4384
  159MPD2     C 2420   1.020   2.638  14.418 -0.4044 -0.0662 -0.1987
  159MPD2    C1 2421   0.960   2.635  14.290 -0.3497  0.2932  0.5332
  159MPD2    C2 2422   0.946   2.750  14.216 -0.1935 -0.8075 -0.5698
  159MPD2    C3 2423   0.975   2.874  14.264 -0.2740  0.2350  0.5414
  159MPD2    C4 2424   1.021   2.879  14.397 -0.4443 -0.3503  0.5523
  159MPD2    C5 2425   1.048   2.764  14.469 -0.1609 -0.0106  0.1430
  159MPD2     H 2426   0.929   2.757  14.109  1.6525 -1.5861 -0.9100
  159MPD2    H1 2427   1.059   2.971  14.442  0.5614 -0.8665  0.7622
  159MPD2    H2 2428   1.035   2.549  14.477 -1.7915 -0.9042 -1.0900
  159MPD2    H3 2429   1.085   2.773  14.571 -1.0973 -0.0543  0.4876
  159MPD2     N 2430   0.973   2.982  14.177  0.3804 -0.5498  0.0236
  159MPD2    H5 2431   0.942   2.969  14.082 -0.2433  0.5910  0.0648
  159MPD2    N1 2432   0.925   2.511  14.240  0.3679  0.2987  0.1703
  159MPD2    H7 2433   0.930   2.436  14.309  0.7099 -0.7709 -1.0071
  160TMC2    C1 2434   0.445   0.963   1.323 -0.3681 -0.6497 -0.7279
  160TMC2    C2 2435   0.435   0.827   1.326 -0.7176  0.6442  0.2291
  160TMC2    C3 2436   0.469   0.757   1.218  0.5099 -0.2791  1.2445
  160TMC2    C4 2437   0.478   1.031   1.208  0.0378 -0.1349  0.3597
  160TMC2    C5 2438   0.504   0.950   1.098 -0.0203 -0.1257  0.1169
  160TMC2    C6 2439   0.500   0.815   1.099 -0.2219  0.5799 -0.4112
  160TMC2     C 2440   0.433   1.033   1.446  0.5427  0.1989 -0.1611
  160TMC2     O 2441   0.465   0.972   1.544 -0.0284  0.2636  0.3178
  160TMC2     H 2442   0.391   0.778   1.412  0.0650 -1.6565 -0.6766
  160TMC2    H1 2443   0.460   1.138   1.206 -1.0413 -0.3452 -0.8302
  160TMC2    H2 2444   0.510   0.761   1.006 -0.5715  0.0264 -0.1290
  160TMC2    C7 2445   0.572   1.015   0.988  0.0051 -0.9547  0.5669
  160TMC2    C8 2446   0.414   0.623   1.208  0.2992  1.0269 -0.4502
  160TMC2    O1 2447   0.546   0.981   0.873  0.2095  0.2924 -0.5600
  160TMC2    O2 2448   0.374   0.561   1.110  0.5282 -0.2097 -0.0322
  160TMC2    O5 2449   0.439   0.567   1.324 -0.2686  0.4873  0.2388
  160TMC2    H5 2450   0.503   0.623   1.373  0.2249 -0.0903  0.2473
  161MPD2     C 2451   0.324   1.204   1.678  0.6934 -0.1915 -0.3213
  161MPD2    C1 2452   0.317   1.239   1.541  0.0408 -0.0744  0.7355
  161MPD2    C2 2453   0.256   1.359   1.508  0.1166 -0.0774 -0.6767
  161MPD2    C3 2454   0.191   1.441   1.607 -0.1785 -0.6061  0.2852
  161MPD2    C4 2455   0.201   1.399   1.733 -0.4464 -0.7964  0.5057
  161MPD2    C5 2456   0.256   1.282   1.768 -0.1135 -1.0009  0.7744
  161MPD2     H 2457   0.234   1.382   1.404  1.6747 -3.2424 -1.7065
  161MPD2    H1 2458   0.140   1.446   1.809  1.5158  0.5954  1.2123
  161MPD2    H2 2459   0.351   1.112   1.729  0.4249 -0.1951 -0.1856
  161MPD2    H3 2460   0.255   1.254   1.873 -0.9001  0.1866  1.0832
  161MPD2     N 2461   0.123   1.560   1.588  0.5074 -0.3931 -0.0575
  161MPD2    H5 2462   0.092   1.605   1.673  0.1372 -1.3498  0.3072
  161MPD2    N1 2463   0.365   1.154   1.437 -0.6993 -0.3907 -0.1536
  161MPD2    H7 2464   0.342   1.185   1.343  1.3449  0.4234 -0.3659
  162TMC2    C1 2465   2.923   3.137   1.119  0.6337  0.6848 -0.2362
  162TMC2    C2 2466   2.792   3.167   1.074 -0.8264 -0.2175 -0.4235
  162TMC2    C3 2467   2.693   3.158   1.165  0.5094  0.0968  0.3444
  162TMC2    C4 2468   2.944   3.107   1.251 -0.1022 -0.4252 -0.4547
  162TMC2    C5 2469   2.841   3.119   1.338  0.2798  0.0047  0.3758
  162TMC2    C6 2470   2.713   3.141   1.297 -1.1224  0.1123 -0.6187
  162TMC2     C 2471   3.022   3.101   1.025  0.4264 -0.5699 -0.7355
  162TMC2     O 2472   3.110   3.023   1.058  0.1051  0.3447 -1.1242
  162TMC2     H 2473   2.776   3.165   0.967 -2.9489  3.0469 -0.1836
  162TMC2    H1 2474   3.044   3.113   1.292  0.0455  1.7710 -1.1525
  162TMC2    H2 2475   2.643   3.145   1.379  0.9271  0.7875  1.1186
  162TMC2    C7 2476   2.871   3.119   1.479 -0.2116 -0.0032  0.3515
  162TMC2    C8 2477   2.557   3.145   1.111  0.2131 -0.0427 -0.2344
  162TMC2    O1 2478   2.807   3.201   1.542 -0.1717  0.1223  0.6704
  162TMC2    O2 2479   2.526   3.178   0.999  0.0611  0.1624 -0.1712
  162TMC2    O5 2480   2.474   3.091   1.202  0.1401  0.0048 -0.0222
  162TMC2    H5 2481   2.510   3.065   1.290 -0.1598 -2.3776 -0.5903
  163MPD2     C 2482   3.238   3.152   0.559 -0.7599 -0.1124  0.1882
  163MPD2    C1 2483   3.227   3.044   0.637 -0.0558 -0.1620 -0.7640
  163MPD2    C2 2484   3.158   3.051   0.758 -0.4267  0.3720 -0.1728
  163MPD2    C3 2485   3.100   3.171   0.795 -0.1924 -0.4521  0.3636
  163MPD2    C4 2486   3.102   3.274   0.707 -0.0298 -0.6269 -1.0204
  163MPD2    C5 2487   3.165   3.259   0.590  0.1640  0.0772  0.5285
  163MPD2     H 2488   3.145   2.966   0.823  0.3698 -0.4137 -1.0399
  163MPD2    H1 2489   3.055   3.369   0.729  1.1930  0.4411 -2.9866
  163MPD2    H2 2490   3.290   3.158   0.464  1.1579  1.6713  1.3488
  163MPD2    H3 2491   3.157   3.342   0.521  2.6729  1.5669  2.0612
  163MPD2     N 2492   3.019   3.188   0.912 -0.2192  0.0067 -0.0425
  163MPD2    H5 2493   2.976   3.278   0.930  0.3675  0.6479 -1.8059
  163MPD2    N1 2494   3.290   2.927   0.576 -0.5154 -0.5072 -0.2346
  163MPD2    H7 2495   3.338   2.947   0.488  0.8422 -0.9061  0.4144
  164TCq2    C1 2496   3.463   2.394  11.320  0.4351 -1.1977  0.2235
  164TCq2    O2 2497   3.339   2.395  11.328  0.1958 -0.1027 -0.3568
  164TCq2    C2 2498   3.522   2.529  11.325 -0.9149 -0.0187 -0.2938
  164TCq2    C3 2499   3.653   2.550  11.295  0.0822  0.2555 -0.7279
  164TCq2    C4 2500   3.704   2.677  11.297  0.7817  0.0309  0.5776
  164TCq2    C5 2501   3.628   2.785  11.328 -0.1716  0.2812  0.6450
  164TCq2    C6 2502   3.499   2.764  11.363 -0.6238 -0.4038  1.0049
  164TCq2    C7 2503   3.439   2.637  11.354 -0.6515 -0.5311  1.2197
  164TCq2    C8 2504   3.416   2.875  11.395  0.3189 -0.8022 -0.1362
  164TCq2    O4 2505   3.416   2.974  11.324 -0.8667  0.1027  0.0525
  164TCq2    C9 2506   3.842   2.690  11.254  1.1158 -0.0490 -0.0833
  164TCq2    O5 2507   3.889   2.809  11.251  0.4356 -0.1246  0.0105
  164TCq2    O6 2508   3.897   2.596  11.190 -0.0819 -0.0252  0.1810
  164TCq2    H2 2509   3.713   2.468  11.259 -1.0410 -0.6479 -0.5334
  164TCq2    H3 2510   3.672   2.885  11.331  2.0865 -0.7215  0.7483
  164TCq2    H4 2511   3.334   2.620  11.371 -0.8456  0.7400  1.2526
  165MPD2     C 2512   0.078   3.955   2.719  0.5465  0.5957 -0.0162
  165MPD2    C1 2513   0.073   3.996   2.585  0.3875 -0.2522 -0.7158
  165MPD2    C2 2514   0.143   4.110   2.547 -0.5111  0.5088 -0.4770
  165MPD2    C3 2515   0.202   4.194   2.643 -0.0675 -0.5562 -0.3863
  165MPD2    C4 2516   0.188   4.156   2.780 -0.7818  0.1450 -0.3210
  165MPD2    C5 2517   0.131   4.036   2.817 -0.0322 -0.7066 -0.4176
  165MPD2     H 2518   0.141   4.146   2.444  1.1946 -0.2344 -0.7632
  165MPD2    H1 2519   0.230   4.216   2.859  0.5791 -0.4695 -0.5744
  165MPD2    H2 2520   0.046   3.855   2.745  3.4828 -0.6757 -1.2119
  165MPD2    H3 2521   0.134   3.995   2.918  1.7402 -0.2133 -0.2699
  165MPD2     N 2522   0.275   4.311   2.604 -0.0868 -0.0055 -0.5020
  165MPD2    H5 2523   0.307   4.367   2.682  0.5783 -0.2127 -0.6287
  165MPD2    N1 2524   0.013   3.895   2.492  0.7289 -0.0833  0.0626
  165MPD2    H7 2525   4.686   3.816   2.533 -0.1203 -0.0831 -0.9713
  166TCq2    C1 2526   0.291   4.354   2.477  0.6489  0.2043  0.4299
  166TCq2    O2 2527   0.246   4.317   2.370 -0.6476  0.1840 -0.3293
  166TCq2    C2 2528   0.385   4.464   2.469 -0.0744  0.2034  0.3631
  166TCq2    C3 2529   0.489   4.451   2.557 -0.1031 -0.1433  0.1427
  166TCq2    C4 2530   0.602   4.515   2.511  0.5553  0.2770 -0.0644
  166TCq2    C5 2531   0.616   4.579   2.393  0.0477 -0.1136  0.1061
  166TCq2    C6 2532   0.504   4.592   2.316 -0.4556  0.2502  0.2877
  166TCq2    C7 2533   0.392   4.525   2.346  0.6063  0.1602  0.7226
  166TCq2    C8 2534   0.523   4.660   2.188 -0.1426  0.0787 -0.8605
  166TCq2    O4 2535   0.636   4.690   2.151  0.4427 -0.6332  0.2038
  166TCq2    C9 2536   0.724   4.498   2.591 -0.0069  0.0010 -0.8423
  166TCq2    O5 2537   0.834   4.526   2.534 -0.1989  0.4969 -0.0612
  166TCq2    O6 2538   0.710   4.471   2.713 -0.1139 -0.9369  0.4709
  166TCq2    H2 2539   0.487   4.391   2.647  0.8290 -0.6139 -0.1568
  166TCq2    H3 2540   0.713   4.620   2.365  0.2671 -1.1737 -0.7307
  166TCq2    H4 2541   0.307   4.520   2.279  2.2199  0.5359 -1.3429
  167TMC2    C1 2542   2.432   2.676  12.524 -0.2407 -0.3958  0.8352
  167TMC2    C2 2543   2.418   2.772  12.615 -0.6249  0.3907 -0.0342
  167TMC2    C3 2544   2.439   2.743  12.748 -0.6316  0.9116 -0.2129
  167TMC2    C4 2545   2.459   2.549  12.561  0.4198  0.4449 -0.3101
  167TMC2    C5 2546   2.496   2.521  12.689 -0.4382  0.1112 -0.6053
  167TMC2    C6 2547   2.475   2.617  12.787  0.3570 -0.4385  0.0661
  167TMC2     C 2548   2.399   2.725  12.388  0.4248  0.6720 -0.2355
  167TMC2     O 2549   2.444   2.837  12.361  0.2339  0.7323 -0.2131
  167TMC2     H 2550   2.393   2.870  12.577 -0.5126 -0.5568 -2.5569
  167TMC2    H1 2551   2.454   2.472  12.485 -2.2406 -1.4126  1.7447
  167TMC2    H2 2552   2.492   2.598  12.892 -0.8512 -1.0887  0.1414
  167TMC2    C7 2553   2.496   2.389  12.735 -0.6429  0.1653 -0.4347
  167TMC2    C8 2554   2.381   2.823  12.854 -0.1447 -0.8879  0.4905
  167TMC2    O1 2555   2.468   2.373  12.853  0.0949 -0.4899  0.0367
  167TMC2    O2 2556   2.334   2.756  12.945 -0.0225  0.3469 -0.3001
  167TMC2    O5 2557   2.307   2.922  12.794  0.5549 -0.4183 -0.0765
  167TMC2    H5 2558   2.361   2.992  12.752  0.9586 -1.7030 -1.7380
  168MPD2     C 2559   2.331   2.759  12.091  0.0939 -0.1691 -1.0287
  168MPD2    C1 2560   2.326   2.644  12.160  0.1642 -0.2541 -0.0772
  168MPD2    C2 2561   2.285   2.536  12.082  0.4056 -0.5002 -0.4127
  168MPD2    C3 2562   2.237   2.544  11.951  0.5552 -0.2993  0.2682
  168MPD2    C4 2563   2.247   2.662  11.888  0.4367  0.1455  0.1899
  168MPD2    C5 2564   2.286   2.765  11.964 -0.2432  0.2742 -0.2231
  168MPD2     H 2565   2.281   2.437  12.127 -1.1672 -1.0806 -1.8131
  168MPD2    H1 2566   2.219   2.676  11.784  0.5387  2.0006  0.4178
  168MPD2    H2 2567   2.349   2.856  12.135  0.2974 -1.1279  0.9733
  168MPD2    H3 2568   2.298   2.866  11.925  1.0724  0.7147  1.2990
  168MPD2     N 2569   2.194   2.430  11.871  0.1117  0.2516 -0.1254
  168MPD2    H5 2570   2.169   2.451  11.775  0.6574 -0.4391 -0.4127
  168MPD2    N1 2571   2.352   2.628  12.301  0.1362 -0.1301  1.2247
  168MPD2    H7 2572   2.316   2.545  12.347 -1.5944  0.2358  0.5317
  169MPD1     C 2573   1.940   1.119   9.934  0.3318  0.5290  1.0907
  169MPD1    C1 2574   1.947   1.245   9.972  0.3705 -0.1534  0.8185
  169MPD1    C2 2575   1.828   1.312   9.975  0.1224  0.2467  0.1875
  169MPD1    C3 2576   1.710   1.252   9.921 -0.1008 -0.1912  0.3755
  169MPD1    C4 2577   1.711   1.113   9.894 -0.2914  0.3352  0.2613
  169MPD1    C5 2578   1.825   1.045   9.906  0.3146 -0.1676 -0.2452
  169MPD1     H 2579   1.834   1.417  10.001  0.1272  0.2467  0.1865
  169MPD1    H1 2580   1.623   1.061   9.856 -2.0050  2.4379  1.3465
  169MPD1    H2 2581   2.031   1.061   9.934  0.8706  1.3667 -0.4424
  169MPD1    H3 2582   1.830   0.945   9.864 -1.9807  0.3123 -1.6638
  169MPD1     N 2583   1.598   1.333   9.911 -0.1506  0.0260  0.4314
  169MPD1    H5 2584   1.604   1.426   9.951  1.0531  0.6516 -1.2163
  169MPD1    N1 2585   2.065   1.313   9.978 -0.4500  0.4446 -0.3284
  169MPD1    H6 2586   2.145   1.252   9.996 -1.0712  0.3076  2.0152
  169MPD1    H7 2587   2.074   1.398  10.035 -0.2625  1.0067 -1.1942
  170MPD1     C 2588   3.230   0.077  14.289 -0.7196 -0.6649  0.7514
  170MPD1    C1 2589   3.336   4.720  14.309  0.1116  0.4445  0.3911
  170MPD1    C2 2590   3.446   0.003  14.221 -0.2267  0.4256 -0.4971
  170MPD1    C3 2591   3.441   0.082  14.109  0.8745  0.5877 -0.2451
  170MPD1    C4 2592   3.330   0.168  14.093 -0.2550  0.2338  0.2645
  170MPD1    C5 2593   3.225   0.165  14.185  0.1573 -0.1405 -0.2866
  170MPD1     H 2594   3.535   4.669  14.243 -0.2557 -0.3464 -2.3400
  170MPD1    H1 2595   3.338   0.240  14.013 -2.7354  1.3302  0.9877
  170MPD1    H2 2596   3.142   0.076  14.353 -0.2846 -1.2940  1.3470
  170MPD1    H3 2597   3.148   0.240  14.178  1.9644  1.7619  0.1280
  170MPD1     N 2598   3.551   0.083  14.024  0.1092 -0.1762 -0.2303
  170MPD1    H5 2599   3.609   0.002  14.043  1.1180  0.5612 -0.1619
  170MPD1    N1 2600   3.331   4.610  14.399  0.2455  0.1809 -0.0288
  170MPD1    H6 2601   3.426   4.618  14.433  0.8140  2.3446 -2.1447
  170MPD1    H7 2602   3.272   4.633  14.479 -0.9871  0.2226 -0.9520
  171MPD1     C 2603   2.587   0.980  14.608  0.5405 -0.5027  0.6191
  171MPD1    C1 2604   2.512   1.071  14.683  0.4474  0.2973 -0.8590
  171MPD1    C2 2605   2.533   1.080  14.824 -0.0627 -0.1594 -0.5509
  171MPD1    C3 2606   2.636   1.009  14.886 -0.0235  0.4600 -0.1592
  171MPD1    C4 2607   2.715   0.928  14.811 -0.2958  0.0024  0.0037
  171MPD1    C5 2608   2.688   0.911  14.676  0.0705 -0.4012 -0.4867
  171MPD1     H 2609   2.454   1.132  14.875 -0.9214 -0.6105 -1.4298
  171MPD1    H1 2610   2.800   0.878  14.857 -0.1096  1.1565  0.9191
  171MPD1    H2 2611   2.574   0.964  14.502 -1.4658 -0.9112  0.9366
  171MPD1    H3 2612   2.757   0.849  14.619  0.0924  0.0170 -0.9154
  171MPD1     N 2613   2.661   1.020  15.025 -0.2972  0.2867 -0.0241
  171MPD1    H5 2614   2.743   0.972  15.062  0.6683  2.4902  0.6528
  171MPD1    N1 2615   2.392   1.133  14.637  0.0671  0.6164 -0.1266
  171MPD1    H6 2616   2.368   1.218  14.687 -0.2428  0.1522  0.5177
  171MPD1    H7 2617   2.390   1.148  14.537 -0.4705 -0.1167 -0.2274
  172MPD1     C 2618   1.207   0.214   0.978  0.1348  0.5458  0.7202
  172MPD1    C1 2619   1.179   0.341   0.940  0.4331  0.0678 -0.5862
  172MPD1    C2 2620   1.284   0.416   0.887 -0.4473 -0.1030 -0.4896
  172MPD1    C3 2621   1.413   0.372   0.877  0.5222  0.3790  0.0564
  172MPD1    C4 2622   1.444   0.247   0.918  0.4120  0.1952 -0.8363
  172MPD1    C5 2623   1.339   0.172   0.967  0.0545 -0.1488  0.2611
  172MPD1     H 2624   1.258   0.518   0.860  0.5010 -0.0676 -1.2450
  172MPD1    H1 2625   1.546   0.210   0.922  0.3835  0.1541 -0.4797
  172MPD1    H2 2626   1.126   0.151   1.014  1.9493 -2.4525 -0.4967
  172MPD1    H3 2627   1.362   0.072   1.003  0.0468 -0.4060 -0.4622
  172MPD1     N 2628   1.513   0.435   0.804 -0.2876  0.0577 -0.4187
  172MPD1    H5 2629   1.607   0.399   0.810 -0.6777 -0.4946  2.3316
  172MPD1    N1 2630   1.048   0.387   0.932 -0.1112  0.5601 -0.2653
  172MPD1    H6 2631   1.033   0.480   0.969 -1.2432 -0.4740  1.9025
  172MPD1    H7 2632   0.982   0.324   0.979 -0.8820  1.5838  0.0156
  173MPD1     C 2633   3.089   0.552  13.899  0.1687 -0.3733 -0.3493
  173MPD1    C1 2634   3.025   0.584  14.014 -0.6256 -0.3299  0.4877
  173MPD1    C2 2635   3.094   0.581  14.136  0.0527  0.4212 -0.3357
  173MPD1    C3 2636   3.221   0.529  14.135  0.4027  0.2954  0.0133
  173MPD1    C4 2637   3.276   0.493  14.016  0.6396  0.3315 -0.3607
  173MPD1    C5 2638   3.212   0.500  13.897  0.3788 -0.5615  0.5315
  173MPD1     H 2639   3.045   0.611  14.228  0.6104  0.0331  0.0885
  173MPD1    H1 2640   3.370   0.440  14.023  0.1807 -0.6948 -1.8691
  173MPD1    H2 2641   3.032   0.563  13.807  0.9928 -0.4958 -0.8847
  173MPD1    H3 2642   3.257   0.467  13.804  2.3372  1.0362  0.9133
  173MPD1     N 2643   3.278   0.495  14.258  0.6737 -0.3130  0.4804
  173MPD1    H5 2644   3.206   0.487  14.328 -1.2336  0.9015 -1.3665
  173MPD1    N1 2645   2.898   0.641  14.007  0.2976 -0.4146  0.6654
  173MPD1    H6 2646   2.841   0.596  13.936 -0.0251 -1.8606  1.8419
  173MPD1    H7 2647   2.858   0.623  14.098 -0.3300 -0.2129  0.4274
  174MPD1     C 2648   4.074   4.647  14.318 -0.2912  0.7029  0.4833
  174MPD1    C1 2649   4.005   4.604  14.432  0.2882  0.1359  0.1352
  174MPD1    C2 2650   3.900   4.685  14.474 -0.3190 -0.6554 -0.0566
  174MPD1    C3 2651   3.850   0.063  14.387 -0.0936  0.3786  0.8729
  174MPD1    C4 2652   3.922   0.098  14.280 -0.1556 -0.6935 -0.6176
  174MPD1    C5 2653   4.036   0.032  14.248 -0.0073  0.4195  0.4701
  174MPD1     H 2654   3.852   4.664  14.568 -1.3045  1.1348 -0.1497
  174MPD1    H1 2655   3.897   0.186  14.222 -1.7325 -1.6025 -1.3050
  174MPD1    H2 2656   4.165   4.598  14.286 -0.7000 -0.0193  0.4319
  174MPD1    H3 2657   4.106   0.064  14.172 -0.9699  1.3575 -0.0349
  174MPD1     N 2658   3.732   0.149  14.415 -0.1599  0.0363 -0.2753
  174MPD1    H5 2659   3.725   0.236  14.363 -1.8551  1.2435  1.9903
  174MPD1    N1 2660   4.059   4.505  14.516 -0.0516 -0.1575  0.7285
  174MPD1    H6 2661   3.992   4.456  14.575  0.3594 -1.6813 -0.0955
  174MPD1    H7 2662   4.125   4.442  14.471 -1.7690 -0.6620 -1.1012
  175MPD1     C 2663   1.153   1.134  15.421 -0.6821 -0.0018  0.5789
  175MPD1    C1 2664   1.273   1.199  15.434  0.1633  0.6483  0.0991
  175MPD1    C2 2665   1.333   1.206  15.557 -0.2816 -0.4358 -0.1640
  175MPD1    C3 2666   1.286   1.131  15.664  0.3761 -0.3765  0.6199
  175MPD1    C4 2667   1.167   1.058  15.637  0.4267  0.0954 -1.0245
  175MPD1    C5 2668   1.096   1.074  15.521 -0.2305  0.9069 -0.3858
  175MPD1     H 2669   1.421   1.265  15.583  1.6469 -3.5507  0.3543
  175MPD1    H1 2670   1.105   1.026  15.720 -0.2988 -1.0725 -2.0169
  175MPD1    H2 2671   1.098   1.143  15.327 -3.6372  0.3845  2.3531
  175MPD1    H3 2672   0.995   1.035  15.525  0.7905 -1.9000 -2.2810
  175MPD1     N 2673   1.340   1.133  15.793 -0.4490  0.1081 -0.4674
  175MPD1    H5 2674   1.279   1.084  15.859  0.2370  0.3223  0.3287
  175MPD1    N1 2675   1.305   1.292  15.335 -0.3582  0.6390  0.3094
  175MPD1    H6 2676   1.278   1.251  15.246  0.0210  0.1787  0.4054
  175MPD1    H7 2677   1.403   1.319  15.336 -0.2693  0.4752 -3.7609
  176MPD1     C 2678   3.147   2.724  17.077  0.9465  0.0293  0.7620
  176MPD1    C1 2679   3.043   2.783  17.021  0.0904 -0.3888 -0.0652
  176MPD1    C2 2680   2.995   2.901  17.067  0.1405  0.7212 -0.2324
  176MPD1    C3 2681   3.066   2.973  17.167 -0.4118  1.0393 -0.7683
  176MPD1    C4 2682   3.175   2.915  17.225  0.1258  0.2160 -0.4056
  176MPD1    C5 2683   3.208   2.789  17.177  0.6114 -0.3427 -0.0207
  176MPD1     H 2684   2.906   2.943  17.021  0.6775  0.3143 -1.6208
  176MPD1    H1 2685   3.238   2.963  17.299 -0.7028  0.4562  0.1440
  176MPD1    H2 2686   3.181   2.629  17.039 -1.6224 -0.5932  0.0236
  176MPD1    H3 2687   3.297   2.738  17.214  1.0005  0.1553 -0.2701
  176MPD1     N 2688   3.021   3.099  17.220  0.6728  0.2331 -0.5456
  176MPD1    H5 2689   2.930   3.135  17.192 -1.2814 -3.6592  0.7748
  176MPD1    N1 2690   2.973   2.711  16.923 -0.7303 -0.6162  0.1089
  176MPD1    H6 2691   2.905   2.765  16.870  0.1599 -0.7034 -1.1158
  176MPD1    H7 2692   3.040   2.657  16.869  1.4421  1.6648  0.5728
  177MPD1     C 2693   1.500   4.032  10.478 -0.4462  0.2833  0.1277
  177MPD1    C1 2694   1.450   4.135  10.406 -0.1896  0.0950 -0.1021
  177MPD1    C2 2695   1.374   4.097  10.298 -0.1530  0.0343 -0.7230
  177MPD1    C3 2696   1.333   3.966  10.272 -0.0197 -0.0964  0.5310
  177MPD1    C4 2697   1.386   3.863  10.342  0.4399  0.2926  0.3802
  177MPD1    C5 2698   1.468   3.903  10.445 -0.2194  0.4870 -0.4166
  177MPD1     H 2699   1.334   4.176  10.237 -2.0082 -0.6952 -0.4431
  177MPD1    H1 2700   1.366   3.760  10.318 -0.8921  0.8705 -1.0252
  177MPD1    H2 2701   1.564   4.041  10.564  0.2193 -0.4676 -0.2856
  177MPD1    H3 2702   1.520   3.822  10.495 -0.4672 -0.2173 -1.3017
  177MPD1     N 2703   1.252   3.934  10.155  0.7087  0.2731 -0.2661
  177MPD1    H5 2704   1.236   4.002  10.080  1.8936  0.7188 -0.1098
  177MPD1    N1 2705   1.501   4.269  10.417  0.4616 -0.0834  0.8456
  177MPD1    H6 2706   1.437   4.341  10.383 -1.8105 -2.7650 -0.6310
  177MPD1    H7 2707   1.530   4.298  10.509 -0.4288  2.2758  0.3967
  178MPD1     C 2708   3.999   3.934   0.643  0.2410 -0.3495 -0.3565
  178MPD1    C1 2709   4.028   3.799   0.632  0.3098  0.4841  0.5572
  178MPD1    C2 2710   4.046   3.755   0.501  0.0440 -0.1275  0.1775
  178MPD1    C3 2711   4.075   3.839   0.398 -0.0636 -0.1908  0.0016
  178MPD1    C4 2712   4.074   3.977   0.417  0.0183  0.4472  0.3542
  178MPD1    C5 2713   4.013   4.018   0.536 -0.1636  0.0967  0.1095
  178MPD1     H 2714   4.053   3.648   0.485  0.0156 -0.1549  0.3469
  178MPD1    H1 2715   4.082   4.048   0.336 -2.9320 -1.8239 -1.8848
  178MPD1    H2 2716   3.966   3.967   0.741  1.3906 -2.7636  0.8448
  178MPD1    H3 2717   4.010   4.125   0.551  0.7226  0.0464  0.6377
  178MPD1     N 2718   4.110   3.790   0.272 -0.5295  1.1989  0.0400
  178MPD1    H5 2719   4.146   3.860   0.208  3.9399 -1.2161 -0.0912
  178MPD1    N1 2720   3.988   3.713   0.732 -0.0680  0.3199 -0.1120
  178MPD1    H6 2721   3.997   3.743   0.829 -0.9313 -0.6462  0.2589
  178MPD1    H7 2722   4.026   3.619   0.724 -0.9739 -0.1451  1.0812
  179MPD1     C 2723   3.813   1.924  15.516  0.1569  0.5754  0.8068
  179MPD1    C1 2724   3.838   2.009  15.620  0.1547  0.6553 -0.0155
  179MPD1    C2 2725   3.743   2.037  15.710  0.4505  0.6040 -0.0599
  179MPD1    C3 2726   3.613   2.000  15.688  0.1178  0.7008  0.6764
  179MPD1    C4 2727   3.590   1.921  15.579 -0.2572 -0.3179 -0.3189
  179MPD1    C5 2728   3.688   1.874  15.498 -0.9252  0.2239  0.1761
  179MPD1     H 2729   3.769   2.104  15.792  0.5503 -1.5839  1.6898
  179MPD1    H1 2730   3.489   1.884  15.564 -0.1332 -1.4504  1.7132
  179MPD1    H2 2731   3.891   1.889  15.449 -2.6941  0.9963 -2.7209
  179MPD1    H3 2732   3.681   1.811  15.410 -0.5461  2.1073 -1.2154
  179MPD1     N 2733   3.509   2.031  15.780 -0.3097  0.2286  0.0862
  179MPD1    H5 2734   3.410   2.021  15.763 -0.2543  0.2257 -0.2462
  179MPD1    N1 2735   3.974   2.044  15.646  0.4573 -0.4216  0.2092
  179MPD1    H6 2736   3.981   2.137  15.686 -2.7662 -1.1370  2.5481
  179MPD1    H7 2737   4.030   2.051  15.562  1.5372 -1.6981  0.8237
  180MPD1     C 2738   3.725   3.655  15.115 -0.5039 -0.1803  0.4011
  180MPD1    C1 2739   3.775   3.655  14.987 -0.0701 -0.2044 -0.2317
  180MPD1    C2 2740   3.684   3.635  14.882  0.4215  0.1459  0.3975
  180MPD1    C3 2741   3.549   3.654  14.893  0.5850 -0.0885 -0.1063
  180MPD1    C4 2742   3.497   3.648  15.026  0.3318  0.8493  0.1425
  180MPD1    C5 2743   3.587   3.651  15.126  0.2571 -0.1048 -0.0521
  180MPD1     H 2744   3.726   3.623  14.783  3.4719  0.3293  1.6958
  180MPD1    H1 2745   3.392   3.663  15.047 -0.0082  0.5351 -1.3271
  180MPD1    H2 2746   3.788   3.643  15.203  0.4102  1.5105 -0.0237
  180MPD1    H3 2747   3.552   3.643  15.228  1.2449  0.6037  0.3415
  180MPD1     N 2748   3.469   3.659  14.780  0.5287  0.1258 -0.1352
  180MPD1    H5 2749   3.515   3.661  14.689 -1.0550 -1.4881 -0.9551
  180MPD1    N1 2750   3.912   3.625  14.975 -0.6203  0.2370 -0.2447
  180MPD1    H6 2751   3.946   3.668  14.890 -0.4500  1.3302  0.3802
  180MPD1    H7 2752   3.963   3.673  15.049  0.5310 -2.3124  0.6390
  181MPD1     C 2753   0.103   0.078   9.830 -0.1556  0.1626 -0.3404
  181MPD1    C1 2754   0.104   0.199   9.765  0.0179  0.5143  0.2369
  181MPD1    C2 2755   0.200   0.296   9.811  0.1919 -0.0457 -0.8444
  181MPD1    C3 2756   0.266   0.271   9.934  0.3144 -0.0521  0.3465
  181MPD1    C4 2757   0.247   0.154  10.008 -0.2030 -0.0260  0.4992
  181MPD1    C5 2758   0.169   0.054   9.945  0.1256 -0.1835  0.4495
  181MPD1     H 2759   0.217   0.384   9.749 -0.8839  0.7701  0.0159
  181MPD1    H1 2760   0.285   0.133  10.107  1.2460  0.5514  0.0670
  181MPD1    H2 2761   0.027   0.007   9.796 -1.7359  1.8915 -0.4116
  181MPD1    H3 2762   0.158   4.681   9.994 -0.7034  0.2219  1.0585
  181MPD1     N 2763   0.363   0.356   9.991  0.2324  0.2022 -0.7241
  181MPD1    H5 2764   0.412   0.317  10.071 -4.6455 -0.0315  2.1932
  181MPD1    N1 2765   0.037   0.221   9.645 -0.6108 -0.1229  0.2404
  181MPD1    H6 2766   4.674   0.168   9.637 -2.8442  3.1294  2.6225
  181MPD1    H7 2767   0.016   0.320   9.633  2.4521  0.7154  1.6230
  182MPD1     C 2768   1.851   4.403   1.251 -0.1979 -0.3220  0.2209
  182MPD1    C1 2769   1.852   4.310   1.151 -1.2557  0.9819  0.2237
  182MPD1    C2 2770   1.736   4.291   1.070 -0.9671 -0.2993 -0.0059
  182MPD1    C3 2771   1.616   4.363   1.097 -0.0243 -0.5764  0.0614
  182MPD1    C4 2772   1.623   4.449   1.200 -0.6231  0.1186 -0.2986
  182MPD1    C5 2773   1.735   4.471   1.275 -0.1004  0.2701 -0.0258
  182MPD1     H 2774   1.739   4.222   0.987 -4.3751 -1.1626  0.6024
  182MPD1    H1 2775   1.536   4.508   1.230  0.5869  1.3806  0.7263
  182MPD1    H2 2776   1.938   4.433   1.308 -1.4002  1.4731  1.1372
  182MPD1    H3 2777   1.736   4.547   1.352  2.4420  3.5113 -3.3248
  182MPD1     N 2778   1.495   4.349   1.025  0.5115 -0.2807 -0.4939
  182MPD1    H5 2779   1.422   4.403   1.070  0.0072 -1.7866  0.4736
  182MPD1    N1 2780   1.973   4.259   1.099  0.0471  0.0301  0.4499
  182MPD1    H6 2781   2.041   4.228   1.169 -0.3592 -1.1749  0.3209
  182MPD1    H7 2782   1.962   4.174   1.043 -2.7443 -0.4168  1.6511
  183MPD1     C 2783   2.797   0.214   9.841 -0.5919 -0.0921  0.0433
  183MPD1    C1 2784   2.700   0.130   9.879  0.2668 -1.0429 -0.5946
  183MPD1    C2 2785   2.566   0.168   9.894 -0.6238  0.0045 -0.0209
  183MPD1    C3 2786   2.518   0.293   9.865 -0.3036  0.1860 -0.7378
  183MPD1    C4 2787   2.625   0.382   9.820 -0.7736  0.7654  0.6845
  183MPD1    C5 2788   2.757   0.341   9.802 -0.3921 -0.1832  0.1307
  183MPD1     H 2789   2.500   0.088   9.927 -0.5920 -0.0654 -0.1275
  183MPD1    H1 2790   2.603   0.486   9.797 -0.9054  0.5206 -0.2712
  183MPD1    H2 2791   2.899   0.178   9.847 -0.6550 -0.2910 -0.0764
  183MPD1    H3 2792   2.824   0.422   9.777  2.0957 -2.5078 -0.7548
  183MPD1     N 2793   2.385   0.324   9.890 -0.0544 -0.3315  0.5385
  183MPD1    H5 2794   2.334   0.248   9.934 -0.3191 -0.7083 -0.4267
  183MPD1    N1 2795   2.739   0.005   9.931  0.2554 -0.0055  0.6274
  183MPD1    H6 2796   2.823   4.686   9.892  0.4716  0.2066  0.8696
  183MPD1    H7 2797   2.664   4.658   9.930  0.3056 -0.0499 -0.0744
  184MPD1     C 2798   4.700   2.939  11.020  0.0019  0.0540 -1.1790
  184MPD1    C1 2799   0.015   2.810  11.031 -0.2838  0.0681 -0.0154
  184MPD1    C2 2800   0.106   2.765  10.933  0.2603  0.3413  0.5359
  184MPD1    C3 2801   0.163   2.844  10.835  0.0310  0.2252 -0.7487
  184MPD1    C4 2802   0.114   2.971  10.832  0.2878 -0.2793 -0.1711
  184MPD1    C5 2803   0.032   3.026  10.924  0.5967  0.0722  0.3825
  184MPD1     H 2804   0.135   2.661  10.938 -3.6841 -0.7860  0.0295
  184MPD1    H1 2805   0.139   3.045  10.757 -1.2575  0.3090 -0.1015
  184MPD1    H2 2806   4.642   2.983  11.099 -0.4042 -0.4126 -1.2146
  184MPD1    H3 2807   0.000   3.129  10.926 -3.7915 -1.2832 -0.1462
  184MPD1     N 2808   0.254   2.802  10.734 -0.3342 -0.1665  0.1250
  184MPD1    H5 2809   0.270   2.862  10.654  2.4580  0.2142  0.9851
  184MPD1    N1 2810   4.676   2.730  11.134 -0.3957 -0.3422  0.2107
  184MPD1    H6 2811   4.666   2.778  11.223  1.0371  0.9790 -0.3463
  184MPD1    H7 2812   0.005   2.645  11.155  1.5884  0.3603 -1.7884
  185MPD1     C 2813   0.233   2.097   9.898 -0.1775  0.7281  0.3072
  185MPD1    C1 2814   0.265   2.065  10.028 -1.0977  0.6313  0.2065
  185MPD1    C2 2815   0.270   2.166  10.124 -0.0601 -0.4047 -0.5022
  185MPD1    C3 2816   0.253   2.300  10.092  0.2128 -0.0742 -0.0190
  185MPD1    C4 2817   0.242   2.331   9.960  0.3626  0.0377 -0.5984
  185MPD1    C5 2818   0.235   2.229   9.864 -0.5050 -0.5253  0.7626
  185MPD1     H 2819   0.288   2.141  10.228  2.8098  1.3117 -0.5793
  185MPD1    H1 2820   0.241   2.433   9.923  0.6288  0.5363  0.7730
  185MPD1    H2 2821   0.225   2.028   9.815  2.1941 -1.5779  1.9840
  185MPD1    H3 2822   0.231   2.261   9.760 -0.5281 -2.7970  0.0567
  185MPD1     N 2823   0.264   2.410  10.183 -0.2461  0.0312 -0.1132
  185MPD1    H5 2824   0.257   2.501  10.140  0.3778  0.4899  0.7648
  185MPD1    N1 2825   0.260   1.926  10.062 -0.5551  1.3013  0.2264
  185MPD1    H6 2826   0.281   1.863   9.985 -0.1610 -0.1716  1.5440
  185MPD1    H7 2827   0.322   1.912  10.142  0.1541 -0.5016 -0.6378
  186MPD1     C 2828   3.559   2.509  15.552  0.5234 -0.2116  0.5736
  186MPD1    C1 2829   3.572   2.641  15.577  0.2782  0.3169  0.0612
  186MPD1    C2 2830   3.665   2.669  15.680 -0.0046 -0.1847 -0.1295
  186MPD1    C3 2831   3.725   2.570  15.756 -0.1177 -0.5339 -0.1295
  186MPD1    C4 2832   3.705   2.440  15.727  0.1198 -0.2436  0.9056
  186MPD1    C5 2833   3.614   2.405  15.627  0.4298 -0.1627 -0.1379
  186MPD1     H 2834   3.689   2.771  15.708  0.4504 -1.0012  2.4541
  186MPD1    H1 2835   3.753   2.364  15.787  2.2547  1.1920  1.0242
  186MPD1    H2 2836   3.494   2.491  15.466 -0.2723  0.8694  0.9387
  186MPD1    H3 2837   3.593   2.303  15.598  1.2694 -0.3154 -0.2266
  186MPD1     N 2838   3.826   2.592  15.856 -0.2589  0.5483  0.0563
  186MPD1    H5 2839   3.852   2.509  15.908 -2.1975  0.1509  0.4071
  186MPD1    N1 2840   3.508   2.741  15.500  0.4605 -0.0678  0.3927
  186MPD1    H6 2841   3.432   2.707  15.442 -0.5235  1.9760  0.4768
  186MPD1    H7 2842   3.480   2.821  15.557 -2.3935 -2.1058  1.8237
  187MPD1     C 2843   3.279   3.657   0.535 -0.5449 -0.1326 -0.0427
  187MPD1    C1 2844   3.163   3.654   0.462 -1.0047 -0.0828 -0.1326
  187MPD1    C2 2845   3.161   3.709   0.334 -0.3724 -0.7300  0.1533
  187MPD1    C3 2846   3.264   3.789   0.290 -0.2231 -0.5732  0.0508
  187MPD1    C4 2847   3.380   3.798   0.368  0.2973 -0.1876  0.5268
  187MPD1    C5 2848   3.382   3.730   0.489  0.5904 -0.9195  0.0755
  187MPD1     H 2849   3.065   3.694   0.285 -1.5549  2.7879  1.4548
  187MPD1    H1 2850   3.464   3.863   0.345 -1.7478  2.1165 -0.4317
  187MPD1    H2 2851   3.299   3.606   0.629  0.8352  2.6502  1.1712
  187MPD1    H3 2852   3.471   3.734   0.550 -0.8862  1.1670  2.1056
  187MPD1     N 2853   3.255   3.870   0.171 -0.2715  0.3956  0.6396
  187MPD1    H5 2854   3.335   3.928   0.147 -0.1039 -0.4982 -0.9147
  187MPD1    N1 2855   3.053   3.579   0.497 -0.1923 -0.3729  0.3132
  187MPD1    H6 2856   2.968   3.611   0.452  1.1099  1.5189 -0.8214
  187MPD1    H7 2857   3.045   3.561   0.596  0.2688 -4.1996 -0.3177
  188MPD1     C 2858   2.203   4.106   9.612 -0.6885  0.3460  0.3086
  188MPD1    C1 2859   2.334   4.104   9.645 -0.6691 -0.6689 -0.6908
  188MPD1    C2 2860   2.377   3.990   9.701  0.3918  0.1915 -0.2884
  188MPD1    C3 2861   2.304   3.875   9.724  0.7176 -0.2484  0.0431
  188MPD1    C4 2862   2.171   3.870   9.671 -0.3918  0.4418  0.1786
  188MPD1    C5 2863   2.125   3.992   9.618 -0.2740 -0.1029  0.5415
  188MPD1     H 2864   2.480   3.998   9.735 -0.1023  1.5496  0.9123
  188MPD1    H1 2865   2.104   3.786   9.681  0.4555 -0.0079  2.1454
  188MPD1    H2 2866   2.166   4.189   9.553  0.9407  0.2985 -0.7802
  188MPD1    H3 2867   2.026   3.994   9.576  0.1803 -0.7530 -0.5541
  188MPD1     N 2868   2.351   3.760   9.785 -0.1108 -0.5706 -0.6476
  188MPD1    H5 2869   2.290   3.679   9.791 -0.4435 -0.4010 -1.7607
  188MPD1    N1 2870   2.405   4.218   9.650 -0.2819  0.1213 -0.0863
  188MPD1    H6 2871   2.383   4.290   9.581  0.2835 -0.8154 -1.2522
  188MPD1    H7 2872   2.499   4.187   9.625  0.0860  1.3519 -0.2791
  189MPD1     C 2873   4.569   4.686   0.670 -0.0084  0.4889  0.2932
  189MPD1    C1 2874   4.446   4.664   0.624  0.0220  0.0920 -0.5842
  189MPD1    C2 2875   4.351   0.044   0.634  0.7544 -0.3165 -0.0126
  189MPD1    C3 2876   4.392   0.181   0.663  0.2595 -0.1774 -0.2269
  189MPD1    C4 2877   4.521   0.195   0.707  0.0164 -0.1520  0.1883
  189MPD1    C5 2878   4.604   0.091   0.707  0.2973 -0.5026  0.1205
  189MPD1     H 2879   4.248   0.026   0.608  0.8319 -1.0703  0.2081
  189MPD1    H1 2880   4.555   0.288   0.751  2.3816 -1.4102  1.0291
  189MPD1    H2 2881   4.645   4.608   0.673 -0.2623  0.1357 -2.2043
  189MPD1    H3 2882   4.704   0.112   0.743 -0.2925  0.0008  1.4513
  189MPD1     N 2883   4.294   0.280   0.675 -0.2114 -0.0714 -0.2295
  189MPD1    H5 2884   4.206   0.259   0.629 -2.2683  0.4892  3.3709
  189MPD1    N1 2885   4.400   4.532   0.599  0.7211 -0.2648 -0.5707
  189MPD1    H6 2886   4.334   4.527   0.522  2.6414 -0.9404 -2.1767
  189MPD1    H7 2887   4.476   4.466   0.581  2.3169  1.1346  0.9382
  190MPD1     C 2888   3.198   3.502  15.866 -0.4486 -0.2128 -0.0475
  190MPD1    C1 2889   3.240   3.634  15.877 -0.6538  0.1013  0.4567
  190MPD1    C2 2890   3.357   3.673  15.808 -0.6565 -0.1357 -0.0273
  190MPD1    C3 2891   3.427   3.585  15.729  0.7136  0.2514  0.0507
  190MPD1    C4 2892   3.396   3.452  15.732  0.0586 -0.6419 -0.1057
  190MPD1    C5 2893   3.281   3.412  15.801 -0.6978  0.1462  0.2807
  190MPD1     H 2894   3.393   3.775  15.805 -1.0289  0.0230  0.8625
  190MPD1    H1 2895   3.447   3.376  15.673  0.2559 -0.2287 -0.4665
  190MPD1    H2 2896   3.105   3.470  15.911 -0.9767 -0.1578 -1.0952
  190MPD1    H3 2897   3.253   3.308  15.791  1.3979 -0.4785  0.8667
  190MPD1     N 2898   3.548   3.636  15.675  0.2240 -0.4492  0.6059
  190MPD1    H5 2899   3.559   3.737  15.680 -0.6077 -0.2755 -1.0466
  190MPD1    N1 2900   3.158   3.724  15.946  0.5240 -0.1119 -0.0888
  190MPD1    H6 2901   3.210   3.802  15.986  1.4207 -1.1699  0.8472
  190MPD1    H7 2902   3.128   3.673  16.029 -0.6943 -1.0617 -1.1254
  191MPD1     C 2903   3.442   4.605  13.428 -0.0555  0.1614 -0.1792
  191MPD1    C1 2904   3.446   4.652  13.301  0.2236  0.8860 -0.0468
  191MPD1    C2 2905   3.335   4.722  13.251 -0.0062 -0.6535 -0.2684
  191MPD1    C3 2906   3.218   0.021  13.327  0.2846  0.3770 -0.2547
  191MPD1    C4 2907   3.230   4.710  13.459  0.3559 -0.3148 -0.2086
  191MPD1    C5 2908   3.338   4.647  13.506  0.4252  0.1269 -0.4907
  191MPD1     H 2909   3.336   0.042  13.152 -0.3368 -0.7346 -0.3059
  191MPD1    H1 2910   3.147   4.710  13.529 -0.7023  0.1269 -1.4682
  191MPD1    H2 2911   3.527   4.551  13.468 -0.7326 -1.1571 -0.5118
  191MPD1    H3 2912   3.330   4.617  13.610  3.1276  0.6459 -0.1360
  191MPD1     N 2913   3.112   0.083  13.264 -0.5232  0.3316  0.3370
  191MPD1    H5 2914   3.107   0.105  13.165  0.4556  1.1159  0.4623
  191MPD1    N1 2915   3.567   4.653  13.231 -0.2239  0.0261  0.1087
  191MPD1    H6 2916   3.623   4.569  13.237 -1.6904 -0.9047  0.8520
  191MPD1    H7 2917   3.557   4.687  13.136  0.8889 -0.3326 -0.1358
  192MPD1     C 2918   2.182   0.685  13.357 -0.5077 -0.2828 -0.8551
  192MPD1    C1 2919   2.251   0.599  13.448  0.8468  0.0808  0.1671
  192MPD1    C2 2920   2.373   0.544  13.409 -0.1213 -0.4146 -0.3017
  192MPD1    C3 2921   2.414   0.544  13.276  0.9158 -0.3145 -0.1932
  192MPD1    C4 2922   2.336   0.611  13.184  0.3244  0.4211  0.0484
  192MPD1    C5 2923   2.225   0.687  13.224  0.3966 -0.1009 -1.1362
  192MPD1     H 2924   2.439   0.495  13.480  1.6789  0.9229 -1.0609
  192MPD1    H1 2925   2.362   0.615  13.079  1.4025  1.1668  0.3436
  192MPD1    H2 2926   2.094   0.741  13.386 -0.9584 -1.3592 -0.1515
  192MPD1    H3 2927   2.181   0.750  13.147  0.1156  1.2532  0.1226
  192MPD1     N 2928   2.523   0.470  13.214  0.1658 -0.1216 -0.1069
  192MPD1    H5 2929   2.557   0.494  13.122 -0.6777  2.0378  0.1501
  192MPD1    N1 2930   2.221   0.599  13.588 -0.4260 -0.6547 -0.1823
  192MPD1    H6 2931   2.124   0.619  13.609 -0.4011 -1.4103  0.6747
  192MPD1    H7 2932   2.250   0.511  13.631 -0.8212 -0.1568  1.0893
  193MPD1     C 2933   2.234   0.964  16.103 -0.2019 -0.1600  0.0510
  193MPD1    C1 2934   2.153   1.051  16.169 -0.0987 -0.1437  0.1873
  193MPD1    C2 2935   2.201   1.106  16.284 -0.0621 -0.8388  0.1469
  193MPD1    C3 2936   2.339   1.089  16.328 -0.1080 -0.1939 -0.0066
  193MPD1    C4 2937   2.422   1.027  16.239 -0.3366  0.3886 -0.0798
  193MPD1    C5 2938   2.371   0.970  16.125  0.1618  0.2662  0.1900
  193MPD1     H 2939   2.133   1.159  16.350 -2.3987 -1.8522 -1.4411
  193MPD1    H1 2940   2.529   1.018  16.251 -0.6286 -0.9500  1.5632
  193MPD1    H2 2941   2.194   0.900  16.025  0.9956  3.0893 -3.2326
  193MPD1    H3 2942   2.440   0.908  16.068  1.4928  0.7166  1.3053
  193MPD1     N 2943   2.402   1.145  16.438  0.6234  0.0214  0.7077
  193MPD1    H5 2944   2.503   1.145  16.428  0.7111  1.0348  1.4803
  193MPD1    N1 2945   2.019   1.061  16.128 -0.2946 -0.1057 -0.1703
  193MPD1    H6 2946   2.015   1.067  16.026  0.4741 -0.4112 -0.2215
  193MPD1    H7 2947   1.974   1.139  16.176  0.7864  0.2957  0.1952
  194MPD1     C 2948   4.656   3.104  16.537 -0.1771  0.0808  0.1956
  194MPD1    C1 2949   4.698   2.985  16.491 -0.0760 -0.2825 -0.4392
  194MPD1    C2 2950   0.059   2.912  16.568 -0.1672  0.8814 -0.1986
  194MPD1    C3 2951   0.115   2.962  16.682  1.0433  0.2534  0.5184
  194MPD1    C4 2952   0.078   3.084  16.725  0.0383 -0.0850  0.5463
  194MPD1    C5 2953   4.710   3.156  16.652 -0.2676  0.4924  0.0008
  194MPD1     H 2954   0.084   2.812  16.536  1.6852  2.0901 -2.5707
  194MPD1    H1 2955   0.117   3.116  16.822 -1.7359 -1.6017  1.7502
  194MPD1    H2 2956   4.577   3.158  16.487 -0.9186 -0.5413  0.7038
  194MPD1    H3 2957   4.682   3.252  16.693  1.6749  0.6386  0.9821
  194MPD1     N 2958   0.204   2.883  16.760 -0.3762 -0.4043  0.3122
  194MPD1    H5 2959   0.238   2.918  16.849 -0.0707 -0.5999  0.2701
  194MPD1    N1 2960   4.629   2.939  16.381  0.0070  0.5486 -0.2268
  194MPD1    H6 2961   4.605   3.010  16.312  0.9167 -0.4397 -1.5827
  194MPD1    H7 2962   4.667   2.851  16.345  2.2881  1.2507  0.4706
  195MPD1     C 2963   2.179   0.011  17.184  1.1078  0.0735  0.1797
  195MPD1    C1 2964   2.230   0.033  17.309 -0.3467  0.3743  0.0393
  195MPD1    C2 2965   2.222   4.648  17.400 -0.5289 -0.2177  0.1356
  195MPD1    C3 2966   2.132   4.544  17.378  0.0744  0.3315 -0.2714
  195MPD1    C4 2967   2.076   4.527  17.253  0.1314  0.2424 -0.0186
  195MPD1    C5 2968   2.103   4.622  17.155  0.2733  0.4145  0.9350
  195MPD1     H 2969   2.282   4.639  17.490 -0.3529 -1.2694 -0.0891
  195MPD1    H1 2970   2.010   4.443  17.233  0.8770  0.0917 -1.8347
  195MPD1    H2 2971   2.185   0.083  17.104  2.2211 -2.3354 -1.9091
  195MPD1    H3 2972   2.056   4.612  17.058  2.3931  0.0418 -0.0414
  195MPD1     N 2973   2.116   4.435  17.462 -0.5977 -0.4496 -0.0462
  195MPD1    H5 2974   2.069   4.354  17.424  0.6388 -1.3438  0.3359
  195MPD1    N1 2975   2.308   0.151  17.334  0.1527 -0.5564 -0.3467
  195MPD1    H6 2976   2.260   0.235  17.303  3.9186  0.9886 -2.0330
  195MPD1    H7 2977   2.329   0.159  17.433 -0.4181  1.9821 -0.4407
  196MPD1     C 2978   2.588   4.334  17.603 -0.3199  0.7548 -0.2162
  196MPD1    C1 2979   2.633   4.215  17.654 -0.4506  0.5891  0.2194
  196MPD1    C2 2980   2.626   4.198   0.102  0.4212  0.6402 -0.5176
  196MPD1    C3 2981   2.559   4.287   0.192 -0.2605  0.0966 -0.5739
  196MPD1    C4 2982   2.508   4.402   0.121 -0.2585  0.0186  0.1396
  196MPD1    C5 2983   2.526   4.428  17.680 -0.0026  0.2615 -0.2540
  196MPD1     H 2984   2.679   4.115   0.147 -1.4775 -0.5464 -0.4895
  196MPD1    H1 2985   2.458   4.474   0.185  3.0930  0.7721  1.9083
  196MPD1    H2 2986   2.610   4.358  17.499 -1.4996 -0.2483 -0.6986
  196MPD1    H3 2987   2.492   4.522  17.636  2.6721  2.9121  3.3867
  196MPD1     N 2988   2.535   4.276   0.329 -0.0914  0.3467  0.1276
  196MPD1    H5 2989   2.483   4.355   0.367  1.3274  0.9434  0.8356
  196MPD1    N1 2990   2.719   4.140  17.583  0.7483  0.1283  0.5428
  196MPD1    H6 2991   2.739   4.050  17.625 -1.3819 -0.0643  1.1143
  196MPD1    H7 2992   2.688   4.135  17.486 -0.6967 -2.0920  1.1365
  197MPD1     C 2993   1.659   1.538  17.677  0.2102  0.5087 -0.1509
  197MPD1    C1 2994   1.694   1.673  17.671 -0.3527  0.2378  0.3428
  197MPD1    C2 2995   1.721   1.739  17.553 -0.2710  0.3824 -0.0901
  197MPD1    C3 2996   1.729   1.659  17.436 -0.0552  0.3668 -0.3074
  197MPD1    C4 2997   1.714   1.521  17.449 -0.1995  0.8879 -0.0078
  197MPD1    C5 2998   1.674   1.457  17.564  0.6457 -0.0541  0.6804
  197MPD1     H 2999   1.722   1.847  17.546  0.8795  0.3700 -0.2003
  197MPD1    H1 3000   1.731   1.462  17.360  0.9292  1.2700 -0.0547
  197MPD1    H2 3001   1.614   1.486   0.069  0.9041  0.8177  0.4078
  197MPD1    H3 3002   1.660   1.349  17.566  1.1916 -0.1278  0.7174
  197MPD1     N 3003   1.758   1.717  17.309 -0.1061  0.5408  0.1056
  197MPD1    H5 3004   1.764   1.660  17.225 -0.3229 -1.9288  1.7994
  197MPD1    N1 3005   1.665   1.755   0.090 -0.1255  0.0209  0.2153
  197MPD1    H6 3006   1.712   1.845   0.094 -0.8886  0.3152  2.5097
  197MPD1    H7 3007   1.707   1.707   0.169  1.5610  0.4478 -0.4023
  198MPD1     C 3008   3.074   0.351  15.779 -0.1849 -0.1191 -0.6704
  198MPD1    C1 3009   3.153   0.247  15.836  0.3790  0.4641 -0.0290
  198MPD1    C2 3010   3.264   0.288  15.903  0.3497  0.2723  0.1119
  198MPD1    C3 3011   3.306   0.416  15.899 -0.3258  0.4498 -0.1637
  198MPD1    C4 3012   3.238   0.514  15.832 -0.0294 -0.3824  0.1603
  198MPD1    C5 3013   3.122   0.480  15.767  0.0062  0.5372 -0.2821
  198MPD1     H 3014   3.322   0.219  15.964  0.5364  0.7607  0.4875
  198MPD1    H1 3015   3.263   0.619  15.837  2.6368 -1.0020 -0.3333
  198MPD1    H2 3016   2.977   0.327  15.736 -0.7932  1.9412 -0.4792
  198MPD1    H3 3017   3.058   0.554  15.720 -0.3825  0.1550 -0.3628
  198MPD1     N 3018   3.420   0.442  15.973  0.4424 -0.3352  0.1507
  198MPD1    H5 3019   3.460   0.365  16.027  0.4429 -0.8080 -0.5258
  198MPD1    N1 3020   3.087   0.126  15.856 -0.5574 -0.2579 -0.0635
  198MPD1    H6 3021   3.153   0.052  15.877  1.4766  0.9904 -1.8684
  198MPD1    H7 3022   3.024   0.089  15.785  0.5282  2.2532 -2.3436
  199MPD1     C 3023   0.668   0.067   9.840  0.2528 -0.7434  0.1925
  199MPD1    C1 3024   0.777   0.150   9.842 -0.1668  0.2549 -0.2650
  199MPD1    C2 3025   0.764   0.269   9.765 -1.1267 -0.8510 -0.3039
  199MPD1    C3 3026   0.641   0.304   9.713  0.8299 -0.3563  0.4641
  199MPD1    C4 3027   0.532   0.225   9.723 -0.1403 -0.4513  0.4734
  199MPD1    C5 3028   0.548   0.105   9.788 -0.1007  0.2577 -0.8072
  199MPD1     H 3029   0.858   0.322   9.755 -1.1291 -0.9317 -0.7425
  199MPD1    H1 3030   0.432   0.250   9.689 -0.5242  1.0215  2.6673
  199MPD1    H2 3031   0.670   4.690   9.885 -0.1167 -1.7807 -2.1023
  199MPD1    H3 3032   0.461   0.040   9.783  0.7244 -0.9309  0.3293
  199MPD1     N 3033   0.614   0.426   9.652  0.3159 -0.7499  0.5484
  199MPD1    H5 3034   0.524   0.447   9.611 -0.3682 -0.4223  2.2056
  199MPD1    N1 3035   0.899   0.113   9.905 -0.5800 -0.7338 -0.3450
  199MPD1    H6 3036   0.892   0.048   9.983 -0.8082 -1.0744 -0.6485
  199MPD1    H7 3037   0.951   0.191   9.944  1.0637 -1.6259 -0.7493
  200MPD1     C 3038   4.105   0.754  14.648 -1.1267  0.1487 -0.5318
  200MPD1    C1 3039   4.151   0.832  14.748 -0.0135 -0.0241 -0.3509
  200MPD1    C2 3040   4.279   0.877  14.740  0.3484  0.1787  0.5373
  200MPD1    C3 3041   4.365   0.836  14.642 -0.3264  0.0123 -0.1046
  200MPD1    C4 3042   4.324   0.730  14.567  0.8940  0.3383 -0.3777
  200MPD1    C5 3043   4.193   0.694  14.565 -0.0538 -0.2373 -0.5942
  200MPD1     H 3044   4.301   0.953  14.815  0.5652 -1.5283  2.1908
  200MPD1    H1 3045   4.393   0.676  14.504  0.0392  0.2257 -1.2221
  200MPD1    H2 3046   4.001   0.723  14.649 -1.5133  1.4704 -0.1487
  200MPD1    H3 3047   4.166   0.615  14.496  0.1632 -1.8047  1.0900
  200MPD1     N 3048   4.491   0.899  14.621 -0.0457  0.3445  0.3338
  200MPD1    H5 3049   4.508   0.982  14.676 -0.6917 -0.1194  1.2370
  200MPD1    N1 3050   4.057   0.892  14.844  0.3882 -0.3245  0.8637
  200MPD1    H6 3051   3.975   0.835  14.862  1.8559 -2.1412  1.7977
  200MPD1    H7 3052   4.093   0.918  14.936 -0.7559 -0.0594  1.2265
  201MPD1     C 3053   2.121   0.234  13.431 -0.8103 -0.4862 -0.1563
  201MPD1    C1 3054   2.080   0.122  13.496  0.1795 -0.6324 -0.2960
  201MPD1    C2 3055   2.132   0.001  13.444  0.6645  0.3545 -0.5277
  201MPD1    C3 3056   2.206   4.714  13.329 -0.5110 -0.0419 -0.6504
  201MPD1    C4 3057   2.226   0.107  13.254  0.3113 -0.4339  0.2528
  201MPD1    C5 3058   2.192   0.229  13.312  0.1951 -0.1840  0.2547
  201MPD1     H 3059   2.122   4.631  13.500  3.3745  1.1132  1.2626
  201MPD1    H1 3060   2.282   0.115  13.161 -0.0559 -0.9679 -0.0152
  201MPD1    H2 3061   2.093   0.335  13.458 -0.9234 -0.7416  0.6919
  201MPD1    H3 3062   2.206   0.318  13.252  0.6311 -0.9258 -0.7412
  201MPD1     N 3063   2.254   4.585  13.291  0.2761 -0.6136 -0.1134
  201MPD1    H5 3064   2.240   4.511  13.359 -2.1125 -1.0323 -1.0564
  201MPD1    N1 3065   2.018   0.121  13.620  0.3696  0.4597 -0.0375
  201MPD1    H6 3066   1.969   0.033  13.636  1.4941 -0.5085 -1.9077
  201MPD1    H7 3067   1.940   0.185  13.626  1.0701  1.4160 -1.1372
  202MPD1     C 3068   1.410   3.737   9.410 -0.4756 -0.1525 -0.3740
  202MPD1    C1 3069   1.391   3.867   9.462 -0.0729 -0.0803 -0.7215
  202MPD1    C2 3070   1.502   3.912   9.532 -0.0017 -0.0212 -0.4867
  202MPD1    C3 3071   1.594   3.824   9.592  0.1803 -0.6374 -0.1155
  202MPD1    C4 3072   1.582   3.692   9.562  0.4064  0.3153  0.2547
  202MPD1    C5 3073   1.491   3.643   9.469 -0.2000 -0.4991 -0.5004
  202MPD1     H 3074   1.499   4.011   9.575 -1.6665  0.4069 -1.6416
  202MPD1    H1 3075   1.657   3.622   9.598  1.1287  0.8547 -0.2034
  202MPD1    H2 3076   1.353   3.685   9.334 -1.7140  2.2500 -1.0896
  202MPD1    H3 3077   1.504   3.546   9.422 -1.2924 -1.4153  1.0836
  202MPD1     N 3078   1.698   3.860   9.679  0.5024  0.2558  0.1001
  202MPD1    H5 3079   1.749   3.791   9.733  1.7187  0.0720 -1.2950
  202MPD1    N1 3080   1.307   3.956   9.392 -0.2225  0.0729  0.5666
  202MPD1    H6 3081   1.223   3.911   9.354  1.1814 -1.3228 -0.8864
  202MPD1    H7 3082   1.283   4.043   9.438 -0.6590 -1.4614  3.2709
  203MPD1     C 3083   0.301   0.721  12.459  0.3112  0.0767  0.3020
  203MPD1    C1 3084   0.386   0.684  12.358 -0.3180 -0.1200 -0.1664
  203MPD1    C2 3085   0.456   0.570  12.383 -0.3068 -0.1214  0.1451
  203MPD1    C3 3086   0.471   0.518  12.513 -0.0994  0.4735  0.0454
  203MPD1    C4 3087   0.397   0.573  12.615  0.3925  0.1395 -0.4621
  203MPD1    C5 3088   0.299   0.664  12.584 -0.1120 -0.2989  0.7006
  203MPD1     H 3089   0.507   0.524  12.299 -1.6636  1.1397 -1.3812
  203MPD1    H1 3090   0.409   0.560  12.722  0.6408 -1.8074 -0.7333
  203MPD1    H2 3091   0.225   0.798  12.455  1.5277  1.1069 -2.6230
  203MPD1    H3 3092   0.223   0.692  12.657  2.1412  2.5640  1.9646
  203MPD1     N 3093   0.570   0.419  12.537  0.4901 -0.7267  0.0017
  203MPD1    H5 3094   0.625   0.394  12.456 -2.2309 -1.1531 -1.6942
  203MPD1    N1 3095   0.364   0.717  12.230  0.1504 -0.1251 -0.4931
  203MPD1    H6 3096   0.444   0.706  12.168 -0.6696  0.4774 -1.6624
  203MPD1    H7 3097   0.320   0.808  12.215 -2.0142 -1.2904 -1.2185
  204MPD1     C 3098   4.475   1.565   0.383  0.0630  0.5522  0.3038
  204MPD1    C1 3099   4.590   1.613   0.327  0.7162 -0.1202  0.1066
  204MPD1    C2 3100   4.682   1.525   0.272 -0.0276 -0.0191 -0.1441
  204MPD1    C3 3101   4.655   1.389   0.267  0.1082 -0.2781 -0.3797
  204MPD1    C4 3102   4.544   1.338   0.331 -0.2491  0.0622  0.7330
  204MPD1    C5 3103   4.453   1.428   0.383  0.7666  0.9158 -0.4557
  204MPD1     H 3104   0.047   1.564   0.221  0.4574 -1.0649 -0.1033
  204MPD1    H1 3105   4.527   1.231   0.331 -2.2141  0.3628 -2.0765
  204MPD1    H2 3106   4.406   1.632   0.431  1.4125  0.8164  1.8711
  204MPD1    H3 3107   4.363   1.392   0.432 -0.0338  0.0921 -2.5525
  204MPD1     N 3108   0.027   1.308   0.201  1.0425 -0.5720  0.3972
  204MPD1    H5 3109   0.096   1.358   0.145 -0.6820 -0.2301 -1.4203
  204MPD1    N1 3110   4.619   1.750   0.339 -0.0881  0.2205  0.5062
  204MPD1    H6 3111   4.532   1.804   0.342 -1.6279 -2.0363 -4.1086
  204MPD1    H7 3112   4.666   1.781   0.254  0.8135  0.0640  0.9538
  205MPD1     C 3113   0.799   0.600  17.004  0.3252  0.1965 -0.2646
  205MPD1    C1 3114   0.793   0.468  16.977 -0.5035 -1.3058  0.5191
  205MPD1    C2 3115   0.717   0.375  17.050  0.3880  0.6344 -0.3994
  205MPD1    C3 3116   0.642   0.417  17.160 -0.4631  0.4528 -0.0360
  205MPD1    C4 3117   0.641   0.553  17.185  0.8882  0.2161 -0.0516
  205MPD1    C5 3118   0.711   0.644  17.105 -0.3567  0.4566  0.2233
  205MPD1     H 3119   0.727   0.268  17.032  0.7469  0.3752  1.3773
  205MPD1    H1 3120   0.567   0.587  17.257 -1.2851 -1.7589 -1.3372
  205MPD1    H2 3121   0.867   0.664  16.950  0.7919  1.1493  1.4584
  205MPD1    H3 3122   0.701   0.752  17.110 -1.9135  0.3124  0.0197
  205MPD1     N 3123   0.555   0.334  17.241  0.3482  0.1110 -0.0045
  205MPD1    H5 3124   0.518   0.366  17.330  2.2298 -0.4831  0.9844
  205MPD1    N1 3125   0.875   0.427  16.867  0.4440 -0.2938  0.7518
  205MPD1    H6 3126   0.965   0.473  16.854  0.4846 -0.5455  0.1642
  205MPD1    H7 3127   0.868   0.331  16.836  0.5302 -0.6220  1.7435
  206MPD1     C 3128   0.904   2.962  16.859  0.1510  0.2531 -0.5159
  206MPD1    C1 3129   0.791   3.031  16.894 -0.4894  0.1738 -0.1112
  206MPD1    C2 3130   0.674   3.013  16.816 -0.0872  0.4402 -0.1580
  206MPD1    C3 3131   0.672   2.935  16.698 -0.3153 -0.9388  0.5450
  206MPD1    C4 3132   0.794   2.876  16.673  0.5943 -0.2840 -0.5617
  206MPD1    C5 3133   0.900   2.887  16.748  0.0639 -0.1996  0.5766
  206MPD1     H 3134   0.586   3.063  16.855  1.4178  0.0151  3.8186
  206MPD1    H1 3135   0.815   2.818  16.584  0.4502 -0.4210 -0.5059
  206MPD1    H2 3136   0.987   2.968  16.929 -0.4295  0.8487  0.1289
  206MPD1    H3 3137   0.997   2.861  16.707  0.3614 -1.1290  1.8759
  206MPD1     N 3138   0.569   2.946  16.601 -0.1712 -0.7544  0.1995
  206MPD1    H5 3139   0.583   2.881  16.525 -0.7241 -0.0369 -0.5187
  206MPD1    N1 3140   0.783   3.093  17.020  0.4257  0.1324 -0.4819
  206MPD1    H6 3141   0.719   3.172  17.021 -0.6817 -0.7878  1.5845
  206MPD1    H7 3142   0.875   3.117  17.056 -0.2145  4.2636 -1.5517
  207MPD1     C 3143   3.413   1.162   9.333  0.4254  0.0601 -0.7527
  207MPD1    C1 3144   3.484   1.252   9.412 -0.7777  0.2555 -0.7526
  207MPD1    C2 3145   3.512   1.211   9.541  0.9955 -0.1332  1.0158
  207MPD1    C3 3146   3.453   1.095   9.595  1.2105  0.2639 -0.1097
  207MPD1    C4 3147   3.374   1.013   9.513  0.0444 -1.0437 -1.1550
  207MPD1    C5 3148   3.364   1.047   9.379 -0.5369 -0.4176  0.0424
  207MPD1     H 3149   3.546   1.289   9.607 -1.4831  2.2202 -0.4936
  207MPD1    H1 3150   3.318   0.927   9.547  0.3941 -1.7474 -2.3431
  207MPD1    H2 3151   3.385   1.194   9.233  1.2787  1.1670 -0.6431
  207MPD1    H3 3152   3.299   0.989   9.315  0.9094 -0.8902 -0.9892
  207MPD1     N 3153   3.471   1.044   9.724 -0.0341 -0.2427 -0.0364
  207MPD1    H5 3154   3.432   0.952   9.741 -1.7834  0.3824 -0.7011
  207MPD1    N1 3155   3.506   1.380   9.364  0.1427 -0.2321  0.2459
  207MPD1    H6 3156   3.517   1.388   9.263 -0.0861 -0.0490  0.2374
  207MPD1    H7 3157   3.585   1.430   9.405  0.5257 -0.2046 -0.5267
  208MPD1     C 3158   1.286   4.310  16.831  0.0524  0.2697  0.5109
  208MPD1    C1 3159   1.182   4.222  16.826  0.9259  0.1216  1.2500
  208MPD1    C2 3160   1.125   4.193  16.949 -0.5573 -0.0003  0.0918
  208MPD1    C3 3161   1.184   4.220  17.065 -0.3327 -0.9517  0.0974
  208MPD1    C4 3162   1.303   4.285  17.061  0.2893 -0.1682  0.0601
  208MPD1    C5 3163   1.350   4.343  16.943  0.0347 -0.1197 -0.6261
  208MPD1     H 3164   1.027   4.147  16.944  0.9235 -2.9846 -1.9902
  208MPD1    H1 3165   1.362   4.301  17.151  0.1628 -1.1856  0.3211
  208MPD1    H2 3166   1.317   4.362  16.740  1.0386  1.2207  1.3834
  208MPD1    H3 3167   1.437   4.405  16.957 -0.5063  0.6985 -0.9107
  208MPD1     N 3168   1.124   4.180  17.189  0.0186 -0.0678  0.3119
  208MPD1    H5 3169   1.034   4.135  17.184 -0.8632  1.6075  0.8589
  208MPD1    N1 3170   1.113   4.210  16.702 -0.2511 -0.0237  0.0813
  208MPD1    H6 3171   1.064   4.122  16.691 -2.3493  1.1220  0.2408
  208MPD1    H7 3172   1.181   4.209  16.626 -1.2426 -0.8693 -0.7860
  209MPD1     C 3173   2.631   4.351  10.314 -0.5113 -0.4343 -0.4393
  209MPD1    C1 3174   2.747   4.372  10.245 -0.1272  0.2294  0.3648
  209MPD1    C2 3175   2.834   4.476  10.287 -0.3730 -0.1850  0.0734
  209MPD1    C3 3176   2.798   4.563  10.392  0.3572 -0.2817  0.2327
  209MPD1    C4 3177   2.684   4.540  10.466  0.4629  0.1088 -0.0235
  209MPD1    C5 3178   2.602   4.436  10.419  0.2846 -0.0109  0.1537
  209MPD1     H 3179   2.931   4.496  10.243 -0.5989  1.0500  0.1322
  209MPD1    H1 3180   2.651   4.605  10.547  1.9606  1.6103 -0.6185
  209MPD1    H2 3181   2.567   4.267  10.289  2.3043 -3.2028  1.5667
  209MPD1    H3 3182   2.513   4.424  10.481  0.3590  2.4026  0.7510
  209MPD1     N 3183   2.892   4.664  10.421 -0.0121  0.7482 -0.3932
  209MPD1    H5 3184   2.985   4.669  10.379 -0.2326 -0.7341 -1.0438
  209MPD1    N1 3185   2.791   4.275  10.153  0.3094  0.2165  0.0385
  209MPD1    H6 3186   2.854   4.325  10.092 -0.8347  0.8089 -0.6607
  209MPD1    H7 3187   2.717   4.233  10.097  0.5384  0.2328 -0.2742
  210MPD1     C 3188   3.295   0.037  11.313  0.8820 -0.4015  0.1578
  210MPD1    C1 3189   3.372   0.121  11.237  0.6400 -0.2275 -0.5181
  210MPD1    C2 3190   3.329   0.144  11.108 -0.2743 -0.1438  0.3482
  210MPD1    C3 3191   3.222   0.080  11.044 -0.2307  0.3197  0.0848
  210MPD1    C4 3192   3.145   4.723  11.127 -0.1070 -0.1941 -0.1275
  210MPD1    C5 3193   3.185   4.705  11.261 -0.7373 -0.3303 -0.0683
  210MPD1     H 3194   3.391   0.219  11.060  0.4619  0.3076  1.9873
  210MPD1    H1 3195   3.055   4.676  11.088 -1.0733 -2.0139  4.2723
  210MPD1    H2 3196   3.312   0.014  11.417  1.3702 -0.5270  0.0493
  210MPD1    H3 3197   3.121   4.646  11.326 -2.0329  1.7605  0.5427
  210MPD1     N 3198   3.176   0.100  10.913 -0.3525 -0.5068  0.1176
  210MPD1    H5 3199   3.086   0.058  10.892 -0.1792  0.8141 -3.2372
  210MPD1    N1 3200   3.467   0.197  11.302  0.1416 -0.3741  0.1056
  210MPD1    H6 3201   3.497   0.145  11.384  0.3175 -0.3619  0.0478
  210MPD1    H7 3202   3.547   0.207  11.240  0.2147 -1.1269  0.0811
  211MPD1     C 3203   1.233   0.421  16.789  0.4121  0.2649  0.6798
  211MPD1    C1 3204   1.262   0.532  16.868  1.0207  0.3931  0.0862
  211MPD1    C2 3205   1.193   0.644  16.834  0.2299  0.6701  0.1661
  211MPD1    C3 3206   1.110   0.652  16.720 -0.3026 -0.2851  0.2160
  211MPD1    C4 3207   1.086   0.544  16.645 -0.5872 -0.2812 -0.3206
  211MPD1    C5 3208   1.144   0.428  16.680  0.3163 -0.4120 -0.3002
  211MPD1     H 3209   1.202   0.737  16.889  1.2639  0.0507  1.0420
  211MPD1    H1 3210   1.021   0.542  16.558  2.4288  0.2041 -2.5743
  211MPD1    H2 3211   1.261   0.319  16.815  3.0104  0.2041 -2.3558
  211MPD1    H3 3212   1.103   0.338  16.635  1.4117 -0.4245 -1.2748
  211MPD1     N 3213   1.044   0.772  16.700 -0.7577  0.5595 -0.5686
  211MPD1    H5 3214   1.058   0.843  16.771 -3.6577 -1.2259  1.7860
  211MPD1    N1 3215   1.334   0.531  16.991 -0.1494  0.0568 -0.8256
  211MPD1    H6 3216   1.381   0.620  17.002 -1.4105  0.8595 -1.9559
  211MPD1    H7 3217   1.409   0.463  16.976 -1.4351 -1.6589  0.5142
  212MPD1     C 3218   4.284   3.638  16.700 -0.3692 -1.2302  0.3403
  212MPD1    C1 3219   4.234   3.531  16.635 -1.3071 -0.0677 -0.1270
  212MPD1    C2 3220   4.265   3.402  16.684  0.1623  0.3531  0.3447
  212MPD1    C3 3221   4.350   3.394  16.797 -0.3744  0.2857 -0.2922
  212MPD1    C4 3222   4.391   3.507  16.858  0.4765  0.0193 -0.3121
  212MPD1    C5 3223   4.364   3.632  16.810 -0.4220 -0.5170  0.3892
  212MPD1     H 3224   4.217   3.320  16.631 -0.7500  0.5997  0.7941
  212MPD1    H1 3225   4.444   3.497  16.952  2.0537  1.5205 -1.0436
  212MPD1    H2 3226   4.267   3.740  16.666 -0.3961 -0.8657  1.4659
  212MPD1    H3 3227   4.417   3.716  16.855 -0.4897  0.3378 -1.1491
  212MPD1     N 3228   4.394   3.275  16.859  0.0784  0.6586 -0.6761
  212MPD1    H5 3229   4.444   3.294  16.946 -1.1428 -0.0018  0.1677
  212MPD1    N1 3230   4.150   3.545  16.525  0.0943 -0.9058 -0.5410
  212MPD1    H6 3231   4.178   3.619  16.461 -0.9500 -0.5773 -0.6305
  212MPD1    H7 3232   4.137   3.456  16.476 -1.2003 -0.8651 -0.2913
  213MPD1     C 3233   3.594   3.948  15.890 -0.4644 -0.4934 -1.0722
  213MPD1    C1 3234   3.558   3.981  15.756  0.9400 -0.5290 -0.2425
  213MPD1    C2 3235   3.429   4.011  15.742  0.1200 -0.0459  0.5652
  213MPD1    C3 3236   3.347   4.042  15.844 -0.0307 -0.0887  0.1234
  213MPD1    C4 3237   3.385   4.015  15.975  0.0286 -0.1440  0.2437
  213MPD1    C5 3238   3.508   3.967  15.997 -0.7203  0.5979 -0.0116
  213MPD1     H 3239   3.392   4.039  15.644  0.9165 -3.9962 -0.8646
  213MPD1    H1 3240   3.328   4.036  16.065  0.1398  1.8275 -0.1403
  213MPD1    H2 3241   3.683   3.891  15.912  0.3702  1.0350 -0.4761
  213MPD1    H3 3242   3.542   3.928  16.093  2.4811  0.2252 -1.3013
  213MPD1     N 3243   3.227   4.100  15.807  1.2474  0.6006 -0.3595
  213MPD1    H5 3244   3.214   4.100  15.707  0.0381  2.8275 -0.2084
  213MPD1    N1 3245   3.631   3.927  15.653 -0.1445 -0.7418  0.0943
  213MPD1    H6 3246   3.731   3.944  15.662 -0.0618 -0.3506 -1.6085
  213MPD1    H7 3247   3.612   3.960  15.558  1.2825 -0.6924 -0.1787
  214MPD1     C 3248   2.188   3.919  15.963 -0.9521  0.3403  0.5858
  214MPD1    C1 3249   2.240   4.023  16.031  0.8003 -0.3616 -0.2731
  214MPD1    C2 3250   2.366   4.073  15.992 -0.7604 -0.1356  1.0177
  214MPD1    C3 3251   2.425   4.024  15.875  0.7058  1.1556  0.9361
  214MPD1    C4 3252   2.365   3.928  15.804  0.2195  0.6509 -0.4941
  214MPD1    C5 3253   2.246   3.874  15.846 -0.0438  0.0520  0.1328
  214MPD1     H 3254   2.407   4.147  16.059 -3.2800  2.5684 -0.4001
  214MPD1    H1 3255   2.411   3.880  15.719 -0.1463 -0.3370 -0.1411
  214MPD1    H2 3256   2.092   3.877  15.993 -1.0985 -0.3755 -0.8345
  214MPD1    H3 3257   2.201   3.787  15.798  1.3174 -1.3291  1.3483
  214MPD1     N 3258   2.554   4.060  15.835 -0.2061 -0.1880 -0.9467
  214MPD1    H5 3259   2.588   4.017  15.750 -2.0873 -1.5461 -1.0315
  214MPD1    N1 3260   2.171   4.073  16.146 -0.0481 -0.1804  0.1687
  214MPD1    H6 3261   2.221   4.151  16.189  1.3984 -0.1511 -1.5833
  214MPD1    H7 3262   2.074   4.098  16.131  0.2980  0.9126 -0.2969
  215MPD1     C 3263   1.991   0.103  11.260 -0.2639  0.1188 -0.7297
  215MPD1    C1 3264   2.024   0.200  11.354 -0.2717  0.5909  0.4173
  215MPD1    C2 3265   2.157   0.236  11.368  0.9712 -0.5315 -0.2890
  215MPD1    C3 3266   2.250   0.168  11.297  0.0689  0.6066 -0.1314
  215MPD1    C4 3267   2.214   0.079  11.203  0.2538  0.0875 -0.0332
  215MPD1    C5 3268   2.083   0.047  11.178 -0.3712 -0.5101 -0.4153
  215MPD1     H 3269   2.185   0.326  11.422  1.1713 -0.1127 -1.0939
  215MPD1    H1 3270   2.286   0.026  11.142  1.6404  2.1054 -0.1159
  215MPD1    H2 3271   1.888   0.077  11.238 -0.1975  1.1651 -2.2032
  215MPD1    H3 3272   2.067   4.697  11.099 -0.5616  1.0855 -1.8252
  215MPD1     N 3273   2.380   0.203  11.321 -0.4784 -0.1130  0.1316
  215MPD1    H5 3274   2.402   0.266  11.398 -0.3146 -0.4233  0.3409
  215MPD1    N1 3275   1.922   0.280  11.402 -0.6953  0.2441 -0.7889
  215MPD1    H6 3276   1.834   0.230  11.412 -0.0268 -1.3076 -2.6167
  215MPD1    H7 3277   1.952   0.331  11.484 -0.0244 -0.8652 -0.3434
  216MPD1     C 3278   0.061   1.955  16.568  0.0307 -0.9723  0.0283
  216MPD1    C1 3279   0.187   1.943  16.618 -0.1165 -0.3911 -0.4001
  216MPD1    C2 3280   0.206   1.870  16.741  0.2959 -0.3081 -0.4776
  216MPD1    C3 3281   0.093   1.825  16.816 -0.2307 -0.2012 -0.7418
  216MPD1    C4 3282   4.685   1.850  16.770  0.0164 -0.7991  0.0611
  216MPD1    C5 3283   4.675   1.920  16.653 -0.1691 -0.3243 -0.0437
  216MPD1     H 3284   0.309   1.852  16.770  0.6573  0.1120 -1.4950
  216MPD1    H1 3285   4.593   1.834  16.826  0.0942 -1.8703 -0.1258
  216MPD1    H2 3286   0.042   2.013  16.478 -1.6617 -0.8639  0.4449
  216MPD1    H3 3287   4.577   1.951  16.620  0.1270  0.1227 -0.5094
  216MPD1     N 3288   0.105   1.754  16.935 -0.4321 -1.2037 -0.3099
  216MPD1    H5 3289   0.199   1.733  16.969 -1.1905 -1.9519  1.3266
  216MPD1    N1 3290   0.301   1.978  16.539  0.5974 -1.0798  0.2855
  216MPD1    H6 3291   0.276   2.060  16.484 -1.1565 -1.2819  0.7698
  216MPD1    H7 3292   0.384   2.002  16.593  0.5662  0.1122 -0.1764
  217MPD1     C 3293   1.018   0.565   9.338 -0.5440 -0.0551 -0.5328
  217MPD1    C1 3294   1.071   0.446   9.390 -0.0664  0.3496  0.3056
  217MPD1    C2 3295   0.986   0.330   9.405  0.0051 -0.1710 -0.4266
  217MPD1    C3 3296   0.852   0.344   9.372  0.0591 -0.1798  0.1797
  217MPD1    C4 3297   0.801   0.463   9.319 -0.2091 -0.8684 -0.3583
  217MPD1    C5 3298   0.883   0.569   9.308  0.1706  0.1069 -0.7598
  217MPD1     H 3299   1.028   0.237   9.442  0.6421 -0.1031 -0.9682
  217MPD1    H1 3300   0.700   0.476   9.283  0.7019  3.0286 -1.4174
  217MPD1    H2 3301   1.072   0.654   9.308 -0.0761 -0.9120 -2.2353
  217MPD1    H3 3302   0.846   0.664   9.271 -0.3020  0.2011 -0.0394
  217MPD1     N 3303   0.764   0.232   9.372 -0.3573  0.6093 -0.5583
  217MPD1    H5 3304   0.668   0.259   9.351 -0.3362  1.2746  0.1727
  217MPD1    N1 3305   1.208   0.426   9.393 -0.2704 -0.3249  0.7336
  217MPD1    H6 3306   1.254   0.516   9.405  2.3066 -1.1382 -3.2439
  217MPD1    H7 3307   1.234   0.363   9.469 -0.6224  1.4596  2.3555
  218MPD1     C 3308   1.966   0.701  12.727  0.0940 -0.4758 -0.2548
  218MPD1    C1 3309   2.072   0.783  12.694  0.7025 -0.6340  0.2012
  218MPD1    C2 3310   2.201   0.732  12.709 -0.4580 -0.6390  0.0927
  218MPD1    C3 3311   2.218   0.608  12.753 -0.2669 -0.5894 -0.3443
  218MPD1    C4 3312   2.112   0.536  12.793  0.1792  0.5503  0.1678
  218MPD1    C5 3313   1.984   0.580  12.782 -0.9610  0.3163  0.4887
  218MPD1     H 3314   2.282   0.802  12.691 -1.6087  0.9226  0.9775
  218MPD1    H1 3315   2.134   0.435  12.827  1.2494  0.4304 -0.8844
  218MPD1    H2 3316   1.865   0.728  12.700  0.2831  0.5524  0.0570
  218MPD1    H3 3317   1.905   0.510  12.806 -0.0014 -0.7167  0.6509
  218MPD1     N 3318   2.357   0.553  12.747 -0.2823  0.2071  0.3752
  218MPD1    H5 3319   2.425   0.610  12.699  0.1925 -2.0529 -1.6513
  218MPD1    N1 3320   2.051   0.902  12.625  0.3483 -0.1250  0.4076
  218MPD1    H6 3321   2.108   0.981  12.654  2.2388 -1.1334 -0.6051
  218MPD1    H7 3322   1.957   0.935  12.646  0.1431 -1.3461  1.4408
  219MPD1     C 3323   2.978   0.839  12.255  0.0385  0.2675  0.3271
  219MPD1    C1 3324   3.027   0.708  12.254 -0.0123 -0.9126  0.2139
  219MPD1    C2 3325   2.960   0.610  12.327 -0.0700  0.4692  0.3099
  219MPD1    C3 3326   2.853   0.640  12.406 -0.5623  0.2898 -0.0468
  219MPD1    C4 3327   2.802   0.772  12.406  0.3617  0.0105 -0.1845
  219MPD1    C5 3328   2.864   0.864  12.322  0.2512 -0.2273  0.4139
  219MPD1     H 3329   3.007   0.513  12.340 -0.6767 -0.2331 -2.6257
  219MPD1    H1 3330   2.714   0.807  12.458  0.4619  0.5130 -0.3633
  219MPD1    H2 3331   3.025   0.920  12.201 -1.6134  0.5770 -0.6499
  219MPD1    H3 3332   2.826   0.966  12.321 -0.2920 -0.4487 -1.6956
  219MPD1     N 3333   2.785   0.556  12.498 -0.5193 -0.2329  0.3056
  219MPD1    H5 3334   2.707   0.606  12.538 -2.6289 -2.2631 -1.2827
  219MPD1    N1 3335   3.137   0.674  12.177  0.1013 -0.4718 -0.3147
  219MPD1    H6 3336   3.194   0.757  12.160 -0.6050  0.0249 -0.2402
  219MPD1    H7 3337   3.197   0.605  12.221  0.4711 -0.9291 -1.5345
  220MPD1     C 3338   3.131   1.106   9.761 -0.3209 -0.8903 -0.1228
  220MPD1    C1 3339   3.146   1.131   9.896  0.4604  0.2756  0.5489
  220MPD1    C2 3340   3.087   1.038   9.984  0.4569 -0.3681  0.3002
  220MPD1    C3 3341   3.015   0.927   9.933  0.3733 -0.0077  0.2900
  220MPD1    C4 3342   2.999   0.910   9.794  0.0321 -0.2406 -0.0563
  220MPD1    C5 3343   3.054   1.003   9.709  0.3732 -0.5053 -0.1048
  220MPD1     H 3344   3.118   1.039  10.087 -0.7137  1.9178  0.6413
  220MPD1    H1 3345   2.956   0.817   9.757 -1.4260  0.1016  0.7787
  220MPD1    H2 3346   3.180   1.167   9.686  0.1359  1.7996  2.3618
  220MPD1    H3 3347   3.062   0.984   9.602  0.0291  0.8364 -0.3640
  220MPD1     N 3348   2.963   0.835  10.029 -0.1661 -0.1818 -0.6828
  220MPD1    H5 3349   3.006   0.855  10.119  0.5730  0.4095 -1.1692
  220MPD1    N1 3350   3.237   1.224   9.947 -0.1743 -0.0086 -0.6604
  220MPD1    H6 3351   3.247   1.306   9.888  1.5073  1.3629  1.5319
  220MPD1    H7 3352   3.211   1.264  10.037 -2.9661 -0.7849 -1.1157
  221MPD1     C 3353   4.251   4.266  16.543  0.0334 -0.5414  0.5226
  221MPD1    C1 3354   4.358   4.240  16.631  0.0623  0.0930  0.5277
  221MPD1    C2 3355   4.480   4.210  16.571 -0.4392 -0.5151  0.7972
  221MPD1    C3 3356   4.499   4.225  16.437 -0.1057  0.5413 -0.5986
  221MPD1    C4 3357   4.390   4.259  16.357 -0.0829  0.0278  0.2377
  221MPD1    C5 3358   4.268   4.272  16.406  0.0149 -0.5353 -0.4715
  221MPD1     H 3359   4.571   4.184  16.624 -0.9702 -0.7481  1.5888
  221MPD1    H1 3360   4.405   4.279  16.251 -0.4865 -1.5019 -0.1144
  221MPD1    H2 3361   4.151   4.278  16.583 -0.0092 -2.3797  0.9545
  221MPD1    H3 3362   4.186   4.302  16.343  0.4412  2.3181  0.3619
  221MPD1     N 3363   4.625   4.222  16.373 -0.1448 -0.7757 -0.4635
  221MPD1    H5 3364   4.625   4.246  16.274 -0.2871  1.1743  0.0094
  221MPD1    N1 3365   4.323   4.207  16.763 -0.0078  0.4579  0.4036
  221MPD1    H6 3366   4.395   4.227  16.833  1.9334 -2.3015 -0.8264
  221MPD1    H7 3367   4.246   4.263  16.798 -0.6879  0.1241 -0.5786
  222MPD1     C 3368   0.395   2.366  16.976  0.2920  0.6944 -0.7917
  222MPD1    C1 3369   0.465   2.351  17.101  0.5768 -0.3749 -0.1797
  222MPD1    C2 3370   0.402   2.377  17.218  0.2231 -0.6714 -0.1045
  222MPD1    C3 3371   0.266   2.413  17.212 -0.3046  0.0100 -0.3656
  222MPD1    C4 3372   0.189   2.422  17.094 -0.8588  1.2981 -0.7347
  222MPD1    C5 3373   0.258   2.400  16.979  0.8258 -0.4223 -0.2660
  222MPD1     H 3374   0.452   2.367  17.313  0.1355  0.3283  0.0441
  222MPD1    H1 3375   0.087   2.458  17.092 -0.6663  1.9243  0.6106
  222MPD1    H2 3376   0.441   2.341  16.881 -1.6936 -0.2287 -1.4950
  222MPD1    H3 3377   0.216   2.412  16.880  2.0045  2.0193 -0.4824
  222MPD1     N 3378   0.193   2.448  17.334 -0.2051 -0.3117 -0.3405
  222MPD1    H5 3379   0.098   2.482  17.329 -0.8160 -1.9535  0.1605
  222MPD1    N1 3380   0.603   2.323  17.100  0.3552  0.3853  0.2424
  222MPD1    H6 3381   0.634   2.279  17.013  1.3597  1.6003 -0.0147
  222MPD1    H7 3382   0.642   2.274  17.179 -1.6079  0.4546  1.2586
  223MPD1     C 3383   0.357   2.003   0.485 -0.1037  0.7185 -0.2810
  223MPD1    C1 3384   0.271   1.955   0.389  0.1548 -0.1508 -0.0376
  223MPD1    C2 3385   0.215   2.056   0.309 -0.2262  0.2815 -0.3096
  223MPD1    C3 3386   0.236   2.192   0.317  0.0005  0.4409  0.1269
  223MPD1    C4 3387   0.330   2.235   0.410  0.2334 -0.4575  0.5330
  223MPD1    C5 3388   0.374   2.137   0.502  0.1055  0.3505  0.2468
  223MPD1     H 3389   0.135   2.027   0.241  1.5215  0.5834 -2.4786
  223MPD1    H1 3390   0.363   2.338   0.422  1.0144 -0.7939  1.2645
  223MPD1    H2 3391   0.413   1.939   0.552  1.4070  2.8414  0.4865
  223MPD1    H3 3392   0.454   2.170   0.566  1.3450  0.0265 -1.1357
  223MPD1     N 3393   0.177   2.278   0.229  0.3565 -0.7774 -0.2493
  223MPD1    H5 3394   0.112   2.237   0.163 -0.8456  0.8834 -0.0868
  223MPD1    N1 3395   0.214   1.826   0.382 -0.0420  0.3179  0.4430
  223MPD1    H6 3396   0.181   1.795   0.291  0.9196 -0.2515  0.2973
  223MPD1    H7 3397   0.276   1.750   0.407  1.8421  1.3709 -1.0446
  224MPD1     C 3398   1.953   0.280   9.640 -0.1064  0.0257  1.4277
  224MPD1    C1 3399   1.986   0.145   9.673 -0.5401  0.5962  0.3779
  224MPD1    C2 3400   1.889   0.065   9.736 -0.7613 -0.1898 -0.0459
  224MPD1    C3 3401   1.755   0.107   9.749 -0.0072  0.3120  0.3050
  224MPD1    C4 3402   1.728   0.239   9.714  0.0257  0.2774 -0.4161
  224MPD1    C5 3403   1.826   0.318   9.657 -0.1009 -0.2764 -0.1786
  224MPD1     H 3404   1.912   4.688   9.773  2.8558  2.3662  4.6422
  224MPD1    H1 3405   1.625   0.272   9.704 -0.2457 -0.6924 -0.8065
  224MPD1    H2 3406   2.028   0.347   9.600  0.0963 -0.7896  0.4434
  224MPD1    H3 3407   1.804   0.420   9.631  0.3998 -0.1318 -0.0316
  224MPD1     N 3408   1.649   0.027   9.810 -0.4861  0.0652 -0.1788
  224MPD1    H5 3409   1.557   0.069   9.820 -0.2550  0.8328 -1.2596
  224MPD1    N1 3410   2.121   0.105   9.664  0.9814  0.7415 -0.9194
  224MPD1    H6 3411   2.164   0.151   9.584  0.4543 -0.9184 -2.1519
  224MPD1    H7 3412   2.125   0.004   9.650  0.1854  0.6918 -0.7757
  225MPD1     C 3413   2.324   1.641  12.868  0.0969 -0.1177  0.4731
  225MPD1    C1 3414   2.390   1.541  12.802 -0.2870 -0.0996 -0.3570
  225MPD1    C2 3415   2.328   1.490  12.686 -0.2798 -0.3140 -0.4934
  225MPD1    C3 3416   2.201   1.525  12.648  0.3001  0.0808  0.2023
  225MPD1    C4 3417   2.145   1.627  12.720  0.4789  0.4819 -0.4332
  225MPD1    C5 3418   2.209   1.689  12.823 -0.2493  0.0873  0.8121
  225MPD1     H 3419   2.380   1.409  12.636  1.0250  0.8334 -0.9835
  225MPD1    H1 3420   2.054   1.676  12.686  0.1850  0.7022  0.6582
  225MPD1    H2 3421   2.361   1.697  12.954 -1.7042  1.1021  0.4567
  225MPD1    H3 3422   2.152   1.758  12.885 -0.6910 -0.2942  0.8235
  225MPD1     N 3423   2.119   1.465  12.546  0.0843  0.2901  0.3614
  225MPD1    H5 3424   2.027   1.502  12.524  1.0162  2.5660  0.2913
  225MPD1    N1 3425   2.515   1.493  12.845 -0.2599  0.5642  0.0997
  225MPD1    H6 3426   2.555   1.545  12.923 -0.1040  0.0895  0.3414
  225MPD1    H7 3427   2.583   1.471  12.772  0.0352  3.1575 -0.3952
  226MPD1     C 3428   1.219   0.542   8.932 -0.3633 -0.1457  0.3358
  226MPD1    C1 3429   1.329   0.532   9.015  0.4162  0.4604  0.5353
  226MPD1    C2 3430   1.350   0.641   9.098  0.2652  0.3616 -0.4262
  226MPD1    C3 3431   1.271   0.752   9.100  0.1528  0.1281 -0.0612
  226MPD1    C4 3432   1.157   0.750   9.029 -0.2683  0.4579  0.5795
  226MPD1    C5 3433   1.134   0.647   8.941 -0.4801 -0.0391 -0.1139
  226MPD1     H 3434   1.439   0.635   9.159  0.9816  0.5933 -1.4365
  226MPD1    H1 3435   1.086   0.832   9.017 -0.5560 -0.2893 -2.9930
  226MPD1    H2 3436   1.193   0.461   8.865  0.8005  0.5441 -0.9617
  226MPD1    H3 3437   1.050   0.653   8.872 -0.7634 -2.4886  0.0070
  226MPD1     N 3438   1.303   0.863   9.184  0.7354 -0.3350 -0.2875
  226MPD1    H5 3439   1.398   0.853   9.218  0.7650  2.1078  0.3170
  226MPD1    N1 3440   1.407   0.419   9.022 -0.0911 -0.2224 -0.0467
  226MPD1    H6 3441   1.506   0.438   9.038 -0.7533  1.3668  2.1867
  226MPD1    H7 3442   1.407   0.373   8.931 -0.4766 -0.2027 -0.0554
  227MPD1     C 3443   1.043   1.883   9.525 -0.4296 -0.2882 -0.1525
  227MPD1    C1 3444   1.178   1.869   9.516 -0.5708  0.1229 -0.5426
  227MPD1    C2 3445   1.229   1.740   9.483  0.1795  0.1305  0.2658
  227MPD1    C3 3446   1.153   1.629   9.479  0.1530  0.2301  0.2149
  227MPD1    C4 3447   1.025   1.635   9.509 -0.1998  0.1374  0.4832
  227MPD1    C5 3448   0.972   1.760   9.533  0.9455  1.0654 -0.3855
  227MPD1     H 3449   1.336   1.729   9.467 -0.3953 -1.0794 -2.7920
  227MPD1    H1 3450   0.959   1.550   9.524 -0.7669  0.4431 -0.2489
  227MPD1    H2 3451   0.997   1.980   9.535  4.8158  2.0394  1.5538
  227MPD1    H3 3452   0.868   1.764   9.562  0.8867 -0.5088 -0.3700
  227MPD1     N 3453   1.230   1.511   9.453 -0.7690 -0.3819 -0.5772
  227MPD1    H5 3454   1.332   1.516   9.452 -0.7832  0.0828 -0.0291
  227MPD1    N1 3455   1.257   1.986   9.503  0.2718  0.0832  0.4587
  227MPD1    H6 3456   1.216   2.064   9.555  1.7390 -0.6090  2.6702
  227MPD1    H7 3457   1.354   1.977   9.531 -0.4037 -1.8908  2.2174
  228MPD1     C 3458   3.727   4.035  12.478 -0.0938  0.0985  0.2550
  228MPD1    C1 3459   3.597   4.027  12.458 -0.6150  0.7696  0.5588
  228MPD1    C2 3460   3.526   3.914  12.490 -0.5912 -0.2276  0.3792
  228MPD1    C3 3461   3.588   3.821  12.574  0.5363 -0.5659  0.5104
  228MPD1    C4 3462   3.722   3.835  12.603 -0.1069  0.1996 -0.1668
  228MPD1    C5 3463   3.790   3.933  12.544 -0.2121 -0.0929 -0.1580
  228MPD1     H 3464   3.427   3.894  12.452 -0.8228  0.8483  0.4295
  228MPD1    H1 3465   3.766   3.754  12.659  1.0407 -0.2789 -1.7414
  228MPD1    H2 3466   3.779   4.127  12.452 -0.0011 -0.2459 -0.7880
  228MPD1    H3 3467   3.897   3.928  12.560 -0.3547 -0.0345  0.7778
  228MPD1     N 3468   3.512   3.712  12.619 -0.1583  0.6436  0.1902
  228MPD1    H5 3469   3.429   3.691  12.565 -1.0278  0.1201  1.7357
  228MPD1    N1 3470   3.534   4.134  12.379  0.2044 -0.1776  0.0692
  228MPD1    H6 3471   3.578   4.224  12.395  0.6825 -0.6759  1.5733
  228MPD1    H7 3472   3.435   4.151  12.394  0.3677 -0.3364  1.3425
  229MPD1     C 3473   3.316   2.585  14.997 -0.1595 -0.1109  0.4934
  229MPD1    C1 3474   3.338   2.491  14.902 -0.0168 -0.0020  0.0753
  229MPD1    C2 3475   3.427   2.393  14.924 -0.0132 -0.7996  0.6134
  229MPD1    C3 3476   3.494   2.383  15.050 -0.4126 -0.5312 -0.0872
  229MPD1    C4 3477   3.488   2.486  15.144  0.4822  1.0014 -0.0043
  229MPD1    C5 3478   3.390   2.582  15.110 -0.1493 -0.0234  0.6080
  229MPD1     H 3479   3.441   2.315  14.850 -0.8407 -0.7419  0.3977
  229MPD1    H1 3480   3.548   2.497  15.234 -1.4568 -2.2297  1.6571
  229MPD1    H2 3481   3.244   2.665  14.979 -0.1901 -0.1237  0.5608
  229MPD1    H3 3482   3.378   2.665  15.179  0.6505 -0.8684  1.7719
  229MPD1     N 3483   3.586   2.280  15.075  0.2290 -0.7212  0.4519
  229MPD1    H5 3484   3.648   2.296  15.154  0.7585 -1.7516  0.2407
  229MPD1    N1 3485   3.306   2.515  14.767  0.5537 -0.5523  0.0196
  229MPD1    H6 3486   3.217   2.565  14.763 -0.0131 -1.5247  0.5624
  229MPD1    H7 3487   3.285   2.431  14.713  2.1327 -0.2158 -1.1313
  230MPD1     C 3488   4.189   2.502  15.620  0.2619 -0.3113 -0.0512
  230MPD1    C1 3489   4.093   2.562  15.551 -0.3429  0.3928 -0.1503
  230MPD1    C2 3490   4.032   2.486  15.448 -0.3613  0.1165 -1.0438
  230MPD1    C3 3491   4.052   2.348  15.430 -0.1956 -0.3543 -0.0252
  230MPD1    C4 3492   4.146   2.290  15.515  0.0182 -0.0183 -0.2552
  230MPD1    C5 3493   4.215   2.370  15.604 -0.1930  0.0062  0.0693
  230MPD1     H 3494   3.954   2.529  15.387 -1.0410  0.4779  0.0904
  230MPD1    H1 3495   4.183   2.188  15.503  0.3942  0.1055 -0.1439
  230MPD1    H2 3496   4.255   2.557  15.686  2.6282  1.2764 -3.7734
  230MPD1    H3 3497   4.297   2.325  15.660  0.5507  0.2512 -0.8119
  230MPD1     N 3498   3.973   2.283  15.333  0.1630  0.0545  0.0897
  230MPD1    H5 3499   3.911   2.341  15.277 -0.2575 -0.8932 -0.4325
  230MPD1    N1 3500   4.070   2.695  15.566  0.8492  0.3700 -0.0255
  230MPD1    H6 3501   4.085   2.721  15.663  0.9706  0.8579 -0.1735
  230MPD1    H7 3502   3.976   2.725  15.540  1.3988  0.7970 -1.5490
  231MPD1     C 3503   2.163   4.281  15.746  0.1833  0.3196 -0.3817
  231MPD1    C1 3504   2.142   4.245  15.615 -1.0482 -0.0412 -0.3328
  231MPD1    C2 3505   2.248   4.282  15.533 -0.2120  0.1008  0.5593
  231MPD1    C3 3506   2.373   4.326  15.572  0.2417  0.5465 -0.4235
  231MPD1    C4 3507   2.399   4.348  15.709  0.3585  0.3628  0.0313
  231MPD1    C5 3508   2.284   4.320  15.790 -0.1995 -0.0876  0.3130
  231MPD1     H 3509   2.234   4.280  15.426  0.8030 -0.9098  0.4504
  231MPD1    H1 3510   2.489   4.398  15.743  1.1596 -1.5535  0.7316
  231MPD1    H2 3511   2.080   4.268  15.815 -0.3760 -0.4637 -1.1942
  231MPD1    H3 3512   2.292   4.334  15.897 -0.7018  0.5099  0.2739
  231MPD1     N 3513   2.467   4.369  15.479  0.0135 -0.2179  0.3837
  231MPD1    H5 3514   2.450   4.325  15.389 -0.5623  2.3793 -0.7601
  231MPD1    N1 3515   2.016   4.201  15.569  0.3932  0.3997  0.7007
  231MPD1    H6 3516   1.952   4.155  15.634  0.3789 -1.1389 -0.3983
  231MPD1    H7 3517   2.031   4.139  15.489  1.4923 -0.7281  1.7901
  232MPD1     C 3518   3.744   2.673   0.643 -1.0914 -0.2145  0.8093
  232MPD1    C1 3519   3.634   2.593   0.681 -0.9223  0.0606  0.2716
  232MPD1    C2 3520   3.637   2.462   0.643  0.7088  0.3460  0.0921
  232MPD1    C3 3521   3.735   2.405   0.572 -0.1658 -0.0447  0.0500
  232MPD1    C4 3522   3.849   2.479   0.538 -0.5687  0.2713 -0.0389
  232MPD1    C5 3523   3.842   2.617   0.568  0.4297  0.7589  0.3325
  232MPD1     H 3524   3.553   2.410   0.686 -0.2391  1.3986 -0.4843
  232MPD1    H1 3525   3.924   2.436   0.472  0.7710  1.1428  0.9274
  232MPD1    H2 3526   3.747   2.779   0.663 -0.8856 -0.1024  0.1620
  232MPD1    H3 3527   3.920   2.677   0.521  0.4395  0.8626  0.4811
  232MPD1     N 3528   3.714   2.271   0.536 -0.3967 -0.1605  0.1314
  232MPD1    H5 3529   3.620   2.238   0.553  0.1565 -1.3947  0.7840
  232MPD1    N1 3530   3.546   2.646   0.773 -0.1530  0.1186 -0.2312
  232MPD1    H6 3531   3.512   2.737   0.743 -2.1041 -0.9394 -1.2801
  232MPD1    H7 3532   3.470   2.583   0.797  1.0887 -0.7650  1.3261
  233MPD1     C 3533   4.545   0.116   1.547 -0.2461 -0.0537 -0.0300
  233MPD1    C1 3534   4.613   0.022   1.623 -0.6408  0.3188 -0.4544
  233MPD1    C2 3535   0.030   0.007   1.601  0.0120  0.3863  1.2961
  233MPD1    C3 3536   0.087   0.074   1.498  0.1350  0.2282  0.3395
  233MPD1    C4 3537   0.016   0.167   1.420  0.4152 -0.2890 -0.1953
  233MPD1    C5 3538   4.606   0.184   1.450 -0.4756  0.6618  0.1162
  233MPD1     H 3539   0.092   4.669   1.666  0.0031 -1.4877 -0.4169
  233MPD1    H1 3540   0.053   0.234   1.343 -3.6001 -0.8490 -2.6357
  233MPD1    H2 3541   4.438   0.131   1.559 -0.2686  0.0363 -0.3589
  233MPD1    H3 3542   4.553   0.257   1.390 -2.2326 -1.7332 -1.1843
  233MPD1     N 3543   0.226   0.074   1.472 -0.1662  0.1291 -0.6543
  233MPD1    H5 3544   0.259   0.140   1.403  1.3952  0.8702  0.8120
  233MPD1    N1 3545   4.554   4.694   1.739  0.2865  0.0994  0.1366
  233MPD1    H6 3546   4.585   4.597   1.748  0.4639  0.3316  2.0976
  233MPD1    H7 3547   4.453   4.699   1.737  0.2683 -2.0936 -3.1309
  234MPD1     C 3548   0.590   3.028   9.395  0.1614  0.2763 -0.7961
  234MPD1    C1 3549   0.523   3.150   9.408 -0.8682 -0.7243 -0.0321
  234MPD1    C2 3550   0.600   3.251   9.468  0.8980 -0.0750  0.6354
  234MPD1    C3 3551   0.730   3.250   9.494 -0.5546 -0.2302  0.1287
  234MPD1    C4 3552   0.794   3.124   9.473 -0.8222 -0.0637  0.0504
  234MPD1    C5 3553   0.726   3.016   9.429 -0.1611 -0.4298  0.7155
  234MPD1     H 3554   0.553   3.348   9.472  0.6699 -0.0721 -1.9719
  234MPD1    H1 3555   0.902   3.124   9.483 -1.2585  1.5122  4.9669
  234MPD1    H2 3556   0.533   2.944   9.356 -0.9950  0.1030  1.2932
  234MPD1    H3 3557   0.780   2.926   9.402 -0.3076  0.0820 -1.2300
  234MPD1     N 3558   0.794   3.368   9.516  0.7823  0.3752 -0.1246
  234MPD1    H5 3559   0.730   3.446   9.527  2.7315  2.2367 -1.9780
  234MPD1    N1 3560   0.386   3.162   9.392 -0.1736 -0.1411 -0.2315
  234MPD1    H6 3561   0.359   3.253   9.356  1.6614 -0.4284 -2.3349
  234MPD1    H7 3562   0.352   3.089   9.329 -0.1161 -0.2037 -0.1898
  235MPD1     C 3563   2.767   1.280   9.948  0.2130  0.2207  0.2831
  235MPD1    C1 3564   2.785   1.298   9.813 -0.0827  0.3316 -0.6023
  235MPD1    C2 3565   2.868   1.403   9.771  0.0043  0.7203 -0.0513
  235MPD1    C3 3566   2.958   1.458   9.857 -0.6202  0.1975  0.2389
  235MPD1    C4 3567   2.960   1.419   9.989  0.1761  0.0009 -0.4524
  235MPD1    C5 3568   2.854   1.344  10.032  0.0007  0.8205 -0.0882
  235MPD1     H 3569   2.875   1.428   9.666 -0.3415 -0.2829 -0.3164
  235MPD1    H1 3570   3.035   1.451  10.060 -0.0151 -0.6398  0.0384
  235MPD1    H2 3571   2.693   1.211   9.988  1.4918 -1.3246 -0.0374
  235MPD1    H3 3572   2.857   1.332  10.140  0.6327  2.8497  0.1082
  235MPD1     N 3573   3.053   1.552   9.809  0.2269  0.1743  0.1619
  235MPD1    H5 3574   3.019   1.596   9.724  0.6964 -0.6652 -0.4696
  235MPD1    N1 3575   2.685   1.256   9.728  0.2188 -0.4285  0.0016
  235MPD1    H6 3576   2.651   1.163   9.753 -0.1443 -1.0573 -2.7662
  235MPD1    H7 3577   2.705   1.258   9.628  1.8519  1.5398  0.3790
  236MPD1     C 3578   2.502   2.596   9.802  0.5150 -0.0671 -0.3687
  236MPD1    C1 3579   2.532   2.460   9.803 -0.0071 -0.4597 -0.4897
  236MPD1    C2 3580   2.593   2.408   9.911 -0.3830 -0.5721  0.5006
  236MPD1    C3 3581   2.639   2.493  10.014  0.2455 -0.2697  0.9918
  236MPD1    C4 3582   2.620   2.632   9.999 -0.6309 -0.1088  0.6518
  236MPD1    C5 3583   2.556   2.679   9.894 -0.4143  0.0760  0.1247
  236MPD1     H 3584   2.612   2.301   9.921 -1.2549 -0.8522 -0.8866
  236MPD1    H1 3585   2.642   2.708  10.073 -0.3991  0.9777 -0.5487
  236MPD1    H2 3586   2.444   2.633   9.718  1.9724 -0.0566 -1.3562
  236MPD1    H3 3587   2.534   2.785   9.893  1.8612  0.5427 -0.9034
  236MPD1     N 3588   2.710   2.447  10.123 -0.4920  0.0511 -0.4306
  236MPD1    H5 3589   2.737   2.520  10.188  0.4810  0.0454 -0.8363
  236MPD1    N1 3590   2.471   2.377   9.708  0.2191 -0.3874 -0.0526
  236MPD1    H6 3591   2.527   2.297   9.676  1.3208 -0.9239  3.2742
  236MPD1    H7 3592   2.438   2.432   9.629  3.0898  0.6026 -0.5730
  237MPD1     C 3593   2.418   0.662  14.666  0.6208  0.0967  0.1437
  237MPD1    C1 3594   2.410   0.659  14.805 -0.5868  0.2159 -0.1474
  237MPD1    C2 3595   2.292   0.625  14.870  0.0692  0.8651 -0.6419
  237MPD1    C3 3596   2.181   0.621  14.790 -0.2824  0.1932 -0.0580
  237MPD1    C4 3597   2.189   0.627  14.655  0.1862 -0.3548  0.1441
  237MPD1    C5 3598   2.308   0.644  14.596 -0.3767  0.2364 -0.4272
  237MPD1     H 3599   2.300   0.603  14.976 -0.6722  0.4517 -0.6719
  237MPD1    H1 3600   2.096   0.614  14.601  0.8682  2.4636 -1.6710
  237MPD1    H2 3601   2.512   0.673  14.613 -0.5038  1.9029 -1.4871
  237MPD1    H3 3602   2.314   0.653  14.488 -0.0501  0.0119 -0.4265
  237MPD1     N 3603   2.051   0.595  14.847 -0.0181 -0.7944 -0.5672
  237MPD1    H5 3604   1.973   0.581  14.783 -1.9226 -0.3348  1.6667
  237MPD1    N1 3605   2.536   0.647  14.873  0.1874 -1.1341  0.1901
  237MPD1    H6 3606   2.606   0.707  14.831 -0.7912 -1.5236 -1.9887
  237MPD1    H7 3607   2.538   0.647  14.975 -0.2195  0.6394  0.1901
  238MPD1     C 3608   4.493   3.980  14.899  0.1385  0.7091 -0.1515
  238MPD1    C1 3609   4.451   3.889  14.992  0.0876  0.3248 -0.3814
  238MPD1    C2 3610   4.315   3.890  15.023  0.0960  1.1533 -0.1574
  238MPD1    C3 3611   4.239   3.999  14.979 -0.1755  0.0603 -0.4611
  238MPD1    C4 3612   4.292   4.100  14.896 -0.0634 -0.0378  0.3364
  238MPD1    C5 3613   4.425   4.091  14.860 -0.0815 -0.6332 -0.0522
  238MPD1     H 3614   4.268   3.824  15.095  3.7058  2.0057  2.9734
  238MPD1    H1 3615   4.229   4.179  14.855  1.3682  0.0147 -1.7986
  238MPD1    H2 3616   4.596   3.979  14.867  0.5511 -0.0649  1.2086
  238MPD1    H3 3617   4.474   4.150  14.784  0.8918  0.6416  1.5700
  238MPD1     N 3618   4.106   4.021  15.019 -0.5189  0.8574  0.2704
  238MPD1    H5 3619   4.059   4.093  14.965 -0.9065 -0.0807 -0.6393
  238MPD1    N1 3620   4.540   3.784  15.023 -0.2397 -0.3810 -0.3051
  238MPD1    H6 3621   4.510   3.746  15.113 -2.0500  2.0629  0.1194
  238MPD1    H7 3622   4.638   3.806  15.036 -0.1730 -2.0149  1.9773
  239MPD1     C 3623   4.259   4.454  14.961  0.1585  0.6775  0.0166
  239MPD1    C1 3624   4.366   4.536  14.944 -0.7634 -0.6751 -0.1567
  239MPD1    C2 3625   4.361   4.641  14.854  0.1652  0.0822  0.5427
  239MPD1    C3 3626   4.237   4.668  14.791 -0.0260  0.3041  0.1682
  239MPD1    C4 3627   4.126   4.601  14.836 -0.3708  0.6535 -0.7728
  239MPD1    C5 3628   4.135   4.504  14.929  0.2285 -0.0392 -0.1703
  239MPD1     H 3629   4.447   4.703  14.833 -0.1922  0.7425  1.0396
  239MPD1    H1 3630   4.031   4.619  14.786 -0.0216 -0.6794 -1.9278
  239MPD1    H2 3631   4.271   4.362  15.017 -0.1144  0.3649 -0.4388
  239MPD1    H3 3632   4.042   4.452  14.950  0.2950 -0.5817 -1.2266
  239MPD1     N 3633   4.226   0.049  14.700  0.7469  0.0496 -0.0330
  239MPD1    H5 3634   4.137   0.055  14.653  0.6767 -2.4129 -0.2138
  239MPD1    N1 3635   4.489   4.495  15.000  0.4689 -0.2701 -0.2107
  239MPD1    H6 3636   4.535   4.575  15.044  0.4701 -1.1973  1.4628
  239MPD1    H7 3637   4.470   4.430  15.075  1.7009 -0.9028 -0.4497
  240MPD1     C 3638   3.798   4.163  14.164  0.4113 -0.1942  0.0996
  240MPD1    C1 3639   3.666   4.210  14.167 -0.3870  0.0278  0.7830
  240MPD1    C2 3640   3.628   4.267  14.294 -0.5947  1.0119 -0.3742
  240MPD1    C3 3641   3.711   4.283  14.399 -0.6009 -0.0499  0.2105
  240MPD1    C4 3642   3.844   4.260  14.381 -0.0646 -0.2822  0.1183
  240MPD1    C5 3643   3.889   4.199  14.264 -0.4927 -0.5300  0.3368
  240MPD1     H 3644   3.525   4.301  14.303 -0.3895  0.9912  1.8879
  240MPD1    H1 3645   3.910   4.279  14.465  0.3613 -0.3426 -0.2076
  240MPD1    H2 3646   3.844   4.124  14.074 -2.0392  1.7006 -1.9979
  240MPD1    H3 3647   3.991   4.162  14.264 -0.7703 -1.2906 -0.5280
  240MPD1     N 3648   3.662   4.330  14.524  0.6841 -0.1320  0.7607
  240MPD1    H5 3649   3.561   4.322  14.522  0.7058 -0.2810 -0.1313
  240MPD1    N1 3650   3.571   4.187  14.060  0.7154  0.0708 -0.2321
  240MPD1    H6 3651   3.612   4.169  13.969  1.9364  2.0410 -0.0827
  240MPD1    H7 3652   3.504   4.261  14.043  0.2525 -0.0869  0.9263
  241MPD1     C 3653   3.736   0.144  15.363  0.8862 -0.6426 -0.5477
  241MPD1    C1 3654   3.686   0.018  15.406 -0.4728  0.3267  0.0757
  241MPD1    C2 3655   3.696   4.638  15.316 -0.5414 -0.6784  0.2184
  241MPD1    C3 3656   3.722   4.658  15.181  0.8420  0.2319  0.2607
  241MPD1    C4 3657   3.762   0.059  15.138  0.2558  0.0814  0.0188
  241MPD1    C5 3658   3.775   0.161  15.230 -0.3099 -0.4224 -0.0089
  241MPD1     H 3659   3.674   4.539  15.355  1.3988 -0.5474  1.6922
  241MPD1    H1 3660   3.788   0.081  15.035  0.7441 -1.1063 -0.1170
  241MPD1    H2 3661   3.734   0.231  15.427  0.5552  0.3688 -1.9384
  241MPD1    H3 3662   3.798   0.260  15.191 -1.7270 -0.5195 -1.0717
  241MPD1     N 3663   3.700   4.564  15.082  0.0290 -0.2465  0.5849
  241MPD1    H5 3664   3.718   4.597  14.988  0.0126  0.0532  0.6885
  241MPD1    N1 3665   3.672   0.002  15.546  0.0839  0.2196 -0.4960
  241MPD1    H6 3666   3.649   0.088  15.596 -1.5035  0.0251 -0.8864
  241MPD1    H7 3667   3.615   4.649  15.583  1.0496 -0.1918  0.1642
  242MPD1     C 3668   3.174   2.955  15.762  0.0498  0.3007 -0.0005
  242MPD1    C1 3669   3.106   2.875  15.678 -0.1139  0.5969 -0.1159
  242MPD1    C2 3670   3.143   2.872  15.544  0.1924  0.5619  0.1952
  242MPD1    C3 3671   3.224   2.970  15.492  0.8308  0.4221  0.0660
  242MPD1    C4 3672   3.286   3.055  15.579 -0.7684  0.6425  0.6828
  242MPD1    C5 3673   3.259   3.045  15.712  0.2652  0.2340  0.1417
  242MPD1     H 3674   3.103   2.791  15.484 -0.4175  1.0219 -0.0224
  242MPD1    H1 3675   3.350   3.132  15.536  0.8115 -0.1479  1.6252
  242MPD1    H2 3676   3.176   2.938  15.869 -0.8074 -0.1451 -0.0621
  242MPD1    H3 3677   3.313   3.117  15.772  1.0674 -0.1300 -0.1426
  242MPD1     N 3678   3.241   2.983  15.349  0.2262 -0.3752  0.0836
  242MPD1    H5 3679   3.307   3.054  15.318 -1.2746 -0.0199 -2.3212
  242MPD1    N1 3680   3.042   2.759  15.730 -0.1524  0.3273  0.3291
  242MPD1    H6 3681   2.978   2.724  15.660 -0.1889 -2.6543  1.8556
  242MPD1    H7 3682   2.993   2.784  15.815 -0.3441 -0.3650  0.4161
  243MPD1     C 3683   3.924   1.512   0.224 -0.4537 -1.0722  0.3567
  243MPD1    C1 3684   3.992   1.440   0.322 -0.9666  0.3060 -0.0959
  243MPD1    C2 3685   4.087   1.352   0.283 -0.2158  0.1372 -0.4867
  243MPD1    C3 3686   4.111   1.331   0.144 -0.0960 -0.3698 -0.7994
  243MPD1    C4 3687   4.033   1.394   0.051  1.0493 -0.3986 -0.0668
  243MPD1    C5 3688   3.943   1.490   0.088 -1.2184 -0.5268 -0.0586
  243MPD1     H 3689   4.152   1.313   0.360 -1.5958  1.4500  1.3242
  243MPD1    H1 3690   4.044   1.379  17.637 -1.4016  4.6140 -1.0454
  243MPD1    H2 3691   3.842   1.582   0.231  1.3894  1.0295  1.0090
  243MPD1    H3 3692   3.881   1.540   0.014  0.0543 -1.9074 -2.0721
  243MPD1     N 3693   4.209   1.233   0.104  0.2485 -0.7046  0.3219
  243MPD1    H5 3694   4.267   1.187   0.174  1.3653 -0.9850 -0.7900
  243MPD1    N1 3695   3.994   1.490   0.452 -0.1254 -0.2062  1.0879
  243MPD1    H6 3696   3.912   1.546   0.476  1.6098  2.1322  1.4787
  243MPD1    H7 3697   4.004   1.417   0.523 -2.2412 -1.3328  0.2372
  244MPD1     C 3698   4.603   0.587   0.501  0.0908  0.0874 -0.2778
  244MPD1    C1 3699   4.551   0.712   0.539 -0.1386 -0.9946  0.8135
  244MPD1    C2 3700   4.513   0.796   0.439 -0.3182 -0.0361  0.4943
  244MPD1    C3 3701   4.541   0.767   0.308 -0.0940 -0.6525  0.2131
  244MPD1    C4 3702   4.599   0.647   0.276  0.4857 -0.2474  0.6242
  244MPD1    C5 3703   4.626   0.555   0.369  0.2636  0.1793 -0.5537
  244MPD1     H 3704   4.482   0.899   0.452 -0.1862 -0.0404  0.8644
  244MPD1    H1 3705   4.622   0.613   0.175 -1.1307 -2.0162  0.8475
  244MPD1    H2 3706   4.639   0.517   0.576  0.7305  0.1827 -0.5006
  244MPD1    H3 3707   4.660   0.455   0.346 -0.7674 -0.1535 -0.6450
  244MPD1     N 3708   4.511   0.865   0.212  0.2166  0.0637  0.9021
  244MPD1    H5 3709   4.460   0.948   0.242 -1.2291 -0.5135  0.0420
  244MPD1    N1 3710   4.547   0.753   0.670  0.0830  0.7950  0.0082
  244MPD1    H6 3711   4.600   0.840   0.669 -0.7819  1.3798  2.9503
  244MPD1    H7 3712   4.590   0.688   0.736 -1.0466 -0.9650 -1.0044
  245MPD1     C 3713   1.721   2.193  13.113  0.0868  0.5922 -0.8437
  245MPD1    C1 3714   1.689   2.325  13.124  0.7946 -0.0560  0.1828
  245MPD1    C2 3715   1.791   2.415  13.159  0.1651 -0.1400 -0.2379
  245MPD1    C3 3716   1.911   2.366  13.214  0.4465 -0.1876 -0.2869
  245MPD1    C4 3717   1.937   2.227  13.216 -0.7394 -0.2830  0.2754
  245MPD1    C5 3718   1.850   2.145  13.151  0.0256 -0.4205  0.0519
  245MPD1     H 3719   1.766   2.521  13.162  0.8874  0.0419 -0.5382
  245MPD1    H1 3720   2.030   2.199  13.265 -0.0547  2.0494  0.3402
  245MPD1    H2 3721   1.649   2.115  13.090 -0.7174  0.9387  0.4691
  245MPD1    H3 3722   1.873   2.039  13.148 -0.8524 -0.6294  0.7689
  245MPD1     N 3723   1.998   2.457  13.276  0.6498  0.0618 -0.1022
  245MPD1    H5 3724   1.962   2.551  13.276  0.0628 -0.1647 -1.5716
  245MPD1    N1 3725   1.559   2.367  13.084  0.2976 -0.1431 -0.0556
  245MPD1    H6 3726   1.532   2.451  13.135 -0.2347  0.0467 -0.6527
  245MPD1    H7 3727   1.493   2.295  13.112 -2.0262  1.2383 -2.0396
  246MPD1     C 3728   3.083   3.757  10.088  0.3623  0.1198 -0.4904
  246MPD1    C1 3729   2.989   3.856  10.068  0.3105 -0.3051 -0.3791
  246MPD1    C2 3730   2.919   3.852   9.949  0.2670  0.3443 -0.0198
  246MPD1    C3 3731   2.924   3.744   9.860 -0.0538 -0.4704  0.0669
  246MPD1    C4 3732   3.010   3.640   9.893 -0.3186 -0.4577 -0.2344
  246MPD1    C5 3733   3.100   3.654   9.995 -0.2466 -0.4225  0.2957
  246MPD1     H 3734   2.860   3.942   9.933 -0.7773 -0.2499  0.4521
  246MPD1    H1 3735   3.033   3.555   9.829 -0.5455  0.3962 -1.4364
  246MPD1    H2 3736   3.143   3.762  10.178  0.5629  0.4207 -0.6391
  246MPD1    H3 3737   3.168   3.574  10.021  1.1329  0.0032 -2.0080
  246MPD1     N 3738   2.853   3.758   9.737  0.0632  0.0210 -0.0393
  246MPD1    H5 3739   2.795   3.841   9.727  0.0063  0.0888  0.8509
  246MPD1    N1 3740   2.998   3.970  10.144  0.0422 -0.2702 -0.3489
  246MPD1    H6 3741   3.019   3.946  10.241 -0.8010 -0.8936 -0.3245
  246MPD1    H7 3742   2.911   4.022  10.135 -0.0467 -0.4248 -0.3744
  247MPD1     C 3743   1.355   2.385  16.535  0.3236  0.0233 -0.1787
  247MPD1    C1 3744   1.379   2.255  16.583 -0.0296 -0.2146  0.1967
  247MPD1    C2 3745   1.372   2.147  16.490 -0.2170 -1.6886 -0.0409
  247MPD1    C3 3746   1.338   2.167  16.356  0.1095 -0.5067  0.7419
  247MPD1    C4 3747   1.309   2.298  16.315 -0.3353 -0.0801 -0.5031
  247MPD1    C5 3748   1.316   2.407  16.404  0.8095 -0.5190  0.5323
  247MPD1     H 3749   1.393   2.048  16.527  1.8919 -1.2204  0.0074
  247MPD1    H1 3750   1.273   2.319  16.215 -0.4233  1.0386 -0.2325
  247MPD1    H2 3751   1.372   2.472  16.598  1.5638  0.5019 -1.1937
  247MPD1    H3 3752   1.312   2.507  16.364  1.4568 -0.7472 -0.1163
  247MPD1     N 3753   1.323   2.070  16.257 -0.3437  0.2234  0.3887
  247MPD1    H5 3754   1.315   2.108  16.163 -1.4983 -1.0391 -0.0291
  247MPD1    N1 3755   1.434   2.219  16.707  0.7984 -0.6037 -0.6483
  247MPD1    H6 3756   1.393   2.133  16.743 -0.9775  0.2691 -0.5599
  247MPD1    H7 3757   1.409   2.298  16.767  0.3776 -1.2085 -0.0311
  248MPD1     C 3758   2.796   3.028   0.678 -0.4051  0.5147  0.0357
  248MPD1    C1 3759   2.810   2.978   0.549  0.4165 -0.5445 -0.3907
  248MPD1    C2 3760   2.720   2.887   0.500 -0.1242  0.7547  0.3450
  248MPD1    C3 3761   2.622   2.837   0.586 -0.6857  0.7656 -0.2043
  248MPD1    C4 3762   2.598   2.887   0.715  0.2487  0.4636 -0.1920
  248MPD1    C5 3763   2.692   2.979   0.760  0.6821  0.6299 -0.9147
  248MPD1     H 3764   2.741   2.850   0.401 -0.2154  1.2167  0.1542
  248MPD1    H1 3765   2.521   2.846   0.779  0.7923  0.9559  0.7843
  248MPD1    H2 3766   2.852   3.114   0.712  0.4067 -1.2769  3.1917
  248MPD1    H3 3767   2.673   3.031   0.854  3.2926 -0.7443  0.3856
  248MPD1     N 3768   2.539   2.735   0.533  0.7839  0.9240 -0.8001
  248MPD1    H5 3769   2.587   2.681   0.461  1.5750  0.5207  0.0312
  248MPD1    N1 3770   2.900   3.042   0.459 -0.2157  0.0800 -0.3863
  248MPD1    H6 3771   2.932   2.978   0.386  0.1424 -0.1638 -0.0177
  248MPD1    H7 3772   2.982   3.085   0.501 -0.5616  0.0046  0.3705
  249MPD1     C 3773   3.508   0.026  10.542  1.2066 -0.6583 -0.2218
  249MPD1    C1 3774   3.574   0.143  10.514  0.0499  0.2267  0.5557
  249MPD1    C2 3775   3.580   0.175  10.380 -1.0001 -0.4382  0.2842
  249MPD1    C3 3776   3.502   0.115  10.285 -0.5448  0.2405 -0.1486
  249MPD1    C4 3777   3.439   4.713  10.318  1.1814  0.2074 -0.6833
  249MPD1    C5 3778   3.446   4.672  10.443 -0.4293  0.4139  0.4271
  249MPD1     H 3779   3.640   0.258  10.345 -0.0751 -1.0672  0.3845
  249MPD1    H1 3780   3.398   4.647  10.242  2.8179  1.3148 -2.5357
  249MPD1    H2 3781   3.513   4.703  10.640  0.3133 -0.4741 -0.0914
  249MPD1    H3 3782   3.394   4.579  10.464  0.7080 -0.4062 -0.4467
  249MPD1     N 3783   3.516   0.167  10.152 -0.2428 -0.1119 -0.6519
  249MPD1    H5 3784   3.577   0.247  10.136  0.4865 -0.4668  0.3970
  249MPD1    N1 3785   3.653   0.201  10.614 -0.4015  0.2848 -0.4728
  249MPD1    H6 3786   3.657   0.299  10.587  1.6125  0.6701  1.2267
  249MPD1    H7 3787   3.614   0.190  10.708 -0.0715  0.9877 -0.2518
  250MPD2     C 3788   4.714   0.708  13.475  0.3153 -0.5096 -0.0423
  250MPD2    C1 3789   4.663   0.740  13.352 -0.0434  0.3948  0.1866
  250MPD2    C2 3790   4.618   0.630  13.274 -0.2188  0.0621  0.3792
  250MPD2    C3 3791   4.616   0.502  13.315  0.0527 -0.7900 -0.5224
  250MPD2    C4 3792   4.655   0.473  13.444  0.5659  0.4526 -0.8920
  250MPD2    C5 3793   4.718   0.574  13.512  0.7751  0.1367 -0.8369
  250MPD2     H 3794   4.594   0.648  13.170 -0.7709 -1.5400  0.2230
  250MPD2    H1 3795   4.660   0.373  13.485 -1.3300  0.4545 -0.6485
  250MPD2    H2 3796   0.035   0.787  13.536 -1.3182  0.1189  0.3207
  250MPD2    H3 3797   0.039   0.555  13.609  0.4705  1.9711 -0.3368
  250MPD2     N 3798   4.569   0.397  13.232 -0.1270  0.8193  0.3281
  250MPD2    H5 3799   4.564   0.304  13.271 -0.0353  0.6135 -0.1480
  250MPD2    N1 3800   4.662   0.867  13.306 -0.2433  0.1057 -0.2253
  250MPD2    H7 3801   4.715   0.936  13.358 -1.2514  1.7650 -1.3976
  251TMC3    C1 3802   4.654   1.048  13.162 -0.0329  0.9637  0.0085
  251TMC3    C2 3803   4.575   1.147  13.109 -0.0726 -0.1201 -0.1536
  251TMC3    C3 3804   4.645   1.266  13.073  0.3526  1.4034 -0.2317
  251TMC3    C4 3805   0.070   1.067  13.166 -0.5912  0.6684 -0.1116
  251TMC3    C5 3806   0.128   1.187  13.129 -0.0585  0.1356  0.7221
  251TMC3    C6 3807   0.056   1.290  13.090  0.1927 -0.0665  0.2823
  251TMC3     C 3808   4.603   0.917  13.189  0.3109  0.2395  0.5420
  251TMC3     O 3809   4.512   0.877  13.121 -0.0686  0.2640  0.0720
  251TMC3     H 3810   4.470   1.151  13.083  0.2115  1.2457 -1.1030
  251TMC3    H1 3811   0.134   0.980  13.170 -2.6284 -0.9113 -1.3035
  251TMC3    H2 3812   0.099   1.389  13.080 -1.0601  0.6483  1.9585
  251TMC3    C7 3813   0.272   1.202  13.154  0.0989 -0.8800 -0.4164
  251TMC3    C8 3814   4.556   1.379  13.051  0.1737  0.0996 -0.4985
  251TMC3    O1 3815   0.319   1.132  13.248 -0.0977  0.0495 -0.5851
  251TMC3    O2 3816   4.469   1.356  12.972  0.1748  0.0702 -0.3332
  252TMC3    C1 3817   1.404   1.440   9.814 -0.1092  0.0514  0.2120
  252TMC3    C2 3818   1.456   1.565   9.795 -0.0323  0.3413 -0.2687
  252TMC3    C3 3819   1.373   1.674   9.819 -0.0100  0.0271 -0.1553
  252TMC3    C4 3820   1.274   1.414   9.848 -0.9809  0.0575 -0.2778
  252TMC3    C5 3821   1.196   1.530   9.856  0.8855  0.3247 -0.1115
  252TMC3    C6 3822   1.239   1.657   9.849  0.1532 -0.1400 -0.9221
  252TMC3     C 3823   1.495   1.320   9.821 -0.1187  0.7824  0.3395
  252TMC3     O 3824   1.444   1.219   9.775 -0.3315 -0.1581 -0.2561
  252TMC3     H 3825   1.561   1.574   9.771  0.0065  0.6856  0.0337
  252TMC3    H1 3826   1.239   1.313   9.864 -0.3620 -0.0857  0.1682
  252TMC3    H2 3827   1.171   1.739   9.831 -0.1770 -0.6516 -2.0269
  252TMC3    C7 3828   1.046   1.527   9.847  0.6273 -0.1249 -0.3949
  252TMC3    C8 3829   1.417   1.811   9.785  0.6197  0.1365  0.3465
  252TMC3    O1 3830   0.976   1.621   9.886  0.0797  0.0310  0.4217
  252TMC3    O2 3831   1.500   1.822   9.702  0.3100 -0.2250 -0.2953
  253MPD2     C 3832   1.726   0.901  15.734 -0.2994  0.3415 -0.4306
  253MPD2    C1 3833   1.594   0.876  15.722  0.4406 -0.2520 -0.2183
  253MPD2    C2 3834   1.522   0.842  15.832  0.3228  0.3233 -0.7044
  253MPD2    C3 3835   1.583   0.825  15.956  0.0983  0.0904 -0.1122
  253MPD2    C4 3836   1.718   0.861  15.970 -0.4371 -0.1442 -0.0050
  253MPD2    C5 3837   1.785   0.893  15.857 -0.2705  0.0895  1.0946
  253MPD2     H 3838   1.419   0.813  15.822  0.2439 -0.0692  1.2219
  253MPD2    H1 3839   1.759   0.872  16.070 -3.0498  2.3872  0.7872
  253MPD2    H2 3840   1.784   0.941  15.652 -1.5303  2.4319 -0.2682
  253MPD2    H3 3841   1.890   0.919  15.868  0.3694 -1.4500 -1.4415
  253MPD2     N 3842   1.515   0.790  16.077 -0.3307 -0.3042  0.0918
  253MPD2    H5 3843   1.573   0.786  16.161  0.2567 -0.2309 -0.3087
  253MPD2    N1 3844   1.520   0.892  15.602 -0.4789 -0.6471 -0.5861
  253MPD2    H7 3845   1.421   0.868  15.608 -0.3548 -1.3142 -1.3209
  254TMC3    C1 3846   1.328   0.770  16.229 -0.3846 -0.0879 -0.6468
  254TMC3    C2 3847   1.258   0.883  16.267 -1.1224 -0.3894 -0.3124
  254TMC3    C3 3848   1.251   0.908  16.403  0.0106  0.2702 -0.2145
  254TMC3    C4 3849   1.407   0.703  16.312 -0.0152  0.6754  0.4825
  254TMC3    C5 3850   1.413   0.751  16.442 -0.0550  0.0119 -0.0007
  254TMC3    C6 3851   1.324   0.840  16.488  0.3401 -0.0560  0.2682
  254TMC3     C 3852   1.377   0.786  16.094  0.0450  0.5513  0.1015
  254TMC3     O 3853   1.292   0.821  16.013 -0.0671 -0.2017  0.1276
  254TMC3     H 3854   1.181   0.928  16.206 -1.0910  0.7578  0.4794
  254TMC3    H1 3855   1.483   0.634  16.276 -0.1331  1.2417 -0.8519
  254TMC3    H2 3856   1.324   0.863  16.594  1.2856  0.2373  0.2083
  254TMC3    C7 3857   1.472   0.671  16.541  0.3897 -0.7547 -0.1494
  254TMC3    C8 3858   1.183   1.023  16.459 -0.2786 -0.0339  0.0241
  254TMC3    O1 3859   1.535   0.733  16.628  0.6014  0.1096 -0.0925
  254TMC3    O2 3860   1.225   1.071  16.560  0.1022 -0.2933 -0.4690
  255MPD2     C 3861   3.825   3.574  10.186 -0.0922  0.2427 -0.1068
  255MPD2    C1 3862   3.919   3.675  10.185  0.3051  0.2578  0.7720
  255MPD2    C2 3863   4.041   3.664  10.117  0.4069  0.5741  0.2499
  255MPD2    C3 3864   4.057   3.545  10.042 -0.2033 -1.0309  0.0525
  255MPD2    C4 3865   3.968   3.443  10.053 -0.6679 -0.1888 -0.9050
  255MPD2    C5 3866   3.852   3.456  10.123 -0.2189 -0.2786 -0.3544
  255MPD2     H 3867   4.114   3.744  10.120  0.1162  0.9786 -3.7130
  255MPD2    H1 3868   3.976   3.351   9.997  2.0557 -0.7834  0.4742
  255MPD2    H2 3869   3.725   3.579  10.227 -0.7497 -4.4543 -1.1329
  255MPD2    H3 3870   3.779   3.376  10.113 -0.9979  0.5242 -1.1428
  255MPD2     N 3871   4.175   3.544   9.964 -0.0561  0.9805  0.1211
  255MPD2    H5 3872   4.233   3.625   9.983 -1.7818  1.9612  1.1766
  255MPD2    N1 3873   3.886   3.796  10.250 -0.3655  0.1755 -0.2201
  255MPD2    H7 3874   3.787   3.807  10.270 -0.2205  2.5652 -0.8778
  256TMC3    C1 3875   3.889   4.035  10.257  0.7465 -0.2756 -0.0345
  256TMC3    C2 3876   3.970   4.142  10.275  0.1480 -0.5445 -0.3919
  256TMC3    C3 3877   3.948   4.248  10.191 -0.5236  0.1758 -0.0954
  256TMC3    C4 3878   3.780   4.032  10.168 -0.5001  0.6183  0.6591
  256TMC3    C5 3879   3.756   4.150  10.104 -0.0600 -0.1127 -0.7216
  256TMC3    C6 3880   3.843   4.257  10.105 -0.5534 -0.8961  0.1363
  256TMC3     C 3881   3.962   3.909  10.272  0.1334 -0.8748  0.0776
  256TMC3     O 3882   4.083   3.918  10.284  0.0346 -0.3459 -0.2798
  256TMC3     H 3883   4.056   4.139  10.340  1.0128  0.5356 -1.4706
  256TMC3    H1 3884   3.732   3.938  10.143  0.4318  0.5005 -0.6640
  256TMC3    H2 3885   3.827   4.350  10.052 -0.4683  0.0345  1.7657
  256TMC3    C7 3886   3.640   4.161  10.020  0.3516 -0.2371  0.2706
  256TMC3    C8 3887   4.055   4.342  10.179 -0.6351 -0.0823 -0.3444
  256TMC3    O1 3888   3.588   4.054   9.977 -0.5758  0.1573  0.0019
  256TMC3    O2 3889   4.138   4.342  10.271  0.4579 -0.0845 -0.9527
  257MPD2     C 3890   3.981   0.796  13.444  0.4167 -0.6560  0.0761
  257MPD2    C1 3891   3.924   0.700  13.366 -0.0824  1.0225  0.0333
  257MPD2    C2 3892   3.888   0.577  13.424  0.4591  0.7380 -0.2176
  257MPD2    C3 3893   3.915   0.549  13.552 -1.3541 -0.5358 -0.0680
  257MPD2    C4 3894   3.972   0.650  13.631  0.4608 -0.8935  0.0232
  257MPD2    C5 3895   3.988   0.769  13.576 -0.1234 -0.0752  0.1156
  257MPD2     H 3896   3.839   0.495  13.374  1.0737  0.1955  0.0629
  257MPD2    H1 3897   3.982   0.647  13.739 -1.2430 -1.5326  0.1511
  257MPD2    H2 3898   4.004   0.898  13.415 -1.2069  0.3330  2.2163
  257MPD2    H3 3899   4.017   0.849  13.643 -1.0527  0.5227 -0.1934
  257MPD2     N 3900   3.870   0.428  13.605 -0.6344  0.3101  0.0551
  257MPD2    H5 3901   3.804   0.366  13.559  0.8650 -0.5453 -0.9766
  257MPD2    N1 3902   3.899   0.734  13.227 -0.9215  0.5885 -0.9639
  257MPD2    H7 3903   3.920   0.832  13.209 -0.7845  0.4292 -1.6560
  258TMC3    C1 3904   3.888   0.245  13.748 -0.0206  0.6357  0.6556
  258TMC3    C2 3905   3.746   0.240  13.767  0.2104 -0.3138  0.0652
  258TMC3    C3 3906   3.688   0.133  13.836 -0.1138 -0.5215  0.5227
  258TMC3    C4 3907   3.963   0.138  13.792  0.9979 -0.1343 -0.7975
  258TMC3    C5 3908   3.900   0.037  13.856  0.0819 -0.3875 -0.1545
  258TMC3    C6 3909   3.770   0.035  13.878 -0.1830 -0.1031 -0.3277
  258TMC3     C 3910   3.940   0.373  13.710  0.4993 -0.3160 -0.0550
  258TMC3     O 3911   4.049   0.410  13.757 -0.3766  0.0176  0.3400
  258TMC3     H 3912   3.695   0.336  13.758  1.1053  0.1784  0.2205
  258TMC3    H1 3913   4.071   0.139  13.781  0.7910  0.6385 -2.7448
  258TMC3    H2 3914   3.728   4.663  13.910 -2.0482  0.3981 -1.2680
  258TMC3    C7 3915   3.970   4.636  13.896  0.8294 -0.7646 -0.0319
  258TMC3    C8 3916   3.574   0.170  13.915  0.2961 -0.1845  0.5206
  258TMC3    O1 3917   3.906   4.534  13.925  0.0405 -0.3245 -0.5140
  258TMC3    O2 3918   3.516   0.266  13.875 -0.8766  0.1580 -0.4998
  259MPD2     C 3919   2.170   1.522   0.827  0.2559 -0.2712 -1.1880
  259MPD2    C1 3920   2.276   1.603   0.856  0.2815  0.0583 -0.3610
  259MPD2    C2 3921   2.373   1.637   0.762  0.0433  0.5696  0.0287
  259MPD2    C3 3922   2.371   1.577   0.639  0.3005  0.8745  0.4815
  259MPD2    C4 3923   2.267   1.496   0.601 -0.2676  0.5061 -0.1837
  259MPD2    C5 3924   2.169   1.475   0.698  0.2516 -0.0676 -0.1783
  259MPD2     H 3925   2.466   1.687   0.787  0.5246 -0.2606 -0.1052
  259MPD2    H1 3926   2.259   1.449   0.504  1.9756 -0.9506  0.3437
  259MPD2    H2 3927   2.092   1.498   0.898  0.3807 -1.5207 -1.4719
  259MPD2    H3 3928   2.092   1.401   0.676 -0.6967  0.4327  1.4204
  259MPD2     N 3929   2.486   1.596   0.550  0.2555 -0.2579 -0.2692
  259MPD2    H5 3930   2.570   1.639   0.588  0.4364  0.8868 -1.9394
  259MPD2    N1 3931   2.290   1.645   0.991  0.7161  0.6606  0.2350
  259MPD2    H7 3932   2.219   1.607   1.054 -1.2494  1.7847 -1.3410
  260TMC3    C1 3933   2.610   1.581   0.354  0.7440 -0.6317 -0.4347
  260TMC3    C2 3934   2.637   1.715   0.342 -0.7290  0.6108  0.0290
  260TMC3    C3 3935   2.731   1.747   0.249  0.1311  0.6434 -1.3449
  260TMC3    C4 3936   2.669   1.488   0.264 -0.2754  1.4900  0.7253
  260TMC3    C5 3937   2.748   1.527   0.163  0.5115  0.0025  0.2988
  260TMC3    C6 3938   2.777   1.660   0.157  0.7178  0.2475  0.1296
  260TMC3     C 3939   2.498   1.537   0.424  0.3952 -0.0982  0.4040
  260TMC3     O 3940   2.424   1.462   0.368  0.3016 -0.6059  0.1422
  260TMC3     H 3941   2.603   1.786   0.418 -1.8216 -0.5126  0.5946
  260TMC3    H1 3942   2.631   1.387   0.273  1.0800  0.8935 -0.3055
  260TMC3    H2 3943   2.836   1.690   0.071 -0.2577  0.0421 -0.6100
  260TMC3    C7 3944   2.780   1.443   0.046 -0.1883 -0.3787  0.1485
  260TMC3    C8 3945   2.802   1.871   0.269  0.5607 -0.5009  0.1330
  260TMC3    O1 3946   2.821   1.498  17.635  0.3456 -0.0674  0.4600
  260TMC3    O2 3947   2.740   1.960   0.329 -0.0786  0.1091 -0.0834
  261MPD2     C 3948   4.225   0.249  12.468 -0.0659 -0.3738 -0.2779
  261MPD2    C1 3949   4.332   0.314  12.524  0.7480  0.1438 -0.2065
  261MPD2    C2 3950   4.390   0.420  12.454 -0.2880 -0.6127 -0.6582
  261MPD2    C3 3951   4.341   0.459  12.329 -0.1447  0.0725  0.4293
  261MPD2    C4 3952   4.234   0.389  12.277  0.1661 -0.6818 -0.0304
  261MPD2    C5 3953   4.178   0.284  12.345 -0.2950 -0.2057  0.1087
  261MPD2     H 3954   4.482   0.457  12.496  0.7680 -1.7574 -1.9471
  261MPD2    H1 3955   4.187   0.417  12.184  2.6620 -1.5542 -1.5712
  261MPD2    H2 3956   4.167   0.173  12.520  1.3292 -1.6235 -0.5224
  261MPD2    H3 3957   4.096   0.236  12.293  0.5999 -2.6700  0.9535
  261MPD2     N 3958   4.410   0.565  12.262  0.0697  0.6251  0.6418
  261MPD2    H5 3959   4.503   0.594  12.293  0.6361 -3.2508  2.5082
  261MPD2    N1 3960   4.381   0.284  12.655 -0.2896 -0.2173 -0.3400
  261MPD2    H7 3961   4.445   0.351  12.696 -1.1341 -0.9726  2.1926
  262TMC3    C1 3962   4.446   0.741  12.095  0.5998  0.2169 -0.1772
  262TMC3    C2 3963   4.381   0.845  12.031 -0.4642 -0.2855  0.0591
  262TMC3    C3 3964   4.460   0.935  11.962  0.7032 -0.4070 -0.3942
  262TMC3    C4 3965   4.581   0.727  12.082 -0.1545 -0.0837 -0.0819
  262TMC3    C5 3966   4.650   0.823  12.009 -0.5774 -0.1237 -0.2751
  262TMC3    C6 3967   4.595   0.931  11.956 -0.7286  0.2515  0.3232
  262TMC3     C 3968   4.363   0.630  12.150  0.3333 -0.4354 -0.2128
  262TMC3     O 3969   4.243   0.637  12.118 -0.3806  0.1074 -0.4193
  262TMC3     H 3970   4.273   0.849  12.027 -0.4897 -0.2766  0.6848
  262TMC3    H1 3971   4.612   0.629  12.116 -0.3812 -0.7042 -1.6924
  262TMC3    H2 3972   4.651   1.019  11.926  0.4860 -0.4097  0.6516
  262TMC3    C7 3973   0.052   0.771  11.950 -0.5611 -0.7344 -0.2772
  262TMC3    C8 3974   4.405   1.055  11.916 -0.4827 -0.1797  1.0458
  262TMC3    O1 3975   0.111   0.693  12.024 -0.1864 -0.0278  0.5284
  262TMC3    O2 3976   4.482   1.144  11.891 -0.9848  0.3162  0.4827
  263MPD2     C 3977   0.780   4.591  11.312  0.5010 -0.1411 -0.7543
  263MPD2    C1 3978   0.894   4.675  11.327 -0.4473  0.1718  0.2435
  263MPD2    C2 3979   0.928   0.034  11.217  0.2201  0.4585  0.6922
  263MPD2    C3 3980   0.866   0.025  11.100  0.2499  0.0923 -0.7658
  263MPD2    C4 3981   0.758   4.664  11.080 -0.8371  1.5065 -0.2816
  263MPD2    C5 3982   0.718   4.586  11.188 -0.5429  0.0146 -0.4128
  263MPD2     H 3983   1.012   0.101  11.228 -1.1128  2.1082  0.8607
  263MPD2    H1 3984   0.712   4.649  10.984 -0.9001 -0.4138  0.0530
  263MPD2    H2 3985   0.737   4.524  11.386 -0.6143  0.0953 -1.1982
  263MPD2    H3 3986   0.629   4.526  11.173 -0.6347  0.1503 -0.4205
  263MPD2     N 3987   0.908   0.117  10.997  0.6611 -0.2689 -0.1628
  263MPD2    H5 3988   0.979   0.187  11.015  0.1587  0.1837  0.0554
  263MPD2    N1 3989   0.974   4.668  11.441  0.1436 -0.2782  0.2458
  263MPD2    H7 3990   1.069   4.705  11.441  1.1148 -2.8064 -0.1212
  264TMC3    C1 3991   0.878   0.251  10.812 -0.3488 -0.2553  0.4067
  264TMC3    C2 3992   0.864   0.361  10.889  0.7243  0.5613  0.1166
  264TMC3    C3 3993   0.848   0.477  10.825  0.4277  0.0397  0.6563
  264TMC3    C4 3994   0.899   0.252  10.676 -0.0811 -0.1155 -0.2419
  264TMC3    C5 3995   0.908   0.378  10.619  0.2305  0.8943 -0.1706
  264TMC3    C6 3996   0.870   0.490  10.688  0.5044  0.2138  0.2627
  264TMC3     C 3997   0.861   0.124  10.872 -0.1751  0.3271  0.2179
  264TMC3     O 3998   0.816   0.034  10.805  0.1910  0.0840  0.2435
  264TMC3     H 3999   0.874   0.364  10.997  0.6602 -1.6420  0.1959
  264TMC3    H1 4000   0.919   0.158  10.626 -1.4260  0.4387 -1.8054
  264TMC3    H2 4001   0.859   0.585  10.637 -2.6952 -1.5103 -2.2147
  264TMC3    C7 4002   1.044   0.398  10.584  0.1941  0.1315 -1.0498
  264TMC3    C8 4003   0.863   0.605  10.889 -0.8318 -0.0049 -0.6765
  264TMC3    O1 4004   1.111   0.313  10.529 -0.3965 -0.1270 -0.4174
  264TMC3    O2 4005   0.931   0.694  10.832  0.1686 -0.5336 -0.8846
  265MPD2     C 4006   3.187   0.878  15.501 -0.2123  0.4069  0.7051
  265MPD2    C1 4007   3.126   0.870  15.377  0.2079 -0.0651 -0.2097
  265MPD2    C2 4008   3.161   0.756  15.302 -0.3722 -0.0640  0.0664
  265MPD2    C3 4009   3.252   0.662  15.345 -0.0958 -0.1824  0.5783
  265MPD2    C4 4010   3.313   0.683  15.466  0.5872  0.0108 -0.2630
  265MPD2    C5 4011   3.279   0.783  15.542 -0.3313 -0.3759 -1.1049
  265MPD2     H 4012   3.096   0.737  15.216 -2.6135 -0.8977  1.9503
  265MPD2    H1 4013   3.385   0.613  15.508 -2.2662 -2.1132  1.0766
  265MPD2    H2 4014   3.164   0.945  15.584  0.6271  1.2817  0.2381
  265MPD2    H3 4015   3.313   0.784  15.645  3.1094  2.3882 -2.2835
  265MPD2     N 4016   3.284   0.550  15.261 -0.8614  0.4637  0.4294
  265MPD2    H5 4017   3.245   0.557  15.168 -2.7778 -3.0142  0.9709
  265MPD2    N1 4018   3.017   0.951  15.339 -0.3332  0.2281 -0.4237
  265MPD2    H7 4019   2.965   0.912  15.261 -0.5555  2.0919 -1.2003
  266TMC3    C1 4020   2.827   1.075  15.391  0.3748 -0.4356 -0.0020
  266TMC3    C2 4021   2.764   1.122  15.508  0.8111 -0.0946 -0.2791
  266TMC3    C3 4022   2.632   1.151  15.478 -0.1218 -0.8754  0.1897
  266TMC3    C4 4023   2.787   1.070  15.263 -0.4564 -0.3129  0.8754
  266TMC3    C5 4024   2.654   1.080  15.248 -0.4839  0.5742 -0.1028
  266TMC3    C6 4025   2.578   1.126  15.354 -0.9010 -0.5357  0.5712
  266TMC3     C 4026   2.965   1.047  15.413  0.0378 -0.1220  0.3107
  266TMC3     O 4027   3.007   1.102  15.514  0.0427  0.3665  0.7990
  266TMC3     H 4028   2.808   1.115  15.607  1.3851 -0.5327 -0.5645
  266TMC3    H1 4029   2.862   1.046  15.188  0.8734 -0.0684  2.1370
  266TMC3    H2 4030   2.471   1.142  15.344 -0.8405 -0.4671  0.0074
  266TMC3    C7 4031   2.591   1.084  15.122  1.1562  0.3217 -0.9086
  266TMC3    C8 4032   2.543   1.175  15.587  0.1541  0.6531 -0.3560
  266TMC3    O1 4033   2.500   1.165  15.111  0.1592  0.3464  0.5493
  266TMC3    O2 4034   2.426   1.148  15.567 -0.9339  1.1114 -0.0512
  267MPD2     C 4035   0.727   1.691   0.018 -0.0959 -0.5370 -0.0270
  267MPD2    C1 4036   0.639   1.793  17.666  1.1760 -0.4761  0.2560
  267MPD2    C2 4037   0.537   1.765  17.575  0.2987  0.2797 -0.0551
  267MPD2    C3 4038   0.516   1.628  17.541  0.0290 -0.2440  0.1176
  267MPD2    C4 4039   0.602   1.527  17.588 -0.0789 -0.1694  1.0160
  267MPD2    C5 4040   0.708   1.567  17.660  0.0851  0.4511  0.4004
  267MPD2     H 4041   0.479   1.849  17.538 -1.4485  0.2838  2.6919
  267MPD2    H1 4042   0.588   1.421  17.572  1.1295 -0.2501  0.4884
  267MPD2    H2 4043   0.800   1.719   0.093 -0.7585 -1.1736  0.8599
  267MPD2    H3 4044   0.785   1.498  17.692 -1.4069 -2.2431 -1.8869
  267MPD2     N 4045   0.416   1.587  17.446 -0.3306 -0.8028  0.2891
  267MPD2    H5 4046   0.404   1.487  17.430  1.8305 -0.8668 -0.9065
  267MPD2    N1 4047   0.662   1.926   0.028 -1.0165  0.1505 -0.2269
  267MPD2    H7 4048   0.741   1.939   0.091 -1.8684  0.3442  0.7939
  268TMC3    C1 4049   0.620   2.150   0.095  0.1179 -0.6287 -0.0837
  268TMC3    C2 4050   0.573   2.272   0.066  0.2685 -0.0118 -0.3316
  268TMC3    C3 4051   0.601   2.372   0.155 -0.7973 -0.1680  0.0342
  268TMC3    C4 4052   0.700   2.129   0.209 -0.4612 -0.2225 -0.1553
  268TMC3    C5 4053   0.727   2.234   0.293 -0.3291 -0.3964 -0.0930
  268TMC3    C6 4054   0.670   2.358   0.268 -0.3517 -0.6994  0.0876
  268TMC3     C 4055   0.583   2.035   0.009 -0.3574 -0.8161  0.4043
  268TMC3     O 4056   0.493   2.062  17.619  0.4568 -0.2850  0.3921
  268TMC3     H 4057   0.508   2.290  17.673 -0.7738  1.0715  0.6846
  268TMC3    H1 4058   0.719   2.029   0.247 -0.3865  0.0707  0.5663
  268TMC3    H2 4059   0.682   2.441   0.337 -1.5393 -0.0056 -0.5418
  268TMC3    C7 4060   0.804   2.208   0.411 -0.2147 -0.2277 -0.1329
  268TMC3    C8 4061   0.548   2.507   0.141  0.2513 -0.1931  0.5233
  268TMC3    O1 4062   0.765   2.108   0.472  0.2489 -0.6085 -0.5785
  268TMC3    O2 4063   0.530   2.585   0.234  0.0077  0.2184 -0.2234
  269MPD2     C 4064   0.636   0.859  15.687 -0.3031 -0.0575 -0.0931
  269MPD2    C1 4065   0.546   0.916  15.770  0.6147 -0.3129  0.5892
  269MPD2    C2 4066   0.523   1.047  15.750 -0.6042 -0.0570 -0.4505
  269MPD2    C3 4067   0.597   1.124  15.658 -0.0336  0.7166  0.4715
  269MPD2    C4 4068   0.707   1.075  15.598  0.0408 -0.9739 -0.0223
  269MPD2    C5 4069   0.722   0.939  15.614 -0.4400  0.2355  0.6358
  269MPD2     H 4070   0.449   1.101  15.808 -0.2081 -1.0545  0.9951
  269MPD2    H1 4071   0.782   1.133  15.546  0.9322 -0.7661  1.4939
  269MPD2    H2 4072   0.653   0.752  15.686  0.4048  0.0483  0.5809
  269MPD2    H3 4073   0.810   0.893  15.572 -1.8604 -2.1026  0.2094
  269MPD2     N 4074   0.561   1.258  15.643 -0.6807 -0.3192  0.0315
  269MPD2    H5 4075   0.484   1.288  15.702  0.3365  1.6893  0.3373
  269MPD2    N1 4076   0.469   0.836  15.856 -0.2411 -0.0215 -0.2642
  269MPD2    H7 4077   0.481   0.737  15.838  0.5557  0.2082 -0.9920
  270TMC3    C1 4078   0.282   0.769  15.972  0.1382 -0.4970 -0.0525
  270TMC3    C2 4079   0.162   0.774  15.901 -0.0263 -0.8870  0.6740
  270TMC3    C3 4080   0.104   0.660  15.852 -0.1183  0.7617 -0.0557
  270TMC3    C4 4081   0.344   0.647  15.983 -0.0059 -0.1644 -0.2160
  270TMC3    C5 4082   0.283   0.535  15.940 -0.1685 -0.3758 -0.3952
  270TMC3    C6 4083   0.156   0.538  15.880 -0.7150 -0.0066  0.0709
  270TMC3     C 4084   0.366   0.872  15.940  0.5580  0.0786 -0.1985
  270TMC3     O 4085   0.318   0.983  15.953  0.0172 -0.1368  0.3200
  270TMC3     H 4086   0.120   0.872  15.882 -0.3519 -1.0225  0.6957
  270TMC3    H1 4087   0.436   0.644  16.040  0.3826  0.3463 -0.8137
  270TMC3    H2 4088   0.118   0.444  15.843 -2.7204 -0.1786  2.4996
  270TMC3    C7 4089   0.374   0.421  15.928  0.7668  0.7325  0.0900
  270TMC3    C8 4090   0.027   0.677  15.732 -0.1834  0.4748  0.1304
  270TMC3    O1 4091   0.493   0.443  15.957 -0.6272 -0.0493  0.3316
  270TMC3    O2 4092   4.659   0.761  15.741 -0.4396 -0.6757 -0.4139
  271MPD2     C 4093   4.602   0.545  13.980 -0.3617 -0.5962  0.1388
  271MPD2    C1 4094   4.552   0.562  14.109  0.8044 -0.3878 -0.0514
  271MPD2    C2 4095   4.428   0.622  14.130 -0.0453 -1.0159 -0.2488
  271MPD2    C3 4096   4.349   0.660  14.018  0.4384 -0.3931 -0.0893
  271MPD2    C4 4097   4.400   0.635  13.893  0.4367 -0.3221  0.0286
  271MPD2    C5 4098   4.519   0.572  13.875 -0.4240  0.0033 -0.9261
  271MPD2     H 4099   4.399   0.641  14.233  0.3092  1.7272 -0.6489
  271MPD2    H1 4100   4.345   0.667  13.805  0.5742 -0.6843 -0.1878
  271MPD2    H2 4101   4.698   0.497  13.960 -0.2715 -0.9879  1.5336
  271MPD2    H3 4102   4.554   0.545  13.776  0.8745 -1.7427  0.0015
  271MPD2     N 4103   4.230   0.728  14.025 -1.0297  0.6524  0.1544
  271MPD2    H5 4104   4.194   0.747  13.932  0.3928  3.5335  0.1729
  271MPD2    N1 4105   4.622   0.511  14.221 -0.3265  0.2178  0.6810
  271MPD2    H7 4106   4.584   0.533  14.313 -0.0731 -1.0936  1.0908
  272TMC3    C1 4107   0.041   0.394  14.350  0.4155  0.3125 -0.5591
  272TMC3    C2 4108   0.169   0.359  14.378 -0.5053  0.6718 -0.4365
  272TMC3    C3 4109   0.196   0.331  14.506  0.1207 -0.4096 -0.4465
  272TMC3    C4 4110   4.659   0.385  14.438  0.5730 -0.8217 -0.1656
  272TMC3    C5 4111   4.701   0.363  14.570  0.5404  0.1143  0.6720
  272TMC3    C6 4112   0.108   0.342  14.611 -0.1375  0.1802 -0.3127
  272TMC3     C 4113   0.020   0.450  14.219 -0.0474 -0.7851  0.2579
  272TMC3     O 4114   0.092   0.407  14.129  0.1409 -0.1289 -0.5853
  272TMC3     H 4115   0.254   0.371  14.312  0.6070  4.0862  1.6358
  272TMC3    H1 4116   4.552   0.395  14.426  0.7823  1.9996  0.2729
  272TMC3    H2 4117   0.135   0.333  14.716 -1.2653  1.7422  0.1182
  272TMC3    C7 4118   4.615   0.425  14.667 -0.0408  0.3457  0.3816
  272TMC3    C8 4119   0.339   0.305  14.533  0.0334  0.0038  0.1322
  272TMC3    O1 4120   4.498   0.414  14.652  0.0119 -0.1935 -0.2028
  272TMC3    O2 4121   0.418   0.324  14.441 -0.0224  0.3073  0.0163
  273MPD2     C 4122   1.476   3.633  12.022 -0.0327 -0.5702 -0.1680
  273MPD2    C1 4123   1.550   3.726  11.947  0.0607 -0.0517 -0.3203
  273MPD2    C2 4124   1.539   3.734  11.810 -0.1179  0.2670  0.9767
  273MPD2    C3 4125   1.454   3.646  11.744  0.7866 -0.5050  0.1176
  273MPD2    C4 4126   1.369   3.561  11.819 -0.7412  0.1015 -0.5068
  273MPD2    C5 4127   1.391   3.549  11.957 -0.1732  0.0244 -0.5344
  273MPD2     H 4128   1.591   3.813  11.757  0.1384  0.0772  0.9433
  273MPD2    H1 4129   1.297   3.491  11.777  0.4740 -0.4361 -1.6909
  273MPD2    H2 4130   1.486   3.626  12.130  0.8906  1.1866 -0.1374
  273MPD2    H3 4131   1.316   3.488  12.008  0.0843  0.0919 -0.0684
  273MPD2     N 4132   1.449   3.666  11.606 -0.4194  0.0127  0.3843
  273MPD2    H5 4133   1.496   3.750  11.575 -1.7281  0.0729 -1.4307
  273MPD2    N1 4134   1.629   3.822  12.015  0.0294 -0.6401  0.0840
  273MPD2    H7 4135   1.612   3.837  12.114  2.2896 -0.6741  0.4783
  274TMC3    C1 4136   1.366   3.676  11.387 -0.2459 -0.4527 -0.1865
  274TMC3    C2 4137   1.254   3.673  11.309 -0.1823  0.4661  0.3584
  274TMC3    C3 4138   1.253   3.756  11.200  0.0654  0.5003  0.0069
  274TMC3    C4 4139   1.469   3.762  11.369  1.2689 -0.1557 -0.2577
  274TMC3    C5 4140   1.454   3.859  11.272 -0.3010  0.3661 -0.1913
  274TMC3    C6 4141   1.346   3.855  11.184 -0.2441  0.2394 -0.2809
  274TMC3     C 4142   1.359   3.608  11.518 -0.6676 -0.1244  0.3082
  274TMC3     O 4143   1.270   3.528  11.537 -0.0331 -0.4025 -0.0892
  274TMC3     H 4144   1.177   3.597  11.322 -0.0123  0.0077 -1.3325
  274TMC3    H1 4145   1.559   3.754  11.428 -0.0466 -1.7190  1.5565
  274TMC3    H2 4146   1.309   3.943  11.131  1.8561  2.8792  2.6679
  274TMC3    C7 4147   1.487   4.000  11.309  0.5789 -0.6351 -0.0205
  274TMC3    C8 4148   1.167   3.727  11.088 -0.5481 -0.0140 -0.2639
  274TMC3    O1 4149   1.406   4.087  11.292 -0.3300 -0.3668 -0.3645
  274TMC3    O2 4150   1.065   3.660  11.115 -0.7057 -0.2267 -0.3195
  275MPD2     C 4151   1.219   1.714  14.038  0.7776 -0.4410 -0.8958
  275MPD2    C1 4152   1.230   1.656  14.163  0.2541 -0.2533 -0.2241
  275MPD2    C2 4153   1.128   1.584  14.218 -0.2460  0.2228 -0.3250
  275MPD2    C3 4154   1.016   1.560  14.140 -0.2119  0.2938 -0.5562
  275MPD2    C4 4155   1.005   1.618  14.014 -0.2258  0.4165  0.1584
  275MPD2    C5 4156   1.107   1.695  13.964  0.6832 -0.1390  0.1647
  275MPD2     H 4157   1.151   1.527  14.307  0.8271 -0.1317 -0.8398
  275MPD2    H1 4158   0.922   1.602  13.946 -0.6777  1.9427  0.3333
  275MPD2    H2 4159   1.298   1.771  13.991  1.4684 -0.9565 -0.3610
  275MPD2    H3 4160   1.094   1.733  13.864  0.7620 -3.1798 -1.0111
  275MPD2     N 4161   0.905   1.482  14.186 -0.2950 -0.1113 -0.3966
  275MPD2    H5 4162   0.852   1.436  14.112 -0.5067  2.9392 -2.1176
  275MPD2    N1 4163   1.348   1.658  14.237  0.5043  0.3300  0.4401
  275MPD2    H7 4164   1.353   1.600  14.320  0.6941  0.7221  0.7047
  276TMC3    C1 4165   1.575   1.688  14.294 -0.2850 -0.7340  0.7984
  276TMC3    C2 4166   1.558   1.562  14.349 -0.4567 -0.6022 -0.0076
  276TMC3    C3 4167   1.563   1.542  14.486 -0.3940 -0.5915  0.7583
  276TMC3    C4 4168   1.605   1.791  14.378  0.2450  0.3034 -0.2856
  276TMC3    C5 4169   1.619   1.763  14.513  0.3079  0.2990  0.3820
  276TMC3    C6 4170   1.589   1.643  14.573 -0.7612  0.1422  0.4369
  276TMC3     C 4171   1.464   1.724  14.206  0.0190  0.1431  0.1916
  276TMC3     O 4172   1.485   1.815  14.127  0.2652 -0.4049  0.2581
  276TMC3     H 4173   1.538   1.479  14.282  0.2493  0.4845 -1.5840
  276TMC3    H1 4174   1.613   1.889  14.332  2.1071 -0.2590 -1.1478
  276TMC3    H2 4175   1.576   1.636  14.681 -0.6291 -1.7179  0.3159
  276TMC3    C7 4176   1.663   1.868  14.607 -0.5019  0.1935 -0.0749
  276TMC3    C8 4177   1.438   1.487  14.523  0.5077 -0.1102 -0.6469
  276TMC3    O1 4178   1.627   1.844  14.722  0.8229 -0.0397  0.4390
  276TMC3    O2 4179   1.354   1.479  14.437 -0.7531 -0.4119 -0.0131
  277MPD2     C 4180   3.224   0.348  13.559  0.4481 -0.0907  0.3321
  277MPD2    C1 4181   3.090   0.377  13.587  0.1708 -0.8655 -0.0262
  277MPD2    C2 4182   3.023   0.300  13.676  0.0581  0.3601  0.1344
  277MPD2    C3 4183   3.087   0.195  13.745  0.1494 -0.7049 -0.2095
  277MPD2    C4 4184   3.220   0.175  13.721 -0.5327  0.5987  0.1417
  277MPD2    C5 4185   3.285   0.254  13.635 -0.1803 -0.5103  0.1944
  277MPD2     H 4186   2.921   0.327  13.703  0.6466  1.6494  1.0612
  277MPD2    H1 4187   3.285   0.115  13.783 -0.4945  1.2701  0.7672
  277MPD2    H2 4188   3.272   0.415  13.488 -0.4428 -1.0001 -1.1474
  277MPD2    H3 4189   3.393   0.244  13.625  0.3504  4.0348  1.1967
  277MPD2     N 4190   3.020   0.131  13.852 -0.0918 -0.2802  0.3252
  277MPD2    H5 4191   2.925   0.162  13.873  0.5652  3.4702 -2.3062
  277MPD2    N1 4192   3.029   0.479  13.509 -0.6529 -0.8649  0.0244
  277MPD2    H7 4193   3.086   0.529  13.440 -0.6801  0.2976  0.8452
  278TMC3    C1 4194   2.975   4.696  14.013  0.3178 -0.1580 -0.1976
  278TMC3    C2 4195   2.938   4.563  13.999  0.3899  0.2855  0.1406
  278TMC3    C3 4196   2.827   4.528  14.076  0.0905 -0.3278  0.3509
  278TMC3    C4 4197   2.906   0.063  14.086  0.3901  0.6580 -0.6714
  278TMC3    C5 4198   2.799   0.022  14.154 -0.3545 -0.1167 -1.0595
  278TMC3    C6 4199   2.758   4.613  14.158  0.4204  0.3008 -0.5255
  278TMC3     C 4200   3.065   0.018  13.909 -0.6494  0.9824  0.2673
  278TMC3     O 4201   3.133   4.655  13.861  0.1118  0.7848  1.0104
  278TMC3     H 4202   2.988   4.500  13.927  0.8215 -0.5125  1.1371
  278TMC3    H1 4203   2.942   0.165  14.086 -1.3034  1.2386  1.7506
  278TMC3    H2 4204   2.667   4.589  14.212  0.3928  1.6609  0.0367
  278TMC3    C7 4205   2.734   0.123  14.240  0.2163 -0.6212 -0.9180
  278TMC3    C8 4206   2.753   4.410  14.041 -0.3695  0.6212  0.2860
  278TMC3    O1 4207   2.805   0.211  14.287 -0.2966  0.4608 -0.7272
  278TMC3    O2 4208   2.676   4.374  14.129  0.6690 -0.0127 -0.8663
  279MPD2     C 4209   2.248   0.427   0.639 -0.7655  0.5606 -0.0879
  279MPD2    C1 4210   2.208   0.560   0.615 -0.5716 -1.4120 -0.4335
  279MPD2    C2 4211   2.300   0.649   0.555  0.5811  0.4931 -0.0370
  279MPD2    C3 4212   2.420   0.606   0.504 -0.0967 -0.0881  0.6105
  279MPD2    C4 4213   2.459   0.473   0.532  0.2618  0.3082  0.6395
  279MPD2    C5 4214   2.370   0.389   0.595  0.0957  0.4823  0.5464
  279MPD2     H 4215   2.266   0.751   0.539 -0.8893  0.0601  0.2788
  279MPD2    H1 4216   2.558   0.437   0.509 -0.5375 -3.3070  2.8396
  279MPD2    H2 4217   2.187   0.352   0.688 -2.8381  1.2048 -1.6930
  279MPD2    H3 4218   2.405   0.289   0.618  0.0377  0.2494 -0.3614
  279MPD2     N 4219   2.490   0.698   0.416  0.1867 -0.6934  0.4970
  279MPD2    H5 4220   2.444   0.787   0.399 -0.5176 -1.0990  0.2719
  279MPD2    N1 4221   2.086   0.624   0.640  0.7173  0.1575 -0.6500
  279MPD2    H7 4222   2.080   0.721   0.613  0.3024  0.1697 -0.5113
  280TMC3    C1 4223   1.848   0.630   0.647 -0.2714  0.5544 -0.8875
  280TMC3    C2 4224   1.733   0.573   0.710 -0.0945 -0.2343 -0.0383
  280TMC3    C3 4225   1.607   0.607   0.665  1.1656  0.2510  0.2402
  280TMC3    C4 4226   1.828   0.717   0.546 -0.4477  0.8621  0.1492
  280TMC3    C5 4227   1.702   0.746   0.505 -0.5164 -0.3831 -0.1539
  280TMC3    C6 4228   1.591   0.693   0.559  0.3902  0.6042  0.1947
  280TMC3     C 4229   1.967   0.554   0.661 -0.2508 -0.1892  0.0080
  280TMC3     O 4230   1.951   0.433   0.671  0.1370 -0.2509  0.3698
  280TMC3     H 4231   1.753   0.510   0.796  3.0044  1.5184  0.5135
  280TMC3    H1 4232   1.916   0.742   0.487  1.0784 -2.7629  0.8751
  280TMC3    H2 4233   1.494   0.719   0.518  1.2369 -0.1147 -2.2696
  280TMC3    C7 4234   1.690   0.843   0.392  0.2757  0.0658 -0.3000
  280TMC3    C8 4235   1.492   0.523   0.704  0.4057 -0.0488  0.1100
  280TMC3    O1 4236   1.793   0.878   0.333 -0.7583  0.2154  0.2388
  280TMC3    O2 4237   1.387   0.553   0.654 -0.3124 -0.2410 -0.6859
  281TMC3    C1 4238   0.545   1.144  13.518  0.1348 -0.0122 -0.8338
  281TMC3    C2 4239   0.642   1.146  13.415  0.3300  0.5252  0.3466
  281TMC3    C3 4240   0.661   1.028  13.341 -0.1838  0.2064 -0.0012
  281TMC3    C4 4241   0.489   1.029  13.561 -0.3396  0.2315  0.3561
  281TMC3    C5 4242   0.523   0.915  13.502  0.1880  0.4409 -0.2102
  281TMC3    C6 4243   0.605   0.905  13.392 -0.1180  0.1627  0.5365
  281TMC3     C 4244   0.486   1.262  13.560 -0.0076  0.6845  0.0319
  281TMC3     O 4245   0.452   1.264  13.674 -0.0871  0.0942 -0.7287
  281TMC3     H 4246   0.692   1.239  13.392  1.2828  0.2664  1.3573
  281TMC3    H1 4247   0.413   1.028  13.638 -2.0195 -1.3180 -1.3376
  281TMC3    H2 4248   0.635   0.811  13.346 -0.4720 -0.3774  1.4070
  281TMC3    C7 4249   0.441   0.805  13.539  0.3441  0.2139  0.2489
  281TMC3    C8 4250   0.764   1.020  13.244 -0.5791  0.3096  0.2363
  281TMC3    O1 4251   0.321   0.826  13.527 -0.2061 -0.1241  0.2551
  281TMC3    O2 4252   0.830   0.921  13.245  0.2471  0.2857 -0.6108
  282MPD2     C 4253   2.604   2.232  14.994 -0.3432  0.2258  0.1903
  282MPD2    C1 4254   2.492   2.303  15.023  0.5156  0.0836  0.8045
  282MPD2    C2 4255   2.403   2.332  14.919  0.4956 -0.4575 -0.1026
  282MPD2    C3 4256   2.422   2.289  14.793 -0.2145  0.5590  0.5432
  282MPD2    C4 4257   2.529   2.207  14.766  0.1486  0.7405  0.3189
  282MPD2    C5 4258   2.619   2.183  14.868 -0.6887 -0.3249  0.4681
  282MPD2     H 4259   2.310   2.382  14.946  0.0877 -0.4566 -1.5210
  282MPD2    H1 4260   2.530   2.160  14.669 -0.5342  1.4812 -0.0395
  282MPD2    H2 4261   2.683   2.221  15.067 -1.4390 -1.0811  1.1751
  282MPD2    H3 4262   2.704   2.119  14.844 -0.3535  0.2369  0.1501
  282MPD2     N 4263   2.323   2.327  14.705  0.0984  0.8062  0.3249
  282MPD2    H5 4264   2.246   2.380  14.745  1.5718  2.2564  1.2681
  282MPD2    N1 4265   2.459   2.343  15.157 -0.1419  0.1016 -0.2010
  282MPD2    H7 4266   2.365   2.372  15.184 -1.2188 -1.8372 -1.8406
  283TMC3    C1 4267   2.498   2.354  15.389  0.1538 -1.2824 -0.0352
  283TMC3    C2 4268   2.569   2.419  15.485  0.2614  0.1443 -0.1598
  283TMC3    C3 4269   2.510   2.418  15.605  0.7227  0.3030  0.4677
  283TMC3    C4 4270   2.376   2.293  15.417 -0.2036 -0.1426  0.4905
  283TMC3    C5 4271   2.333   2.280  15.543  0.1455 -0.7321 -0.7041
  283TMC3    C6 4272   2.398   2.350  15.643  0.1578  0.0006 -0.3831
  283TMC3     C 4273   2.550   2.349  15.256  0.8530  0.2186 -0.0741
  283TMC3     O 4274   2.674   2.368  15.251 -0.2837  0.2212  0.2611
  283TMC3     H 4275   2.670   2.452  15.466  0.0174 -0.4334 -2.5431
  283TMC3    H1 4276   2.317   2.263  15.330  0.1957 -0.1828  0.2337
  283TMC3    H2 4277   2.356   2.357  15.743  0.9199 -0.4395 -0.0416
  283TMC3    C7 4278   2.208   2.219  15.581 -0.0292 -0.0452  0.5848
  283TMC3    C8 4279   2.537   2.525  15.697  0.0504  0.7747 -0.1443
  283TMC3    O1 4280   2.160   2.240  15.693 -0.6029  0.3123  0.1801
  283TMC3    O2 4281   2.533   2.495  15.811 -0.0968 -0.4430  0.1726
  284MPD2     C 4282   1.029   1.815  12.128 -0.8207  0.4849 -0.0701
  284MPD2    C1 4283   1.114   1.750  12.042  0.0879  0.7032  0.1659
  284MPD2    C2 4284   1.103   1.612  12.034 -0.7839 -0.3962 -0.5324
  284MPD2    C3 4285   1.008   1.539  12.099  0.1893  0.1147 -0.0662
  284MPD2    C4 4286   0.926   1.610  12.182  0.5453  0.3800  0.1173
  284MPD2    C5 4287   0.934   1.743  12.195 -1.2315 -0.1348 -0.0935
  284MPD2     H 4288   1.167   1.557  11.965 -0.4065  1.4403 -1.6386
  284MPD2    H1 4289   0.844   1.562  12.234  0.6278 -0.5739 -0.6419
  284MPD2    H2 4290   1.029   1.923  12.135 -0.2133  0.4946 -0.2577
  284MPD2    H3 4291   0.864   1.793  12.261  1.0722  1.6319  1.0340
  284MPD2     N 4292   0.986   1.398  12.079 -0.1874 -0.3383  0.2130
  284MPD2    H5 4293   0.909   1.355  12.128 -1.1644 -0.7621 -1.6980
  284MPD2    N1 4294   1.200   1.802  11.945 -0.3494  0.8805  0.0175
  284MPD2    H7 4295   1.254   1.733  11.894 -1.4560 -0.4855  0.6602
  285TMC3    C1 4296   1.254   1.942  11.773 -0.2047 -0.0073 -0.9494
  285TMC3    C2 4297   1.272   1.831  11.691 -0.2939  0.2821 -0.1708
  285TMC3    C3 4298   1.362   1.838  11.581 -0.1716  0.8102 -0.8219
  285TMC3    C4 4299   1.307   2.066  11.740 -0.0207  0.3564 -0.5305
  285TMC3    C5 4300   1.399   2.061  11.642  0.2817 -0.3222 -0.4840
  285TMC3    C6 4301   1.428   1.953  11.560 -0.0784 -0.3329  0.2626
  285TMC3     C 4302   1.201   1.932  11.905 -0.0450  0.1900  0.5808
  285TMC3     O 4303   1.176   2.028  11.976 -0.3742  0.5505 -0.0603
  285TMC3     H 4304   1.223   1.737  11.712  0.2496 -0.2342 -1.1981
  285TMC3    H1 4305   1.292   2.156  11.799 -0.3055  0.2139 -0.3824
  285TMC3    H2 4306   1.495   1.970  11.476 -0.9355 -0.2610 -0.4065
  285TMC3    C7 4307   1.428   2.196  11.587 -0.4310  0.1636 -0.1036
  285TMC3    C8 4308   1.405   1.716  11.511  0.6036 -0.2610 -0.0730
  285TMC3    O1 4309   1.438   2.287  11.667 -0.1337  0.1031 -0.1958
  285TMC3    O2 4310   1.317   1.635  11.485 -0.0081 -0.8217  0.1404
  286MPD2     C 4311   1.342   0.222   1.734  0.5798  0.2129  0.3244
  286MPD2    C1 4312   1.313   0.260   1.603 -0.4715 -0.3685 -0.1855
  286MPD2    C2 4313   1.410   0.242   1.505  0.3066  0.3991  0.4671
  286MPD2    C3 4314   1.528   0.178   1.529  0.8583  0.4620  0.5327
  286MPD2    C4 4315   1.552   0.134   1.664 -0.0838 -0.1037 -0.9506
  286MPD2    C5 4316   1.458   0.154   1.760  0.3979 -0.0473 -0.2798
  286MPD2     H 4317   1.380   0.279   1.408 -0.9231  0.6359  0.9308
  286MPD2    H1 4318   1.639   0.075   1.689  0.5701  1.2845  0.1103
  286MPD2    H2 4319   1.272   0.246   1.813 -0.2328 -0.4351 -0.2018
  286MPD2    H3 4320   1.479   0.108   1.855  0.1304 -2.0437 -1.1951
  286MPD2     N 4321   1.620   0.150   1.434 -0.1128  0.1383  0.0022
  286MPD2    H5 4322   1.707   0.112   1.470 -0.7756 -3.1389 -1.8207
  286MPD2    N1 4323   1.191   0.317   1.561 -0.3757 -0.4981  1.0327
  286MPD2    H7 4324   1.175   0.329   1.462 -0.2537 -1.8190  0.8519
  287TMC3    C1 4325   1.702   0.104   1.220  0.0741  0.0630 -0.1303
  287TMC3    C2 4326   1.671   0.044   1.097 -0.4644 -0.2123 -0.0280
  287TMC3    C3 4327   1.782   0.007   1.026  0.0669 -0.4131  0.0234
  287TMC3    C4 4328   1.828   0.131   1.265  0.6470 -0.2842 -0.6608
  287TMC3    C5 4329   1.935   0.090   1.182  0.8488 -0.6681  0.3558
  287TMC3    C6 4330   1.912   0.022   1.067  0.0693  0.2508  0.4426
  287TMC3     C 4331   1.593   0.148   1.299  0.0413 -0.1350 -0.1858
  287TMC3     O 4332   1.485   0.155   1.247  0.3041 -0.4650 -0.0205
  287TMC3     H 4333   1.570   0.040   1.059 -0.7079 -0.7363  0.6692
  287TMC3    H1 4334   1.845   0.199   1.347  0.0872  0.1156 -0.8804
  287TMC3    H2 4335   1.989   4.689   1.014 -0.3161  1.2580 -1.1725
  287TMC3    C7 4336   2.066   0.133   1.229  0.7377 -1.0432 -0.8201
  287TMC3    C8 4337   1.771   4.652   0.905  0.1199  0.4325 -0.0731
  287TMC3    O1 4338   2.066   0.215   1.324 -0.0800  0.5847 -0.7188
  287TMC3    O2 4339   1.854   4.567   0.881  0.8030  0.3638  0.0680
  288TMC3    C1 4340   3.545   0.233  14.527 -0.5297  0.0309 -0.3129
  288TMC3    C2 4341   3.446   0.226  14.618 -0.1290  0.4208  0.7475
  288TMC3    C3 4342   3.338   0.313  14.604  0.1282 -0.5850 -0.2176
  288TMC3    C4 4343   3.548   0.330  14.431  0.2507  0.1963  0.5358
  288TMC3    C5 4344   3.437   0.417  14.419 -0.1574  0.1723  0.5503
  288TMC3    C6 4345   3.333   0.407  14.507 -0.0320  0.8982  0.0384
  288TMC3     C 4346   3.636   0.126  14.508  0.1171  0.2306  0.0364
  288TMC3     O 4347   3.621   0.032  14.582  0.0780  0.0333 -0.4087
  288TMC3     H 4348   3.455   0.155  14.700 -0.0554 -1.3583 -0.7948
  288TMC3    H1 4349   3.618   0.338  14.348  1.8225  0.1331  1.8760
  288TMC3    H2 4350   3.251   0.477  14.504 -0.5335  0.3344  0.6034
  288TMC3    C7 4351   3.406   0.465  14.284  1.3552  0.3488 -0.3560
  288TMC3    C8 4352   3.270   0.352  14.724  1.1309 -0.1015 -0.1284
  288TMC3    O1 4353   3.507   0.476  14.213  0.2257  0.4811  0.5126
  288TMC3    O2 4354   3.274   0.473  14.743  0.1244 -0.6328  0.2772
  289MPD2     C 4355   3.173   4.000  14.815 -0.4861  0.5160  0.0530
  289MPD2    C1 4356   3.176   4.130  14.777 -0.3720 -0.0269  0.1198
  289MPD2    C2 4357   3.069   4.187  14.708 -0.0235  0.5631  0.6615
  289MPD2    C3 4358   2.967   4.106  14.664 -0.0758 -0.4344  0.1488
  289MPD2    C4 4359   2.965   3.972  14.699  0.1837  0.1466  0.0678
  289MPD2    C5 4360   3.068   3.924  14.775  0.6167 -0.4590  0.6510
  289MPD2     H 4361   3.071   4.288  14.669 -0.2014 -0.0274 -0.8735
  289MPD2    H1 4362   2.885   3.904  14.672  0.4089 -0.6679  1.4115
  289MPD2    H2 4363   3.253   3.952  14.869 -0.7367 -0.7723 -0.7082
  289MPD2    H3 4364   3.060   3.821  14.808  0.4259 -1.0709 -1.2854
  289MPD2     N 4365   2.860   4.157  14.591 -0.1966 -0.0523 -0.7632
  289MPD2    H5 4366   2.790   4.095  14.550 -1.5892  0.1676  1.2617
  289MPD2    N1 4367   3.286   4.209  14.828 -0.1934  0.1196  0.6214
  289MPD2    H7 4368   3.367   4.168  14.873  0.5425  1.1416  0.2366
  290TMC3    C1 4369   2.706   4.313  14.496 -0.3922  0.0609 -0.8091
  290TMC3    C2 4370   2.667   4.438  14.480  0.1913 -0.1537  0.2305
  290TMC3    C3 4371   2.531   4.455  14.448 -0.3311  0.1635 -0.3176
  290TMC3    C4 4372   2.629   4.202  14.454  0.1106 -0.0937 -0.1621
  290TMC3    C5 4373   2.510   4.225  14.398  0.3507 -0.0436  0.2215
  290TMC3    C6 4374   2.462   4.349  14.404 -0.1484 -0.4570 -0.0880
  290TMC3     C 4375   2.830   4.291  14.572  0.3939  0.0870  0.0011
  290TMC3     O 4376   2.903   4.389  14.584 -0.2040 -0.5566 -0.6313
  290TMC3     H 4377   2.736   4.515  14.513  0.1227 -0.0666  0.1720
  290TMC3    H1 4378   2.656   4.097  14.459  1.8560  0.4146  1.0785
  290TMC3    H2 4379   2.360   4.361  14.369 -0.1223 -1.7210 -0.6004
  290TMC3    C7 4380   2.413   4.116  14.382  0.0731 -0.1406  0.2700
  290TMC3    C8 4381   2.457   4.563  14.494  0.0282  0.1616  0.5538
  290TMC3    O1 4382   2.297   4.147  14.349 -0.5070  0.5898 -0.1270
  290TMC3    O2 4383   2.335   4.562  14.474 -0.2584 -0.6988 -0.2778
  291MPD2     C 4384   2.215   4.169   0.773 -0.0948 -0.1416  0.3745
  291MPD2    C1 4385   2.234   4.052   0.704  0.2526 -0.1379 -0.1483
  291MPD2    C2 4386   2.241   4.042   0.564  0.1956  0.2499  0.2035
  291MPD2    C3 4387   2.216   4.162   0.492 -0.0302 -0.2294  0.4506
  291MPD2    C4 4388   2.191   4.277   0.565  0.2067  0.5944 -0.4110
  291MPD2    C5 4389   2.189   4.276   0.701 -0.1744 -0.7063 -0.2276
  291MPD2     H 4390   2.252   3.953   0.503  0.2138 -1.2080  2.3363
  291MPD2    H1 4391   2.172   4.370   0.513  1.1958  0.1602 -1.5232
  291MPD2    H2 4392   2.218   4.175   0.881  1.6307  1.4527  0.2322
  291MPD2    H3 4393   2.185   4.373   0.750  1.2306 -0.9175  0.3058
  291MPD2     N 4394   2.217   4.185   0.349  0.1234  0.4096  0.1428
  291MPD2    H5 4395   2.194   4.279   0.319 -0.0818  0.6892  1.1752
  291MPD2    N1 4396   2.242   3.931   0.779  0.3223 -0.1308  0.0148
  291MPD2    H7 4397   2.255   3.846   0.725 -0.9162 -1.1940  1.3884
  292TMC3    C1 4398   2.257   3.780   0.949  0.0615 -0.6473  0.3551
  292TMC3    C2 4399   2.335   3.739   1.051 -0.5431  0.2327 -0.0261
  292TMC3    C3 4400   2.333   3.604   1.076  0.2304  0.0537  0.1586
  292TMC3    C4 4401   2.190   3.689   0.869  0.7749 -0.5678 -0.0985
  292TMC3    C5 4402   2.212   3.559   0.887 -0.1229  0.1781 -0.3176
  292TMC3    C6 4403   2.280   3.509   0.991  0.0282  0.7463 -0.2500
  292TMC3     C 4404   2.264   3.916   0.916  1.0891  0.1291  0.1727
  292TMC3     O 4405   2.282   3.999   1.004  0.2852 -0.2155  0.0152
  292TMC3     H 4406   2.384   3.814   1.113 -0.8626  1.5580 -1.3652
  292TMC3    H1 4407   2.121   3.733   0.797  1.8676  2.0492  0.4295
  292TMC3    H2 4408   2.300   3.404   1.007 -0.4193  0.5165 -1.2319
  292TMC3    C7 4409   2.155   3.463   0.799  0.0186 -0.7303  0.2530
  292TMC3    C8 4410   2.382   3.555   1.206 -0.1353 -0.1720 -0.8453
  292TMC3    O1 4411   2.214   3.357   0.774  0.5061 -0.2942  0.4323
  292TMC3    O2 4412   2.477   3.612   1.255  0.3231 -0.1262 -0.1463
  293MPD2     C 4413   4.019   0.490  12.595  0.2988  0.4074 -0.1859
  293MPD2    C1 4414   3.933   0.449  12.694  0.1745 -0.7784 -0.0812
  293MPD2    C2 4415   3.969   0.458  12.827 -0.3771  0.1666  0.2096
  293MPD2    C3 4416   4.090   0.518  12.870  0.0684  1.4716 -0.8297
  293MPD2    C4 4417   4.171   0.570  12.770  0.5872 -1.0745 -0.2326
  293MPD2    C5 4418   4.137   0.549  12.642  0.4917 -0.2663 -0.4003
  293MPD2     H 4419   3.906   0.409  12.900  1.1857 -2.6584 -0.3599
  293MPD2    H1 4420   4.267   0.620  12.777  1.1583 -2.1827 -0.2019
  293MPD2    H2 4421   4.003   0.481  12.488  0.6282 -1.4755 -0.0709
  293MPD2    H3 4422   4.204   0.589  12.566  2.2079 -1.9063  0.2428
  293MPD2     N 4423   4.131   0.521  13.006  0.3369 -0.5616  0.1584
  293MPD2    H5 4424   4.068   0.473  13.069 -0.4771  1.6008  1.0016
  293MPD2    N1 4425   3.815   0.395  12.642 -0.1019  0.3770  0.3135
  293MPD2    H7 4426   3.810   0.399  12.541 -0.5239 -1.5230  0.2487
  294TMC3    C1 4427   3.591   0.340  12.629 -0.6517  0.0943 -1.3995
  294TMC3    C2 4428   3.502   0.244  12.660 -0.4995  0.1236 -0.5754
  294TMC3    C3 4429   3.388   0.239  12.580 -0.9640  0.0013 -0.2795
  294TMC3    C4 4430   3.574   0.414  12.515 -0.5187  0.2000  1.5984
  294TMC3    C5 4431   3.459   0.411  12.443  0.5555 -0.2421  0.3459
  294TMC3    C6 4432   3.364   0.311  12.472  0.1903  0.6506 -0.2253
  294TMC3     C 4433   3.707   0.358  12.716 -1.1325  0.1859  0.2755
  294TMC3     O 4434   3.689   0.342  12.839 -0.3174 -0.5545 -0.4197
  294TMC3     H 4435   3.515   0.170  12.738 -2.1105 -1.1055 -1.4793
  294TMC3    H1 4436   3.652   0.488  12.504  0.7005 -1.2861  0.3270
  294TMC3    H2 4437   3.271   0.303  12.416  1.0626  3.0707 -2.0633
  294TMC3    C7 4438   3.452   0.478  12.314 -0.2786  0.4151  1.2123
  294TMC3    C8 4439   3.272   0.161  12.629 -0.2288  0.4374 -0.3252
  294TMC3    O1 4440   3.339   0.523  12.302  0.1043  0.6960  0.1741
  294TMC3    O2 4441   3.262   0.159  12.751 -0.5162 -0.0706 -0.2404
  295MPD2     C 4442   4.043   3.272   0.541 -0.7552 -1.1504 -0.6178
  295MPD2    C1 4443   4.158   3.341   0.584 -0.0854 -0.2505  0.5710
  295MPD2    C2 4444   4.161   3.400   0.717 -0.0085 -0.0164  0.1534
  295MPD2    C3 4445   4.054   3.384   0.795 -0.7748  0.5150  0.2446
  295MPD2    C4 4446   3.945   3.307   0.754 -0.0614  0.1135 -0.7307
  295MPD2    C5 4447   3.938   3.248   0.631 -0.0866  0.1689 -0.3889
  295MPD2     H 4448   4.254   3.446   0.750  0.3310  0.4403 -1.4683
  295MPD2    H1 4449   3.873   3.281   0.831  0.8974 -2.6031 -0.7369
  295MPD2    H2 4450   4.041   3.239   0.438 -2.1492 -0.2261 -0.8778
  295MPD2    H3 4451   3.857   3.184   0.597  1.7202 -2.7231  0.7242
  295MPD2     N 4452   4.049   3.438   0.925 -0.4105 -0.0610 -0.1200
  295MPD2    H5 4453   3.974   3.417   0.990 -0.5855  1.5262  0.1935
  295MPD2    N1 4454   4.255   3.366   0.491  0.3288  0.1476  0.3731
  295MPD2    H7 4455   4.244   3.317   0.403 -1.7073 -0.0721  0.7344
  296TMC3    C1 4456   4.132   3.563   1.109 -0.1184  0.3127 -0.2845
  296TMC3    C2 4457   4.240   3.626   1.167 -0.0629 -0.4898 -0.1022
  296TMC3    C3 4458   4.224   3.676   1.294  0.0101 -0.2241  0.9005
  296TMC3    C4 4459   4.023   3.516   1.183 -0.6704  0.7266 -0.0594
  296TMC3    C5 4460   4.027   3.548   1.310  0.3658 -0.3219  0.1195
  296TMC3    C6 4461   4.117   3.636   1.369 -0.1796  0.4742 -0.4143
  296TMC3     C 4462   4.144   3.532   0.965 -0.6311 -0.4122  0.8534
  296TMC3     O 4463   4.234   3.593   0.909 -0.0441  0.0021  0.2746
  296TMC3     H 4464   4.325   3.653   1.106  1.4876 -1.0924  1.7785
  296TMC3    H1 4465   3.935   3.462   1.150 -1.1077  2.3566 -1.5956
  296TMC3    H2 4466   4.112   3.669   1.472 -1.1341 -0.5060 -0.1444
  296TMC3    C7 4467   3.899   3.554   1.383 -0.0276  0.6717  0.5598
  296TMC3    C8 4468   4.330   3.760   1.344  0.1370  1.2016 -0.6205
  296TMC3    O1 4469   3.801   3.566   1.315 -0.1524 -0.2117 -0.5224
  296TMC3    O2 4470   4.393   3.833   1.268 -0.2610  0.5406 -0.5316
  297MPD2     C 4471   1.988   1.376  16.309  0.0422 -0.0519 -0.3248
  297MPD2    C1 4472   1.952   1.369  16.177 -0.0694 -0.4754  0.8020
  297MPD2    C2 4473   2.029   1.428  16.079  0.1135  0.0682 -0.3954
  297MPD2    C3 4474   2.134   1.515  16.115  0.5473 -0.0072  0.6147
  297MPD2    C4 4475   2.161   1.524  16.246 -0.0886 -0.7377  0.2730
  297MPD2    C5 4476   2.101   1.445  16.341 -0.2732 -0.1894  0.2752
  297MPD2     H 4477   1.995   1.414  15.977 -0.2270  0.1353 -0.2906
  297MPD2    H1 4478   2.250   1.577  16.276 -0.4835  0.2650 -0.3221
  297MPD2    H2 4479   1.945   1.316  16.389  0.8199  1.3420  1.1392
  297MPD2    H3 4480   2.136   1.447  16.444  1.3266  1.9500 -0.2892
  297MPD2     N 4481   2.199   1.593  16.013 -0.4211  0.6781  0.3852
  297MPD2    H5 4482   2.172   1.566  15.919 -0.4542  0.9053  0.3281
  297MPD2    N1 4483   1.840   1.296  16.136 -0.3500  0.1106 -0.3088
  297MPD2    H7 4484   1.814   1.309  16.039  2.7738 -0.7970 -1.2741
  298TMC3    C1 4485   1.634   1.170  16.155 -0.3454  0.0331  0.3868
  298TMC3    C2 4486   1.620   1.181  16.023 -0.3381 -0.5210  0.1090
  298TMC3    C3 4487   1.495   1.164  15.971 -0.4728 -0.5530 -0.5232
  298TMC3    C4 4488   1.535   1.162  16.247 -0.4938  0.3303  0.7837
  298TMC3    C5 4489   1.412   1.179  16.192 -1.0432 -0.5761 -0.4881
  298TMC3    C6 4490   1.390   1.177  16.059  0.2309  0.0930  0.8052
  298TMC3     C 4491   1.759   1.215  16.213 -0.4198 -0.0256  0.3195
  298TMC3     O 4492   1.776   1.186  16.332 -0.0513  0.4844  0.0803
  298TMC3     H 4493   1.705   1.191  15.956 -1.1478  2.3364 -0.4778
  298TMC3    H1 4494   1.547   1.188  16.351 -0.8430  1.1793  0.6075
  298TMC3    H2 4495   1.292   1.158  16.017  0.8948 -0.8776 -0.2905
  298TMC3    C7 4496   1.331   1.277  16.269  0.4725 -0.1732  0.1717
  298TMC3    C8 4497   1.469   1.182  15.833 -0.0674 -0.2260 -0.0081
  298TMC3    O1 4498   1.361   1.304  16.381 -0.1965 -0.0334 -0.3138
  298TMC3    O2 4499   1.561   1.217  15.763  0.6059 -0.4727 -0.3681
  299MPD2     C 4500   2.778   0.663  11.164  0.2587  0.6378 -0.5355
  299MPD2    C1 4501   2.820   0.724  11.048  0.3314  1.1299 -0.4709
  299MPD2    C2 4502   2.732   0.720  10.942  0.1141 -0.5026  0.4314
  299MPD2    C3 4503   2.611   0.653  10.946 -0.5847  0.1834 -0.0247
  299MPD2    C4 4504   2.573   0.599  11.064  0.1766 -0.5739 -0.3251
  299MPD2    C5 4505   2.654   0.602  11.175 -0.0287  0.4102  0.2016
  299MPD2     H 4506   2.756   0.773  10.850 -0.3624 -0.1624  0.5033
  299MPD2    H1 4507   2.471   0.563  11.068  0.1799 -0.3589  1.8055
  299MPD2    H2 4508   2.846   0.682  11.246  1.4877 -2.5578 -0.8225
  299MPD2    H3 4509   2.622   0.563  11.271  1.1529 -0.2008  0.3436
  299MPD2     N 4510   2.514   0.651  10.836 -0.5141  0.9934  0.0183
  299MPD2    H5 4511   2.427   0.599  10.844 -0.6049  1.0006 -0.9121
  299MPD2    N1 4512   2.949   0.774  11.044 -0.2954  0.0097 -0.1391
  299MPD2    H7 4513   3.009   0.750  11.122 -3.2944  0.5274  2.3556
  300TMC3    C1 4514   2.424   0.662  10.621 -0.2178 -0.3016  0.4158
  300TMC3    C2 4515   2.401   0.750  10.519  0.9481 -0.1896  0.4177
  300TMC3    C3 4516   2.278   0.762  10.458 -0.4080 -0.3582 -1.2275
  300TMC3    C4 4517   2.327   0.577  10.658  0.2068 -0.2570 -0.1587
  300TMC3    C5 4518   2.199   0.588  10.601 -0.0000  0.6233  0.2985
  300TMC3    C6 4519   2.180   0.685  10.504  0.8402 -1.0895  0.7397
  300TMC3     C 4520   2.527   0.705  10.713  0.0270  0.7161 -0.1976
  300TMC3     O 4521   2.617   0.769  10.666 -0.2431 -0.5998 -0.8097
  300TMC3     H 4522   2.484   0.814  10.488  1.1910 -0.9276 -0.4708
  300TMC3    H1 4523   2.336   0.503  10.737  2.6498  0.6537  0.4256
  300TMC3    H2 4524   2.091   0.670  10.444  0.2329 -0.6522  1.5195
  300TMC3    C7 4525   2.088   0.527  10.681  0.1077 -0.8698 -0.3195
  300TMC3    C8 4526   2.245   0.897  10.414 -0.1178  0.0899 -0.1848
  300TMC3    O1 4527   2.108   0.422  10.736  0.3801 -0.2857  0.0717
  300TMC3    O2 4528   2.327   0.984  10.445 -1.1140  0.5434 -0.3661
  301MPD2     C 4529   4.448   2.163   2.099 -0.1901 -0.2496 -0.1789
  301MPD2    C1 4530   4.362   2.146   1.990 -0.1749  0.0543 -0.6180
  301MPD2    C2 4531   4.409   2.073   1.884  0.1450  0.4153  0.5455
  301MPD2    C3 4532   4.533   2.019   1.869 -0.2287 -0.0134 -0.0337
  301MPD2    C4 4533   4.617   2.037   1.982 -0.1318 -0.3727 -0.0718
  301MPD2    C5 4534   4.575   2.104   2.094  0.1197 -0.3625  0.8802
  301MPD2     H 4535   4.334   2.060   1.807  1.4778  1.1341 -0.8655
  301MPD2    H1 4536   4.720   2.003   1.983 -0.1586 -0.3458  2.5725
  301MPD2    H2 4537   4.416   2.222   2.184 -0.6606  1.4237 -1.5183
  301MPD2    H3 4538   4.638   2.136   2.176  0.3763  1.0678  0.1231
  301MPD2     N 4539   4.580   1.946   1.767 -0.0431 -0.1130 -0.0496
  301MPD2    H5 4540   4.680   1.930   1.771 -0.8499 -4.4322  3.0206
  301MPD2    N1 4541   4.235   2.208   1.977 -0.3455 -0.4864  0.6301
  301MPD2    H7 4542   4.178   2.170   1.903 -0.4169 -1.3008  1.0995
  302TMC3    C1 4543   4.606   1.886   1.543 -0.4103 -0.0288  0.2354
  302TMC3    C2 4544   4.702   1.789   1.566 -0.2894 -0.1842 -0.5032
  302TMC3    C3 4545   0.031   1.738   1.454  0.1312 -0.1676 -0.5596
  302TMC3    C4 4546   4.569   1.932   1.422 -0.6274 -0.2450  0.2511
  302TMC3    C5 4547   4.634   1.883   1.317  0.1360 -1.0324 -0.3861
  302TMC3    C6 4548   0.007   1.795   1.330  0.1962 -0.6559 -0.2424
  302TMC3     C 4549   4.512   1.922   1.646 -0.2285 -0.9821 -0.0152
  302TMC3     O 4550   4.399   1.955   1.615 -0.7059 -0.0189  0.3463
  302TMC3     H 4551   4.720   1.749   1.666  0.7825  0.5288 -0.4056
  302TMC3    H1 4552   4.486   2.000   1.407 -0.1766  0.1873 -0.2847
  302TMC3    H2 4553   0.040   1.762   1.232 -1.0892  1.3454 -1.3378
  302TMC3    C7 4554   4.574   1.909   1.185 -0.5646 -0.5503 -0.5885
  302TMC3    C8 4555   0.112   1.619   1.462 -0.3566  0.7336  0.6750
  302TMC3    O1 4556   4.644   1.899   1.084 -0.2570 -0.0238  0.5037
  302TMC3    O2 4557   0.167   1.597   1.354  0.6304  0.0548  0.0634
  303MPD2     C 4558   0.154   0.309  10.423  0.0012  0.6598  0.6533
  303MPD2    C1 4559   0.047   0.230  10.438  0.3350  0.7494  0.0011
  303MPD2    C2 4560   4.686   0.225  10.330  0.7195  0.1952 -0.4113
  303MPD2    C3 4561   4.710   0.290  10.214  0.0278  0.1836 -0.1200
  303MPD2    C4 4562   0.089   0.379  10.198 -0.1646  0.6718  0.4739
  303MPD2    C5 4563   0.165   0.386  10.309 -0.0834 -0.0210  0.0190
  303MPD2     H 4564   4.599   0.161  10.342 -0.2568  1.2980 -1.5480
  303MPD2    H1 4565   0.098   0.444  10.112  2.3650 -1.6674 -1.0623
  303MPD2    H2 4566   0.236   0.313  10.494 -0.4907 -0.7861  1.2978
  303MPD2    H3 4567   0.254   0.446  10.293  0.9077 -1.3818  0.3788
  303MPD2     N 4568   4.620   0.285  10.109  0.7813  0.0660 -0.0271
  303MPD2    H5 4569   4.634   0.352  10.034 -0.5099  1.4164  0.9243
  303MPD2    N1 4570   0.033   0.161  10.558 -0.0450  0.3876 -0.3075
  303MPD2    H7 4571   0.093   0.191  10.634 -0.2153 -0.3387  0.1098
  304TMC3    C1 4572   4.677   4.718  10.700 -0.0798  0.5392  0.5416
  304TMC3    C2 4573   4.608   0.074  10.794  0.9943 -0.1196 -0.2679
  304TMC3    C3 4574   4.559   0.012  10.903 -0.6399  0.2004  0.4548
  304TMC3    C4 4575   4.684   4.577  10.712  0.4572  0.1050  0.6885
  304TMC3    C5 4576   4.627   4.524  10.824 -0.2026 -0.0829 -0.0040
  304TMC3    C6 4577   4.568   4.600  10.919  0.2832 -0.1968  0.6963
  304TMC3     C 4578   4.678   0.047  10.562  0.1440 -0.4085  0.3384
  304TMC3     O 4579   4.616   4.709  10.471  0.2059 -0.4070 -0.0230
  304TMC3     H 4580   4.589   0.179  10.777  1.8920 -0.1575 -1.5696
  304TMC3    H1 4581   0.005   4.515  10.635  2.6515  1.4342  0.8533
  304TMC3    H2 4582   4.533   4.558  11.012  1.0749 -3.5741 -0.5270
  304TMC3    C7 4583   4.575   4.385  10.818  0.6696 -0.0897  0.1993
  304TMC3    C8 4584   4.411   0.030  10.908  0.6928  0.9551  0.2713
  304TMC3    O1 4585   4.648   4.300  10.769  0.4944  0.4909  0.3508
  304TMC3    O2 4586   4.345   4.653  10.924  0.3099  0.5224  0.3598
  305MPD2     C 4587   2.710   2.604  13.812 -0.2397 -0.1447 -0.4829
  305MPD2    C1 4588   2.618   2.509  13.849  0.0338  0.0617 -0.0129
  305MPD2    C2 4589   2.570   2.423  13.754  0.4444 -0.6143 -0.0815
  305MPD2    C3 4590   2.585   2.458  13.617  0.0318  0.1954 -0.0653
  305MPD2    C4 4591   2.651   2.573  13.583  0.0237  0.6508  0.2548
  305MPD2    C5 4592   2.722   2.639  13.682  0.1452 -0.1388  0.1969
  305MPD2     H 4593   2.501   2.346  13.784 -0.8286  1.2748  1.8758
  305MPD2    H1 4594   2.677   2.611  13.485 -1.5048 -2.4814 -1.3649
  305MPD2    H2 4595   2.767   2.670  13.876 -1.4457 -0.0501  0.4842
  305MPD2    H3 4596   2.796   2.714  13.657 -0.9730  1.9404  3.0835
  305MPD2     N 4597   2.534   2.379  13.509 -0.0216 -0.0014 -0.4016
  305MPD2    H5 4598   2.536   2.424  13.418 -1.1556 -0.3229 -0.5914
  305MPD2    N1 4599   2.590   2.501  13.988  0.0008  0.2383  0.5494
  305MPD2    H7 4600   2.644   2.567  14.042  0.6963 -0.9880  1.3662
  306TMC3    C1 4601   2.534   2.410  14.196  0.3460 -0.9919  0.1089
  306TMC3    C2 4602   2.610   2.317  14.259  0.1354 -0.5920 -0.5402
  306TMC3    C3 4603   2.662   2.345  14.380  0.6121  0.4787  0.2407
  306TMC3    C4 4604   2.517   2.538  14.240  0.7609  0.0074 -0.0888
  306TMC3    C5 4605   2.556   2.557  14.376  0.4304 -0.2274  0.6341
  306TMC3    C6 4606   2.634   2.463  14.442  0.1266  0.3850  0.5896
  306TMC3     C 4607   2.534   2.399  14.051 -0.2142 -0.3309 -0.2622
  306TMC3     O 4608   2.521   2.286  14.010 -0.7816 -0.0999 -0.3854
  306TMC3     H 4609   2.644   2.226  14.210  3.5444 -0.1208  0.9858
  306TMC3    H1 4610   2.463   2.610  14.180  0.9221 -1.1178 -1.5775
  306TMC3    H2 4611   2.678   2.486  14.539 -0.7664 -0.3804  1.1745
  306TMC3    C7 4612   2.548   2.686  14.429 -0.8479 -0.0237 -0.1270
  306TMC3    C8 4613   2.745   2.239  14.441  0.4081  0.2071  0.0854
  306TMC3    O1 4614   2.436   2.727  14.439  0.1456  0.0053 -0.0531
  306TMC3    O2 4615   2.777   2.144  14.373 -0.0516  0.2948  0.0717
  307MPD2     C 4616   0.457   4.716   0.602  0.1585  0.0449 -0.9500
  307MPD2    C1 4617   0.418   0.123   0.590  0.4695  0.0914 -0.3776
  307MPD2    C2 4618   0.344   0.183   0.685  0.4247  0.3990 -0.4180
  307MPD2    C3 4619   0.297   0.105   0.788 -0.2391  0.0496  0.0619
  307MPD2    C4 4620   0.333   4.695   0.796  0.6883 -0.5440  0.9220
  307MPD2    C5 4621   0.412   4.636   0.707 -0.8154  0.6845  0.3068
  307MPD2     H 4622   0.311   0.286   0.687 -0.6179  0.0068  3.2036
  307MPD2    H1 4623   0.312   4.636   0.884  0.8312 -0.9096  0.7091
  307MPD2    H2 4624   0.522   4.671   0.528 -1.0831 -1.6468 -1.0115
  307MPD2    H3 4625   0.441   4.531   0.710 -1.3696  0.4926 -0.8627
  307MPD2     N 4626   0.211   0.164   0.877  0.4375 -0.1995 -0.1519
  307MPD2    H5 4627   0.181   0.257   0.850 -0.2789  0.3242  2.4179
  307MPD2    N1 4628   0.458   0.208   0.483 -0.0774 -0.0235 -0.0460
  307MPD2    H7 4629   0.422   0.303   0.482  0.5970  0.2386  1.3637
  308TMC3    C1 4630   4.510   0.171   1.094 -0.2352  0.6982  0.1381
  308TMC3    C2 4631   4.518   0.303   1.127 -0.0238  0.4877  0.0166
  308TMC3    C3 4632   4.643   0.361   1.121  0.2172 -0.9321 -0.4107
  308TMC3    C4 4633   4.619   0.106   1.041 -0.2110  0.7028  0.2846
  308TMC3    C5 4634   0.012   0.175   1.020 -0.1350 -0.0118 -0.3141
  308TMC3    C6 4635   0.028   0.297   1.068  0.2791  0.3949  0.4378
  308TMC3     C 4636   4.386   0.118   1.055 -0.0983  0.0635 -1.0148
  308TMC3     O 4637   4.373   4.718   1.058  0.0937 -0.4784  0.3714
  308TMC3     H 4638   4.439   0.367   1.161  0.1272  0.1647  0.9796
  308TMC3    H1 4639   4.589   0.007   1.008 -0.2312  1.3152 -1.5229
  308TMC3    H2 4640   0.125   0.345   1.067  0.3922  0.1643  0.1658
  308TMC3    C7 4641   0.131   0.101   0.972 -0.5632 -0.5050  0.4481
  308TMC3    C8 4642   4.665   0.476   1.204  0.2791  0.3275 -0.1834
  308TMC3    O1 4643   0.139   4.711   1.023 -0.1119  0.2135 -0.0117
  308TMC3    O2 4644   4.591   0.498   1.296  0.1761 -0.1543 -0.0860
  309MPD2     C 4645   4.252   0.713  17.519  0.1958 -0.4032 -0.5647
  309MPD2    C1 4646   4.230   0.813  17.427  0.1623  0.1689 -0.5684
  309MPD2    C2 4647   4.125   0.899  17.452 -0.6698 -0.2014 -0.2727
  309MPD2    C3 4648   4.054   0.893  17.571  0.0293  0.7852 -0.0953
  309MPD2    C4 4649   4.073   0.788  17.663  0.0091 -0.1807 -0.4001
  309MPD2    C5 4650   4.174   0.701  17.633 -0.1210  0.3166  0.3491
  309MPD2     H 4651   4.097   0.978  17.383 -0.2300 -0.0805 -0.3144
  309MPD2    H1 4652   4.019   0.788   0.064 -1.0619 -0.7940 -1.0145
  309MPD2    H2 4653   4.323   0.633  17.501  1.0159 -0.0792  1.2031
  309MPD2    H3 4654   4.208   0.629   0.014  0.7221 -1.2933 -1.6285
  309MPD2     N 4655   3.946   0.985  17.596 -0.1404 -0.5002 -0.9053
  309MPD2    H5 4656   3.897   0.974  17.685  0.5551  1.6166 -0.2771
  309MPD2    N1 4657   4.299   0.834  17.306 -0.4269  0.1628  0.2148
  309MPD2    H7 4658   4.265   0.899  17.236  2.2171 -0.0593 -1.2670
  310TMC3    C1 4659   4.473   0.790  17.148 -0.0140 -0.2441  0.1125
  310TMC3    C2 4660   4.392   0.827  17.042  0.8589  0.3478 -0.1423
  310TMC3    C3 4661   4.450   0.820  16.917 -0.5599  0.4379 -0.4417
  310TMC3    C4 4662   4.610   0.779  17.125 -1.1990 -0.1727  0.4934
  310TMC3    C5 4663   4.665   0.776  16.998  0.5764 -0.2589 -0.4768
  310TMC3    C6 4664   4.580   0.798  16.890 -0.8299  0.1929 -0.1112
  310TMC3     C 4665   4.417   0.762  17.280  0.0744 -0.7561  0.5036
  310TMC3     O 4666   4.491   0.694  17.353 -0.3936  0.1580  0.1013
  310TMC3     H 4667   4.283   0.825  17.047  0.8742  0.8519  0.4354
  310TMC3    H1 4668   4.679   0.757  17.207 -0.5744  1.8718  0.5200
  310TMC3    H2 4669   4.624   0.817  16.793 -0.2584 -1.0624 -0.1068
  310TMC3    C7 4670   0.088   0.774  16.971 -0.7357  0.1775  0.7773
  310TMC3    C8 4671   4.369   0.882  16.815 -0.0036 -0.1499  0.0024
  310TMC3    O1 4672   0.123   0.778  16.858  0.0136  0.1031 -0.1223
  310TMC3    O2 4673   4.408   0.859  16.700  0.2138  0.0788  0.1889
  311MPD2     C 4674   1.636   1.865  12.883 -0.7732  0.4128  0.0232
  311MPD2    C1 4675   1.658   1.990  12.826 -0.4626  0.2322  0.7650
  311MPD2    C2 4676   1.552   2.067  12.790 -0.2815  0.4453 -0.2969
  311MPD2    C3 4677   1.420   2.034  12.817  0.6586 -0.0636  0.3123
  311MPD2    C4 4678   1.403   1.908  12.860  0.3668  0.0857  0.2218
  311MPD2    C5 4679   1.508   1.828  12.893 -0.4993 -0.3320 -0.9700
  311MPD2     H 4680   1.575   2.168  12.758 -0.2375  0.4036 -0.3942
  311MPD2    H1 4681   1.305   1.870  12.886  0.2373  0.2847  0.0122
  311MPD2    H2 4682   1.710   1.796  12.922 -2.2756 -0.5260  1.2081
  311MPD2    H3 4683   1.483   1.732  12.938 -0.7052 -1.0049 -2.5333
  311MPD2     N 4684   1.318   2.122  12.779 -0.3441 -0.2333  0.0258
  311MPD2    H5 4685   1.340   2.218  12.753 -2.2627  0.3767  0.6613
  311MPD2    N1 4686   1.789   2.043  12.811  0.4653 -0.3347 -0.6868
  311MPD2    H7 4687   1.806   2.130  12.761 -1.1819  1.3342  1.6197
  312TMC3    C1 4688   1.095   2.207  12.771 -0.0335  0.8936 -0.4326
  312TMC3    C2 4689   0.958   2.188  12.751 -0.4129  0.2886  0.5294
  312TMC3    C3 4690   0.879   2.297  12.720  0.1252 -0.2141  0.7177
  312TMC3    C4 4691   1.150   2.335  12.779 -0.7151  0.9347  0.1212
  312TMC3    C5 4692   1.067   2.435  12.747  0.4200  0.3016  0.0719
  312TMC3    C6 4693   0.931   2.422  12.718 -0.7261 -0.8764  0.8968
  312TMC3     C 4694   1.182   2.094  12.785 -0.6703  0.7653  0.4037
  312TMC3     O 4695   1.128   1.985  12.798 -0.0497  0.0348 -0.1294
  312TMC3     H 4696   0.916   2.089  12.764  0.3032 -0.0184  0.4681
  312TMC3    H1 4697   1.251   2.363  12.808 -0.5011 -1.9637  2.1453
  312TMC3    H2 4698   0.870   2.509  12.700 -1.3943 -1.9542 -2.0867
  312TMC3    C7 4699   1.112   2.569  12.785 -0.5382 -0.4624  0.0477
  312TMC3    C8 4700   0.738   2.269  12.678 -0.4004  0.0104 -0.3294
  312TMC3    O1 4701   1.110   2.644  12.688 -0.3354 -0.2190  0.3588
  312TMC3    O2 4702   0.695   2.155  12.690  0.3354 -0.0537 -0.8013
  313MPD2     C 4703   1.156   1.141  10.927  0.1438 -0.1594  0.0438
  313MPD2    C1 4704   1.232   1.255  10.905 -0.2140 -0.0235  0.2179
  313MPD2    C2 4705   1.327   1.253  10.802  0.2516 -0.4695 -0.6337
  313MPD2    C3 4706   1.322   1.151  10.709  0.6951  0.2274  0.0506
  313MPD2    C4 4707   1.231   1.049  10.719 -0.1019 -0.8372  0.9042
  313MPD2    C5 4708   1.148   1.042  10.829  0.6309 -0.6607  0.2261
  313MPD2     H 4709   1.408   1.325  10.800 -0.3953  0.2969  0.4963
  313MPD2    H1 4710   1.213   0.978  10.640 -0.0156  0.1567 -0.0097
  313MPD2    H2 4711   1.085   1.136  11.009  1.2564 -0.8936  0.9515
  313MPD2    H3 4712   1.076   0.962  10.843  2.1167 -1.5839  2.4585
  313MPD2     N 4713   1.409   1.142  10.598  0.3047  0.5783  0.6255
  313MPD2    H5 4714   1.397   1.062  10.536 -0.5431  2.3512 -1.4953
  313MPD2    N1 4715   1.226   1.378  10.972 -0.2335 -0.2103  0.1978
  313MPD2    H7 4716   1.296   1.450  10.957 -0.7610 -0.2827 -2.5742
  314TMC3    C1 4717   1.125   1.540  11.109 -0.2650  0.2082  0.6483
  314TMC3    C2 4718   1.239   1.613  11.116 -0.2964  0.1645 -0.3351
  314TMC3    C3 4719   1.226   1.744  11.114  0.8784  0.5281  0.0547
  314TMC3    C4 4720   0.999   1.601  11.094  0.0287 -0.2541 -0.2734
  314TMC3    C5 4721   0.993   1.735  11.065 -0.0150 -0.3455 -0.1871
  314TMC3    C6 4722   1.108   1.814  11.091  0.0336  0.0578  0.9050
  314TMC3     C 4723   1.120   1.407  11.055 -0.4175 -0.2736 -0.2036
  314TMC3     O 4724   1.015   1.343  11.080 -0.1268  0.2450 -0.1455
  314TMC3     H 4725   1.329   1.559  11.140 -0.6642  0.7192  2.3556
  314TMC3    H1 4726   0.915   1.535  11.075 -0.7562  0.3552  1.0590
  314TMC3    H2 4727   1.107   1.922  11.092 -0.4406  0.0541  0.9254
  314TMC3    C7 4728   0.911   1.770  10.950 -0.5088 -0.2160 -0.6685
  314TMC3    C8 4729   1.345   1.830  11.120  0.8569  0.3963  0.2933
  314TMC3    O1 4730   0.823   1.687  10.919 -0.5188  1.1649 -0.0892
  314TMC3    O2 4731   1.320   1.950  11.114  0.0475 -0.3583 -0.1059
  315MPD2     C 4732   0.859   0.396  17.662  0.1544 -0.2007  0.5414
  315MPD2    C1 4733   0.880   0.475   0.081  0.3479 -0.0093  0.2313
  315MPD2    C2 4734   0.892   0.616   0.070  0.4285 -0.9056 -0.6070
  315MPD2    C3 4735   0.872   0.674  17.642  0.3986  0.0647  0.3661
  315MPD2    C4 4736   0.843   0.600  17.538 -0.6430  0.3541  0.8694
  315MPD2    C5 4737   0.839   0.468  17.541  0.2269 -0.1843 -0.2953
  315MPD2     H 4738   0.919   0.682   0.152 -0.0521 -2.8763  1.1403
  315MPD2    H1 4739   0.826   0.646  17.441  0.6568  2.3080  1.5852
  315MPD2    H2 4740   0.868   0.289  17.656  0.2121 -0.0519 -2.0160
  315MPD2    H3 4741   0.825   0.411  17.450  0.7913  0.6184 -0.8820
  315MPD2     N 4742   0.888   0.813  17.623  0.1173  0.3174 -0.0088
  315MPD2    H5 4743   0.910   0.869   0.013  2.1128  1.7018 -1.5088
  315MPD2    N1 4744   0.903   0.424   0.213 -0.3029  0.0720 -0.3262
  315MPD2    H7 4745   0.922   0.498   0.280 -0.5276 -1.6951  1.6887
  316TMC3    C1 4746   0.916   1.011  17.516  0.2198 -0.8942 -0.4583
  316TMC3    C2 4747   1.041   1.015  17.572 -0.2444 -0.2925  0.0840
  316TMC3    C3 4748   1.098   1.143  17.575  0.3389  0.1220 -0.2507
  316TMC3    C4 4749   0.857   1.113  17.458 -0.0525 -0.6576 -0.2279
  316TMC3    C5 4750   0.923   1.232  17.456  0.5874 -0.4304  0.3987
  316TMC3    C6 4751   1.041   1.249  17.518 -0.4841 -0.5557  0.5285
  316TMC3     C 4752   0.851   0.884  17.514  1.0014  0.7610  0.2296
  316TMC3     O 4753   0.778   0.860  17.420  0.6443 -0.1947 -0.6343
  316TMC3     H 4754   1.098   0.927  17.600 -0.6101 -0.5918 -0.1087
  316TMC3    H1 4755   0.757   1.103  17.416 -0.7426 -0.4806  1.3649
  316TMC3    H2 4756   1.077   1.350  17.536 -1.4278  0.2564 -2.1600
  316TMC3    C7 4757   0.853   1.345  17.394  0.7925 -0.9959  0.2374
  316TMC3    C8 4758   1.234   1.166  17.624  0.0186 -0.1997 -0.8159
  316TMC3    O1 4759   0.736   1.324  17.370 -0.1800 -0.4333  0.4169
  316TMC3    O2 4760   1.298   1.261  17.574  0.2246  0.2338  0.6017
  317MPD2     C 4761   2.718   4.215  12.864  0.2817 -0.7778 -0.0792
  317MPD2    C1 4762   2.711   4.079  12.846 -0.9570 -0.6227  0.1495
  317MPD2    C2 4763   2.773   3.998  12.941  0.1700 -0.6920 -0.1630
  317MPD2    C3 4764   2.810   4.042  13.065 -0.0758  0.3164  0.0590
  317MPD2    C4 4765   2.800   4.177  13.086  0.0843 -0.1984  0.0349
  317MPD2    C5 4766   2.773   4.263  12.982  0.2470  0.4357 -0.5726
  317MPD2     H 4767   2.777   3.893  12.913 -3.4572 -0.8657 -0.0352
  317MPD2    H1 4768   2.823   4.218  13.183 -1.0337  0.0473  0.2003
  317MPD2    H2 4769   2.675   4.291  12.800  0.2563 -1.1311 -0.4793
  317MPD2    H3 4770   2.773   4.370  12.998 -1.5243  0.2874  0.4295
  317MPD2     N 4771   2.853   3.956  13.165  1.2774  0.2623 -0.1338
  317MPD2    H5 4772   2.837   3.859  13.142 -2.4296  0.6292  0.8193
  317MPD2    N1 4773   2.650   4.011  12.737  0.4035 -0.2852 -0.4640
  317MPD2    H7 4774   2.653   3.910  12.742 -1.1647 -0.3251 -0.4034
  318TMC3    C1 4775   2.986   3.860  13.337  0.0991  0.4887  0.4916
  318TMC3    C2 4776   2.972   3.739  13.274  0.0574  0.0928 -0.3118
  318TMC3    C3 4777   3.061   3.639  13.318  0.3232 -0.4463 -0.6423
  318TMC3    C4 4778   3.085   3.885  13.434 -0.1346 -0.0754  0.9512
  318TMC3    C5 4779   3.170   3.783  13.469 -0.4001  0.4930 -0.3771
  318TMC3    C6 4780   3.154   3.659  13.419 -0.1532 -0.5440 -0.3582
  318TMC3     C 4781   2.925   3.978  13.280 -0.2672 -0.5665 -0.4238
  318TMC3     O 4782   2.950   4.087  13.336 -0.0375 -0.3047 -0.2295
  318TMC3     H 4783   2.894   3.723  13.200 -1.5204  0.7528  1.2109
  318TMC3    H1 4784   3.091   3.974  13.495 -1.1489 -1.5292  3.1739
  318TMC3    H2 4785   3.221   3.577  13.444 -0.0587 -0.6493 -0.9384
  318TMC3    C7 4786   3.291   3.829  13.526 -0.2206 -0.5426 -0.3793
  318TMC3    C8 4787   3.038   3.504  13.281 -0.1109 -0.3725  0.6552
  318TMC3    O1 4788   3.273   3.916  13.616  0.6396 -0.0802  0.6400
  318TMC3    O2 4789   3.127   3.425  13.298  0.0716 -0.0152 -0.4730
  319MPD2     C 4790   3.637   0.849  17.235 -0.4832  0.2791 -0.1007
  319MPD2    C1 4791   3.691   0.721  17.223  0.7394  0.0517  0.0271
  319MPD2    C2 4792   3.672   0.658  17.092  0.0191 -0.6342  0.2662
  319MPD2    C3 4793   3.599   0.716  16.992 -0.7857  0.1110 -0.3188
  319MPD2    C4 4794   3.546   0.844  17.014  0.0900  0.6216 -0.0365
  319MPD2    C5 4795   3.558   0.904  17.137 -0.0313 -0.3471  0.4004
  319MPD2     H 4796   3.702   0.554  17.082  1.6842 -0.0829 -0.4446
  319MPD2    H1 4797   3.480   0.893  16.944  0.6286  0.6249 -0.5401
  319MPD2    H2 4798   3.656   0.912  17.321  0.2239  2.3314 -1.7817
  319MPD2    H3 4799   3.503   0.996  17.158 -0.6121  0.0628 -2.9660
  319MPD2     N 4800   3.572   0.658  16.868  0.1252  0.4824 -0.5264
  319MPD2    H5 4801   3.509   0.697  16.799 -1.7734 -1.9585 -0.1835
  319MPD2    N1 4802   3.763   0.653  17.327  0.2278 -0.3331  0.3781
  319MPD2    H7 4803   3.815   0.568  17.309 -0.3659 -0.6349  0.0818
  320TMC3    C1 4804   3.573   0.488  16.709 -0.3736  0.0943  0.1356
  320TMC3    C2 4805   3.527   0.582  16.618 -0.3466 -0.2252 -0.0510
  320TMC3    C3 4806   3.437   0.534  16.524 -0.0995  0.0640  0.1707
  320TMC3    C4 4807   3.546   0.356  16.707 -0.4544 -0.1562  0.4828
  320TMC3    C5 4808   3.453   0.321  16.616  0.0324 -0.3100  0.3232
  320TMC3    C6 4809   3.399   0.405  16.521 -0.3515  0.7126  0.1297
  320TMC3     C 4810   3.622   0.537  16.829  0.1325 -0.0468 -0.1233
  320TMC3     O 4811   3.698   0.461  16.890  0.0417 -0.2284 -0.2793
  320TMC3     H 4812   3.554   0.687  16.623  2.8979 -1.0293 -0.9397
  320TMC3    H1 4813   3.581   0.287  16.783 -3.0692 -0.0983  1.7370
  320TMC3    H2 4814   3.338   0.367  16.440  2.8874 -0.3257 -1.8166
  320TMC3    C7 4815   3.444   0.176  16.585 -0.2123 -0.7232  0.0180
  320TMC3    C8 4816   3.398   0.624  16.414  0.3101 -1.3151 -0.2088
  320TMC3    O1 4817   3.376   0.145  16.484  0.1134 -0.2992 -0.2856
  320TMC3    O2 4818   3.459   0.728  16.402 -0.5786 -0.1067  0.5046
  321TMC3    C1 4819   3.790   0.581  17.558 -0.4014  0.4904  0.1997
  321TMC3    C2 4820   3.777   0.449  17.522 -0.1462  0.0977  0.6758
  321TMC3    C3 4821   3.741   0.363  17.619 -0.1437  0.0601  0.9712
  321TMC3    C4 4822   3.768   0.631  17.686 -0.6606  0.2398 -0.0933
  321TMC3    C5 4823   3.744   0.542   0.094  0.1453  0.2716 -0.4956
  321TMC3    C6 4824   3.709   0.412   0.054 -0.5416 -0.6386 -0.4342
  321TMC3     C 4825   3.769   0.690  17.462  0.4755  0.1399 -0.3140
  321TMC3     O 4826   3.717   0.790  17.512  0.3173 -0.6883  0.4053
  321TMC3     H 4827   3.786   0.419  17.418 -1.1742  1.6673  0.1374
  321TMC3    H1 4828   3.793   0.735   0.016  1.2714  0.2529 -2.3124
  321TMC3    H2 4829   3.689   0.331   0.124  2.8990 -1.5883 -0.5420
  321TMC3    C7 4830   3.847   0.550   0.202  0.4216 -0.6456 -0.1075
  321TMC3    C8 4831   3.808   0.234  17.618 -0.4947 -0.4877  0.2315
  321TMC3    O1 4832   3.886   0.662   0.219  0.3550 -0.4904  0.6672
  321TMC3    O2 4833   3.858   0.201   0.033 -0.5362  0.4531 -0.2094
  322MPD2     C 4834   2.746   1.625  13.608  0.3904 -1.2662  0.5610
  322MPD2    C1 4835   2.738   1.558  13.729 -0.1954 -0.2483  0.5409
  322MPD2    C2 4836   2.742   1.424  13.728  0.3705 -0.2088 -0.2766
  322MPD2    C3 4837   2.776   1.361  13.605 -0.6528 -0.2307  0.3244
  322MPD2    C4 4838   2.774   1.434  13.486  0.5397 -0.8851  0.3698
  322MPD2    C5 4839   2.752   1.565  13.489  0.1633 -0.4795  0.4762
  322MPD2     H 4840   2.758   1.375  13.824 -1.3690 -0.1086  0.0579
  322MPD2    H1 4841   2.791   1.383  13.392 -0.4600  1.3973 -1.0482
  322MPD2    H2 4842   2.738   1.733  13.610  1.2948 -1.1775 -1.0767
  322MPD2    H3 4843   2.736   1.610  13.392  1.4137 -0.7155  0.1588
  322MPD2     N 4844   2.794   1.219  13.610  0.2627  0.5691 -0.4638
  322MPD2    H5 4845   2.783   1.177  13.702  2.3907  1.0416  0.0057
  322MPD2    N1 4846   2.731   1.637  13.845  0.4247 -0.5925 -0.5210
  322MPD2    H7 4847   2.745   1.737  13.832 -0.3725 -0.3475  0.4919
  323TMC3    C1 4848   2.697   1.692  14.073  0.3739 -0.7868  0.5441
  323TMC3    C2 4849   2.722   1.826  14.032  0.7518 -0.2423  0.5889
  323TMC3    C3 4850   2.764   1.910  14.141  0.5487 -0.0166  0.2310
  323TMC3    C4 4851   2.724   1.639  14.199  0.4953  0.6446  0.0559
  323TMC3    C5 4852   2.757   1.730  14.297  0.3196  0.0600 -0.1017
  323TMC3    C6 4853   2.778   1.860  14.269 -0.3918 -0.2285 -0.2856
  323TMC3     C 4854   2.691   1.594  13.970 -0.0152  0.5042  0.4893
  323TMC3     O 4855   2.639   1.487  13.991  0.1550 -0.2142  0.1888
  323TMC3     H 4856   2.688   1.867  13.937 -0.9171 -1.7895  0.5214
  323TMC3    H1 4857   2.702   1.538  14.231  1.1550  0.3033 -0.5732
  323TMC3    H2 4858   2.826   1.924  14.342  0.9298 -0.0877 -1.2884
  323TMC3    C7 4859   2.786   1.674  14.430  1.0767  0.7224  0.1836
  323TMC3    C8 4860   2.867   2.006  14.109 -0.2370 -0.0705  0.3482
  323TMC3    O1 4861   2.845   1.569  14.444  0.0974  0.1797 -0.4548
  323TMC3    O2 4862   2.970   1.976  14.164  0.2352 -0.1841  0.2430
  324MPD2     C 4863   4.398   2.902  13.781  0.2217 -0.3082 -0.6696
  324MPD2    C1 4864   4.343   2.920  13.908 -0.0504 -0.6030  0.0359
  324MPD2    C2 4865   4.212   2.940  13.913 -0.5750  0.0200  0.3599
  324MPD2    C3 4866   4.128   2.918  13.804  0.2107 -0.7843  0.2977
  324MPD2    C4 4867   4.179   2.898  13.677 -0.3574  0.1409  0.2731
  324MPD2    C5 4868   4.316   2.893  13.670 -0.2337 -0.4381 -0.4631
  324MPD2     H 4869   4.159   2.957  14.006 -0.1992 -0.1340  0.6015
  324MPD2    H1 4870   4.111   2.883  13.593 -0.2703 -2.8149  0.7618
  324MPD2    H2 4871   4.505   2.893  13.764  0.6451  3.8500 -0.2799
  324MPD2    H3 4872   4.354   2.890  13.569 -1.2372  1.5468 -0.9046
  324MPD2     N 4873   3.983   2.918  13.820  0.0575  0.2975  0.0525
  324MPD2    H5 4874   3.922   2.878  13.749 -0.2992  2.1168 -0.6543
  324MPD2    N1 4875   4.418   2.937  14.027  0.3946  0.1501  0.6552
  324MPD2    H7 4876   4.369   2.952  14.115  1.2239 -1.5326  1.4262
  325TMC3    C1 4877   3.778   2.966  13.910 -0.1716  0.0548 -0.0433
  325TMC3    C2 4878   3.717   2.848  13.861  0.1074  0.5187  0.1696
  325TMC3    C3 4879   3.581   2.840  13.856  0.8733  0.1381 -0.3356
  325TMC3    C4 4880   3.696   3.073  13.946  0.1427  0.2295  0.7387
  325TMC3    C5 4881   3.556   3.066  13.929  0.1463  0.1848 -0.3452
  325TMC3    C6 4882   3.497   2.948  13.890 -0.3987 -0.0702 -0.0704
  325TMC3     C 4883   3.920   2.985  13.921  0.4506 -0.7569  0.0184
  325TMC3     O 4884   3.967   3.062  14.004 -0.1839 -0.1143 -0.3460
  325TMC3     H 4885   3.781   2.760  13.859  0.0356  0.4820 -0.8961
  325TMC3    H1 4886   3.741   3.164  13.984 -0.5143  0.3195  1.2974
  325TMC3    H2 4887   3.390   2.942  13.870 -0.3905 -0.2127 -0.0698
  325TMC3    C7 4888   3.494   3.185  13.884 -0.7031  0.1152  0.2609
  325TMC3    C8 4889   3.527   2.717  13.803 -1.0701 -0.3120 -0.4330
  325TMC3    O1 4890   3.440   3.173  13.772  0.5586 -0.1822 -0.1134
  325TMC3    O2 4891   3.619   2.647  13.769  0.5725  0.3907  0.6152
  326MPD2     C 4892   0.575   4.076  11.219  0.1312 -0.8193 -0.5835
  326MPD2    C1 4893   0.638   4.061  11.092 -0.0571 -0.7935  0.8163
  326MPD2    C2 4894   0.763   4.111  11.071  0.0057 -0.1202 -0.1719
  326MPD2    C3 4895   0.829   4.184  11.174  0.6138  0.4282  0.3988
  326MPD2    C4 4896   0.762   4.209  11.291 -0.6427 -0.8358 -0.5584
  326MPD2    C5 4897   0.641   4.153  11.312 -0.0348 -0.7100  0.4632
  326MPD2     H 4898   0.818   4.081  10.982  0.3416  1.5822 -0.5406
  326MPD2    H1 4899   0.806   4.266  11.371 -0.4446 -1.5787 -0.1408
  326MPD2    H2 4900   0.484   4.022  11.239  0.9358 -1.4912  1.2927
  326MPD2    H3 4901   0.603   4.175  11.412 -1.2844 -0.2097 -0.1284
  326MPD2     N 4902   0.970   4.222  11.169 -0.8383  0.2314  0.2874
  326MPD2    H5 4903   1.009   4.280  11.242  0.8665 -1.0129  0.3721
  326MPD2    N1 4904   0.590   3.977  10.988 -0.0216 -0.6767 -0.2558
  326MPD2    H7 4905   0.648   3.972  10.905  0.4909  2.5231 -0.0651
  327TMC3    C1 4906   0.449   3.840  10.876 -0.2681  0.6706  0.6467
  327TMC3    C2 4907   0.344   3.880  10.800 -0.0963  0.1066  0.0650
  327TMC3    C3 4908   0.360   3.871  10.663  0.3383 -0.0460 -0.5305
  327TMC3    C4 4909   0.561   3.779  10.823 -0.2740  0.0727  0.5051
  327TMC3    C5 4910   0.576   3.769  10.689  0.6173 -0.5210  0.3178
  327TMC3    C6 4911   0.476   3.818  10.613 -0.4505 -0.9731  0.0132
  327TMC3     C 4912   0.468   3.917  10.997 -0.1837 -0.0606 -0.8953
  327TMC3     O 4913   0.367   3.954  11.050  0.0929 -0.2476 -0.1551
  327TMC3     H 4914   0.256   3.932  10.837  0.2241  1.0554 -0.4825
  327TMC3    H1 4915   0.639   3.744  10.890 -1.0526  0.2914  1.5309
  327TMC3    H2 4916   0.496   3.830  10.507 -2.0295 -1.0678 -0.2965
  327TMC3    C7 4917   0.711   3.779  10.639 -0.5874  0.4150 -0.1471
  327TMC3    C8 4918   0.320   3.984  10.583 -0.5244  0.2716  0.0249
  327TMC3    O1 4919   0.726   3.821  10.525 -0.3930  0.3790 -0.0720
  327TMC3    O2 4920   0.411   4.040  10.526 -0.1070  0.1395 -0.2443
  328MPD2     C 4921   3.416   3.774  17.465  0.1244 -0.4321 -0.6458
  328MPD2    C1 4922   3.301   3.752  17.397 -0.3617  0.1966 -0.0278
  328MPD2    C2 4923   3.270   3.838  17.287  0.1649 -0.0628  0.1937
  328MPD2    C3 4924   3.363   3.940  17.263  0.0514 -1.3824 -0.7491
  328MPD2    C4 4925   3.470   3.967  17.341 -0.2383  0.5482  0.6165
  328MPD2    C5 4926   3.493   3.877  17.434  0.4484 -0.0578 -0.4365
  328MPD2     H 4927   3.177   3.825  17.232  1.3564  1.3044 -2.1350
  328MPD2    H1 4928   3.550   4.033  17.307 -0.9354  0.5853 -0.9746
  328MPD2    H2 4929   3.455   3.710  17.544  0.1156  0.6427  0.2255
  328MPD2    H3 4930   3.584   3.880  17.494  1.1108  0.1439 -1.4492
  328MPD2     N 4931   3.345   4.039  17.161  0.9601  0.0637 -0.5186
  328MPD2    H5 4932   3.387   4.131  17.162  1.8952 -0.3621 -0.3384
  328MPD2    N1 4933   3.217   3.650  17.435 -0.0218  0.5856  0.7818
  328MPD2    H7 4934   3.241   3.586  17.510  0.2475 -2.0048 -1.5219
  329TMC3    C1 4935   3.030   3.505  17.427  0.0116  0.1560 -0.1395
  329TMC3    C2 4936   2.888   3.506  17.443  0.7517 -0.6585  0.4100
  329TMC3    C3 4937   2.821   3.399  17.404  0.3420 -0.3316 -0.0078
  329TMC3    C4 4938   3.096   3.396  17.388  0.0560 -0.1994  0.0550
  329TMC3    C5 4939   3.021   3.286  17.359 -0.5214 -0.2262  0.0313
  329TMC3    C6 4940   2.881   3.284  17.366 -1.0048  0.7107 -0.7711
  329TMC3     C 4941   3.088   3.625  17.391  0.6349  0.0567  0.3090
  329TMC3     O 4942   3.006   3.712  17.353 -0.0194  0.1367 -0.0500
  329TMC3     H 4943   2.835   3.600  17.455 -0.1303 -1.2324  1.0419
  329TMC3    H1 4944   3.203   3.391  17.368 -0.0051 -0.8053 -0.1464
  329TMC3    H2 4945   2.828   3.200  17.323 -0.7401 -0.5440  1.3446
  329TMC3    C7 4946   3.100   3.186  17.285  0.7766  0.4076 -0.3332
  329TMC3    C8 4947   2.697   3.435  17.333 -0.3140 -0.0206 -1.0602
  329TMC3    O1 4948   3.221   3.189  17.297 -0.0556  0.1008 -0.3512
  329TMC3    O2 4949   2.666   3.370  17.234  0.1836 -0.6954 -0.0644
  330TMC3    C1 4950   0.943   3.967   9.879 -0.7090 -0.3507 -0.4140
  330TMC3    C2 4951   0.875   3.854   9.845  0.3042 -0.5186 -0.3885
  330TMC3    C3 4952   0.914   3.735   9.897  0.2853 -1.0813  0.5176
  330TMC3    C4 4953   1.047   3.957   9.967  0.1670  0.2564 -0.5810
  330TMC3    C5 4954   1.079   3.838  10.027 -0.0351  0.0445  0.7414
  330TMC3    C6 4955   1.017   3.721   9.988 -0.3304  0.4975 -0.8232
  330TMC3     C 4956   0.899   4.099   9.853 -0.1684 -0.2930  0.0864
  330TMC3     O 4957   0.987   4.185   9.836  0.2747  0.2694 -0.5540
  330TMC3     H 4958   0.787   3.862   9.782 -0.2240  1.0255  0.5258
  330TMC3    H1 4959   1.083   4.051  10.007 -0.8515 -0.0632  1.0644
  330TMC3    H2 4960   1.039   3.633  10.047 -2.1850 -0.1190 -1.0284
  330TMC3    C7 4961   1.178   3.819  10.134 -0.1461  0.3021 -0.4692
  330TMC3    C8 4962   0.823   3.620   9.872  0.6055 -0.7881  0.3988
  330TMC3    O1 4963   1.164   3.722  10.211 -0.3216 -0.4506 -0.0961
  330TMC3    O2 4964   0.714   3.654   9.828  0.9737  0.3498 -0.3871
  331MPD2     C 4965   3.362   2.263  12.443 -0.0258 -0.0901  0.3675
  331MPD2    C1 4966   3.485   2.320  12.410  0.2852  0.0063  0.1338
  331MPD2    C2 4967   3.545   2.269  12.303 -0.2470 -0.0472  0.3081
  331MPD2    C3 4968   3.505   2.156  12.238  0.2805  0.4892  0.0132
  331MPD2    C4 4969   3.393   2.092  12.284 -0.6724 -0.2661 -0.4508
  331MPD2    C5 4970   3.311   2.156  12.374 -0.2245 -0.2947 -0.0431
  331MPD2     H 4971   3.631   2.320  12.261 -1.0960  1.0458 -0.1134
  331MPD2    H1 4972   3.352   2.003  12.238 -0.7071  0.6432 -2.1843
  331MPD2    H2 4973   3.304   2.294  12.530  1.1789 -0.5230  1.3259
  331MPD2    H3 4974   3.220   2.114  12.416  0.0923  1.2320  2.2065
  331MPD2     N 4975   3.592   2.118  12.130  0.2010  0.0814 -0.1253
  331MPD2    H5 4976   3.674   2.176  12.114  0.0107  0.0412 -1.2690
  331MPD2    N1 4977   3.544   2.417  12.493 -0.5528 -0.5219  0.1374
  331MPD2    H7 4978   3.480   2.459  12.560  1.0017  1.3000  0.5003
  332TMC3    C1 4979   3.680   1.978  11.966 -0.4379 -0.6157 -0.0104
  332TMC3    C2 4980   3.744   2.081  11.904 -0.1686  0.6798  0.4171
  332TMC3    C3 4981   3.859   2.054  11.833 -0.2238 -0.3264  0.3952
  332TMC3    C4 4982   3.741   1.853  11.981 -0.0259  0.5611  0.2632
  332TMC3    C5 4983   3.864   1.834  11.921 -0.2179 -0.3318 -0.6963
  332TMC3    C6 4984   3.924   1.932  11.847  0.2908  0.4167 -0.3409
  332TMC3     C 4985   3.574   1.999  12.063 -0.4505 -0.3587 -0.4880
  332TMC3     O 4986   3.492   1.911  12.066 -0.0829  0.1862 -0.3009
  332TMC3     H 4987   3.684   2.169  11.883  0.6643  0.7608 -1.6346
  332TMC3    H1 4988   3.705   1.776  12.049 -0.7956  1.2641  0.6593
  332TMC3    H2 4989   4.016   1.919  11.791 -0.0873  2.1156 -1.3732
  332TMC3    C7 4990   3.949   1.735  11.978 -0.4102 -0.2657 -0.3184
  332TMC3    C8 4991   3.929   2.176  11.789  0.4504  0.2464  0.0302
  332TMC3    O1 4992   3.895   1.631  12.017  0.1599  0.5535  0.5787
  332TMC3    O2 4993   4.049   2.162  11.767 -0.2300  0.1079  0.2752
  333MPD2     C 4994   3.929   2.232  11.344  0.0050 -0.2376 -0.3049
  333MPD2    C1 4995   3.991   2.123  11.284  0.1611  0.1775  0.4733
  333MPD2    C2 4996   3.963   1.992  11.322  0.2822  0.1978  0.4383
  333MPD2    C3 4997   3.865   1.964  11.414 -0.0896 -0.0748 -0.6237
  333MPD2    C4 4998   3.802   2.073  11.474 -0.2078  0.1706  0.0747
  333MPD2    C5 4999   3.833   2.207  11.443 -0.1195  0.1002  0.2476
  333MPD2     H 5000   4.027   1.912  11.287 -0.5962  0.4236 -1.6803
  333MPD2    H1 5001   3.719   2.057  11.541  0.6157 -2.6753  0.4161
  333MPD2    H2 5002   3.957   2.335  11.328 -0.0727 -0.2627 -0.6063
  333MPD2    H3 5003   3.784   2.288  11.495 -1.2432  0.1456 -0.8757
  333MPD2     N 5004   3.839   1.827  11.447 -0.1062  0.2653  0.4383
  333MPD2    H5 5005   3.883   1.749  11.399  0.8874 -0.4775  2.5338
  333MPD2    N1 5006   4.093   2.160  11.189 -0.1542  0.1320  0.1708
  333MPD2    H7 5007   4.113   2.258  11.171  0.0377  0.4485  2.0765
  334TMC3    C1 5008   4.268   2.144  11.031  0.3153  0.0281  0.7126
  334TMC3    C2 5009   4.389   2.096  11.000  0.6515  0.9142 -0.3123
  334TMC3    C3 5010   4.473   2.176  10.913 -0.1390 -0.2622 -0.1536
  334TMC3    C4 5011   4.203   2.237  10.958  0.0972  0.3591 -0.0137
  334TMC3    C5 5012   4.281   2.304  10.864 -1.2160 -0.5254 -0.2127
  334TMC3    C6 5013   4.414   2.281  10.844  0.0143 -0.0838  0.4324
  334TMC3     C 5014   4.180   2.071  11.127 -0.7754 -0.1887  0.0375
  334TMC3     O 5015   4.171   1.948  11.120  0.1749  0.0300  0.0774
  334TMC3     H 5016   4.425   2.015  11.061  1.2327  1.0947 -0.4090
  334TMC3    H1 5017   4.100   2.270  10.965 -0.0717 -0.1586 -0.0502
  334TMC3    H2 5018   4.462   2.323  10.757  1.8766 -1.8174  0.6450
  334TMC3    C7 5019   4.219   2.392  10.765  0.0711  0.0102  0.5693
  334TMC3    C8 5020   4.593   2.113  10.859  0.0325 -1.0298 -0.5434
  334TMC3    O1 5021   4.291   2.480  10.717  0.7541 -0.5593 -0.7820
  334TMC3    O2 5022   4.608   1.999  10.881  0.3678  0.1898 -0.7269
  335TMC3    C1 5023   4.148   3.656   0.077 -0.7123  0.2565 -0.2484
  335TMC3    C2 5024   4.069   3.583  17.685 -0.4284  0.4213  0.5321
  335TMC3    C3 5025   4.107   3.573  17.559 -0.7617  0.5225 -0.0334
  335TMC3    C4 5026   4.256   3.731   0.036  0.4882  0.3606 -0.0919
  335TMC3    C5 5027   4.272   3.725  17.594  0.4464  0.4204  0.7206
  335TMC3    C6 5028   4.211   3.640  17.507  0.2485 -0.6546  0.1427
  335TMC3     C 5029   4.103   3.660   0.214 -0.1783  0.6146  0.5253
  335TMC3     O 5030   4.047   3.563   0.255  0.3462 -0.0291 -0.7498
  335TMC3     H 5031   3.987   3.520   0.026 -0.0150 -0.6668 -0.5279
  335TMC3    H1 5032   4.325   3.778   0.104 -0.7318  0.4711  1.0809
  335TMC3    H2 5033   4.243   3.632  17.404  2.3879 -1.0688  0.8572
  335TMC3    C7 5034   4.393   3.783  17.541 -0.2824  0.6802 -0.2852
  335TMC3    C8 5035   4.024   3.479  17.482  0.6147 -0.3433 -0.8154
  335TMC3    O1 5036   4.453   3.717  17.454  0.9495 -0.2222  0.0126
  335TMC3    O2 5037   3.962   3.387  17.533 -0.1665 -0.3027  0.4245
  336MPD2     C 5038   3.371   1.843  16.604  0.2435  0.2586 -0.7314
  336MPD2    C1 5039   3.414   1.791  16.483  0.2168  0.6257  0.2971
  336MPD2    C2 5040   3.494   1.679  16.488  0.4384  0.1073 -0.4470
  336MPD2    C3 5041   3.515   1.604  16.602  0.2295 -0.1144  0.4428
  336MPD2    C4 5042   3.468   1.654  16.719  0.5053  0.1936 -0.0471
  336MPD2    C5 5043   3.395   1.775  16.716 -0.6475 -0.1935 -0.3251
  336MPD2     H 5044   3.522   1.642  16.390  0.7212  2.6832 -1.3395
  336MPD2    H1 5045   3.477   1.601  16.813  0.7339  1.4071  0.6228
  336MPD2    H2 5046   3.311   1.933  16.612  1.6731  1.1625 -0.1411
  336MPD2    H3 5047   3.352   1.816  16.808 -1.9500 -1.8114 -0.2105
  336MPD2     N 5048   3.580   1.480  16.599 -0.2396 -0.0300 -0.1710
  336MPD2    H5 5049   3.584   1.432  16.688 -1.1367  1.4257  0.6655
  336MPD2    N1 5050   3.390   1.846  16.353  0.0958 -0.1338  0.5689
  336MPD2    H7 5051   3.427   1.804  16.268 -1.1754  1.4049 -0.7409
  337TMC3    C1 5052   3.303   2.010  16.198  0.7253  0.0951 -0.2758
  337TMC3    C2 5053   3.187   2.074  16.158  0.0192  0.6118  0.3499
  337TMC3    C3 5054   3.177   2.102  16.026  0.2014  0.1660  0.6206
  337TMC3    C4 5055   3.407   1.994  16.116 -0.0802 -0.1655  0.5758
  337TMC3    C5 5056   3.401   2.045  15.990  0.2384 -0.6471 -0.6239
  337TMC3    C6 5057   3.288   2.083  15.937 -0.3997 -0.2463  0.6333
  337TMC3     C 5058   3.296   1.946  16.325  0.3064  0.4273 -0.0666
  337TMC3     O 5059   3.215   1.994  16.404  0.5800  0.3636 -0.4275
  337TMC3     H 5060   3.093   2.071  16.211 -0.7239 -0.7321 -1.0257
  337TMC3    H1 5061   3.503   1.967  16.157 -0.2300  0.7205  1.4892
  337TMC3    H2 5062   3.278   2.117  15.835  2.3305  0.1507  0.5066
  337TMC3    C7 5063   3.526   2.046  15.916  0.1498 -0.0617 -0.1470
  337TMC3    C8 5064   3.052   2.150  15.976  0.1950 -0.5070  0.1318
  337TMC3    O1 5065   3.631   2.051  15.973  0.0055 -0.1265  0.0541
  337TMC3    O2 5066   2.992   2.213  16.056 -0.3333 -0.0740  0.0864
  338MPD2     C 5067   4.326   0.852   1.024  0.2619  0.1956  0.6237
  338MPD2    C1 5068   4.225   0.949   1.023  0.1023  0.5161 -0.1113
  338MPD2    C2 5069   4.266   1.080   1.022 -0.2329  0.1916  0.1366
  338MPD2    C3 5070   4.404   1.115   1.051  0.3384 -0.0292  0.2235
  338MPD2    C4 5071   4.493   1.011   1.074 -0.4711 -0.5053  0.5593
  338MPD2    C5 5072   4.456   0.877   1.056 -0.0324 -0.5069 -0.4116
  338MPD2     H 5073   4.204   1.164   0.995 -0.0300 -0.0809 -1.1641
  338MPD2    H1 5074   4.599   1.022   1.096 -0.8749  2.6035  1.0013
  338MPD2    H2 5075   4.304   0.746   1.016 -0.9957  0.7847 -3.7940
  338MPD2    H3 5076   4.522   0.792   1.070 -1.1746 -1.0675  1.6498
  338MPD2     N 5077   4.446   1.249   1.056 -0.2723  0.8649  0.2052
  338MPD2    H5 5078   4.378   1.314   1.020  1.0263 -0.3286 -4.4819
  338MPD2    N1 5079   4.098   0.915   0.985 -0.6080  0.4455  0.1933
  338MPD2    H7 5080   4.041   0.991   0.950 -2.6277 -1.5046 -0.6919
  339TMC3    C1 5081   4.555   1.443   1.115  0.8469  0.4930  0.2106
  339TMC3    C2 5082   4.527   1.478   1.246 -0.5988 -0.6016  0.7004
  339TMC3    C3 5083   4.409   1.538   1.278 -0.1976 -0.3781 -0.1880
  339TMC3    C4 5084   4.471   1.492   1.020  0.0610 -0.8616  0.2642
  339TMC3    C5 5085   4.352   1.558   1.053  0.2991 -0.4666 -0.2804
  339TMC3    C6 5086   4.316   1.568   1.183  0.0167  0.2027 -0.2011
  339TMC3     C 5087   4.558   1.297   1.112  0.1472  0.5885  0.0770
  339TMC3     O 5088   4.649   1.245   1.178 -0.4019  0.1229  0.2682
  339TMC3     H 5089   4.581   1.439   1.331 -0.3544  2.5728  2.0175
  339TMC3    H1 5090   4.493   1.467   0.917 -3.9135 -2.2211 -0.2944
  339TMC3    H2 5091   4.244   1.645   1.208  2.2516  1.5756  1.8940
  339TMC3    C7 5092   4.245   1.560   0.950 -0.4126 -0.4585 -0.0279
  339TMC3    C8 5093   4.383   1.541   1.420  0.3006 -1.0952 -0.7732
  339TMC3    O1 5094   4.267   1.582   0.832  0.0987  0.1537 -0.8997
  339TMC3    O2 5095   4.477   1.548   1.499  0.3690  0.7683 -0.1644
  340MPD2     C 5096   3.343   4.430   9.688 -0.3571  0.0497  0.5041
  340MPD2    C1 5097   3.404   4.311   9.682 -0.2162 -0.0468  0.4255
  340MPD2    C2 5098   3.478   4.256   9.788  0.1717 -0.3319 -0.3096
  340MPD2    C3 5099   3.493   4.329   9.907  0.0926 -0.8878 -0.3251
  340MPD2    C4 5100   3.430   4.454   9.919 -0.3864  0.8671 -0.0618
  340MPD2    C5 5101   3.353   4.501   9.808  0.3116 -0.3228 -0.2022
  340MPD2     H 5102   3.528   4.160   9.778 -1.9695 -1.7559  2.6036
  340MPD2    H1 5103   3.432   4.517  10.007  3.9156 -0.1980  0.5934
  340MPD2    H2 5104   3.286   4.469   9.605 -4.0935 -2.4839  1.8546
  340MPD2    H3 5105   3.292   4.589   9.826 -1.2354 -1.1165 -1.4867
  340MPD2     N 5106   3.588   4.288  10.010 -0.4738 -0.1451  0.6928
  340MPD2    H5 5107   3.607   4.356  10.083  1.6721 -1.5179  1.4152
  340MPD2    N1 5108   3.396   4.253   9.555 -0.8030  0.3998 -0.3980
  340MPD2    H7 5109   3.371   4.304   9.471 -1.1658  0.2959 -0.3522
  341TMC3    C1 5110   3.400   4.069   9.406  0.7593  0.5763  0.5550
  341TMC3    C2 5111   3.364   3.935   9.390 -0.0189  0.1520 -0.3669
  341TMC3    C3 5112   3.380   3.877   9.269 -0.0741  0.9637  0.2515
  341TMC3    C4 5113   3.462   4.140   9.303  0.6416 -0.1413  0.7515
  341TMC3    C5 5114   3.486   4.067   9.183 -0.3807 -0.7502  0.0250
  341TMC3    C6 5115   3.446   3.940   9.169 -0.0378 -0.6374 -0.0765
  341TMC3     C 5116   3.401   4.115   9.543  0.0588  0.5367 -0.6830
  341TMC3     O 5117   3.415   4.027   9.625  0.5149 -0.1631 -0.3126
  341TMC3     H 5118   3.331   3.871   9.471 -1.0105 -0.1821 -1.0507
  341TMC3    H1 5119   3.513   4.235   9.315  1.8195 -0.6022 -0.6290
  341TMC3    H2 5120   3.477   3.891   9.077 -2.0722 -0.2977 -0.9285
  341TMC3    C7 5121   3.614   4.091   9.126  0.2755  0.7859  0.5066
  341TMC3    C8 5122   3.367   3.734   9.262 -0.2443 -0.6102 -0.4579
  341TMC3    O1 5123   3.685   3.999   9.095  0.0071 -0.1950  0.4931
  341TMC3    O2 5124   3.351   3.667   9.365 -0.3907  0.0634  0.5870
  342MPD2     C 5125   1.842   2.238   0.181 -0.1960 -0.0994 -0.4429
  342MPD2    C1 5126   1.953   2.250   0.106  0.2031  0.6514 -0.2453
  342MPD2    C2 5127   2.012   2.376   0.097 -0.2564 -0.5492 -0.0080
  342MPD2    C3 5128   1.966   2.492   0.157 -0.0081  0.4333  0.1232
  342MPD2    C4 5129   1.851   2.480   0.234 -0.1917  0.6968 -0.1337
  342MPD2    C5 5130   1.784   2.354   0.243  0.0383  0.0100  0.5008
  342MPD2     H 5131   2.098   2.395   0.034 -1.3955  0.6748 -1.1819
  342MPD2    H1 5132   1.820   2.563   0.297 -1.3628  1.3968 -1.6315
  342MPD2    H2 5133   1.801   2.141   0.206  0.6671  0.0686  1.6676
  342MPD2    H3 5134   1.692   2.348   0.300  1.2523 -2.2253  2.2093
  342MPD2     N 5135   2.036   2.612   0.148 -0.6749 -0.6898 -0.6005
  342MPD2    H5 5136   2.104   2.619   0.074 -1.2017 -0.2897 -1.0433
  342MPD2    N1 5137   2.013   2.133   0.046  0.4929  0.1713  0.3299
  342MPD2    H7 5138   2.099   2.148  17.687 -0.2403  3.7619  0.2034
  343TMC3    C1 5139   2.044   1.908  17.668  0.5575  0.3530  0.2090
  343TMC3    C2 5140   2.094   1.951  17.554 -0.5368 -0.2499  0.6260
  343TMC3    C3 5141   2.130   1.855  17.460 -0.3021  0.5798  0.7845
  343TMC3    C4 5142   2.014   1.777   0.009  0.3559  0.9278 -0.0370
  343TMC3    C5 5143   2.070   1.683  17.613  0.4710  0.3520 -1.2164
  343TMC3    C6 5144   2.122   1.720  17.493  0.1473 -0.1412  0.3927
  343TMC3     C 5145   1.963   2.008   0.050  0.3158 -0.9444 -0.0878
  343TMC3     O 5146   1.865   1.958   0.105  1.0760 -0.1034 -0.5070
  343TMC3     H 5147   2.092   2.054  17.518 -1.0645 -0.2024  0.7978
  343TMC3    H1 5148   1.965   1.753   0.102  0.4976  1.9391  0.3045
  343TMC3    H2 5149   2.129   1.638  17.422  0.7596  0.7990 -0.6199
  343TMC3    C7 5150   2.069   1.541  17.644 -0.1656 -0.7197  0.2439
  343TMC3    C8 5151   2.183   1.899  17.328 -0.1178 -0.3785  0.1252
  343TMC3    O1 5152   2.064   1.462  17.548 -0.2787 -0.0273  0.0817
  343TMC3    O2 5153   2.198   2.017  17.313  0.2271  0.2960  0.3682
  344MPD2     C 5154   3.121   1.536  11.112  0.0343 -0.2402 -0.3436
  344MPD2    C1 5155   3.171   1.469  11.003 -0.8135  0.4187  0.1218
  344MPD2    C2 5156   3.195   1.533  10.883 -0.6156 -0.0609  0.4004
  344MPD2    C3 5157   3.193   1.678  10.889 -0.3160 -1.0900 -0.2184
  344MPD2    C4 5158   3.154   1.739  11.006  0.3957 -1.1677 -0.4593
  344MPD2    C5 5159   3.123   1.672  11.119  0.9718  0.0546 -0.2726
  344MPD2     H 5160   3.229   1.484  10.792 -1.4104  2.0904 -1.0637
  344MPD2    H1 5161   3.149   1.847  11.014 -2.4461 -1.4250  1.3931
  344MPD2    H2 5162   3.074   1.481  11.193 -0.6039 -0.6963 -1.0139
  344MPD2    H3 5163   3.090   1.721  11.210 -0.5425 -0.5479 -0.5094
  344MPD2     N 5164   3.255   1.757  10.788 -0.6048  0.5135 -0.9780
  344MPD2    H5 5165   3.264   1.855  10.811  0.1045 -0.0151  1.0465
  344MPD2    N1 5166   3.192   1.327  11.001 -0.9068  0.0388 -0.6890
  344MPD2    H7 5167   3.234   1.300  10.913  2.5053 -3.1442  1.9364
  345TMC3    C1 5168   3.327   1.822  10.586  0.0647  0.1662 -0.2419
  345TMC3    C2 5169   3.418   1.902  10.649  1.0893  0.3214  0.4305
  345TMC3    C3 5170   3.442   2.026  10.586  0.0163  0.1465  0.2267
  345TMC3    C4 5171   3.277   1.839  10.453  0.2320  0.4702 -0.4301
  345TMC3    C5 5172   3.306   1.957  10.390 -0.3515  0.5280 -0.6274
  345TMC3    C6 5173   3.386   2.049  10.464 -0.5012 -0.0374  0.6530
  345TMC3     C 5174   3.266   1.721  10.661  0.2690 -0.6821 -0.4184
  345TMC3     O 5175   3.214   1.631  10.604  0.7937  0.3760  0.1282
  345TMC3     H 5176   3.446   1.871  10.749  2.4390  0.2757  0.0384
  345TMC3    H1 5177   3.211   1.769  10.404 -1.0950  2.0083 -0.8399
  345TMC3    H2 5178   3.410   2.139  10.409 -0.6017 -0.0478  0.5930
  345TMC3    C7 5179   3.236   2.008  10.275 -0.2923 -0.0872 -0.3107
  345TMC3    C8 5180   3.501   2.135  10.665 -0.0690 -0.8172  0.1284
  345TMC3    O1 5181   3.255   2.127  10.250 -0.1778  0.0713 -0.0746
  345TMC3    O2 5182   3.483   2.251  10.632  0.3690  0.3810  0.3432
  346MPD2     C 5183   2.613   3.400  14.159  0.8003 -0.0155 -0.3345
  346MPD2    C1 5184   2.736   3.341  14.140 -0.6121  0.6223 -0.9426
  346MPD2    C2 5185   2.845   3.385  14.209 -0.6102 -0.1690  0.4608
  346MPD2    C3 5186   2.831   3.492  14.299  0.8039 -0.0910 -0.0153
  346MPD2    C4 5187   2.703   3.542  14.331  0.4232 -0.3466  0.6669
  346MPD2    C5 5188   2.598   3.499  14.253  0.2257 -0.7267 -0.4201
  346MPD2     H 5189   2.945   3.344  14.200  0.3433  2.0341  1.0893
  346MPD2    H1 5190   2.687   3.620  14.405  0.2514 -1.2069  1.5368
  346MPD2    H2 5191   2.528   3.365  14.102  0.3608  0.5524 -0.0274
  346MPD2    H3 5192   2.499   3.539  14.274  1.7641  1.6682  2.2327
  346MPD2     N 5193   2.942   3.528  14.375 -0.3958  0.1761 -1.4528
  346MPD2    H5 5194   3.027   3.480  14.348  0.6127 -0.0413  2.0419
  346MPD2    N1 5195   2.753   3.257  14.023 -0.4543 -0.4338 -1.0272
  346MPD2    H7 5196   2.674   3.250  13.961 -1.8997  1.9105  0.5297
  347TMC3    C1 5197   3.099   3.649  14.498 -0.7111  0.3996  1.3879
  347TMC3    C2 5198   3.176   3.664  14.387  0.4837  0.1771  0.5723
  347TMC3    C3 5199   3.305   3.690  14.409  0.1557 -0.0625  0.2825
  347TMC3    C4 5200   3.140   3.660  14.629 -0.3471 -0.0743  0.4161
  347TMC3    C5 5201   3.280   3.690  14.646 -0.6193  0.1285 -0.8743
  347TMC3    C6 5202   3.356   3.699  14.534 -0.4498 -0.1960  0.1096
  347TMC3     C 5203   2.957   3.621  14.474  0.5795 -0.0553 -0.7831
  347TMC3     O 5204   2.884   3.699  14.528  0.1676  0.0890 -0.0261
  347TMC3     H 5205   3.138   3.661  14.286  0.6488 -1.6525  0.5726
  347TMC3    H1 5206   3.080   3.630  14.714  0.2787  1.6847  1.4807
  347TMC3    H2 5207   3.454   3.744  14.543 -0.0002 -0.9407 -1.1681
  347TMC3    C7 5208   3.334   3.673  14.777 -1.0257  0.6564 -0.6476
  347TMC3    C8 5209   3.397   3.656  14.315 -0.1695  0.7979 -0.5246
  347TMC3    O1 5210   3.251   3.659  14.864  0.0010 -0.3575 -0.8616
  347TMC3    O2 5211   3.508   3.611  14.338  0.1626 -0.0829 -0.3077
  348MPD2     C 5212   1.642   3.070  12.464  0.6768  0.4281  0.2130
  348MPD2    C1 5213   1.654   2.981  12.363 -0.0766 -0.5272 -0.2797
  348MPD2    C2 5214   1.669   3.035  12.232 -0.0017 -0.0282  0.4580
  348MPD2    C3 5215   1.656   3.168  12.205 -0.7063 -0.0517 -0.3536
  348MPD2    C4 5216   1.634   3.256  12.309  0.1195 -0.5630  0.4268
  348MPD2    C5 5217   1.640   3.205  12.437 -0.1659 -0.1718  0.0572
  348MPD2     H 5218   1.673   2.971  12.145 -0.5204 -1.3956  1.4329
  348MPD2    H1 5219   1.622   3.362  12.292  1.2207 -0.6433 -0.7701
  348MPD2    H2 5220   1.643   3.040  12.568 -1.8906 -3.5139 -0.9131
  348MPD2    H3 5221   1.657   3.271  12.522 -0.5413  1.6213 -1.2684
  348MPD2     N 5222   1.671   3.213  12.073  0.3385  0.4279 -0.1900
  348MPD2    H5 5223   1.671   3.138  12.005  2.2460  0.3093 -0.0685
  348MPD2    N1 5224   1.677   2.848  12.390 -0.3773 -0.0419  0.5099
  348MPD2    H7 5225   1.723   2.799  12.313 -0.8936 -1.2758  0.9829
  349TMC3    C1 5226   1.771   2.685  12.509 -0.6142  0.0791  0.3922
  349TMC3    C2 5227   1.737   2.554  12.532 -0.9353 -0.3913  0.2803
  349TMC3    C3 5228   1.820   2.457  12.479 -0.2076  0.5049 -1.3172
  349TMC3    C4 5229   1.883   2.733  12.448  0.1353 -0.3391 -0.6126
  349TMC3    C5 5230   1.966   2.634  12.393  0.4922 -0.3460  0.7033
  349TMC3    C6 5231   1.931   2.499  12.403 -0.0052  0.7068  0.0730
  349TMC3     C 5232   1.660   2.779  12.511 -0.1863 -0.6106 -0.2353
  349TMC3     O 5233   1.564   2.790  12.593  0.4552  0.0588  0.1369
  349TMC3     H 5234   1.642   2.528  12.577 -0.9683 -1.3578 -0.3401
  349TMC3    H1 5235   1.908   2.839  12.442  1.5253 -0.4641  3.3100
  349TMC3    H2 5236   2.004   2.425  12.371 -1.0737  0.2642 -1.3328
  349TMC3    C7 5237   2.014   2.673  12.264 -0.1343  0.4823 -0.5487
  349TMC3    C8 5238   1.796   2.317  12.503 -0.2798 -0.0539 -0.0249
  349TMC3    O1 5239   1.963   2.611  12.172 -0.0673  0.0190  0.5093
  349TMC3    O2 5240   1.778   2.285  12.619 -0.6575  0.0273 -0.8900
  350MPD2     C 5241   0.875   1.095   9.999 -0.3388  0.1941 -0.2425
  350MPD2    C1 5242   0.942   0.974  10.019 -0.2376 -0.1569  0.1407
  350MPD2    C2 5243   1.078   0.977  10.051  0.6894 -0.5583 -0.1885
  350MPD2    C3 5244   1.148   1.098  10.069  0.9355  0.0458  0.3264
  350MPD2    C4 5245   1.077   1.217  10.060  0.1903 -0.0990  0.5292
  350MPD2    C5 5246   0.940   1.216  10.023  0.0004  0.3416  0.7273
  350MPD2     H 5247   1.128   0.882  10.068  1.8386 -0.0853 -0.9063
  350MPD2    H1 5248   1.126   1.313  10.067 -1.7753  1.0389 -1.3563
  350MPD2    H2 5249   0.770   1.099   9.970 -0.2878  0.1612 -0.4353
  350MPD2    H3 5250   0.896   1.313  10.004  3.6193  1.8091 -0.2728
  350MPD2     N 5251   1.285   1.096  10.098  0.6010  0.3232  0.1720
  350MPD2    H5 5252   1.328   1.004  10.101 -0.1942 -0.0465  0.2207
  350MPD2    N1 5253   0.884   0.847  10.019 -0.1427 -0.5166  0.2914
  350MPD2    H7 5254   0.941   0.764  10.009 -1.3606 -1.3300  0.0862
  351TMC3    C1 5255   0.708   0.685  10.014 -0.6566  0.8379 -0.1443
  351TMC3    C2 5256   0.795   0.578  10.044 -0.3476 -0.3292 -0.5620
  351TMC3    C3 5257   0.750   0.454  10.062  0.4020 -0.1818 -0.0469
  351TMC3    C4 5258   0.574   0.646   9.996  0.2246  0.3759 -0.3943
  351TMC3    C5 5259   0.538   0.509  10.004 -0.3950  0.7580 -0.2010
  351TMC3    C6 5260   0.625   0.411  10.040 -0.2775  0.4272 -0.2421
  351TMC3     C 5261   0.751   0.823  10.021  0.0197 -0.4312 -0.4902
  351TMC3     O 5262   0.653   0.896  10.021  0.2454 -0.1384 -0.2738
  351TMC3     H 5263   0.897   0.601  10.075 -0.5491 -1.0720  0.6132
  351TMC3    H1 5264   0.493   0.716   9.982  1.3853  1.4341 -1.7470
  351TMC3    H2 5265   0.599   0.308  10.021 -0.2933  0.9268 -3.0087
  351TMC3    C7 5266   0.410   0.474   9.942 -0.0750 -0.6246 -0.4373
  351TMC3    C8 5267   0.857   0.364  10.092 -0.5363 -0.4970 -0.0001
  351TMC3    O1 5268   0.358   0.545   9.852  0.4800 -0.0261  0.2491
  351TMC3    O2 5269   0.966   0.374  10.039  0.0906 -0.0675 -0.4220
  352MPD2     C 5270   3.473   2.969   1.824  0.6122  0.5849 -0.4681
  352MPD2    C1 5271   3.602   2.953   1.774  1.0757  0.6923  0.7411
  352MPD2    C2 5272   3.689   2.862   1.822 -0.3082  0.2204 -0.1557
  352MPD2    C3 5273   3.644   2.757   1.906  0.3992  0.3426  0.7847
  352MPD2    C4 5274   3.511   2.763   1.948 -0.8115 -0.2586  0.1980
  352MPD2    C5 5275   3.433   2.872   1.913 -0.2465 -0.4720 -0.2582
  352MPD2     H 5276   3.789   2.851   1.783  0.2891 -0.2081  1.5187
  352MPD2    H1 5277   3.463   2.696   2.018 -0.5374  1.3988  1.9528
  352MPD2    H2 5278   3.404   3.041   1.783 -0.7690 -0.2184  0.4490
  352MPD2    H3 5279   3.330   2.890   1.941 -0.2755  0.0152 -0.6973
  352MPD2     N 5280   3.716   2.645   1.941  0.4819  0.2964 -0.4684
  352MPD2    H5 5281   3.661   2.576   1.990 -0.1350 -0.0773 -1.6781
  352MPD2    N1 5282   3.638   3.033   1.667 -0.3524 -0.1984  0.0522
  352MPD2    H7 5283   3.565   3.093   1.630  2.9979  4.1560  0.3893
  353TMC3    C1 5284   3.884   2.489   1.968  0.0447  0.9949  1.0567
  353TMC3    C2 5285   4.008   2.468   2.024 -0.0803  0.6830 -0.4371
  353TMC3    C3 5286   4.044   2.334   2.030  0.3843 -0.0701  0.4991
  353TMC3    C4 5287   3.799   2.391   1.929 -1.0099  0.2692  0.0953
  353TMC3    C5 5288   3.844   2.262   1.939  0.2862  0.8690  0.3590
  353TMC3    C6 5289   3.968   2.229   1.991 -0.6386  0.0396  0.4026
  353TMC3     C 5290   3.845   2.629   1.943  0.3156 -0.2244  0.1401
  353TMC3     O 5291   3.928   2.714   1.923 -0.6329 -0.4566 -0.6470
  353TMC3     H 5292   4.086   2.542   2.035  1.5236 -1.1816  0.6603
  353TMC3    H1 5293   3.704   2.407   1.878 -0.3323 -0.2078 -1.3238
  353TMC3    H2 5294   4.009   2.129   1.996  1.1044  0.8144  1.5962
  353TMC3    C7 5295   3.774   2.168   1.859  0.3944 -0.1496 -0.1595
  353TMC3    C8 5296   4.185   2.321   2.046 -0.1263  0.2849  0.8757
  353TMC3    O1 5297   3.701   2.202   1.768 -0.0434  0.4863 -0.3056
  353TMC3    O2 5298   4.242   2.402   2.118 -0.0456 -0.1032 -0.1786
  354TMC3    C1 5299   1.047   4.144  13.686  0.1552  0.0756  0.0410
  354TMC3    C2 5300   0.947   4.236  13.653  0.0495 -0.0903 -0.4081
  354TMC3    C3 5301   0.976   4.328  13.551  0.1696 -0.9590  0.3125
  354TMC3    C4 5302   1.159   4.134  13.616 -0.3090  0.0150 -0.2401
  354TMC3    C5 5303   1.181   4.210  13.508  0.4963 -0.0759 -0.0941
  354TMC3    C6 5304   1.092   4.309  13.473 -0.5495 -0.1791  0.7098
  354TMC3     C 5305   1.005   4.043  13.781  1.1127 -0.4010  0.2140
  354TMC3     O 5306   0.882   4.031  13.796  0.6630  0.2202 -0.4752
  354TMC3     H 5307   0.852   4.253  13.703 -0.3056 -1.5370 -0.6062
  354TMC3    H1 5308   1.237   4.061  13.636 -1.0868 -1.0069 -0.9736
  354TMC3    H2 5309   1.114   4.371  13.388 -2.4790 -1.9320 -1.0745
  354TMC3    C7 5310   1.249   4.143  13.406 -0.2848 -0.4082  0.9014
  354TMC3    C8 5311   0.867   4.404  13.494  0.5165  0.7995 -0.0347
  354TMC3    O1 5312   1.230   4.022  13.409  0.8845 -0.8206  0.1748
  354TMC3    O2 5313   0.758   4.371  13.540  0.2547  0.1259 -0.3784
  355MPD2     C 5314   0.904   0.260  11.695  0.2104  0.8216 -0.3026
  355MPD2    C1 5315   0.977   0.319  11.592  0.3320 -0.4065  0.0240
  355MPD2    C2 5316   1.115   0.329  11.617 -0.5204 -0.5949  0.3487
  355MPD2    C3 5317   1.175   0.276  11.731  0.3276 -0.1931  0.4790
  355MPD2    C4 5318   1.102   0.215  11.824 -0.7269  0.1718  0.2375
  355MPD2    C5 5319   0.967   0.215  11.811 -0.1722  0.1722  0.5039
  355MPD2     H 5320   1.189   0.364  11.545 -1.8583  0.9837 -0.2523
  355MPD2    H1 5321   1.137   0.172  11.918  1.2451 -0.8298 -0.9476
  355MPD2    H2 5322   0.799   0.239  11.679  0.5067 -1.0332  0.1958
  355MPD2    H3 5323   0.913   0.157  11.885 -1.1552  1.5797  0.8734
  355MPD2     N 5324   1.311   0.287  11.763 -0.1285  0.3971  0.5905
  355MPD2    H5 5325   1.341   0.253  11.854  1.2959  2.4013  0.8710
  355MPD2    N1 5326   0.905   0.355  11.473 -0.4739  0.2236 -0.2884
  355MPD2    H7 5327   0.808   0.324  11.476 -0.4334  0.1973  0.8417
  356TMC3    C1 5328   1.537   0.375  11.740 -0.0660 -0.1008  0.6121
  356TMC3    C2 5329   1.631   0.440  11.666  0.3517 -0.1829 -1.0350
  356TMC3    C3 5330   1.740   0.497  11.733 -0.3100 -0.4025 -0.4509
  356TMC3    C4 5331   1.540   0.384  11.877 -0.5084 -1.0230  0.1705
  356TMC3    C5 5332   1.643   0.451  11.940  0.2151 -0.6682 -0.3373
  356TMC3    C6 5333   1.749   0.500  11.870 -0.0370  0.7599 -0.5211
  356TMC3     C 5334   1.411   0.328  11.681  0.2765 -0.0445  0.0579
  356TMC3     O 5335   1.412   0.337  11.562 -0.0495  0.5938 -0.2629
  356TMC3     H 5336   1.628   0.433  11.557  0.2458  3.6304 -1.2516
  356TMC3    H1 5337   1.452   0.364  11.938 -2.3873  0.8755 -1.8935
  356TMC3    H2 5338   1.830   0.549  11.923 -0.6467  1.2634 -0.0515
  356TMC3    C7 5339   1.616   0.505  12.075 -0.2664  0.3876 -0.1702
  356TMC3    C8 5340   1.853   0.534  11.655  0.1471  0.3800  0.1192
  356TMC3    O1 5341   1.543   0.444  12.154  0.0904 -0.2501  0.5371
  356TMC3    O2 5342   1.836   0.497  11.539  0.2115 -0.1881 -0.1107
  357MPD2     C 5343   0.812   0.051   0.719  0.2810 -0.4981 -0.2036
  357MPD2    C1 5344   0.906   4.709   0.809 -0.5733 -0.3959 -0.7667
  357MPD2    C2 5345   0.864   4.701   0.940 -0.0088 -0.1000 -0.0165
  357MPD2    C3 5346   0.749   0.039   0.984 -0.9240  0.3068 -0.1354
  357MPD2    C4 5347   0.671   0.114   0.894  0.3227  0.1941 -0.2736
  357MPD2    C5 5348   0.714   0.128   0.763  0.6599  0.3249  0.0908
  357MPD2     H 5349   0.921   4.652   1.018  0.3649 -1.7252 -1.2902
  357MPD2    H1 5350   0.574   0.159   0.911  0.7812  0.7250  0.9203
  357MPD2    H2 5351   0.825   0.055   0.612  0.1354 -0.4031 -0.2169
  357MPD2    H3 5352   0.667   0.190   0.688 -1.7491 -1.8582 -0.1813
  357MPD2     N 5353   0.716   0.030   1.119  0.6862 -0.3876 -0.3806
  357MPD2    H5 5354   0.774   4.689   1.173 -2.3745 -1.7385  1.2945
  357MPD2    N1 5355   1.015   4.625   0.757 -0.0122  0.6799  0.5749
  357MPD2    H7 5356   1.026   4.619   0.657  1.5134 -3.0421  0.9365
  358TMC3    C1 5357   1.193   4.477   0.762  0.1732  0.1998 -0.6185
  358TMC3    C2 5358   1.132   4.377   0.685  0.2048  0.3269  0.4306
  358TMC3    C3 5359   1.188   4.249   0.681 -0.4933  0.7162 -0.1279
  358TMC3    C4 5360   1.302   4.436   0.846 -0.7011  0.5194  0.9198
  358TMC3    C5 5361   1.346   4.309   0.848  0.2432 -0.1613  0.7803
  358TMC3    C6 5362   1.288   4.214   0.771 -0.5034 -0.0702  0.3097
  358TMC3     C 5363   1.110   4.564   0.836 -0.3457  0.0486 -0.1582
  358TMC3     O 5364   1.115   4.566   0.959  0.3746 -0.3454  0.9127
  358TMC3     H 5365   1.039   4.400   0.634  0.0015  0.2616  0.7736
  358TMC3    H1 5366   1.336   4.521   0.904  2.0246 -0.8345  1.2796
  358TMC3    H2 5367   1.334   4.117   0.757 -0.0423  0.3132 -0.7985
  358TMC3    C7 5368   1.463   4.274   0.911  0.9646 -0.0125 -0.2233
  358TMC3    C8 5369   1.170   4.174   0.556 -0.4147  0.3194  0.4205
  358TMC3    O1 5370   1.528   4.183   0.858  0.0565 -0.2692  0.0298
  358TMC3    O2 5371   1.130   4.236   0.457  0.2924 -0.2302  0.2551
  359MPD2     C 5372   1.526   4.313  12.488  0.2928  0.4027 -0.5850
  359MPD2    C1 5373   1.548   4.177  12.461 -0.6976 -0.0436 -0.2489
  359MPD2    C2 5374   1.466   4.079  12.515 -0.2445  0.1084 -0.1534
  359MPD2    C3 5375   1.364   4.115  12.603 -0.6241  0.2848 -0.1675
  359MPD2    C4 5376   1.338   4.246  12.626  0.4155 -0.0104  0.5224
  359MPD2    C5 5377   1.425   4.338  12.573 -0.2716 -0.0563  0.3622
  359MPD2     H 5378   1.480   3.975  12.488 -1.0986 -0.0929  0.1809
  359MPD2    H1 5379   1.251   4.270  12.687 -0.8267  1.1621 -1.6812
  359MPD2    H2 5380   1.576   4.403  12.452 -1.0347  1.3505 -0.0596
  359MPD2    H3 5381   1.418   4.443  12.597  1.1187  0.2002 -0.3928
  359MPD2     N 5382   1.268   4.028  12.644  0.2017  0.3187  0.2092
  359MPD2    H5 5383   1.189   4.073  12.689  0.4015  0.7493  0.1281
  359MPD2    N1 5384   1.654   4.138  12.371  0.2441  0.0709  0.1424
  359MPD2    H7 5385   1.664   4.043  12.337 -3.7147 -0.3997  0.2746
  360TMC3    C1 5386   1.798   4.148  12.189 -0.1801  0.2229 -0.4411
  360TMC3    C2 5387   1.921   4.190  12.159  0.3292  0.2527 -0.6635
  360TMC3    C3 5388   1.978   4.138  12.048 -0.2050 -0.2996  0.4764
  360TMC3    C4 5389   1.742   4.035  12.142 -1.0201  0.0627 -0.7159
  360TMC3    C5 5390   1.817   3.965  12.052 -0.0454  0.1603  0.0003
  360TMC3    C6 5391   1.926   4.021  11.996 -0.2761 -0.1417 -0.5091
  360TMC3     C 5392   1.728   4.225  12.296 -0.0793  0.0816  0.5316
  360TMC3     O 5393   1.727   4.348  12.297  0.9492  0.6885 -0.1050
  360TMC3     H 5394   1.952   4.284  12.203  0.1864 -0.0837  0.1548
  360TMC3    H1 5395   1.635   4.018  12.153 -0.8497 -0.3374  0.3039
  360TMC3    H2 5396   1.978   3.970  11.916  0.7235  2.4825 -1.5391
  360TMC3    C7 5397   1.752   3.868  11.958 -0.0922 -0.6554 -0.0473
  360TMC3    C8 5398   2.105   4.189  12.003 -0.2334 -0.0722  0.2950
  360TMC3    O1 5399   1.813   3.831  11.856 -0.5245  0.5829  0.5137
  360TMC3    O2 5400   2.124   4.312  12.004  0.0665 -0.1023 -0.1183
  361MPD2     C 5401   3.267   2.990  17.581 -0.3515  0.3609 -0.5923
  361MPD2    C1 5402   3.192   2.888  17.538 -0.6658  0.0525  0.3039
  361MPD2    C2 5403   3.258   2.773  17.503  0.2420 -0.0007  0.9334
  361MPD2    C3 5404   3.396   2.756  17.500  1.0062 -0.3527 -0.9882
  361MPD2    C4 5405   3.472   2.868  17.537 -0.4123  0.4077 -0.0552
  361MPD2    C5 5406   3.404   2.987  17.572  0.4287 -0.4001  0.1810
  361MPD2     H 5407   3.191   2.692  17.478  0.2357 -0.2684  1.8289
  361MPD2    H1 5408   3.580   2.853  17.533 -0.4736  0.0908 -0.5708
  361MPD2    H2 5409   3.225   3.079  17.626 -0.5238  0.3017 -0.6350
  361MPD2    H3 5410   3.458   3.073  17.609  0.3333 -0.4137  0.3484
  361MPD2     N 5411   3.464   2.629  17.476 -0.5728  0.3872  0.0768
  361MPD2    H5 5412   3.562   2.626  17.505 -0.0489 -0.5385 -1.8251
  361MPD2    N1 5413   3.047   2.886  17.534  0.1179  0.3147  0.3545
  361MPD2    H7 5414   3.003   2.808  17.485  0.1346 -0.0871  0.9691
  362TMC3    C1 5415   2.831   2.942  17.597 -0.0870  0.5556 -0.9196
  362TMC3    C2 5416   2.758   3.007   0.001 -0.3191  0.2722 -0.2792
  362TMC3    C3 5417   2.631   3.046  17.663 -0.5965 -0.8441 -0.5127
  362TMC3    C4 5418   2.775   2.907  17.475  0.1485 -0.0351 -0.3296
  362TMC3    C5 5419   2.648   2.947  17.450  0.0580 -0.5308  0.0631
  362TMC3    C6 5420   2.581   3.023  17.539  1.0658 -0.2572 -0.0438
  362TMC3     C 5421   2.972   2.974  17.602 -0.7871 -0.7431  1.0015
  362TMC3     O 5422   3.007   3.058  17.687 -0.9381 -0.3726  0.4772
  362TMC3     H 5423   2.804   3.048   0.090 -3.1235  0.1952  1.2000
  362TMC3    H1 5424   2.832   2.860  17.396 -0.2772  0.6459 -1.0372
  362TMC3    H2 5425   2.480   3.048  17.508  0.9884 -1.3547 -0.6946
  362TMC3    C7 5426   2.610   2.971  17.313  0.3270  0.7305 -0.1839
  362TMC3    C8 5427   2.566   3.123   0.074  0.1590  0.1149  0.8451
  362TMC3    O1 5428   2.560   3.083  17.289 -0.4369  0.0814  1.0384
  362TMC3    O2 5429   2.610   3.118   0.185 -0.0902  0.0847  0.6182
  363TMC3    C1 5430   2.178   0.446   9.875  0.3720 -0.2259 -0.2302
  363TMC3    C2 5431   2.117   0.363   9.962 -0.2106  0.1851 -0.2631
  363TMC3    C3 5432   1.981   0.374   9.982  0.4209 -0.5355 -0.0165
  363TMC3    C4 5433   2.112   0.545   9.819  0.5087  0.2212  0.1305
  363TMC3    C5 5434   1.982   0.563   9.843 -0.6518 -0.7372 -0.0478
  363TMC3    C6 5435   1.914   0.476   9.925 -0.1615 -0.7137  0.6050
  363TMC3     C 5436   2.323   0.438   9.857  0.3431  0.1336 -0.1789
  363TMC3     O 5437   2.370   0.527   9.789  0.0451 -0.2148 -0.2374
  363TMC3     H 5438   2.173   0.294  10.025  0.6525 -0.8790 -2.2054
  363TMC3    H1 5439   2.163   0.603   9.742  1.6328 -1.8271 -0.6777
  363TMC3    H2 5440   1.806   0.484   9.933  0.0143  0.7054  1.6603
  363TMC3    C7 5441   1.909   0.659   9.760 -0.0919 -0.7191  0.4906
  363TMC3    C8 5442   1.912   0.273  10.058 -0.4123 -0.2624 -0.4441
  363TMC3    O1 5443   1.788   0.652   9.769  0.3489 -0.0890  0.7071
  363TMC3    O2 5444   1.806   0.304  10.108  0.2224 -0.0116 -0.2216
  364MPD2     C 5445   4.712   4.332  10.393 -0.1710 -0.2207  0.4099
  364MPD2    C1 5446   0.128   4.326  10.381 -0.3507 -0.8458  0.1172
  364MPD2    C2 5447   0.189   4.211  10.437 -0.4837 -0.2735  0.5077
  364MPD2    C3 5448   0.119   4.116  10.504  0.1038  0.4797  0.4923
  364MPD2    C4 5449   4.709   4.132  10.518 -0.5549  0.2359 -0.4822
  364MPD2    C5 5450   4.649   4.240  10.464  0.3247 -0.4845  0.0074
  364MPD2     H 5451   0.297   4.202  10.439 -0.7349 -3.8872 -1.7096
  364MPD2    H1 5452   4.647   4.059  10.570  0.2269  1.3311  1.9386
  364MPD2    H2 5453   4.657   4.417  10.354 -0.1169 -0.8354 -0.9870
  364MPD2    H3 5454   4.541   4.246  10.476  0.9718  2.1988  4.4808
  364MPD2     N 5455   0.179   4.006  10.573 -0.4378  0.7341 -0.0894
  364MPD2    H5 5456   0.116   3.939  10.618  0.7958 -1.0785 -1.0640
  364MPD2    N1 5457   0.199   4.437  10.312 -0.4471  0.3060  0.6069
  364MPD2    H7 5458   0.144   4.520  10.289  3.7833  2.7818 -0.4707
  365TMC3    C1 5459   0.382   4.543  10.222  0.5250 -0.3697  0.1068
  365TMC3    C2 5460   0.475   4.523  10.123 -0.6098 -0.1040 -0.2096
  365TMC3    C3 5461   0.585   4.599  10.109  1.1314  0.4165 -0.0417
  365TMC3    C4 5462   0.390   4.650  10.298  0.1985 -0.2768 -0.1680
  365TMC3    C5 5463   0.496   0.011  10.276 -0.2411  0.0739  0.4904
  365TMC3    C6 5464   0.580   4.720  10.169 -0.0099  0.3708 -0.2597
  365TMC3     C 5465   0.331   4.424  10.271  0.2220 -0.0711 -0.7910
  365TMC3     O 5466   0.389   4.321  10.262  0.1775  0.0554 -0.2471
  365TMC3     H 5467   0.458   4.437  10.059 -0.7350  1.4835 -2.3300
  365TMC3    H1 5468   0.327   4.670  10.383  0.4844 -0.7907  0.1655
  365TMC3    H2 5469   0.671   0.057  10.174  0.3939 -0.5418  3.2095
  365TMC3    C7 5470   0.502   0.148  10.338 -0.3609 -0.1002  0.0669
  365TMC3    C8 5471   0.711   4.531  10.112 -0.0148 -0.4365 -0.2999
  365TMC3    O1 5472   0.523   0.242  10.269 -0.4612  0.3351 -0.2201
  365TMC3    O2 5473   0.811   4.601  10.092 -0.5719 -0.3632 -0.4084
  366MPD2     C 5474   3.753   0.669  15.231  0.4670 -0.6430 -0.0191
  366MPD2    C1 5475   3.727   0.709  15.361 -0.0028 -0.5494 -0.3444
  366MPD2    C2 5476   3.819   0.683  15.465  0.1032 -0.0096 -0.9323
  366MPD2    C3 5477   3.941   0.632  15.435 -0.2984  0.2198 -0.2333
  366MPD2    C4 5478   3.958   0.573  15.309  0.1195 -1.2241  0.1690
  366MPD2    C5 5479   3.863   0.586  15.211 -1.0343  0.5400 -0.0385
  366MPD2     H 5480   3.815   0.730  15.563  0.2607  2.0664 -1.9344
  366MPD2    H1 5481   4.042   0.512  15.276 -1.2482 -1.0854 -3.5528
  366MPD2    H2 5482   3.684   0.690  15.150  1.9289 -3.0364 -1.8829
  366MPD2    H3 5483   3.867   0.546  15.111 -2.3087 -3.0629  1.3352
  366MPD2     N 5484   4.038   0.638  15.530 -0.5386  0.4196 -0.2393
  366MPD2    H5 5485   4.009   0.689  15.613 -2.0572  1.2880 -1.3114
  366MPD2    N1 5486   3.632   0.803  15.391  0.0123 -0.3185  0.3848
  366MPD2    H7 5487   3.622   0.835  15.487 -1.2045  1.0500 -0.2084
  367TMC3    C1 5488   3.526   1.004  15.348 -0.0146 -0.2219 -0.1230
  367TMC3    C2 5489   3.604   1.070  15.440  0.1412 -0.0908 -0.6809
  367TMC3    C3 5490   3.570   1.187  15.494 -0.4212 -0.6058  0.6015
  367TMC3    C4 5491   3.413   1.055  15.295 -0.4004 -0.6530 -0.9354
  367TMC3    C5 5492   3.377   1.175  15.351  1.3273  0.7011 -0.2149
  367TMC3    C6 5493   3.451   1.238  15.452  0.0313 -0.1767  0.8471
  367TMC3     C 5494   3.573   0.881  15.298  0.2329 -0.1702  0.4456
  367TMC3     O 5495   3.545   0.862  15.176  0.1676 -0.2835 -0.3392
  367TMC3     H 5496   3.705   1.039  15.465 -0.1823 -0.0335  0.6846
  367TMC3    H1 5497   3.345   1.003  15.227 -0.8639 -1.1532 -0.0942
  367TMC3    H2 5498   3.411   1.319  15.513  0.0501  0.8173 -0.4606
  367TMC3    C7 5499   3.249   1.241  15.315 -0.0810  0.1337 -0.4377
  367TMC3    C8 5500   3.655   1.246  15.601 -0.7519  1.3528  0.2914
  367TMC3    O1 5501   3.193   1.329  15.376  0.3928  0.1053 -0.2820
  367TMC3    O2 5502   3.718   1.167  15.663 -0.2725  0.2762  0.4877
  368MPD2     C 5503   4.460   3.336  13.047  0.4018 -0.1639 -0.1835
  368MPD2    C1 5504   4.425   3.347  12.913  0.8930  0.2828  0.5560
  368MPD2    C2 5505   4.523   3.343  12.815  0.3999  0.1305 -0.2706
  368MPD2    C3 5506   4.653   3.313  12.852  0.4404  0.3140 -0.5786
  368MPD2    C4 5507   4.679   3.284  12.986 -0.3500 -0.3548  0.2419
  368MPD2    C5 5508   4.584   3.308  13.081 -0.2411  0.3681  0.3615
  368MPD2     H 5509   4.491   3.349  12.712 -0.0441 -0.0130 -0.1421
  368MPD2    H1 5510   0.048   3.237  13.018 -0.1946  2.0533  3.3095
  368MPD2    H2 5511   4.386   3.338  13.126 -1.3226 -2.0810 -1.7401
  368MPD2    H3 5512   4.598   3.279  13.185  2.0748  0.6954  0.1443
  368MPD2     N 5513   0.036   3.301  12.763  0.2011 -0.3240 -0.4030
  368MPD2    H5 5514   0.129   3.289  12.800  0.0801 -0.1634 -0.0512
  368MPD2    N1 5515   4.288   3.372  12.878  0.2072 -0.5631  0.3393
  368MPD2    H7 5516   4.232   3.387  12.962 -2.2252  2.2385 -1.8047
  369TMC3    C1 5517   4.094   3.435  12.754  0.9024 -0.7893  0.3143
  369TMC3    C2 5518   4.045   3.515  12.652  0.4255 -0.1181 -0.1550
  369TMC3    C3 5519   3.914   3.525  12.627 -0.1989  0.8344 -0.2440
  369TMC3    C4 5520   4.015   3.373  12.841  0.0442 -0.2740 -0.1784
  369TMC3    C5 5521   3.881   3.366  12.806  0.1197 -0.4120  0.0372
  369TMC3    C6 5522   3.831   3.436  12.697  0.2452 -0.3239  0.3788
  369TMC3     C 5523   4.239   3.417  12.761  0.7909  0.6192 -0.1053
  369TMC3     O 5524   4.297   3.464  12.662  0.6357 -0.1575  0.3528
  369TMC3     H 5525   4.117   3.553  12.581 -1.0197  0.0104 -1.5708
  369TMC3    H1 5526   4.049   3.311  12.923  0.8473  1.0532  0.4984
  369TMC3    H2 5527   3.725   3.445  12.681  0.7738  2.4270 -1.6597
  369TMC3    C7 5528   3.811   3.253  12.857  0.7740 -0.0962  0.5415
  369TMC3    C8 5529   3.876   3.546  12.489  0.5292  0.0084 -0.1084
  369TMC3    O1 5530   3.838   3.212  12.970  0.0665  0.8320 -0.0100
  369TMC3    O2 5531   3.767   3.502  12.453  0.8030  0.6064  0.5591
  370TMC3    C1 5532   4.148   3.528  16.104  1.5253 -0.2631 -0.2615
  370TMC3    C2 5533   4.058   3.473  16.193 -1.1085  0.7802 -0.5764
  370TMC3    C3 5534   4.010   3.344  16.173 -0.7640  0.4728 -0.2709
  370TMC3    C4 5535   4.180   3.462  15.985 -0.1008 -0.4436  0.3387
  370TMC3    C5 5536   4.115   3.342  15.958  0.8218 -0.0430 -0.0120
  370TMC3    C6 5537   4.031   3.278  16.049  0.0181 -0.0297  0.0310
  370TMC3     C 5538   4.237   3.637  16.140 -0.6289 -0.6813 -0.1557
  370TMC3     O 5539   4.223   3.657  16.261 -0.8600 -0.0448  0.1360
  370TMC3     H 5540   4.042   3.524  16.287 -0.6006  0.2112 -0.1860
  370TMC3    H1 5541   4.240   3.504  15.905 -0.0722 -1.4342 -0.1750
  370TMC3    H2 5542   3.978   3.186  16.024  0.9561 -0.1683 -1.4410
  370TMC3    C7 5543   4.166   3.266  15.851 -0.1012 -0.0158  0.1956
  370TMC3    C8 5544   3.972   3.257  16.283 -0.3589 -0.7217 -0.2948
  370TMC3    O1 5545   4.182   3.323  15.742  0.3018 -0.1311 -0.4756
  370TMC3    O2 5546   3.990   3.139  16.268 -0.0569 -0.1535 -0.2468
  371TMC3    C1 5547   0.552   1.483  15.567 -0.5336 -0.1383 -0.1623
  371TMC3    C2 5548   0.457   1.517  15.665  0.1758  0.2948  0.7530
  371TMC3    C3 5549   0.391   1.634  15.661 -0.4527  0.4360 -0.5469
  371TMC3    C4 5550   0.568   1.561  15.453  0.9175 -0.6235  0.1731
  371TMC3    C5 5551   0.492   1.677  15.450 -0.2281 -0.0427  0.2645
  371TMC3    C6 5552   0.409   1.720  15.556  0.0262  0.1405  0.0048
  371TMC3     C 5553   0.620   1.356  15.566 -0.1174 -0.2496 -0.5300
  371TMC3     O 5554   0.704   1.331  15.481  0.6226  0.2540 -0.1725
  371TMC3     H 5555   0.455   1.462  15.759 -0.3663  2.0228  1.7474
  371TMC3    H1 5556   0.619   1.530  15.363  0.9598  2.4366 -0.8634
  371TMC3    H2 5557   0.338   1.801  15.546 -0.4679 -0.0184  2.1135
  371TMC3    C7 5558   0.533   1.789  15.363  0.7333 -0.2171 -0.6083
  371TMC3    C8 5559   0.265   1.635  15.735  0.0510 -0.0788 -0.5062
  371TMC3    O1 5560   0.459   1.886  15.340  0.2996 -0.2228  0.0556
  371TMC3    O2 5561   0.231   1.529  15.790 -0.7352  0.2740  0.0106
  372MPD2     C 5562   0.587   3.309  13.611 -0.6755  0.1170 -0.0571
  372MPD2    C1 5563   0.594   3.211  13.708  0.2641 -0.1732  0.4638
  372MPD2    C2 5564   0.499   3.109  13.713 -0.0223  0.5604 -0.3249
  372MPD2    C3 5565   0.394   3.101  13.621  0.3886  0.2550  0.6433
  372MPD2    C4 5566   0.392   3.196  13.526  0.2819 -0.1108 -0.3198
  372MPD2    C5 5567   0.493   3.289  13.513 -0.6631 -0.3659 -0.3726
  372MPD2     H 5568   0.506   3.042  13.797  1.8567  0.6164 -0.4349
  372MPD2    H1 5569   0.306   3.207  13.461  0.2659 -0.4687 -0.3579
  372MPD2    H2 5570   0.648   3.398  13.608  0.9044 -1.0599 -3.1191
  372MPD2    H3 5571   0.490   3.360  13.431 -3.4166  0.8831  0.8044
  372MPD2     N 5572   0.278   3.018  13.637  0.1130  0.3681 -0.4797
  372MPD2    H5 5573   0.273   2.956  13.717 -1.2098  1.5997  0.3825
  372MPD2    N1 5574   0.700   3.214  13.809 -0.4331  0.6265  0.0523
  372MPD2    H7 5575   0.696   3.148  13.886 -0.0451  1.6597  0.9716
  373TMC3    C1 5576   0.085   2.885  13.579  0.1966  0.1437  0.0553
  373TMC3    C2 5577   0.090   2.831  13.705 -0.1873  0.2522  0.4697
  373TMC3    C3 5578   0.032   2.713  13.726 -0.1578 -0.0828 -0.8207
  373TMC3    C4 5579   0.036   2.810  13.470 -0.2720  0.8899 -0.6360
  373TMC3    C5 5580   4.693   2.692  13.504 -0.4740 -0.0355  0.3860
  373TMC3    C6 5581   4.696   2.639  13.623 -0.5674 -0.3116 -0.0122
  373TMC3     C 5582   0.176   2.996  13.542 -0.2602 -0.3520 -0.3381
  373TMC3     O 5583   0.175   3.024  13.421 -0.2375 -0.2447 -0.5491
  373TMC3     H 5584   0.136   2.884  13.787 -0.9195 -0.1477  1.1402
  373TMC3    H1 5585   0.054   2.835  13.367  1.2568  1.1440 -0.2996
  373TMC3    H2 5586   4.656   2.540  13.643 -1.2989  0.0737  0.4171
  373TMC3    C7 5587   4.690   2.599  13.394  0.5110 -0.7281 -0.0942
  373TMC3    C8 5588   0.087   2.650  13.843  0.8552  0.4912  0.2286
  373TMC3    O1 5589   4.712   2.482  13.427  0.2373  0.0410 -0.2142
  373TMC3    O2 5590   0.193   2.688  13.892 -0.4093  0.2994 -1.0672
  374TMC3    C1 5591   0.340   2.645  10.588 -0.3248 -0.6019 -0.0890
  374TMC3    C2 5592   0.398   2.749  10.520 -0.3132 -0.3613  0.2403
  374TMC3    C3 5593   0.429   2.733  10.389  0.2488  0.5214 -0.1693
  374TMC3    C4 5594   0.295   2.529  10.521 -0.3473  0.0081  0.3064
  374TMC3    C5 5595   0.311   2.525  10.389 -0.1701 -0.8026  0.1409
  374TMC3    C6 5596   0.380   2.625  10.321  0.4847  0.2099 -0.1839
  374TMC3     C 5597   0.297   2.673  10.728  0.0051 -0.3578 -0.6258
  374TMC3     O 5598   0.281   2.578  10.800  0.3846  0.5845 -0.5438
  374TMC3     H 5599   0.427   2.838  10.573  0.1847 -0.4109  0.0523
  374TMC3    H1 5600   0.253   2.452  10.585 -1.0499 -1.2057 -1.6264
  374TMC3    H2 5601   0.413   2.614  10.218  1.6541  0.7107  0.1303
  374TMC3    C7 5602   0.292   2.399  10.318 -0.1814  0.3558 -0.0333
  374TMC3    C8 5603   0.528   2.820  10.330 -1.0982  0.1188  0.3099
  374TMC3    O1 5604   0.312   2.299  10.384 -0.2587 -0.0436 -0.6789
  374TMC3    O2 5605   0.520   2.849  10.214 -0.1284  0.6714  0.0566
  375MPD2     C 5606   0.745   3.652  17.278  0.0359  0.1826  0.8117
  375MPD2    C1 5607   0.715   3.682  17.142 -0.4301 -0.5080  0.2816
  375MPD2    C2 5608   0.780   3.613  17.040  0.0315  0.5906  0.1864
  375MPD2    C3 5609   0.880   3.518  17.071  0.7676 -0.5123 -0.1843
  375MPD2    C4 5610   0.929   3.511  17.196  0.7620  0.6609  0.4020
  375MPD2    C5 5611   0.854   3.570  17.298 -0.2069 -0.0309  0.6644
  375MPD2     H 5612   0.751   3.640  16.939  1.4067  2.4764  0.2915
  375MPD2    H1 5613   1.013   3.449  17.227  1.9692  1.0563 -2.0840
  375MPD2    H2 5614   0.699   3.701  17.363  1.6938  1.0673  1.1956
  375MPD2    H3 5615   0.885   3.551  17.400  0.8953 -1.3747  0.0761
  375MPD2     N 5616   0.936   3.419  16.987  0.3946 -0.5100  0.0041
  375MPD2    H5 5617   1.015   3.361  17.014  1.8220  1.6780  0.5978
  375MPD2    N1 5618   0.620   3.775  17.100  0.2826  0.2430 -0.5219
  375MPD2    H7 5619   0.614   3.793  17.000  1.5689  0.6083 -0.5335
  376TMC3    C1 5620   0.990   3.298  16.798 -0.2454  0.2670  0.2869
  376TMC3    C2 5621   1.121   3.292  16.821  0.4074  0.1022 -0.0408
  376TMC3    C3 5622   1.204   3.235  16.722  0.7299  0.5235  0.4571
  376TMC3    C4 5623   0.938   3.240  16.690 -0.7693  0.2317 -0.9525
  376TMC3    C5 5624   1.018   3.175  16.598  0.4872 -0.4662  0.1054
  376TMC3    C6 5625   1.154   3.162  16.612 -0.4146 -0.4460 -0.7776
  376TMC3     C 5626   0.901   3.395  16.857 -0.5853 -0.5422  0.5203
  376TMC3     O 5627   0.818   3.440  16.779 -0.0480  0.1205  0.0298
  376TMC3     H 5628   1.166   3.358  16.894  0.7590 -0.2302  0.0436
  376TMC3    H1 5629   0.832   3.256  16.672 -1.1353  0.0993  1.1335
  376TMC3    H2 5630   1.212   3.107  16.538  3.0555 -0.3941  1.8706
  376TMC3    C7 5631   0.976   3.184  16.460  0.4291  0.1303  0.1512
  376TMC3    C8 5632   1.351   3.257  16.727  0.1468  0.6268  0.3786
  376TMC3    O1 5633   1.068   3.206  16.381 -0.8555  0.0828 -0.1411
  376TMC3    O2 5634   1.396   3.358  16.782  0.4238  0.0130  0.3990
  377MPD2     C 5635   3.085   3.149  12.069 -0.0777 -0.0299  0.4230
  377MPD2    C1 5636   3.163   3.172  12.177 -0.1144 -0.3089 -0.5478
  377MPD2    C2 5637   3.110   3.137  12.301 -0.2489 -0.5815  0.1325
  377MPD2    C3 5638   2.978   3.103  12.318  0.8634 -0.0228 -0.8260
  377MPD2    C4 5639   2.896   3.093  12.209 -0.4926 -0.0602  0.1370
  377MPD2    C5 5640   2.957   3.111  12.088 -0.9329 -0.1458 -0.1314
  377MPD2     H 5641   3.176   3.140  12.387  0.5266  0.3498 -0.5031
  377MPD2    H1 5642   2.791   3.067  12.212 -0.4680  0.0596  2.0324
  377MPD2    H2 5643   3.127   3.140  11.970 -0.1027  1.7386  0.2507
  377MPD2    H3 5644   2.894   3.096  12.001 -0.4364  0.5525 -0.6116
  377MPD2     N 5645   2.920   3.074  12.448  0.1349 -0.0866 -0.2213
  377MPD2    H5 5646   2.820   3.058  12.451  0.1792 -0.2251  0.6655
  377MPD2    N1 5647   3.292   3.208  12.148 -0.6964  0.0152 -0.2445
  377MPD2    H7 5648   3.314   3.222  12.050  1.5881 -0.4984  0.1992
  378TMC3    C1 5649   3.701   3.227  12.062  0.2335 -0.2556  0.3698
  378TMC3    C2 5650   3.566   3.245  12.077  0.8322 -0.9148 -0.3812
  378TMC3    C3 5651   3.521   3.259  12.206 -0.4404  0.2327 -0.3168
  378TMC3    C4 5652   3.799   3.223  12.156  0.0718  0.2913  0.4728
  378TMC3    C5 5653   3.746   3.232  12.287  0.4296  0.3640 -0.1015
  378TMC3    C6 5654   3.612   3.251  12.311  0.0146  0.4610 -0.2911
  378TMC3     C 5655   3.746   3.253  11.929  0.2834 -0.2584  0.1257
  378TMC3     O 5656   3.664   3.242  11.840 -0.1689  0.1026 -0.0703
  378TMC3     H 5657   3.494   3.262  11.997 -1.6463  2.6412  2.5937
  378TMC3    H1 5658   3.887   3.163  12.135 -0.0869  0.1558  0.1873
  378TMC3    H2 5659   3.580   3.263  12.414 -0.7033 -1.6566 -0.2778
  378TMC3    C7 5660   3.836   3.192  12.397  0.2705  0.1319  0.1193
  378TMC3    C8 5661   3.380   3.246  12.247 -0.2261 -0.4529  0.0556
  378TMC3    O1 5662   3.776   3.179  12.505  0.1408 -0.3790  0.0987
  378TMC3    O2 5663   3.357   3.253  12.365 -0.5240  1.1172  0.4035
  379MPD2     C 5664   4.087   1.274  16.632  0.9883  0.0958 -0.1576
  379MPD2    C1 5665   4.198   1.215  16.580 -0.4529  0.2587  0.5110
  379MPD2    C2 5666   4.258   1.110  16.645  0.5408  0.7964  0.2431
  379MPD2    C3 5667   4.228   1.081  16.777  0.1698 -0.4581 -0.0788
  379MPD2    C4 5668   4.130   1.158  16.836 -0.3041 -0.1805  0.0728
  379MPD2    C5 5669   4.049   1.248  16.764  0.3252  0.7521 -1.4004
  379MPD2     H 5670   4.342   1.061  16.599  1.3632  1.3304  1.1510
  379MPD2    H1 5671   4.098   1.147  16.939 -1.1778 -3.0997 -0.4931
  379MPD2    H2 5672   4.017   1.340  16.581  0.5327  0.2872  0.7203
  379MPD2    H3 5673   3.975   1.307  16.817  0.8185 -1.2964  1.6018
  379MPD2     N 5674   4.297   0.987  16.864 -0.0457 -0.5281  0.2068
  379MPD2    H5 5675   4.289   1.002  16.964 -2.4943 -0.2590 -0.0334
  379MPD2    N1 5676   4.217   1.246  16.444 -0.0720 -0.0113  0.4114
  379MPD2    H7 5677   4.148   1.301  16.394  1.2654  1.4540  0.1752
  380TMC3    C1 5678   4.306   1.240  16.227  0.0376 -0.5452 -0.1656
  380TMC3    C2 5679   4.415   1.302  16.171 -0.8649 -0.3182 -0.7711
  380TMC3    C3 5680   4.386   1.388  16.068  0.1648 -0.2008  0.1306
  380TMC3    C4 5681   4.176   1.251  16.177 -0.1896  0.4750  0.1902
  380TMC3    C5 5682   4.157   1.328  16.068 -0.8506 -0.4889 -0.8616
  380TMC3    C6 5683   4.257   1.401  16.003 -0.6686 -1.2393  0.5859
  380TMC3     C 5684   4.324   1.206  16.369  0.6307  0.4091 -0.4541
  380TMC3     O 5685   4.435   1.165  16.403 -0.7912  0.7858 -0.0437
  380TMC3     H 5686   4.509   1.298  16.225 -1.4763 -0.3903  0.3026
  380TMC3    H1 5687   4.096   1.194  16.222 -1.0041  0.9295 -0.6842
  380TMC3    H2 5688   4.235   1.466  15.919  0.1365 -1.2785  0.3420
  380TMC3    C7 5689   4.021   1.340  16.007  0.2006 -0.1545  0.8323
  380TMC3    C8 5690   4.475   1.384  15.954 -0.4742 -0.0983 -0.2015
  380TMC3    O1 5691   3.946   1.243  16.011 -0.0273 -0.3828 -0.6303
  380TMC3    O2 5692   4.467   1.481  15.881 -0.3092 -0.8188 -0.2696
  381TMC3    C1 5693   3.939   2.706  16.028  0.0312  0.6937  0.0436
  381TMC3    C2 5694   4.027   2.809  16.053  0.6072  0.0971  0.5914
  381TMC3    C3 5695   4.082   2.818  16.177 -0.5943 -0.1260  0.5327
  381TMC3    C4 5696   3.910   2.604  16.114  0.1474  0.0412  1.1253
  381TMC3    C5 5697   3.973   2.619  16.237  0.0297  0.1369  0.2541
  381TMC3    C6 5698   4.060   2.724  16.266  0.0872 -0.0048 -0.4914
  381TMC3     C 5699   3.869   2.713  15.902  0.7809 -0.9370 -0.0308
  381TMC3     O 5700   3.877   2.821  15.847  1.0686 -0.0639  0.0902
  381TMC3     H 5701   4.044   2.886  15.979 -3.7010  1.8069  1.3873
  381TMC3    H1 5702   3.831   2.531  16.098  1.6370 -1.5825  1.1533
  381TMC3    H2 5703   4.120   2.728  16.357 -2.1215 -1.4580  1.0259
  381TMC3    C7 5704   3.961   2.512  16.340  0.6689 -0.7316 -0.4837
  381TMC3    C8 5705   4.213   2.871  16.180  0.0987 -0.5558 -0.3888
  381TMC3    O1 5706   3.967   2.394  16.310 -1.1552  0.7271 -0.3403
  381TMC3    O2 5707   4.302   2.804  16.127 -0.4529  0.2749 -0.5872
  382MPD2     C 5708   3.171   0.064   0.192 -0.0809  0.2048  0.5015
  382MPD2    C1 5709   3.254   0.039   0.082 -0.1128 -0.3627 -1.1572
  382MPD2    C2 5710   3.280   4.634   0.043 -0.6376  0.2762 -0.3531
  382MPD2    C3 5711   3.217   4.529   0.102 -0.0100 -0.3249 -0.3544
  382MPD2    C4 5712   3.126   4.556   0.204  0.4785  0.3271  0.6359
  382MPD2    C5 5713   3.101   4.679   0.248 -0.4868 -0.4049 -0.3238
  382MPD2     H 5714   3.363   4.615  17.669  0.6137 -2.7025  2.0526
  382MPD2    H1 5715   3.069   4.477   0.252 -0.3243 -0.9199 -2.3025
  382MPD2    H2 5716   3.154   0.160   0.239  0.5086 -0.9832  3.1543
  382MPD2    H3 5717   3.049   4.685   0.343 -1.4652  0.9846 -0.9507
  382MPD2     N 5718   3.245   4.393   0.080  0.1035  0.0428 -0.5678
  382MPD2    H5 5719   3.188   4.324   0.128  1.3490 -0.6357 -0.0615
  382MPD2    N1 5720   3.321   0.143   0.010  0.0865 -0.8683  0.2013
  382MPD2    H7 5721   3.394   0.125  17.635  2.0400  0.8914  1.8118
  383TMC3    C1 5722   3.260   4.205  17.630  0.0768 -0.5902 -0.6373
  383TMC3    C2 5723   3.216   4.186  17.503  0.3911  0.6218  0.9263
  383TMC3    C3 5724   3.135   4.073  17.474 -0.0824 -0.1584 -0.2949
  383TMC3    C4 5725   3.240   4.107   0.032  0.7807 -0.9586 -0.1481
  383TMC3    C5 5726   3.162   3.998   0.002 -0.6357 -0.1578  0.2189
  383TMC3    C6 5727   3.105   3.979  17.572 -0.5406 -0.3780  0.5291
  383TMC3     C 5728   3.309   4.341  17.661 -0.3422 -0.5309  0.1911
  383TMC3     O 5729   3.372   4.399  17.570 -0.3418  0.2256  0.2942
  383TMC3     H 5730   3.224   4.267  17.432  0.4738 -0.5805 -0.4272
  383TMC3    H1 5731   3.272   4.114   0.135  0.7802  1.8838 -0.3611
  383TMC3    H2 5732   3.072   3.877  17.555  0.5865 -0.3285 -1.8262
  383TMC3    C7 5733   3.148   3.879   0.088 -0.0032 -0.2101  0.4740
  383TMC3    C8 5734   3.034   4.103  17.378 -0.4013 -0.5625  0.4281
  383TMC3    O1 5735   3.050   3.804   0.083  0.5303  0.2081  0.7372
  383TMC3    O2 5736   3.027   4.217  17.339 -0.3629 -0.1194  0.1679
  384MPD2     C 5737   0.200   1.170  12.114 -0.4479  0.3875 -0.1788
  384MPD2    C1 5738   0.248   1.108  12.231 -0.3516 -1.1466 -0.1214
  384MPD2    C2 5739   0.374   1.049  12.233  0.4266 -0.4596  0.3361
  384MPD2    C3 5740   0.454   1.042  12.119  0.0380  0.5035 -0.2220
  384MPD2    C4 5741   0.398   1.085  12.006 -0.2464 -1.0094  0.1474
  384MPD2    C5 5742   0.279   1.152  12.006  0.1832 -0.1334 -0.1970
  384MPD2     H 5743   0.400   1.020  12.334 -3.0877  0.3536  1.4808
  384MPD2    H1 5744   0.453   1.081  11.912 -3.1765 -4.3098 -1.4396
  384MPD2    H2 5745   0.106   1.223  12.111 -0.3176  0.7159  1.4500
  384MPD2    H3 5746   0.247   1.185  11.908 -2.5388 -0.9997  0.3998
  384MPD2     N 5747   0.585   0.983  12.111  0.4509  0.7234 -0.2297
  384MPD2    H5 5748   0.625   0.955  12.022  0.8212  1.5217 -0.3152
  384MPD2    N1 5749   0.169   1.122  12.351  0.1028  0.3829  0.1374
  384MPD2    H7 5750   0.078   1.163  12.335 -0.1936 -0.1431  0.4727
  385TMC3    C1 5751   0.762   0.850  12.221 -0.1379  0.8105  0.1204
  385TMC3    C2 5752   0.742   0.736  12.144  0.0872  0.2897  0.6645
  385TMC3    C3 5753   0.787   0.616  12.194 -0.0547  0.0112 -0.1589
  385TMC3    C4 5754   0.826   0.843  12.341  0.9127  0.4491  0.2872
  385TMC3    C5 5755   0.869   0.722  12.396  0.3230 -0.4767 -0.6939
  385TMC3    C6 5756   0.850   0.603  12.316 -0.2044 -0.6299  0.7373
  385TMC3     C 5757   0.658   0.952  12.226 -0.1470  0.0439 -0.1583
  385TMC3     O 5758   0.639   0.998  12.340 -0.1716  0.0335  0.1476
  385TMC3     H 5759   0.685   0.741  12.052 -0.2199 -0.8032  0.7906
  385TMC3    H1 5760   0.846   0.934  12.396 -0.6572  0.7561  0.3539
  385TMC3    H2 5761   0.865   0.503  12.354  1.4309 -0.1500  1.3489
  385TMC3    C7 5762   0.839   0.707  12.536  0.2062  0.8636 -0.7524
  385TMC3    C8 5763   0.728   0.485  12.143  0.1944  0.0222 -0.2099
  385TMC3    O1 5764   0.884   0.608  12.595  0.5009 -0.2911 -0.3634
  385TMC3    O2 5765   0.706   0.399  12.223 -0.3052  0.0370  0.3292
  386TMC3    C1 5766   4.375   3.788  11.261  0.2858  0.4992  0.5227
  386TMC3    C2 5767   4.412   3.782  11.130 -0.4101 -0.8588 -0.4643
  386TMC3    C3 5768   4.318   3.777  11.030  0.6727  0.1673  0.4231
  386TMC3    C4 5769   4.241   3.790  11.294  0.3064  0.4392 -0.3511
  386TMC3    C5 5770   4.147   3.796  11.192  0.3698 -0.2974  0.8341
  386TMC3    C6 5771   4.188   3.795  11.062 -0.3237 -0.8889  0.2620
  386TMC3     C 5772   4.469   3.753  11.364  0.1537  0.4672 -0.2319
  386TMC3     O 5773   4.589   3.736  11.332  0.2080  0.3626 -0.0261
  386TMC3     H 5774   4.516   3.769  11.103  0.1111  0.9239  0.6806
  386TMC3    H1 5775   4.202   3.786  11.396  1.3553  0.0704  0.0368
  386TMC3    H2 5776   4.109   3.787  10.988 -0.8541 -0.5693  0.7947
  386TMC3    C7 5777   4.008   3.787  11.227 -0.0731  0.1681  0.4878
  386TMC3    C8 5778   4.350   3.728  10.898  0.3651  0.1068 -0.1820
  386TMC3    O1 5779   3.988   3.802  11.344  0.2429 -0.2109  0.4797
  386TMC3    O2 5780   4.256   3.732  10.820  0.2881  0.2160  0.2289
  387MPD2     C 5781   2.533   3.106   9.428 -0.1239 -0.4545 -0.1503
  387MPD2    C1 5782   2.638   3.139   9.514 -0.4866 -0.4076 -0.6146
  387MPD2    C2 5783   2.738   3.045   9.539 -0.0962 -0.2543 -0.3399
  387MPD2    C3 5784   2.717   2.908   9.504 -0.7442  0.4456 -0.6200
  387MPD2    C4 5785   2.606   2.880   9.434  0.2757 -0.2762 -0.0626
  387MPD2    C5 5786   2.516   2.974   9.393  0.7474  0.6588  0.7034
  387MPD2     H 5787   2.820   3.064   9.607 -0.5010 -1.5510  0.5111
  387MPD2    H1 5788   2.560   2.784   9.412 -0.9618  0.2574  0.1773
  387MPD2    H2 5789   2.467   3.180   9.386  0.3032 -0.8058 -1.4566
  387MPD2    H3 5790   2.432   2.939   9.334  2.4530 -0.7759 -0.8694
  387MPD2     N 5791   2.800   2.812   9.564  0.1285 -0.4592  0.3957
  387MPD2    H5 5792   2.877   2.843   9.622 -0.4903  1.6686  0.0571
  387MPD2    N1 5793   2.634   3.263   9.592  0.3500  0.1306 -0.1097
  387MPD2    H7 5794   2.721   3.289   9.636  0.5062  0.2956 -0.5158
  388TMC3    C1 5795   2.531   3.408   9.739  0.2905  0.3909 -0.0491
  388TMC3    C2 5796   2.466   3.528   9.746 -0.8192 -0.3227  0.7199
  388TMC3    C3 5797   2.512   3.607   9.850  0.1935  0.4842 -0.4839
  388TMC3    C4 5798   2.612   3.359   9.835 -0.3235  0.5036  0.3054
  388TMC3    C5 5799   2.656   3.444   9.933 -0.2046  0.6890  0.5495
  388TMC3    C6 5800   2.608   3.572   9.943  0.6090 -0.2865 -0.0030
  388TMC3     C 5801   2.517   3.330   9.621  0.1315  0.1280 -0.4496
  388TMC3     O 5802   2.405   3.312   9.578  0.2040  0.9581  0.8953
  388TMC3     H 5803   2.409   3.560   9.660  2.3176  4.3533  0.4141
  388TMC3    H1 5804   2.639   3.254   9.829  1.6998  0.9891  0.7811
  388TMC3    H2 5805   2.630   3.637  10.027  1.6521  0.8887 -1.1948
  388TMC3    C7 5806   2.726   3.380  10.042 -0.7946 -0.5323 -1.0616
  388TMC3    C8 5807   2.471   3.744   9.851  0.2842 -0.0529 -0.2715
  388TMC3    O1 5808   2.684   3.415  10.151  0.0414 -0.2482  0.6588
  388TMC3    O2 5809   2.557   3.826   9.879  0.0731 -0.4143  0.3640
  389MPD2     C 5810   2.361   1.651  11.284  0.6392  0.0103  0.3323
  389MPD2    C1 5811   2.293   1.545  11.225  0.3498 -0.0222 -0.4703
  389MPD2    C2 5812   2.224   1.459  11.313  0.0264 -0.2824  0.1828
  389MPD2    C3 5813   2.236   1.472  11.454  0.5563 -0.0056  0.5212
  389MPD2    C4 5814   2.305   1.572  11.507 -0.5314 -0.3209  0.3370
  389MPD2    C5 5815   2.358   1.664  11.421  0.7272  1.3115 -0.0516
  389MPD2     H 5816   2.168   1.374  11.275 -2.3807  1.4176 -0.0850
  389MPD2    H1 5817   2.315   1.586  11.614 -2.7768  1.6545  0.2783
  389MPD2    H2 5818   2.405   1.740  11.238  0.8935  0.2206  0.9802
  389MPD2    H3 5819   2.404   1.752  11.464 -0.6447  2.7835 -1.5617
  389MPD2     N 5820   2.169   1.391  11.543 -0.1544 -0.1015  0.5311
  389MPD2    H5 5821   2.163   1.426  11.637  0.9436 -1.2536  1.0303
  389MPD2    N1 5822   2.275   1.546  11.086 -0.1558  0.0307  0.4546
  389MPD2    H7 5823   2.324   1.620  11.036  0.0310  0.5923  1.4748
  390TMC3    C1 5824   1.990   1.271  11.625  0.2526 -0.7892  0.3493
  390TMC3    C2 5825   1.948   1.151  11.665  0.0887  0.5147  0.0092
  390TMC3    C3 5826   1.855   1.125  11.768 -0.4386 -0.2201  0.2696
  390TMC3    C4 5827   1.939   1.380  11.684  0.6055  0.3476  0.2814
  390TMC3    C5 5828   1.816   1.356  11.741  0.3730 -0.7493 -0.3352
  390TMC3    C6 5829   1.782   1.236  11.799  0.0267 -0.0044  0.0685
  390TMC3     C 5830   2.086   1.283  11.511  0.1477 -0.6212  0.2833
  390TMC3     O 5831   2.090   1.201  11.420 -0.6998 -0.3295 -0.4338
  390TMC3     H 5832   1.994   1.063  11.622  0.0505  0.6138 -0.2348
  390TMC3    H1 5833   1.963   1.480  11.647 -2.9705  0.8392 -0.7021
  390TMC3    H2 5834   1.699   1.244  11.867  0.1863  0.2438  0.2318
  390TMC3    C7 5835   1.714   1.461  11.731  0.6236 -0.4019  0.2068
  390TMC3    C8 5836   1.779   1.002  11.747  0.0916  0.7902 -0.5466
  390TMC3    O1 5837   1.754   1.571  11.753  0.1867  0.2997 -0.0405
  390TMC3    O2 5838   1.795   0.935  11.645 -0.1758  0.3614  0.1270
  391MPD2     C 5839   1.339   2.934  11.635  0.3015  0.4406 -0.0464
  391MPD2    C1 5840   1.404   3.029  11.565  0.7548 -0.1164  0.5939
  391MPD2    C2 5841   1.397   3.037  11.432  0.1037  0.2769 -0.4307
  391MPD2    C3 5842   1.317   2.957  11.357 -0.5733  0.2787  0.3043
  391MPD2    C4 5843   1.255   2.856  11.424  0.3752  0.1535 -0.2249
  391MPD2    C5 5844   1.265   2.849  11.559 -0.3156 -0.7530  0.0159
  391MPD2     H 5845   1.460   3.110  11.384 -0.1093  0.7103 -0.0421
  391MPD2    H1 5846   1.191   2.779  11.384  1.4247 -0.7004 -0.2471
  391MPD2    H2 5847   1.346   2.928  11.743  1.4960  1.2048 -0.0837
  391MPD2    H3 5848   1.208   2.769  11.605 -0.3904  1.0632  3.0614
  391MPD2     N 5849   1.328   2.977  11.215  0.3569 -0.4717 -0.1143
  391MPD2    H5 5850   1.398   3.039  11.176 -0.9153  0.1636 -1.3756
  391MPD2    N1 5851   1.477   3.120  11.649  0.5036  0.0917  0.7666
  391MPD2    H7 5852   1.500   3.093  11.744  2.0539  0.3376  0.4555
  392TMC3    C1 5853   1.270   2.957  10.987  0.1025 -0.7107  0.1376
  392TMC3    C2 5854   1.142   2.957  10.924  0.5346  0.0130 -0.0471
  392TMC3    C3 5855   1.126   3.037  10.814  0.5190 -0.1407  0.1341
  392TMC3    C4 5856   1.371   3.018  10.931  0.4133  0.4823 -0.4796
  392TMC3    C5 5857   1.357   3.086  10.817 -0.4267  0.5146  0.1762
  392TMC3    C6 5858   1.233   3.110  10.750 -0.5046 -0.3559  1.2029
  392TMC3     C 5859   1.262   2.906  11.121 -0.5817 -0.2883 -0.6617
  392TMC3     O 5860   1.183   2.813  11.139 -0.3816 -0.2864  0.0065
  392TMC3     H 5861   1.056   2.921  10.978 -0.1079 -0.3148 -1.3018
  392TMC3    H1 5862   1.468   3.012  10.978  0.0983 -0.1501  0.1078
  392TMC3    H2 5863   1.210   3.194  10.685 -0.2247 -1.8377 -0.8182
  392TMC3    C7 5864   1.471   3.159  10.783  0.4064  0.0293  0.2224
  392TMC3    C8 5865   1.005   3.022  10.728  0.2268  0.2305  0.7578
  392TMC3    O1 5866   1.548   3.181  10.873 -0.5095  0.3750  0.0990
  392TMC3    O2 5867   0.912   2.959  10.779  0.5237  0.4466 -0.6483
  393TMC3    C1 5868   0.588   1.074  10.317  0.2407  0.5039 -0.3019
  393TMC3    C2 5869   0.467   1.046  10.371 -0.5093 -0.3224  0.5908
  393TMC3    C3 5870   0.462   0.936  10.456 -0.8467 -0.6208 -0.4240
  393TMC3    C4 5871   0.705   1.000  10.331  0.6617 -0.4942 -0.0804
  393TMC3    C5 5872   0.687   0.892  10.415 -0.0404  0.3731 -0.1416
  393TMC3    C6 5873   0.576   0.862  10.490  0.1270 -0.1960  0.6497
  393TMC3     C 5874   0.598   1.209  10.260  0.1933  0.2704  0.3995
  393TMC3     O 5875   0.495   1.265  10.221  0.0137 -0.3060 -0.3200
  393TMC3     H 5876   0.380   1.101  10.337 -0.6598 -0.5094  0.6770
  393TMC3    H1 5877   0.781   1.005  10.254  0.8442 -0.1757  0.1216
  393TMC3    H2 5878   0.586   0.781  10.562 -0.1809 -1.2638 -0.5234
  393TMC3    C7 5879   0.775   0.780  10.400 -0.1805  0.9769 -0.1275
  393TMC3    C8 5880   0.327   0.883  10.492  0.1472  0.1844 -0.6842
  393TMC3    O1 5881   0.730   0.669  10.420 -0.8175  0.7242 -0.7479
  393TMC3    O2 5882   0.236   0.911  10.422 -0.4793  0.3019 -0.0150
  394TMC3    C1 5883   2.194   1.505  10.873 -0.0145  0.8330  0.2881
  394TMC3    C2 5884   2.076   1.472  10.802  0.1414 -0.1694 -0.1249
  394TMC3    C3 5885   2.066   1.520  10.677  0.1689  0.2230  0.3258
  394TMC3    C4 5886   2.305   1.569  10.816 -0.0686 -0.8747 -1.0098
  394TMC3    C5 5887   2.286   1.608  10.687 -0.2840 -0.2157 -0.2726
  394TMC3    C6 5888   2.170   1.594  10.622  0.8758  0.2370  0.1860
  394TMC3     C 5889   2.203   1.456  11.014  0.5444  0.0143  0.2896
  394TMC3     O 5890   2.142   1.356  11.049  0.5288  0.2033 -0.0490
  394TMC3     H 5891   2.007   1.406  10.853  0.6610  0.1169  0.9569
  394TMC3    H1 5892   2.395   1.585  10.874  0.8893 -2.3232 -2.1229
  394TMC3    H2 5893   2.162   1.606  10.514  0.6083  0.0411  0.1834
  394TMC3    C7 5894   2.398   1.676  10.625 -0.9600  0.0886  0.0343
  394TMC3    C8 5895   1.991   1.459  10.579  0.1580 -0.1469 -0.3282
  394TMC3    O1 5896   2.369   1.769  10.553 -0.4141 -0.2753 -0.7208
  394TMC3    O2 5897   1.933   1.529  10.501  0.3409 -0.2231  0.1275
  395TMC3    C1 5898   1.824   3.695  15.018 -0.7744  0.1422  0.8199
  395TMC3    C2 5899   1.795   3.663  14.893 -1.1082  0.2899  0.1180
  395TMC3    C3 5900   1.887   3.705  14.803  0.1257  0.0859 -0.6142
  395TMC3    C4 5901   1.941   3.760  15.058  0.6745 -0.4153 -0.1800
  395TMC3    C5 5902   2.036   3.797  14.958 -0.0816 -0.3818 -0.6852
  395TMC3    C6 5903   2.007   3.772  14.831 -0.3311  0.7562  0.4947
  395TMC3     C 5904   1.734   3.648  15.123 -0.5615  0.0714 -0.3572
  395TMC3     O 5905   1.748   3.697  15.234 -0.2521 -0.7088  0.0315
  395TMC3     H 5906   1.697   3.625  14.865 -0.1369 -0.9289 -1.6308
  395TMC3    H1 5907   1.974   3.779  15.159  0.3520  2.4061 -0.6173
  395TMC3    H2 5908   2.057   3.826  14.751 -0.4760 -0.2182 -0.2512
  395TMC3    C7 5909   2.152   3.877  14.997  0.1045 -0.2922 -0.2704
  395TMC3    C8 5910   1.855   3.706  14.664 -0.1886  0.0648  0.1196
  395TMC3    O1 5911   2.157   3.936  15.101  0.0087  0.3123 -0.0281
  395TMC3    O2 5912   1.882   3.801  14.592 -0.2348 -0.0111 -0.4575
  396MPD2     C 5913   1.407   4.524  17.462 -0.7495  0.0400 -0.0027
  396MPD2    C1 5914   1.524   4.519  17.384  0.0331  0.8361  0.2520
  396MPD2    C2 5915   1.584   4.638  17.351 -0.2277  0.9108  0.2053
  396MPD2    C3 5916   1.536   0.037  17.400 -0.2370 -0.7376  1.1551
  396MPD2    C4 5917   1.422   0.038  17.484 -0.2665  0.3252 -0.4000
  396MPD2    C5 5918   1.365   4.641  17.516 -0.3508 -0.3275  0.4460
  396MPD2     H 5919   1.683   4.637  17.306  0.4650 -0.9212  1.7867
  396MPD2    H1 5920   1.382   0.129  17.527  0.0653  0.6508 -0.7783
  396MPD2    H2 5921   1.353   4.433  17.486  2.3101 -1.3459  1.6624
  396MPD2    H3 5922   1.284   4.643  17.588  0.4677 -1.0589  1.3845
  396MPD2     N 5923   1.588   0.158  17.360 -0.9825  0.6785 -0.0869
  396MPD2    H5 5924   1.651   0.158  17.281  0.5068  1.9424  1.1152
  396MPD2    N1 5925   1.566   4.394  17.332 -0.2870 -0.0584  0.2768
  396MPD2    H7 5926   1.511   4.317  17.369 -0.6313 -0.1976 -0.5094
  397TMC3    C1 5927   1.677   4.242  17.195 -0.2532 -0.9268 -0.2442
  397TMC3    C2 5928   1.668   4.227  17.057  0.0570 -0.2297  0.4149
  397TMC3    C3 5929   1.607   4.115  17.008 -0.5649  0.7318 -0.6405
  397TMC3    C4 5930   1.623   4.149  17.283 -0.3982 -0.0783  0.4757
  397TMC3    C5 5931   1.563   4.036  17.220  0.9342 -0.6316 -0.3647
  397TMC3    C6 5932   1.550   4.016  17.088 -0.3700 -0.1234 -0.2518
  397TMC3     C 5933   1.669   4.379  17.240  0.4684  0.6318  0.2409
  397TMC3     O 5934   1.725   4.470  17.177 -0.2140  0.0216 -0.0381
  397TMC3     H 5935   1.686   4.314  16.995  1.7177  0.1066  1.3657
  397TMC3    H1 5936   1.637   4.166  17.389 -1.8346 -2.2785  1.0295
  397TMC3    H2 5937   1.490   3.933  17.053 -1.3217 -0.1152  1.3357
  397TMC3    C7 5938   1.532   3.913  17.296 -0.2396 -0.0514  0.1497
  397TMC3    C8 5939   1.593   4.108  16.862 -0.3491  0.0822 -0.6733
  397TMC3    O1 5940   1.530   3.809  17.235 -0.0289 -0.3522  0.8773
  397TMC3    O2 5941   1.629   4.205  16.801  0.7448 -0.6477 -0.0769
  398MPD2     C 5942   4.198   1.128   0.660  0.0675 -0.7664  0.3102
  398MPD2    C1 5943   4.285   1.024   0.656 -0.6268 -0.0661 -0.0781
  398MPD2    C2 5944   4.417   1.060   0.677  0.0464  0.1483  0.6612
  398MPD2    C3 5945   4.460   1.192   0.688  0.0073 -0.6112  0.1283
  398MPD2    C4 5946   4.367   1.293   0.680 -0.0038  0.1843 -0.7585
  398MPD2    C5 5947   4.234   1.261   0.672 -0.8020 -0.0346  0.7144
  398MPD2     H 5948   4.497   0.987   0.678 -0.1894 -0.1322 -0.3366
  398MPD2    H1 5949   4.388   1.399   0.687 -0.6074  0.1225  1.8770
  398MPD2    H2 5950   4.093   1.114   0.637  0.4580 -0.6794 -1.5872
  398MPD2    H3 5951   4.159   1.339   0.658  0.2108  0.5388 -1.4531
  398MPD2     N 5952   4.594   1.210   0.713  0.4249 -0.2275 -0.6926
  398MPD2    H5 5953   4.649   1.125   0.702  0.4671 -0.5315  1.9273
  398MPD2    N1 5954   4.258   0.891   0.647 -0.3376 -0.4177 -0.0516
  398MPD2    H7 5955   4.335   0.826   0.655  1.3320  1.4715 -0.9184
  399TMC3    C1 5956   4.118   0.694   0.654 -0.3798  0.1436 -0.9286
  399TMC3    C2 5957   4.216   0.615   0.702 -0.0164  1.0886  0.4868
  399TMC3    C3 5958   4.188   0.485   0.726  0.0941 -0.0926 -0.2057
  399TMC3    C4 5959   4.002   0.648   0.614 -0.1461 -0.7362  0.0787
  399TMC3    C5 5960   3.971   0.519   0.638 -0.2510 -0.3755 -0.3336
  399TMC3    C6 5961   4.068   0.431   0.686 -0.2749  0.5348  0.9647
  399TMC3     C 5962   4.136   0.837   0.639  0.1969  0.1078 -0.5292
  399TMC3     O 5963   4.028   0.897   0.623  0.7870  0.1399 -0.6673
  399TMC3     H 5964   4.320   0.643   0.715 -0.1099  1.4591  0.4537
  399TMC3    H1 5965   3.944   0.713   0.549  0.3318 -0.5085 -0.1132
  399TMC3    H2 5966   4.046   0.327   0.703  0.8358  0.4213  1.7353
  399TMC3    C7 5967   3.862   0.448   0.575 -0.6074 -0.5307  0.3203
  399TMC3    C8 5968   4.301   0.397   0.750  0.4816  0.7420 -0.7996
  399TMC3    O1 5969   3.860   0.328   0.585 -0.0685 -0.0152  0.0282
  399TMC3    O2 5970   4.393   0.437   0.818  0.2628  0.2155  0.0102
  400TMC3    C1 5971   3.203   4.128  16.987  0.7134  0.7374  0.3179
  400TMC3    C2 5972   3.071   4.096  16.956  0.3367 -0.8386  0.3669
  400TMC3    C3 5973   2.971   4.193  16.974  0.9052  0.3244 -0.2579
  400TMC3    C4 5974   3.237   4.254  17.028  0.6406 -0.5342 -0.9664
  400TMC3    C5 5975   3.127   4.340  17.050  0.9280  0.7618 -0.3089
  400TMC3    C6 5976   2.995   4.321  17.018  0.1185  0.2662  0.4599
  400TMC3     C 5977   3.266   4.011  17.046 -0.1030 -0.7682 -0.1159
  400TMC3     O 5978   3.231   3.901  17.006  0.2201  0.6097 -0.1646
  400TMC3     H 5979   3.044   4.001  16.912  0.8797 -1.3971  1.2537
  400TMC3    H1 5980   3.339   4.291  17.034  0.7854 -0.9863 -0.6210
  400TMC3    H2 5981   2.915   4.390  17.041 -0.8120 -1.1428  1.4521
  400TMC3    C7 5982   3.163   4.450  17.131 -0.1408 -0.2486 -0.2584
  400TMC3    C8 5983   2.831   4.165  16.940 -0.2137  0.3718 -0.3871
  400TMC3    O1 5984   3.268   4.446  17.186 -0.2592 -0.6795  0.2658
  400TMC3    O2 5985   2.759   4.256  16.910  0.5167 -0.1151 -0.1197
  401MPD2     C 5986   1.403   2.842   1.239 -0.2013  0.2296  0.1192
  401MPD2    C1 5987   1.474   2.762   1.313 -0.1121  0.7825 -0.2353
  401MPD2    C2 5988   1.474   2.626   1.289 -0.3193 -0.5809 -0.6543
  401MPD2    C3 5989   1.410   2.576   1.175 -0.6708 -0.0602 -0.4627
  401MPD2    C4 5990   1.336   2.662   1.102 -0.2843  0.2397 -0.8521
  401MPD2    C5 5991   1.325   2.794   1.135 -0.0267  0.3816 -0.3791
  401MPD2     H 5992   1.536   2.559   1.347  0.3346  2.9867  2.7757
  401MPD2    H1 5993   1.283   2.636   1.010  0.1677 -2.8740 -0.2537
  401MPD2    H2 5994   1.383   2.942   1.276 -1.1343 -0.1474  0.6187
  401MPD2    H3 5995   1.266   2.866   1.080 -1.2421 -0.1640  0.2042
  401MPD2     N 5996   1.416   2.438   1.146  0.5594  0.2447 -0.5444
  401MPD2    H5 5997   1.464   2.376   1.211  0.8790 -0.6142 -1.5991
  401MPD2    N1 5998   1.567   2.812   1.406 -0.1220  0.0706 -0.5684
  401MPD2    H7 5999   1.635   2.744   1.439  0.3537  1.7492  1.9627
  402TMC3    C1 6000   1.403   2.244   1.013 -0.0734  0.4270 -0.2623
  402TMC3    C2 6001   1.366   2.163   1.116 -0.7842  0.5547  0.2429
  402TMC3    C3 6002   1.372   2.029   1.094 -0.5152  0.6489  1.0590
  402TMC3    C4 6003   1.469   2.202   0.902 -0.1454 -0.1482 -0.6587
  402TMC3    C5 6004   1.480   2.069   0.885  0.1112  0.0665 -0.0003
  402TMC3    C6 6005   1.434   1.984   0.982 -0.1450  0.8658 -0.8413
  402TMC3     C 6006   1.381   2.384   1.021  0.3156  0.1816  0.8665
  402TMC3     O 6007   1.351   2.437   0.914  0.5332 -0.1348 -0.1109
  402TMC3     H 6008   1.304   2.203   1.196 -0.7221 -2.3895  1.7388
  402TMC3    H1 6009   1.505   2.271   0.826 -0.1962  1.0088  0.3611
  402TMC3    H2 6010   1.455   1.878   0.980 -1.1160  0.7271 -2.9701
  402TMC3    C7 6011   1.546   2.014   0.769  0.0929 -0.0525 -0.0505
  402TMC3    C8 6012   1.364   1.935   1.207  0.7062  0.6773 -0.7295
  402TMC3    O1 6013   1.515   1.901   0.738 -0.1264  0.0824  0.3107
  402TMC3    O2 6014   1.410   1.821   1.192  0.1370 -0.0984 -0.3700
  403MPD2     C 6015   4.331   1.206  13.349 -0.3145  0.3001  0.3431
  403MPD2    C1 6016   4.380   1.097  13.426 -0.2334  0.1455 -0.0599
  403MPD2    C2 6017   4.485   1.118  13.511 -0.4601 -0.4474  0.0753
  403MPD2    C3 6018   4.540   1.241  13.524  0.5524  0.2236  0.2525
  403MPD2    C4 6019   4.495   1.342  13.446 -0.0582 -0.1678  0.8708
  403MPD2    C5 6020   4.388   1.325  13.365  0.4520 -0.1093  0.2008
  403MPD2     H 6021   4.527   1.040  13.572  1.7932  0.5327 -0.2469
  403MPD2    H1 6022   4.538   1.441  13.441 -0.7957  0.1354  0.6126
  403MPD2    H2 6023   4.249   1.185  13.282 -0.3205  0.2672  0.3609
  403MPD2    H3 6024   4.353   1.411  13.308  0.5761 -0.0197  0.2585
  403MPD2     N 6025   4.643   1.251  13.621  0.1514  0.0675 -0.0918
  403MPD2    H5 6026   4.674   1.176  13.682 -0.9679  0.3303  0.7919
  403MPD2    N1 6027   4.322   0.972  13.389 -0.4696  1.0757  0.8679
  403MPD2    H7 6028   4.272   0.969  13.301 -0.1365  3.7324  0.5843
  404TMC3    C1 6029   4.293   0.722  13.391 -0.7686 -0.1437  0.3198
  404TMC3    C2 6030   4.298   0.607  13.462 -0.1477 -0.2155  0.1797
  404TMC3    C3 6031   4.289   0.485  13.400  0.6917  0.6791  0.9713
  404TMC3    C4 6032   4.265   0.718  13.259 -0.8583  0.1906  0.0659
  404TMC3    C5 6033   4.247   0.601  13.199 -0.2590  0.4655 -0.4692
  404TMC3    C6 6034   4.255   0.483  13.268 -0.0811  0.4828  0.7651
  404TMC3     C 6035   4.339   0.851  13.458  1.0075 -0.1740 -0.4798
  404TMC3     O 6036   4.377   0.850  13.576 -0.6700  0.2482 -0.0940
  404TMC3     H 6037   4.329   0.606  13.566  1.5071 -0.9563 -0.3133
  404TMC3    H1 6038   4.269   0.800  13.188 -0.2569  0.5621  0.5189
  404TMC3    H2 6039   4.260   0.391  13.211  0.5273  1.4037 -0.7027
  404TMC3    C7 6040   4.233   0.600  13.053 -0.0123  0.2631 -0.5437
  404TMC3    C8 6041   4.339   0.369  13.478  0.6236  0.0029 -0.1420
  404TMC3    O1 6042   4.304   0.685  12.995  0.1565 -0.1956  0.2049
  404TMC3    O2 6043   4.390   0.273  13.416  0.2544  0.0908 -0.2630
  405MPD2     C 6044   0.131   1.511  14.777 -0.1460  0.2232 -0.0736
  405MPD2    C1 6045   0.046   1.451  14.687  0.7140 -0.1115 -0.0477
  405MPD2    C2 6046   4.704   1.527  14.593  0.5675 -0.2194  0.1799
  405MPD2    C3 6047   4.708   1.669  14.592 -0.8158  0.3905  0.3143
  405MPD2    C4 6048   0.058   1.727  14.693  0.0585  1.2558 -0.4271
  405MPD2    C5 6049   0.128   1.648  14.781 -0.7449 -0.7490  0.2943
  405MPD2     H 6050   4.656   1.475  14.511  2.8791  0.5545 -1.6714
  405MPD2    H1 6051   0.060   1.835  14.701 -0.9474  1.1024  1.9132
  405MPD2    H2 6052   0.187   1.452  14.849  1.4693 -2.0840 -3.1846
  405MPD2    H3 6053   0.199   1.695  14.848 -1.1003 -0.3768  0.4135
  405MPD2     N 6054   4.650   1.742  14.491 -0.5939 -0.3359  0.0326
  405MPD2    H5 6055   4.586   1.693  14.430 -2.0149  2.3821 -0.6730
  405MPD2    N1 6056   0.039   1.310  14.665 -0.4440  0.0578  0.1909
  405MPD2    H7 6057   4.699   1.278  14.592  0.7566 -0.3286 -0.6747
  406TMC3    C1 6058   4.425   2.009  14.223 -0.0760 -0.2529 -0.5152
  406TMC3    C2 6059   4.465   1.943  14.107 -0.8243  0.3201  0.0330
  406TMC3    C3 6060   4.567   1.854  14.121 -0.2130 -0.0017 -0.3604
  406TMC3    C4 6061   4.486   1.992  14.340  0.1493  0.3154  0.2713
  406TMC3    C5 6062   4.596   1.916  14.348  0.1232 -0.0840 -0.0905
  406TMC3    C6 6063   4.632   1.839  14.242 -0.0311  0.2819  0.0455
  406TMC3     C 6064   4.319   2.109  14.211 -0.6785  0.0704  0.0916
  406TMC3     O 6065   4.348   2.224  14.179  0.0140 -0.3038 -0.2902
  406TMC3     H 6066   4.420   1.951  14.008 -0.7760 -1.4555 -0.1395
  406TMC3    H1 6067   4.463   2.057  14.424  0.2051 -1.5940  1.7716
  406TMC3    H2 6068   0.001   1.781  14.255 -0.6981 -0.9256 -0.6809
  406TMC3    C7 6069   4.645   1.880  14.480 -0.2462  0.2940 -0.5769
  406TMC3    C8 6070   4.551   1.735  14.036  0.3580  0.7853 -0.4517
  406TMC3    O1 6071   4.651   1.973  14.561 -0.2940 -0.1663 -0.3826
  406TMC3    O2 6072   4.458   1.730  13.957  0.3172  0.0032 -0.0349
  407MPD2     C 6073   2.136   2.640   9.544 -0.2060  0.0620 -0.1684
  407MPD2    C1 6074   2.182   2.768   9.526 -0.4899 -0.6395  0.8116
  407MPD2    C2 6075   2.212   2.849   9.637  0.3011  0.2132  0.7236
  407MPD2    C3 6076   2.204   2.799   9.763 -0.1471 -0.1906  0.0626
  407MPD2    C4 6077   2.150   2.673   9.785 -0.3306  0.2447 -0.1930
  407MPD2    C5 6078   2.119   2.601   9.676 -0.1041 -0.3224  1.0465
  407MPD2     H 6079   2.242   2.951   9.619  0.2844  0.0192 -0.3805
  407MPD2    H1 6080   2.128   2.639   9.885 -2.0672  3.3974  0.4653
  407MPD2    H2 6081   2.099   2.576   9.466  1.4566  0.1981 -1.0735
  407MPD2    H3 6082   2.071   2.507   9.701 -1.2988  0.1920  0.7041
  407MPD2     N 6083   2.243   2.874   9.877 -0.0517 -0.3628  0.3194
  407MPD2    H5 6084   2.251   2.823   9.965 -0.3962  0.3960  0.7881
  407MPD2    N1 6085   2.185   2.827   9.398 -0.4358 -0.4722  0.1397
  407MPD2    H7 6086   2.213   2.924   9.387  0.3576 -0.6846  0.3025
  408TMC3    C1 6087   2.215   2.836   9.170  0.5420 -0.1222  0.3285
  408TMC3    C2 6088   2.306   2.791   9.085  0.5276 -0.4002 -0.4941
  408TMC3    C3 6089   2.371   2.877   8.998 -0.1475 -0.3666 -0.1516
  408TMC3    C4 6090   2.164   2.959   9.162  0.1417  0.2861 -0.0470
  408TMC3    C5 6091   2.207   3.032   9.055  0.0705  0.0450 -0.3035
  408TMC3    C6 6092   2.313   2.988   8.975 -0.0278 -0.3637  0.5322
  408TMC3     C 6093   2.173   2.757   9.280 -0.1648  0.8075  0.5465
  408TMC3     O 6094   2.148   2.642   9.248 -0.5508  0.0597  0.7249
  408TMC3     H 6095   2.359   2.702   9.116  0.3888 -0.6615 -1.0101
  408TMC3    H1 6096   2.083   2.989   9.227 -0.2272  3.3858 -1.9683
  408TMC3    H2 6097   2.358   3.061   8.909 -0.1578 -0.3633  0.4444
  408TMC3    C7 6098   2.232   3.173   9.087  0.3085 -0.3013  0.2412
  408TMC3    C8 6099   2.513   2.874   9.015 -1.0032  0.2078 -0.4966
  408TMC3    O1 6100   2.342   3.218   9.080  0.0572  0.2835 -0.0514
  408TMC3    O2 6101   2.569   2.769   9.023  0.0211 -0.1850 -0.0036
  409MPD2     C 6102   1.910   3.904  16.945  0.0069 -0.1626 -0.3533
  409MPD2    C1 6103   1.970   3.937  17.063  0.8774  0.1510 -0.1290
  409MPD2    C2 6104   2.059   4.036  17.074  0.9182  0.0217 -0.0989
  409MPD2    C3 6105   2.077   4.122  16.961  0.5136  0.2344  0.6031
  409MPD2    C4 6106   2.022   4.090  16.841  0.8148 -0.4704 -0.8475
  409MPD2    C5 6107   1.932   3.986  16.833 -0.5557  0.5785 -0.7915
  409MPD2     H 6108   2.110   4.052  17.168 -0.5352 -2.8103  1.1479
  409MPD2    H1 6109   2.032   4.157  16.756 -0.5060  1.1078  0.2263
  409MPD2    H2 6110   1.831   3.830  16.939 -0.1309  0.1121 -1.9808
  409MPD2    H3 6111   1.878   3.980  16.739 -0.8562  1.1356 -0.6542
  409MPD2     N 6112   2.142   4.245  16.964 -0.2669 -0.9087  0.0728
  409MPD2    H5 6113   2.152   4.299  16.878 -0.6066  0.4058  0.8641
  409MPD2    N1 6114   1.934   3.880  17.186  0.6431 -0.2666 -0.1909
  409MPD2    H7 6115   1.978   3.919  17.268 -1.0927  1.4071 -0.0741
  410TMC3    C1 6116   2.309   4.391  17.023  0.2208 -0.6864  0.2255
  410TMC3    C2 6117   2.383   4.444  17.124  0.3343 -0.1013  0.2399
  410TMC3    C3 6118   2.515   4.481  17.106  0.5482 -0.4892 -0.0986
  410TMC3    C4 6119   2.350   4.395  16.889  0.0107 -1.1344 -0.8558
  410TMC3    C5 6120   2.472   4.453  16.872  0.8858 -0.0762  0.3152
  410TMC3    C6 6121   2.558   4.492  16.979 -0.5773  0.5751 -0.4093
  410TMC3     C 6122   2.224   4.286  17.062 -0.9786 -0.1626 -0.4885
  410TMC3     O 6123   2.258   4.238  17.169  0.2738 -0.0870 -0.0765
  410TMC3     H 6124   2.350   4.446  17.227  0.5823 -1.3304  0.3438
  410TMC3    H1 6125   2.300   4.338  16.811  1.1080 -0.3138 -2.1570
  410TMC3    H2 6126   2.665   4.501  16.969 -0.3019 -2.7606 -0.4928
  410TMC3    C7 6127   2.495   4.503  16.734  0.0435  0.4744 -0.3744
  410TMC3    C8 6128   2.612   4.411  17.186  0.8492  0.0112 -0.2309
  410TMC3    O1 6129   2.609   4.517  16.691  0.4080  0.2666  0.6121
  410TMC3    O2 6130   2.725   4.448  17.178 -0.3645 -0.1958  0.2561
  411MPD2     C 6131   2.412   0.107  15.079  0.1416 -0.2510  0.0226
  411MPD2    C1 6132   2.280   0.064  15.091  0.5020  0.2948  0.2310
  411MPD2    C2 6133   2.243   4.673  15.038  0.4852  0.4901  1.0943
  411MPD2    C3 6134   2.329   4.601  14.960 -0.0498  0.4635 -0.1067
  411MPD2    C4 6135   2.461   4.637  14.948  0.3971 -0.5824  0.2107
  411MPD2    C5 6136   2.499   0.028  15.016 -0.2476  0.0725  0.2236
  411MPD2     H 6137   2.139   4.646  15.050  0.9116 -1.0808  1.3175
  411MPD2    H1 6138   2.535   4.595  14.880  0.5876  1.1637 -0.6637
  411MPD2    H2 6139   2.451   0.195  15.130 -0.3992 -0.3580  0.6252
  411MPD2    H3 6140   2.603   0.058  15.022  0.2706 -1.4701 -1.2025
  411MPD2     N 6141   2.284   4.491  14.886  0.1279 -0.4913 -0.3976
  411MPD2    H5 6142   2.349   4.461  14.813  0.0656  0.9939 -1.0632
  411MPD2    N1 6143   2.178   0.135  15.157 -0.3580  0.6153 -0.0380
  411MPD2    H7 6144   2.092   0.082  15.170  0.7717 -0.6501  2.1470
  412TMC3    C1 6145   2.144   4.336  14.803 -0.5252 -0.3005 -0.0344
  412TMC3    C2 6146   2.075   4.223  14.839  0.0493 -0.2699 -0.2035
  412TMC3    C3 6147   2.040   4.135  14.743 -0.0892  0.1306  0.1517
  412TMC3    C4 6148   2.156   4.376  14.676 -0.1473 -1.2150 -1.3040
  412TMC3    C5 6149   2.103   4.291  14.580  0.3895 -0.1308  0.3727
  412TMC3    C6 6150   2.052   4.167  14.612  0.3393 -0.3328  0.2584
  412TMC3     C 6151   2.166   4.429  14.904  0.0496  0.4260 -0.1513
  412TMC3     O 6152   2.086   4.438  14.996  0.1510  0.0314 -0.4097
  412TMC3     H 6153   2.062   4.207  14.946  1.9703 -1.0221 -0.0672
  412TMC3    H1 6154   2.207   4.467  14.647 -0.6854 -1.1467 -2.0605
  412TMC3    H2 6155   2.019   4.101  14.532 -0.5833  0.6016 -0.1421
  412TMC3    C7 6156   2.026   4.344  14.473  0.4089  0.5595  0.4788
  412TMC3    C8 6157   1.900   4.104  14.777 -0.7668  0.3443 -0.0944
  412TMC3    O1 6158   1.922   4.279  14.457 -0.0822 -0.6940  0.2087
  412TMC3    O2 6159   1.869   4.054  14.881 -0.1364 -0.0145  0.2511
  413MPD2     C 6160   3.789   3.059  15.137  0.2595  0.2142 -0.0403
  413MPD2    C1 6161   3.719   2.982  15.050 -0.0586  0.3005  0.3005
  413MPD2    C2 6162   3.789   2.864  15.012  0.0626  0.1764  0.1068
  413MPD2    C3 6163   3.920   2.840  15.045 -0.7907  0.1369  0.1075
  413MPD2    C4 6164   3.989   2.936  15.126 -0.5655 -0.1387  0.2992
  413MPD2    C5 6165   3.914   3.041  15.188 -0.1301  0.0901 -1.5056
  413MPD2     H 6166   3.736   2.789  14.955  0.8581 -1.9982  2.2463
  413MPD2    H1 6167   4.095   2.935  15.149 -0.7663  1.2812  1.2331
  413MPD2    H2 6168   3.739   3.145  15.181 -2.8191 -0.2932 -2.5121
  413MPD2    H3 6169   3.964   3.095  15.267 -1.1484 -0.4677 -0.4869
  413MPD2     N 6170   3.975   2.728  14.984 -0.7069 -0.3678  0.0755
  413MPD2    H5 6171   3.916   2.657  14.941 -0.4791 -1.2260  1.1787
  413MPD2    N1 6172   3.580   3.012  15.030 -0.0957 -0.0976  0.0300
  413MPD2    H7 6173   3.544   3.083  15.093  4.2844 -0.0878  2.4796
  414TMC3    C1 6174   4.117   2.536  14.986  0.4790 -0.4370 -0.5026
  414TMC3    C2 6175   4.188   2.455  15.072  0.3735  0.4765 -0.8827
  414TMC3    C3 6176   4.184   2.323  15.059 -0.0242  0.1424  0.0013
  414TMC3    C4 6177   4.048   2.486  14.879 -0.1388  0.6047  0.2654
  414TMC3    C5 6178   4.052   2.350  14.857  0.3410 -0.4109  0.3251
  414TMC3    C6 6179   4.112   2.273  14.951  0.4126 -0.2461  0.4101
  414TMC3     C 6180   4.101   2.675  15.018  0.1715 -0.3942  0.2311
  414TMC3     O 6181   4.183   2.713  15.099 -0.5492 -0.1300 -0.2502
  414TMC3     H 6182   4.264   2.506  15.129  0.0189  0.7391 -0.6483
  414TMC3    H1 6183   3.988   2.554  14.820  0.1333  0.3682 -0.2824
  414TMC3    H2 6184   4.103   2.167  14.931  0.0398  0.3927 -2.8146
  414TMC3    C7 6185   3.958   2.292  14.761  0.1665  1.0909  0.2557
  414TMC3    C8 6186   4.280   2.233  15.117  0.0090 -0.7019 -0.1032
  414TMC3    O1 6187   3.849   2.343  14.771 -0.0014  0.2423 -0.4100
  414TMC3    O2 6188   4.271   2.115  15.086  0.1605  0.8246 -0.2971
  415TMC3    C1 6189   4.424   0.245   9.986 -0.2346 -0.6456 -0.2863
  415TMC3    C2 6190   4.473   0.303   9.874 -0.3057 -0.0929 -0.2003
  415TMC3    C3 6191   4.381   0.351   9.785 -0.7565 -0.4624 -0.3456
  415TMC3    C4 6192   4.288   0.235  10.011 -0.5132  0.0116 -0.5632
  415TMC3    C5 6193   4.199   0.281   9.916 -0.0278 -0.0676  0.7069
  415TMC3    C6 6194   4.249   0.342   9.805 -0.2538 -0.4872  0.0729
  415TMC3     C 6195   4.507   0.212  10.097 -0.2501  0.4791 -0.0018
  415TMC3     O 6196   4.463   0.125  10.172  0.4760 -0.1062  0.5838
  415TMC3     H 6197   4.579   0.305   9.853 -0.2391  0.1626  0.1635
  415TMC3    H1 6198   4.248   0.194  10.103 -1.1731  1.2235 -0.3281
  415TMC3    H2 6199   4.176   0.376   9.732 -0.7143  0.0635  0.7932
  415TMC3    C7 6200   4.064   0.214   9.905 -0.2748  0.4595  0.1039
  415TMC3    C8 6201   4.416   0.427   9.674 -0.9537 -0.1024 -0.2857
  415TMC3    O1 6202   3.994   0.245   9.809 -0.0807  0.3119 -0.0397
  415TMC3    O2 6203   4.335   0.429   9.581 -0.0956 -0.3798 -0.0226
  416MPD2     C 6204   1.659   4.252  11.713 -0.4163  0.1884 -0.5385
  416MPD2    C1 6205   1.550   4.274  11.637 -0.3639 -0.2499 -0.9259
  416MPD2    C2 6206   1.529   4.195  11.528 -0.0442 -0.9525  0.0222
  416MPD2    C3 6207   1.623   4.100  11.486  1.0920 -0.3901 -0.8407
  416MPD2    C4 6208   1.739   4.095  11.560  0.0946 -0.0654  0.0955
  416MPD2    C5 6209   1.762   4.177  11.665  0.2415  0.0425  0.3967
  416MPD2     H 6210   1.444   4.218  11.465 -0.4098  1.0360  1.2368
  416MPD2    H1 6211   1.817   4.026  11.532  1.2806  1.5239 -0.5040
  416MPD2    H2 6212   1.678   4.325  11.792  0.1595  0.0297 -0.5295
  416MPD2    H3 6213   1.860   4.178  11.711 -0.6718 -1.7858  2.3569
  416MPD2     N 6214   1.596   4.003  11.390 -0.3750 -0.1679 -0.2109
  416MPD2    H5 6215   1.664   3.928  11.384  1.5061  1.5931 -0.9351
  416MPD2    N1 6216   1.457   4.367  11.685  0.4938 -0.0311  0.3537
  416MPD2    H7 6217   1.479   4.423  11.767  2.1768 -0.0160 -0.1191
  417TMC3    C1 6218   1.271   4.511  11.690 -0.1657  0.2996 -0.2262
  417TMC3    C2 6219   1.245   4.483  11.822 -0.7359  0.3157  0.4708
  417TMC3    C3 6220   1.122   4.525  11.870 -0.4372 -0.1470  0.1919
  417TMC3    C4 6221   1.178   4.562  11.600  0.5680  0.1495  0.4185
  417TMC3    C5 6222   1.056   4.589  11.650  0.2590  0.4058  0.3831
  417TMC3    C6 6223   1.027   4.580  11.785 -0.4445 -0.0319  0.4965
  417TMC3     C 6224   1.344   4.403  11.621  0.2484  0.1736  0.2615
  417TMC3     O 6225   1.305   4.371  11.510  0.5458  0.0599 -0.0026
  417TMC3     H 6226   1.315   4.426  11.883 -0.8691  0.4269  0.7295
  417TMC3    H1 6227   1.192   4.561  11.493 -2.2545  0.1539  0.0657
  417TMC3    H2 6228   0.934   4.610  11.832  0.5386  3.6124  0.1412
  417TMC3    C7 6229   0.943   4.611  11.558 -0.3092 -0.1237  0.3540
  417TMC3    C8 6230   1.100   4.577  12.003  0.8489 -0.3820  0.9055
  417TMC3    O1 6231   0.836   4.601  11.606 -0.5115 -0.2766 -0.3811
  417TMC3    O2 6232   0.981   4.589  12.044  0.9565 -0.7017 -0.3564
  418TMC3    C1 6233   0.252   1.204   0.623  0.1077 -0.6258 -0.0916
  418TMC3    C2 6234   0.148   1.291   0.624  0.1073 -0.3260 -0.4244
  418TMC3    C3 6235   0.074   1.293   0.735  0.4117  0.2528 -0.1023
  418TMC3    C4 6236   0.276   1.119   0.722 -0.2416 -0.2583 -0.2154
  418TMC3    C5 6237   0.207   1.127   0.835  0.0538 -0.0981 -0.2769
  418TMC3    C6 6238   0.098   1.209   0.840  0.1136 -0.0107  0.3543
  418TMC3     C 6239   0.326   1.206   0.502 -0.2340 -0.4041  0.0656
  418TMC3     O 6240   0.335   1.308   0.434  0.5220 -0.2354  0.0662
  418TMC3     H 6241   0.132   1.359   0.541  2.2974 -0.3144 -0.8475
  418TMC3    H1 6242   0.361   1.053   0.709  0.8680  1.3389 -1.0627
  418TMC3    H2 6243   0.031   1.203   0.924  0.1162  0.2039  0.3709
  418TMC3    C7 6244   0.171   1.003   0.891  0.1921 -0.4877 -0.1849
  418TMC3    C8 6245   4.665   1.329   0.719 -0.2424  0.5455 -0.2147
  418TMC3    O1 6246   0.127   0.917   0.814  0.1492 -0.1080  0.5355
  418TMC3    O2 6247   4.637   1.446   0.696 -0.5033  0.0994  0.6367
  419MPD2     C 6248   3.158   3.737  12.803  0.7303  0.6319 -0.4959
  419MPD2    C1 6249   3.157   3.867  12.759 -0.0967  0.5115  0.3625
  419MPD2    C2 6250   3.187   3.962  12.852  0.3725  0.3163 -0.6430
  419MPD2    C3 6251   3.231   3.930  12.980  0.1645 -0.4630  0.1552
  419MPD2    C4 6252   3.251   3.801  13.014 -0.1429 -0.0099  0.8004
  419MPD2    C5 6253   3.210   3.704  12.930  0.2316  0.1877  0.1932
  419MPD2     H 6254   3.154   4.063  12.830  0.6443  0.3052 -1.0928
  419MPD2    H1 6255   3.292   3.775  13.111  0.5902 -1.4077  0.1204
  419MPD2    H2 6256   3.124   3.650  12.747 -1.0519  0.3390  1.0141
  419MPD2    H3 6257   3.212   3.605  12.975 -1.8758 -0.9216 -2.1399
  419MPD2     N 6258   3.243   4.043  13.065  0.0578  0.2837 -0.0199
  419MPD2    H5 6259   3.226   4.136  13.028 -1.2194 -0.7421 -2.0154
  419MPD2    N1 6260   3.113   3.908  12.634  0.6556 -0.2734  0.0858
  419MPD2    H7 6261   3.089   4.007  12.624  0.9076 -0.2032  0.1762
  420TMC3    C1 6262   3.280   4.187  13.253  0.0753  0.3526  0.7322
  420TMC3    C2 6263   3.218   4.283  13.180  0.2675 -0.2225 -0.6202
  420TMC3    C3 6264   3.145   4.384  13.245  0.8094 -0.1888  0.3457
  420TMC3    C4 6265   3.276   4.197  13.393  0.4680 -1.2781 -0.2855
  420TMC3    C5 6266   3.214   4.304  13.460 -0.1903 -0.1257  0.3668
  420TMC3    C6 6267   3.148   4.399  13.381 -0.7129 -0.1367 -0.0036
  420TMC3     C 6268   3.289   4.050  13.194  0.1158 -0.2498  0.8113
  420TMC3     O 6269   3.317   3.952  13.258  0.3095  0.5723 -0.0556
  420TMC3     H 6270   3.230   4.301  13.074  0.2366  0.3371 -0.5281
  420TMC3    H1 6271   3.329   4.122  13.451  2.0006 -0.5605 -0.7406
  420TMC3    H2 6272   3.100   4.483  13.431 -0.7019 -0.6901  0.9404
  420TMC3    C7 6273   3.195   4.306  13.604 -0.0749  0.0817 -0.6860
  420TMC3    C8 6274   3.059   4.474  13.171 -0.4451 -0.0188 -0.3548
  420TMC3    O1 6275   3.083   4.297  13.657  0.6509  0.3206  0.4964
  420TMC3    O2 6276   3.083   4.505  13.053 -0.3706  0.5716  0.8861
  421TMC3    C1 6277   0.100   1.336  13.741 -0.4406 -0.3138  0.5598
  421TMC3    C2 6278   0.143   1.438  13.814 -0.0647 -0.3652 -0.1806
  421TMC3    C3 6279   0.213   1.417  13.929  0.2829 -0.0335 -0.1256
  421TMC3    C4 6280   0.138   1.206  13.771  0.3531  0.8862  0.4303
  421TMC3    C5 6281   0.215   1.188  13.887  0.7080 -0.0721 -0.6519
  421TMC3    C6 6282   0.264   1.295  13.964  0.2819  0.0377 -0.2239
  421TMC3     C 6283   0.003   1.362  13.639  0.0439  0.1679 -0.0570
  421TMC3     O 6284   4.709   1.478  13.602 -0.1637  0.2348 -0.7977
  421TMC3     H 6285   0.111   1.540  13.796 -1.0876 -0.5265  0.7311
  421TMC3    H1 6286   0.113   1.125  13.704  0.9105  1.4545 -0.4705
  421TMC3    H2 6287   0.319   1.285  14.057 -1.2092  1.5138  0.8291
  421TMC3    C7 6288   0.276   1.059  13.926  0.8408 -0.0965  0.3615
  421TMC3    C8 6289   0.236   1.531  14.005 -0.3226 -0.3455  0.3742
  421TMC3    O1 6290   0.369   1.073  14.005  0.0269  0.0361 -0.2432
  421TMC3    O2 6291   0.240   1.635  13.943  0.2504  0.2787  1.0526
  422TMC3    C1 6292   2.182   2.097  12.651 -0.0088  0.5672  0.4919
  422TMC3    C2 6293   2.173   2.227  12.666 -0.1377  0.4408  0.1435
  422TMC3    C3 6294   2.084   2.278  12.759 -0.4857  0.0304 -0.2550
  422TMC3    C4 6295   2.105   2.006  12.724  0.0486  0.5062 -0.3322
  422TMC3    C5 6296   2.017   2.062  12.811 -0.3769 -0.0550 -0.8885
  422TMC3    C6 6297   2.008   2.195  12.833 -0.3268  0.3124 -0.8069
  422TMC3     C 6298   2.224   2.046  12.520  0.5419 -0.2194 -0.2584
  422TMC3     O 6299   2.216   2.125  12.431 -0.1546 -0.3768 -0.2867
  422TMC3     H 6300   2.232   2.291  12.600  2.9122 -1.1161  1.3647
  422TMC3    H1 6301   2.099   1.900  12.704  0.3055  0.1846  1.2904
  422TMC3    H2 6302   1.932   2.226  12.904 -0.8553  0.5703 -1.4820
  422TMC3    C7 6303   1.907   1.981  12.847 -0.2753 -0.1951  0.1649
  422TMC3    C8 6304   2.071   2.426  12.771 -0.0800 -0.3283 -0.3090
  422TMC3    O1 6305   1.935   1.866  12.884 -0.7509 -0.0351 -0.1197
  422TMC3    O2 6306   2.168   2.485  12.718 -0.5781 -0.0129 -1.0308
  423MPD2     C 6307   4.307   3.195   1.107 -0.1715 -0.2144 -0.0009
  423MPD2    C1 6308   4.196   3.134   1.053 -0.0873  0.0961 -0.1655
  423MPD2    C2 6309   4.201   3.084   0.922  0.5151 -0.4782 -0.4188
  423MPD2    C3 6310   4.320   3.077   0.850 -0.1148 -0.3351 -0.2943
  423MPD2    C4 6311   4.427   3.150   0.905 -0.4226  0.9678  0.3096
  423MPD2    C5 6312   4.414   3.207   1.026 -0.2757 -0.1600 -0.9983
  423MPD2     H 6313   4.117   3.032   0.878 -1.7361  1.2403  1.8767
  423MPD2    H1 6314   4.521   3.171   0.854  0.2755  0.3391  1.3262
  423MPD2    H2 6315   4.321   3.232   1.208 -2.2170  0.9269 -0.1216
  423MPD2    H3 6316   4.496   3.271   1.056 -1.2239  0.1339  1.0017
  423MPD2     N 6317   4.336   3.009   0.736 -0.4489  0.0929  0.3553
  423MPD2    H5 6318   4.412   3.040   0.676 -0.8115  3.3485  1.5795
  423MPD2    N1 6319   4.071   3.128   1.123 -0.3370  0.3553  0.3473
  423MPD2    H7 6320   3.993   3.095   1.067  0.5606 -1.2866  0.0660
  424TMC3    C1 6321   3.919   3.143   1.303 -0.3502 -0.3261 -0.0381
  424TMC3    C2 6322   3.909   3.111   1.436  0.3829 -0.0297 -0.0397
  424TMC3    C3 6323   3.785   3.123   1.498  0.5334  0.2425  0.4996
  424TMC3    C4 6324   3.811   3.193   1.236 -0.1597 -0.5781 -0.4280
  424TMC3    C5 6325   3.690   3.205   1.297  0.1073  0.0097 -0.0548
  424TMC3    C6 6326   3.674   3.168   1.427  0.2827 -0.0290 -0.3220
  424TMC3     C 6327   4.061   3.147   1.255  0.0493 -0.2667  0.2504
  424TMC3     O 6328   4.149   3.170   1.338  0.3910  0.4535 -0.3113
  424TMC3     H 6329   3.994   3.063   1.484  0.3646  1.1876  1.2416
  424TMC3    H1 6330   3.821   3.222   1.132 -3.5893 -2.3764 -1.2823
  424TMC3    H2 6331   3.576   3.138   1.462  0.1277  0.9627  0.0924
  424TMC3    C7 6332   3.578   3.263   1.228 -0.4713  0.4879  0.0228
  424TMC3    C8 6333   3.767   3.053   1.628  0.9141  0.0038  0.5283
  424TMC3    O1 6334   3.585   3.264   1.107  0.8001 -0.5612  1.0995
  424TMC3    O2 6335   3.871   3.014   1.675  0.5340 -0.4522 -0.1753
  425MPD2     C 6336   2.319   2.712  17.123 -0.2915 -0.3212  0.0483
  425MPD2    C1 6337   2.363   2.654  17.238  0.3649  0.9405  0.0382
  425MPD2    C2 6338   2.342   2.715  17.359 -0.1056  0.5451 -0.1939
  425MPD2    C3 6339   2.265   2.827  17.372  0.1376  0.5198  0.3814
  425MPD2    C4 6340   2.221   2.878  17.251  0.7532  0.2874 -0.1248
  425MPD2    C5 6341   2.243   2.820  17.132  0.0872 -0.5965 -0.5186
  425MPD2     H 6342   2.367   2.673  17.456 -1.2207  1.3852  0.4674
  425MPD2    H1 6343   2.163   2.969  17.244 -0.4509 -0.4130  0.7714
  425MPD2    H2 6344   2.320   2.660  17.028 -0.6732 -0.5041  0.1420
  425MPD2    H3 6345   2.208   2.862  17.038 -1.8459  2.6729  1.6448
  425MPD2     N 6346   2.236   2.879  17.506  0.1497 -0.3070  0.0642
  425MPD2    H5 6347   2.290   2.835  17.579 -0.0798  0.1969  0.5405
  425MPD2    N1 6348   2.424   2.529  17.225 -0.9260  0.1614  0.0904
  425MPD2    H7 6349   2.461   2.514  17.131  1.5835  0.6617  1.0040
  426TMC3    C1 6350   2.490   2.320  17.270  0.3553  0.1134 -0.2891
  426TMC3    C2 6351   2.576   2.322  17.164 -0.5793  0.4734  0.7435
  426TMC3    C3 6352   2.625   2.199  17.119  1.0683 -0.2902  0.2125
  426TMC3    C4 6353   2.484   2.209  17.352 -0.5552  1.0458 -0.1715
  426TMC3    C5 6354   2.533   2.088  17.304 -0.0042 -0.7837 -0.4458
  426TMC3    C6 6355   2.598   2.081  17.186 -0.1435  0.1757 -0.0842
  426TMC3     C 6356   2.450   2.441  17.329 -0.1256 -0.3144  0.0520
  426TMC3     O 6357   2.422   2.447  17.449  0.0490  0.3341 -0.0723
  426TMC3     H 6358   2.593   2.411  17.104  1.1097  0.7292  1.6032
  426TMC3    H1 6359   2.428   2.218  17.444  0.1459  1.9364  0.1627
  426TMC3    H2 6360   2.622   1.988  17.137  0.9501  1.2361 -1.5767
  426TMC3    C7 6361   2.531   1.963  17.385 -0.2597  0.3164  0.3758
  426TMC3    C8 6362   2.674   2.181  16.979  0.3839 -0.5276 -0.4381
  426TMC3    O1 6363   2.579   1.857  17.345  0.1757  0.1314  0.1279
  426TMC3    O2 6364   2.678   2.065  16.938  0.3843 -0.1030  0.7207
  427MPD2     C 6365   1.354   0.146  15.368  0.2280 -0.5224 -0.0385
  427MPD2    C1 6366   1.317   0.021  15.409 -0.5411  0.1475  1.0950
  427MPD2    C2 6367   1.185   4.702  15.404 -0.1193  0.7358  0.1849
  427MPD2    C3 6368   1.092   0.069  15.356 -0.1537  0.0300 -0.5258
  427MPD2    C4 6369   1.130   0.194  15.311  0.2547  0.7814  0.2799
  427MPD2    C5 6370   1.261   0.232  15.308 -0.3000 -0.3319  0.1072
  427MPD2     H 6371   1.162   4.598  15.425 -0.6677  0.7579 -0.3352
  427MPD2    H1 6372   1.054   0.266  15.283 -0.8227 -0.1210  0.8793
  427MPD2    H2 6373   1.456   0.181  15.356 -0.0474 -0.2454 -1.6355
  427MPD2    H3 6374   1.294   0.325  15.262  2.1133  0.0203  2.5548
  427MPD2     N 6375   0.951   0.040  15.362  0.0890  0.7399 -0.1032
  427MPD2    H5 6376   0.891   0.107  15.316  0.8150  2.3442  1.2831
  427MPD2    N1 6377   1.412   4.653  15.459  0.3292  0.1402  0.5658
  427MPD2    H7 6378   1.382   4.558  15.476 -2.0289  1.1382  1.9197
  428TMC3    C1 6379   1.608   4.573  15.573  0.1858 -0.5833 -0.5237
  428TMC3    C2 6380   1.535   4.475  15.632  0.5904  0.2461 -0.1041
  428TMC3    C3 6381   1.610   4.398  15.721  0.1935 -0.0158 -0.2532
  428TMC3    C4 6382   1.740   4.601  15.593  0.0394 -0.1932 -0.0643
  428TMC3    C5 6383   1.806   4.522  15.680  0.9015 -0.5314  0.1199
  428TMC3    C6 6384   1.741   4.423  15.752 -0.1320 -0.0041 -0.3801
  428TMC3     C 6385   1.537   4.683  15.495  0.0190  0.6491 -0.2459
  428TMC3     O 6386   1.592   0.066  15.514 -0.0943  0.0056 -0.5300
  428TMC3     H 6387   1.429   4.457  15.615  0.5471  2.6586 -2.3107
  428TMC3    H1 6388   1.783   4.687  15.542 -1.7541  1.5940  1.4551
  428TMC3    H2 6389   1.800   4.349  15.805 -0.9220 -0.5282 -0.2299
  428TMC3    C7 6390   1.929   4.563  15.740  0.0419  0.9371 -0.0181
  428TMC3    C8 6391   1.549   4.282  15.782 -0.0334 -0.4785  0.7951
  428TMC3    O1 6392   1.967   4.495  15.834 -0.2110 -0.2240 -0.0944
  428TMC3    O2 6393   1.461   4.228  15.717 -0.6133 -0.2795  0.0012
  429MPD2     C 6394   2.109   0.374   0.205  0.1709  0.4846  0.4031
  429MPD2    C1 6395   2.068   0.336   0.085 -0.1393  0.4406 -0.6843
  429MPD2    C2 6396   2.152   0.357  17.673 -0.5563 -0.3038 -0.0279
  429MPD2    C3 6397   2.265   0.435  17.682 -0.0881  0.1443  0.5012
  429MPD2    C4 6398   2.309   0.473   0.117 -0.1268 -0.7935 -0.1104
  429MPD2    C5 6399   2.223   0.455   0.224 -0.8056  0.9019 -0.8627
  429MPD2     H 6400   2.123   0.322  17.574  1.1785  1.9595 -1.3283
  429MPD2    H1 6401   2.403   0.518   0.148 -0.1163  0.0081 -1.3230
  429MPD2    H2 6402   2.053   0.349   0.294  1.4699 -1.7686  0.5757
  429MPD2    H3 6403   2.258   0.483   0.323  3.0861  2.0779 -2.5429
  429MPD2     N 6404   2.343   0.458  17.570 -0.0879  0.3997  0.5275
  429MPD2    H5 6405   2.308   0.425  17.480  0.6587  2.4500 -0.4988
  429MPD2    N1 6406   1.946   0.262   0.071  0.1311  0.5293  0.0328
  429MPD2    H7 6407   1.905   0.233   0.159 -1.0536  1.0213 -0.3634
  430TMC3    C1 6408   2.533   0.479  17.434 -0.9351 -0.8050 -0.3090
  430TMC3    C2 6409   2.443   0.514  17.337 -0.5560  0.2258 -0.1166
  430TMC3    C3 6410   2.460   0.460  17.210  0.8797 -0.0517  0.4817
  430TMC3    C4 6411   2.630   0.385  17.408  0.2377  0.1969  0.3783
  430TMC3    C5 6412   2.645   0.335  17.281  0.2441  0.6612  0.0817
  430TMC3    C6 6413   2.557   0.363  17.181  0.8123 -0.2259 -0.2560
  430TMC3     C 6414   2.476   0.485  17.574  0.0553  0.2432 -0.3331
  430TMC3     O 6415   2.557   0.480  17.666 -0.0581  0.0041 -0.3889
  430TMC3     H 6416   2.362   0.578  17.368 -2.8516 -2.4106 -0.6176
  430TMC3    H1 6417   2.680   0.334  17.490  1.2702 -0.4776 -0.6620
  430TMC3    H2 6418   2.594   0.333  17.084 -3.3826  1.0975 -2.2166
  430TMC3    C7 6419   2.742   0.234  17.251 -0.0039 -0.3197  0.2795
  430TMC3    C8 6420   2.381   0.501  17.102 -0.3248 -0.6119  0.6981
  430TMC3    O1 6421   2.713   0.160  17.158 -0.8091 -0.4511  0.3128
  430TMC3    O2 6422   2.392   0.431  17.001  0.0677 -0.2545  0.3823
  431MPD2     C 6423   3.052   4.713  12.662  0.8161  0.0650  0.7596
  431MPD2    C1 6424   3.148   4.687  12.571  0.0163 -0.0690  0.3516
  431MPD2    C2 6425   3.151   4.573  12.503 -0.1300  0.6610  0.1866
  431MPD2    C3 6426   3.060   4.471  12.525 -0.3749  0.2311  0.3040
  431MPD2    C4 6427   2.959   4.503  12.606  0.7794 -1.2266 -0.1036
  431MPD2    C5 6428   2.957   4.615  12.679 -0.2004  0.5892 -0.7526
  431MPD2     H 6429   3.237   4.542  12.444  1.0658  0.4308  2.0704
  431MPD2    H1 6430   2.873   4.439  12.619  1.0155 -1.9714 -2.2478
  431MPD2    H2 6431   3.050   0.070  12.735 -1.6577  0.9813 -0.3128
  431MPD2    H3 6432   2.883   4.620  12.758 -0.8975  0.0324 -1.3775
  431MPD2     N 6433   3.061   4.342  12.470 -0.1786  0.7683 -0.4546
  431MPD2    H5 6434   2.986   4.280  12.500  0.4956 -0.7782 -1.9570
  431MPD2    N1 6435   3.248   0.057  12.549 -0.2056 -0.1711  0.0664
  431MPD2    H7 6436   3.311   0.040  12.472  1.1485 -0.4919  1.2343
  432TMC3    C1 6437   3.129   4.154  12.333  0.0631 -0.1455  0.0208
  432TMC3    C2 6438   3.216   4.109  12.241 -0.2518  0.2288 -0.5864
  432TMC3    C3 6439   3.236   3.978  12.215 -0.0708 -0.1620 -0.4920
  432TMC3    C4 6440   3.059   4.057  12.408 -0.2907  0.2207 -0.1256
  432TMC3    C5 6441   3.101   3.925  12.394  0.4213  0.3037  0.3840
  432TMC3    C6 6442   3.181   3.880  12.293 -0.0804 -0.5808  0.1926
  432TMC3     C 6443   3.155   4.290  12.388  0.3443 -0.6121 -0.0882
  432TMC3     O 6444   3.251   4.346  12.343 -0.2689 -0.0754 -0.6713
  432TMC3     H 6445   3.269   4.179  12.179  0.7142  0.9789  1.0876
  432TMC3    H1 6446   2.978   4.090  12.473 -1.0155  0.9675 -1.3990
  432TMC3    H2 6447   3.203   3.775  12.280 -0.5822 -0.2462 -3.3698
  432TMC3    C7 6448   3.118   3.840  12.518 -0.3587  0.1426 -0.3673
  432TMC3    C8 6449   3.331   3.935  12.110  0.8146 -0.0098  0.8549
  432TMC3    O1 6450   3.180   3.735  12.504  0.3095  0.4626  0.0771
  432TMC3    O2 6451   3.290   3.843  12.036 -0.3288 -0.1366  0.0029
  433MPD2     C 6452   2.649   3.479  10.835  0.7994  0.0385  0.5797
  433MPD2    C1 6453   2.546   3.452  10.924 -0.2527 -0.6142 -0.3893
  433MPD2    C2 6454   2.555   3.501  11.052  0.5714  0.0887 -0.9308
  433MPD2    C3 6455   2.662   3.573  11.095  0.2457  0.3324  0.7188
  433MPD2    C4 6456   2.765   3.608  10.998 -0.2611 -0.1113 -0.4610
  433MPD2    C5 6457   2.749   3.561  10.872  0.2142 -0.0102 -0.2202
  433MPD2     H 6458   2.479   3.492  11.128  0.9187  0.3994 -0.5422
  433MPD2    H1 6459   2.849   3.671  11.023 -0.4071 -0.5785  1.2260
  433MPD2    H2 6460   2.658   3.428  10.740  1.3611 -3.7020  2.6385
  433MPD2    H3 6461   2.826   3.571  10.796  3.1418  0.3427  2.8259
  433MPD2     N 6462   2.666   3.607  11.225  0.4458 -0.0958 -0.3679
  433MPD2    H5 6463   2.587   3.576  11.280 -0.0378 -1.0344 -1.5887
  433MPD2    N1 6464   2.443   3.367  10.881  0.8024 -0.7075  0.0922
  433MPD2    H7 6465   2.451   3.323  10.790  1.0773  0.6809 -0.5515
  434TMC3    C1 6466   2.255   3.237  10.886 -0.1111  0.4443  0.3107
  434TMC3    C2 6467   2.218   3.124  10.959  0.0736 -0.0359 -0.0315
  434TMC3    C3 6468   2.209   3.000  10.899  0.1337 -0.2115  0.2029
  434TMC3    C4 6469   2.261   3.234  10.750 -0.0556  0.8029 -0.4715
  434TMC3    C5 6470   2.230   3.110  10.699  0.3532 -0.0059  0.0684
  434TMC3    C6 6471   2.213   2.992  10.767 -0.2701  0.2039  0.1460
  434TMC3     C 6472   2.329   3.337  10.953  0.1535 -1.3529 -0.1128
  434TMC3     O 6473   2.305   3.362  11.071  0.1565  0.6735 -0.1519
  434TMC3     H 6474   2.224   3.128  11.067  2.7797 -1.3221 -0.1393
  434TMC3    H1 6475   2.259   3.324  10.689 -0.2043  1.0301 -0.1303
  434TMC3    H2 6476   2.213   2.892  10.724 -1.3372 -0.4554  1.6647
  434TMC3    C7 6477   2.206   3.102  10.551 -0.4074  0.1023 -0.0270
  434TMC3    C8 6478   2.254   2.897  10.991  0.0840  0.7624 -0.1090
  434TMC3    O1 6479   2.169   3.200  10.490  0.0996  0.1068  0.1404
  434TMC3    O2 6480   2.342   2.922  11.070 -0.5435 -0.0794  0.7737
  435MPD2     C 6481   4.235   3.274  15.282 -0.3627 -0.2356 -0.1778
  435MPD2    C1 6482   4.245   3.323  15.407 -0.5988 -0.4566 -0.4383
  435MPD2    C2 6483   4.342   3.281  15.493  0.0989 -0.5527 -0.0782
  435MPD2    C3 6484   4.435   3.186  15.451 -0.4380  0.1784  0.1911
  435MPD2    C4 6485   4.430   3.134  15.315 -0.0310  0.2596  0.1109
  435MPD2    C5 6486   4.323   3.179  15.237 -0.4207  0.2423  0.1652
  435MPD2     H 6487   4.352   3.325  15.592 -0.6980  0.9076 -0.6650
  435MPD2    H1 6488   4.514   3.074  15.280 -2.1422 -2.3733 -0.4311
  435MPD2    H2 6489   4.160   3.309  15.211  0.7188  0.6428 -0.8716
  435MPD2    H3 6490   4.312   3.141  15.136 -0.7163 -1.2019  0.7462
  435MPD2     N 6491   4.531   3.153  15.547 -0.2603  0.5952 -0.0724
  435MPD2    H5 6492   4.507   3.194  15.637  0.0415  1.9964 -0.6386
  435MPD2    N1 6493   4.149   3.404  15.464  0.2193 -0.2071 -0.3486
  435MPD2    H7 6494   4.152   3.406  15.565  0.2408 -3.2077 -0.2687
  436TMC3    C1 6495   3.958   3.681  15.701 -0.3664  0.1640  0.1417
  436TMC3    C2 6496   4.041   3.613  15.613  0.5244 -0.0690 -0.1982
  436TMC3    C3 6497   3.976   3.540  15.509 -0.1594 -0.3637  0.5361
  436TMC3    C4 6498   3.825   3.677  15.689 -0.0954  0.3483 -0.0803
  436TMC3    C5 6499   3.768   3.613  15.580  0.0306 -0.0298  0.5644
  436TMC3    C6 6500   3.838   3.540  15.491  0.2645  0.3207 -0.4995
  436TMC3     C 6501   4.023   3.756  15.808  0.0701  0.7807  0.2838
  436TMC3     O 6502   4.142   3.758  15.807  0.0774 -0.6547  0.0423
  436TMC3     H 6503   4.149   3.617  15.616  0.4879  1.6418 -1.6389
  436TMC3    H1 6504   3.763   3.718  15.768  0.8697 -0.0465  0.8760
  436TMC3    H2 6505   3.794   3.489  15.406 -1.1852 -2.2774  1.8257
  436TMC3    C7 6506   3.630   3.566  15.588  0.1227 -0.1316 -0.9835
  436TMC3    C8 6507   4.050   3.477  15.405 -0.1219 -0.0616  0.0691
  436TMC3    O1 6508   3.625   3.453  15.544 -0.3044 -0.3008 -0.7755
  436TMC3    O2 6509   4.016   3.489  15.290  0.0745 -0.2492 -1.1682
  437TMC3    C1 6510   2.924   0.227  13.244  0.4150 -0.1453  0.2900
  437TMC3    C2 6511   2.797   0.238  13.281 -0.0023 -0.0500 -0.3718
  437TMC3    C3 6512   2.713   0.323  13.219  0.2237  0.3095  0.2116
  437TMC3    C4 6513   2.978   0.298  13.145 -0.4743  0.8388  0.5379
  437TMC3    C5 6514   2.891   0.381  13.086  0.4126 -0.2452  0.3818
  437TMC3    C6 6515   2.759   0.396  13.121  0.1570  0.4273  0.3431
  437TMC3     C 6516   2.998   0.120  13.324 -0.7780  0.1984  0.6103
  437TMC3     O 6517   2.947   0.081  13.431  0.1805  0.7209 -0.1390
  437TMC3     H 6518   2.752   0.189  13.366  0.5279 -1.0749 -0.6840
  437TMC3    H1 6519   3.085   0.293  13.124 -0.9571 -1.0632 -1.4622
  437TMC3    H2 6520   2.695   0.452  13.055  2.0348  0.2817 -1.6210
  437TMC3    C7 6521   2.943   0.467  12.978 -0.0066 -0.4013  0.0251
  437TMC3    C8 6522   2.592   0.366  13.282  0.4277  0.7343 -0.3075
  437TMC3    O1 6523   2.863   0.540  12.918 -0.0714  0.1089  0.5312
  437TMC3    O2 6524   2.562   0.305  13.382  0.0630 -0.4506  0.8136
  438MPD2     C 6525   0.386   1.347  17.027  0.3715 -0.4897  0.6211
  438MPD2    C1 6526   0.477   1.330  17.129 -0.4368  0.7302  1.0017
  438MPD2    C2 6527   0.434   1.292  17.256  0.5894 -0.1410  0.1878
  438MPD2    C3 6528   0.309   1.244  17.275 -0.3679 -0.2953  1.0389
  438MPD2    C4 6529   0.219   1.247  17.173 -0.5119  0.3399  0.2597
  438MPD2    C5 6530   0.258   1.309  17.056 -0.0938 -0.0302  0.1587
  438MPD2     H 6531   0.510   1.275  17.331  1.2909 -1.3666 -0.7917
  438MPD2    H1 6532   0.116   1.216  17.182 -1.1378  2.8986  1.6924
  438MPD2    H2 6533   0.411   1.364  16.923  0.0217 -2.6167  0.1889
  438MPD2    H3 6534   0.183   1.321  16.978  1.1186  1.9339 -0.6940
  438MPD2     N 6535   0.260   1.185  17.386 -0.1195  0.0462  0.3445
  438MPD2    H5 6536   0.169   1.140  17.388  0.6390 -1.4428  1.2869
  438MPD2    N1 6537   0.617   1.352  17.111 -0.0298 -0.0909  0.6832
  438MPD2    H7 6538   0.678   1.335  17.190  0.3997 -2.1451 -0.1033
  439TMC3    C1 6539   0.817   1.416  16.995 -0.4376 -0.0408 -0.8633
  439TMC3    C2 6540   0.871   1.483  16.888  0.3950  0.0467  0.6948
  439TMC3    C3 6541   1.009   1.473  16.872  0.1122  0.0316 -0.6876
  439TMC3    C4 6542   0.891   1.319  17.061 -0.3221 -0.2662 -0.3186
  439TMC3    C5 6543   1.023   1.313  17.045  0.5020 -0.1206  0.5441
  439TMC3    C6 6544   1.085   1.397  16.964  0.0572  0.6211 -0.9197
  439TMC3     C 6545   0.673   1.405  16.994  0.1155  0.2784  0.0483
  439TMC3     O 6546   0.615   1.442  16.895  0.2470  0.1920  0.5154
  439TMC3     H 6547   0.824   1.571  16.848 -0.2957 -0.3668  0.5997
  439TMC3    H1 6548   0.844   1.258  17.137 -0.0414  1.5963  1.3269
  439TMC3    H2 6549   1.192   1.395  16.943  0.1427  0.7113 -0.4982
  439TMC3    C7 6550   1.095   1.188  17.080  0.6944  0.3157  0.2655
  439TMC3    C8 6551   1.044   1.434  16.735  0.3294  0.5435 -0.1147
  439TMC3    O1 6552   1.216   1.186  17.071 -0.2732 -0.2023 -0.0811
  439TMC3    O2 6553   1.157   1.409  16.709 -0.2096  0.1698  0.0379
  440MPD2     C 6554   4.151   1.660  14.834 -0.2160 -0.2786 -0.2455
  440MPD2    C1 6555   4.204   1.760  14.915  1.3665 -0.1714 -0.6199
  440MPD2    C2 6556   4.336   1.746  14.961 -0.4007 -0.0679 -0.4756
  440MPD2    C3 6557   4.416   1.638  14.923 -0.1966  0.0718  0.0301
  440MPD2    C4 6558   4.361   1.543  14.848 -0.1021 -0.0373  0.1893
  440MPD2    C5 6559   4.227   1.547  14.812  0.1351 -0.1286 -0.1545
  440MPD2     H 6560   4.376   1.825  15.023 -0.7158 -0.2676 -0.0155
  440MPD2    H1 6561   4.421   1.460  14.813 -1.5617 -0.8978 -0.2879
  440MPD2    H2 6562   4.051   1.666  14.793 -0.4194 -3.0663 -0.1702
  440MPD2    H3 6563   4.194   1.463  14.752 -1.6165 -0.6572  1.5406
  440MPD2     N 6564   4.550   1.617  14.971  0.7938 -0.4662  0.2084
  440MPD2    H5 6565   4.583   1.521  14.964 -2.7873 -1.7598  1.0094
  440MPD2    N1 6566   4.122   1.869  14.952 -0.5314  0.1507 -0.4603
  440MPD2    H7 6567   4.166   1.940  15.009 -1.5184  0.0763  0.3886
  441TMC3    C1 6568   0.024   1.656  15.106 -0.5324 -0.2502  0.8784
  441TMC3    C2 6569   0.090   1.765  15.149  1.3638 -0.3696  0.6304
  441TMC3    C3 6570   0.120   1.770  15.286 -0.6028  0.6289 -0.0203
  441TMC3    C4 6571   0.009   1.539  15.176 -0.0184 -0.6131  0.3942
  441TMC3    C5 6572   0.060   1.542  15.305  0.4561  0.2972  0.4192
  441TMC3    C6 6573   0.102   1.658  15.361 -0.2431 -0.1930  0.4475
  441TMC3     C 6574   4.624   1.709  15.044  0.0429  0.4918  0.1657
  441TMC3     O 6575   4.605   1.828  15.075 -0.2290  0.1138  0.0817
  441TMC3     H 6576   0.109   1.848  15.082 -1.0154  1.0205  1.6891
  441TMC3    H1 6577   4.668   1.458  15.142  0.4981 -0.7641 -0.2020
  441TMC3    H2 6578   0.143   1.659  15.461 -3.0450 -0.4824  1.5831
  441TMC3    C7 6579   0.070   1.418  15.377  0.1281  0.0793 -0.2806
  441TMC3    C8 6580   0.072   1.886  15.357  0.0479  0.4337  0.9237
  441TMC3    O1 6581   0.090   1.320  15.307 -0.8025 -0.0752 -0.2726
  441TMC3    O2 6582   0.117   1.896  15.472  0.7960 -0.4114  0.3432
  442MPD2     C 6583   2.327   2.150  16.539  0.1298 -0.1343  0.3896
  442MPD2    C1 6584   2.378   2.231  16.441  0.7923  0.6531  0.6743
  442MPD2    C2 6585   2.421   2.177  16.322  0.0640 -0.4740 -0.3867
  442MPD2    C3 6586   2.410   2.042  16.306 -0.1796  0.6605 -0.0469
  442MPD2    C4 6587   2.371   1.963  16.410 -0.0333 -0.4325 -0.6490
  442MPD2    C5 6588   2.330   2.018  16.527 -0.6579 -0.4437 -0.0328
  442MPD2     H 6589   2.458   2.242  16.244  1.3579  0.8939  1.3618
  442MPD2    H1 6590   2.374   1.855  16.405  0.9266 -0.4658  0.4684
  442MPD2    H2 6591   2.281   2.186  16.631  0.5171  0.1999  0.4518
  442MPD2    H3 6592   2.297   1.955  16.608 -0.6489  1.8816  1.7722
  442MPD2     N 6593   2.423   1.975  16.183 -0.5268  0.1657 -0.0043
  442MPD2    H5 6594   2.384   1.882  16.177  1.6840 -1.0040  3.4535
  442MPD2    N1 6595   2.378   2.373  16.449 -0.0674 -0.6158  0.4589
  442MPD2    H7 6596   2.409   2.418  16.363  0.7570  0.3285  1.2597
  443TMC3    C1 6597   2.331   2.590  16.514 -0.2308  0.3424 -0.3249
  443TMC3    C2 6598   2.271   2.621  16.397  0.1370 -0.7515 -0.1469
  443TMC3    C3 6599   2.166   2.710  16.410  0.3915  0.3956  0.0562
  443TMC3    C4 6600   2.307   2.655  16.631  0.3236  0.1747 -0.1842
  443TMC3    C5 6601   2.206   2.754  16.637 -0.7447 -0.3817 -0.1618
  443TMC3    C6 6602   2.137   2.781  16.525  0.0755  0.2539 -0.1489
  443TMC3     C 6603   2.342   2.452  16.547  0.4276  0.2004 -0.1982
  443TMC3     O 6604   2.305   2.415  16.657 -0.5067  0.4397 -0.5678
  443TMC3     H 6605   2.290   2.564  16.308 -1.1577 -1.4327  0.0128
  443TMC3    H1 6606   2.361   2.630  16.722  1.5725  2.0772 -0.4067
  443TMC3    H2 6607   2.050   2.844  16.538 -0.0155 -0.0981  0.9265
  443TMC3    C7 6608   2.123   2.749  16.759  0.3468  0.5765 -0.2371
  443TMC3    C8 6609   2.062   2.690  16.317  0.2310 -0.2271  0.2724
  443TMC3    O1 6610   2.054   2.848  16.782  0.6132 -0.2962 -0.1485
  443TMC3    O2 6611   2.069   2.594  16.235  0.2130 -0.0177  0.2870
  444MPD2     C 6612   2.302   1.933  17.060 -0.4666 -0.0993 -0.2446
  444MPD2    C1 6613   2.261   1.810  17.112  0.8043 -0.4615  0.0410
  444MPD2    C2 6614   2.287   1.697  17.034 -0.5525  0.0365  0.3516
  444MPD2    C3 6615   2.380   1.707  16.932  0.1491 -0.0851  0.4161
  444MPD2    C4 6616   2.430   1.822  16.891  0.1501 -0.1196 -0.2454
  444MPD2    C5 6617   2.386   1.935  16.950 -0.4856 -0.8105  0.5351
  444MPD2     H 6618   2.249   1.600  17.062 -0.3290 -0.0848  0.2326
  444MPD2    H1 6619   2.496   1.825  16.805  0.9938  0.1446  0.4068
  444MPD2    H2 6620   2.273   2.029  17.102  0.7276  0.5472 -0.8818
  444MPD2    H3 6621   2.420   2.027  16.905  1.5997 -2.0097 -0.3362
  444MPD2     N 6622   2.423   1.581  16.880 -0.1842 -0.2271 -0.2640
  444MPD2    H5 6623   2.388   1.493  16.918 -1.1772  0.3070  0.0522
  444MPD2    N1 6624   2.197   1.796  17.237  0.0711  0.6063 -0.1171
  444MPD2    H7 6625   2.151   1.708  17.258 -0.4204  1.0704  0.7880
  445TMC3    C1 6626   2.541   1.425  16.769  0.3091 -0.4648  0.0290
  445TMC3    C2 6627   2.438   1.366  16.702  0.2630 -0.0519 -0.3107
  445TMC3    C3 6628   2.461   1.262  16.616 -0.4601 -0.2705 -0.5827
  445TMC3    C4 6629   2.671   1.388  16.748  0.7339 -0.1183 -0.3277
  445TMC3    C5 6630   2.691   1.276  16.664  0.7437  0.8548  0.5411
  445TMC3    C6 6631   2.584   1.210  16.601  0.3472 -0.0682 -0.0112
  445TMC3     C 6632   2.524   1.561  16.792  0.1089  0.5617  0.2575
  445TMC3     O 6633   2.601   1.639  16.738  0.2832 -0.4857  0.0993
  445TMC3     H 6634   2.338   1.407  16.712 -0.5464 -1.8030 -1.3648
  445TMC3    H1 6635   2.758   1.435  16.794  0.3942  0.0809  0.1153
  445TMC3    H2 6636   2.606   1.128  16.533  0.2480  0.5397 -0.7814
  445TMC3    C7 6637   2.834   1.230  16.656  0.4920 -0.4794 -0.6134
  445TMC3    C8 6638   2.351   1.212  16.542 -0.2823 -0.5728 -0.3380
  445TMC3    O1 6639   2.923   1.316  16.681  0.1672  0.1809  0.8534
  445TMC3    O2 6640   2.238   1.240  16.578  0.5510 -0.3466 -0.0133
  446MPD2     C 6641   2.053   2.804  11.521 -0.4469 -0.0150  1.0784
  446MPD2    C1 6642   2.071   2.804  11.385 -0.2191 -0.6565 -0.8348
  446MPD2    C2 6643   2.177   2.877  11.329 -0.1212 -0.0458 -0.4651
  446MPD2    C3 6644   2.270   2.941  11.405 -0.1402 -0.3836 -0.2218
  446MPD2    C4 6645   2.256   2.941  11.540 -0.0936 -0.1102  0.2634
  446MPD2    C5 6646   2.155   2.870  11.596 -0.1284  0.2079 -0.5298
  446MPD2     H 6647   2.192   2.877  11.221 -1.0395  2.2384 -0.5993
  446MPD2    H1 6648   2.321   2.981  11.617 -1.1591  0.6812  0.7590
  446MPD2    H2 6649   1.969   2.754  11.568  0.2980 -2.6825 -0.4536
  446MPD2    H3 6650   2.152   2.854  11.703  2.9480 -0.8405 -0.5970
  446MPD2     N 6651   2.378   3.008  11.342 -0.4065 -0.1436  0.0595
  446MPD2    H5 6652   2.380   3.009  11.241 -0.2139 -1.1739  0.0558
  446MPD2    N1 6653   1.988   2.728  11.294 -0.1978  0.2566  1.1044
  446MPD2    H7 6654   2.009   2.742  11.196  1.4964 -0.2373  1.3974
  447TMC3    C1 6655   2.581   3.128  11.307 -0.0747 -0.1757 -0.1423
  447TMC3    C2 6656   2.566   3.107  11.170  0.3344  0.4652 -0.2789
  447TMC3    C3 6657   2.660   3.162  11.088 -0.1743 -0.1232 -0.1776
  447TMC3    C4 6658   2.695   3.175  11.361 -0.7457 -0.2719  0.4222
  447TMC3    C5 6659   2.801   3.205  11.279  0.4915  0.1608 -0.0027
  447TMC3    C6 6660   2.784   3.206  11.142 -0.0139  0.4521  0.2456
  447TMC3     C 6661   2.486   3.066  11.402  0.0095 -0.1039  0.6877
  447TMC3     O 6662   2.512   3.079  11.522  0.2624 -0.3145 -0.4759
  447TMC3     H 6663   2.472   3.069  11.129 -0.2785  1.6285  0.0485
  447TMC3    H1 6664   2.714   3.163  11.467 -0.7507 -1.6171  0.2636
  447TMC3    H2 6665   2.868   3.224  11.076  0.7180 -0.2627  0.9746
  447TMC3    C7 6666   2.927   3.152  11.320  1.0988  0.3666  0.2932
  447TMC3    C8 6667   2.665   3.123  10.950  0.4396 -0.0664 -0.2943
  447TMC3    O1 6668   2.979   3.084  11.230 -0.2423 -0.3623  0.0607
  447TMC3    O2 6669   2.718   3.195  10.868 -0.2884 -0.7570 -0.9821
  448TMC3    C1 6670   0.344   2.731  16.836 -0.8044  0.5920  0.5917
  448TMC3    C2 6671   0.459   2.673  16.804 -0.0762  0.1387  0.4632
  448TMC3    C3 6672   0.553   2.667  16.905 -0.3984 -0.2877  0.6438
  448TMC3    C4 6673   0.315   2.779  16.959 -0.2489  0.4207 -0.0982
  448TMC3    C5 6674   0.410   2.757  17.052  0.3363 -0.3557 -0.5147
  448TMC3    C6 6675   0.531   2.702  17.031 -0.1623  0.2310  0.2687
  448TMC3     C 6676   0.265   2.768  16.726  0.0762 -0.0582  0.2092
  448TMC3     O 6677   0.265   2.703  16.622 -0.4187 -0.3502 -0.1399
  448TMC3     H 6678   0.472   2.656  16.697  0.8725 -2.9385  1.0774
  448TMC3    H1 6679   0.219   2.825  16.981 -0.5202 -0.3126  0.2567
  448TMC3    H2 6680   0.606   2.685  17.107  0.7546  0.5429 -0.5670
  448TMC3    C7 6681   0.373   2.797  17.186  0.3116 -0.2418  0.2130
  448TMC3    C8 6682   0.681   2.600  16.871  0.1196  0.5551 -0.4729
  448TMC3    O1 6683   0.278   2.873  17.205 -0.1141 -0.1307  0.3272
  448TMC3    O2 6684   0.681   2.519  16.778  0.0813 -0.3035  0.4021
  449MPD2     C 6685   2.064   1.135  14.108 -0.6086 -0.6126 -0.3943
  449MPD2    C1 6686   1.953   1.160  14.032  0.4288 -0.6500 -0.4810
  449MPD2    C2 6687   1.829   1.114  14.066  0.2565 -0.0339 -0.0137
  449MPD2    C3 6688   1.814   1.027  14.168 -0.2678 -0.1474  0.2446
  449MPD2    C4 6689   1.925   0.997  14.251 -0.5901  0.7554  0.3981
  449MPD2    C5 6690   2.050   1.055  14.220 -0.0091 -0.5334 -0.0552
  449MPD2     H 6691   1.739   1.147  14.015  0.0038 -0.0047  0.4538
  449MPD2    H1 6692   1.926   0.924  14.331  1.1752  0.7374  0.3678
  449MPD2    H2 6693   2.156   1.188  14.083 -2.1058  1.5284 -1.3214
  449MPD2    H3 6694   2.128   1.026  14.290 -0.2530 -2.6021 -0.6414
  449MPD2     N 6695   1.685   0.981  14.198 -0.2218  0.2919 -0.1530
  449MPD2    H5 6696   1.612   1.024  14.142  1.0591  1.1137 -1.1731
  449MPD2    N1 6697   1.957   1.236  13.908 -0.1841  0.1703 -0.9071
  449MPD2    H7 6698   1.868   1.273  13.876 -1.4346 -1.0907  1.0584
  450TMC3    C1 6699   2.029   1.325  13.707 -0.3078  1.0058  0.1366
  450TMC3    C2 6700   2.073   1.249  13.609 -0.9374  0.2517  0.9270
  450TMC3    C3 6701   1.992   1.233  13.504 -0.5665  0.1340  0.2680
  450TMC3    C4 6702   1.903   1.387  13.713  0.5702 -0.1168  0.3704
  450TMC3    C5 6703   1.816   1.356  13.611  0.1284  0.4928  0.1446
  450TMC3    C6 6704   1.857   1.276  13.502 -0.0793 -0.0055 -0.2121
  450TMC3     C 6705   2.066   1.253  13.830 -0.3536 -0.3655  0.1093
  450TMC3     O 6706   2.171   1.190  13.843  0.3989  0.4413 -0.2082
  450TMC3     H 6707   2.171   1.203  13.616 -1.3413 -0.3818  2.4408
  450TMC3    H1 6708   1.868   1.441  13.800  2.9401 -1.2626  2.0452
  450TMC3    H2 6709   1.803   1.253  13.412 -0.4983 -1.2618  0.3678
  450TMC3    C7 6710   1.680   1.329  13.660  0.5768  0.0021  0.7415
  450TMC3    C8 6711   2.046   1.197  13.370 -0.4537 -0.9150 -0.0284
  450TMC3    O1 6712   1.679   1.332  13.782 -0.1212  0.0907  0.5111
  450TMC3    O2 6713   1.988   1.235  13.269 -0.0326 -0.1727  0.8646
  451MPD2     C 6714   3.714   0.447   1.360  0.5873 -0.4951  0.3501
  451MPD2    C1 6715   3.588   0.406   1.311  1.3717  0.9219  0.1017
  451MPD2    C2 6716   3.558   0.270   1.307  0.8636 -0.1851 -0.2444
  451MPD2    C3 6717   3.651   0.176   1.338 -0.4605 -0.1518 -0.2008
  451MPD2    C4 6718   3.773   0.222   1.384 -0.1884 -0.0410  0.3670
  451MPD2    C5 6719   3.803   0.356   1.394  0.1345  0.1769  0.3586
  451MPD2     H 6720   3.458   0.232   1.290 -0.1413  1.9183  0.9253
  451MPD2    H1 6721   3.852   0.165   1.430  1.9764  2.8511  0.2878
  451MPD2    H2 6722   3.739   0.553   1.366  0.6409 -0.6225  2.4783
  451MPD2    H3 6723   3.900   0.390   1.428  0.9707 -0.5082 -1.3148
  451MPD2     N 6724   3.608   0.042   1.351 -0.0538  0.0422 -0.5296
  451MPD2    H5 6725   3.514   0.021   1.318  0.1631  1.6937 -2.2274
  451MPD2    N1 6726   3.493   0.502   1.275 -0.4194  0.4079  0.8169
  451MPD2    H7 6727   3.521   0.597   1.297  2.1831 -0.4886  1.4487
  452TMC3    C1 6728   3.637   4.529   1.359  0.2464  0.2622  0.8414
  452TMC3    C2 6729   3.692   4.426   1.432 -0.0446  0.1662 -0.3758
  452TMC3    C3 6730   3.672   4.305   1.379 -0.5009 -0.1054  0.0395
  452TMC3    C4 6731   3.567   4.515   1.242  0.5983  0.3042 -0.1072
  452TMC3    C5 6732   3.543   4.391   1.200  0.0037 -0.1354  0.1256
  452TMC3    C6 6733   3.593   4.283   1.271  0.7833  0.3804  0.5721
  452TMC3     C 6734   3.686   4.658   1.394  0.6314 -0.1255  0.5299
  452TMC3     O 6735   3.798   4.655   1.443 -0.4228 -0.4393 -0.0266
  452TMC3     H 6736   3.756   4.442   1.518 -2.0826  1.9183  0.8191
  452TMC3    H1 6737   3.520   4.601   1.194  0.5640  0.6902  0.6185
  452TMC3    H2 6738   3.576   4.178   1.249  0.0592  0.8920 -1.2941
  452TMC3    C7 6739   3.466   4.377   1.084 -0.8681 -0.7028 -0.2412
  452TMC3    C8 6740   3.731   4.198   1.447  0.3249 -0.3167  0.8788
  452TMC3    O1 6741   3.454   4.480   1.018 -0.4657  0.1440  0.0559
  452TMC3    O2 6742   3.669   4.090   1.439 -0.2696 -0.2384 -0.2561
  453TMC3    C1 6743   4.380   1.890  11.779  0.4056  0.5831  0.1577
  453TMC3    C2 6744   4.337   1.759  11.773  0.2619  0.5016 -0.1206
  453TMC3    C3 6745   4.233   1.741  11.683  0.0115 -0.4870  0.0215
  453TMC3    C4 6746   4.323   1.986  11.704 -0.0877 -0.2255 -0.1465
  453TMC3    C5 6747   4.226   1.953  11.611 -0.5072 -0.0864 -0.1249
  453TMC3    C6 6748   4.182   1.828  11.600 -0.3382  0.5373  0.1013
  453TMC3     C 6749   4.499   1.934  11.853 -0.2692 -0.2691  0.4261
  453TMC3     O 6750   4.518   2.053  11.874 -0.6739  0.9243  0.4312
  453TMC3     H 6751   4.380   1.679  11.831 -4.2148 -0.2224  2.1819
  453TMC3    H1 6752   4.368   2.085  11.715  1.8461 -0.9110 -1.9120
  453TMC3    H2 6753   4.116   1.803  11.517 -1.9530 -1.2047  1.9043
  453TMC3    C7 6754   4.236   2.039  11.493  0.0357  0.4848 -0.2891
  453TMC3    C8 6755   4.154   1.619  11.698 -0.5689  0.2552  0.3852
  453TMC3    O1 6756   4.264   1.974  11.392 -0.3904 -0.0617 -0.0912
  453TMC3    O2 6757   4.049   1.614  11.633  0.1132 -1.0289 -0.0243
  454MPD2     C 6758   3.334   1.377  16.304 -0.2688  0.2554  0.3898
  454MPD2    C1 6759   3.302   1.436  16.180  0.2416  0.0084  0.7530
  454MPD2    C2 6760   3.221   1.549  16.187 -0.7803  0.0576 -0.1202
  454MPD2    C3 6761   3.159   1.598  16.299  0.2458  0.4652 -1.5427
  454MPD2    C4 6762   3.191   1.536  16.419 -0.2846  0.3924  0.1374
  454MPD2    C5 6763   3.275   1.429  16.418 -0.2832 -0.0792  0.1486
  454MPD2     H 6764   3.196   1.599  16.094 -1.2381  0.7199  0.3529
  454MPD2    H1 6765   3.157   1.557  16.519  1.2961 -0.6451  0.8991
  454MPD2    H2 6766   3.404   1.298  16.329 -1.5214 -0.1170  2.8004
  454MPD2    H3 6767   3.307   1.381  16.509 -0.0028 -1.2162 -0.5434
  454MPD2     N 6768   3.060   1.693  16.303  0.8806  0.4381  0.1390
  454MPD2    H5 6769   3.005   1.710  16.386  1.1731  0.1706  0.3881
  454MPD2    N1 6770   3.359   1.402  16.056  0.6299 -0.7427  0.4103
  454MPD2    H7 6771   3.339   1.468  15.982 -0.0183  0.1331  1.3574
  455TMC3    C1 6772   2.890   1.808  16.201 -0.3086 -0.8865  0.1648
  455TMC3    C2 6773   2.849   1.900  16.300 -0.2572  0.2898 -0.0205
  455TMC3    C3 6774   2.731   1.878  16.360  0.3509 -0.5063 -0.1672
  455TMC3    C4 6775   2.805   1.702  16.171 -0.2824  0.4835 -0.2460
  455TMC3    C5 6776   2.691   1.686  16.239  1.0451 -0.2445  0.2885
  455TMC3    C6 6777   2.658   1.769  16.343  0.3288  0.0918 -0.0815
  455TMC3     C 6778   3.032   1.777  16.199 -0.0459  0.0837  0.1644
  455TMC3     O 6779   3.077   1.779  16.084 -0.1022  0.2225  0.4922
  455TMC3     H 6780   2.920   1.978  16.324  1.1739 -0.0180 -3.2194
  455TMC3    H1 6781   2.848   1.637  16.097 -3.1314  0.0467 -1.5313
  455TMC3    H2 6782   2.564   1.753  16.394  0.4490  1.6443  0.6125
  455TMC3    C7 6783   2.608   1.568  16.207 -0.0729  0.5597  0.3227
  455TMC3    C8 6784   2.715   1.954  16.489 -0.0334  0.2109 -0.2552
  455TMC3    O1 6785   2.530   1.523  16.290  0.2804  0.2680  0.3184
  455TMC3    O2 6786   2.693   1.888  16.592  0.3395 -0.7512 -0.5160
  456MPD2     C 6787   1.016   1.451  16.157 -0.3188 -0.1195  0.7117
  456MPD2    C1 6788   1.127   1.433  16.233 -0.2138  0.3770 -0.3858
  456MPD2    C2 6789   1.145   1.515  16.343 -0.0861 -0.6232  0.1515
  456MPD2    C3 6790   1.063   1.619  16.375  0.0590 -0.1238 -0.6084
  456MPD2    C4 6791   0.964   1.643  16.286 -0.1253 -0.2758 -0.1931
  456MPD2    C5 6792   0.936   1.561  16.183  0.1384 -0.1262  0.0212
  456MPD2     H 6793   1.235   1.505  16.402  1.3697  1.4544 -1.7037
  456MPD2    H1 6794   0.885   1.712  16.313  1.2330  0.7817  1.0646
  456MPD2    H2 6795   0.992   1.385  16.074  0.7511  1.7198 -1.0450
  456MPD2    H3 6796   0.842   1.567  16.129 -0.2516 -0.8330  0.6236
  456MPD2     N 6797   1.092   1.709  16.483 -1.0369 -0.6618 -0.0403
  456MPD2    H5 6798   1.166   1.680  16.546 -0.1470  1.0130 -0.3075
  456MPD2    N1 6799   1.222   1.333  16.197 -0.1616  0.6206  0.3030
  456MPD2    H7 6800   1.206   1.300  16.102 -0.0767  0.4729  0.3404
  457TMC3    C1 6801   1.108   1.886  16.637  0.9440  0.5110  0.0379
  457TMC3    C2 6802   1.084   2.018  16.650  0.3302  0.1704  0.1023
  457TMC3    C3 6803   1.098   2.074  16.771 -0.1651  0.1071  0.4849
  457TMC3    C4 6804   1.133   1.807  16.738  0.3298  0.5693 -0.9635
  457TMC3    C5 6805   1.143   1.863  16.864  0.0120 -0.0673  0.2059
  457TMC3    C6 6806   1.129   1.997  16.884  0.6626 -0.2410 -0.4846
  457TMC3     C 6807   1.033   1.830  16.518 -0.0217  0.4943  0.0205
  457TMC3     O 6808   0.954   1.904  16.462  0.5341  0.2439 -0.0310
  457TMC3     H 6809   1.072   2.077  16.560  0.0627  0.4102  0.2963
  457TMC3    H1 6810   1.141   1.699  16.737 -0.4838  0.5081 -0.9521
  457TMC3    H2 6811   1.141   2.041  16.982  2.1856  2.4051 -1.8551
  457TMC3    C7 6812   1.112   1.783  16.988 -0.5681  0.3478 -0.6342
  457TMC3    C8 6813   1.054   2.212  16.782  0.4404 -0.2469  0.0048
  457TMC3    O1 6814   1.179   1.687  17.014 -0.0610 -0.2292 -0.3792
  457TMC3    O2 6815   0.980   2.252  16.698  0.0953 -0.3384  0.2319
  458MPD2     C 6816   3.296   0.659  12.677 -0.8701  0.7212  0.0683
  458MPD2    C1 6817   3.357   0.628  12.796  0.2237 -0.1647 -0.2882
  458MPD2    C2 6818   3.285   0.566  12.899  0.1128 -0.7382 -0.0487
  458MPD2    C3 6819   3.153   0.534  12.869  0.1274 -0.4897  0.0527
  458MPD2    C4 6820   3.097   0.561  12.749  0.4693 -0.9840 -0.2639
  458MPD2    C5 6821   3.168   0.621  12.657 -0.5094  0.5739  0.0242
  458MPD2     H 6822   3.328   0.535  12.993 -0.3694  0.2612  0.5050
  458MPD2    H1 6823   2.997   0.528  12.724  0.6649  0.9591 -3.5780
  458MPD2    H2 6824   3.339   0.713  12.593  0.3008  1.4220  1.1176
  458MPD2    H3 6825   3.122   0.637  12.560 -0.5215  2.9214  0.4171
  458MPD2     N 6826   3.081   0.474  12.974 -0.7344  0.0861 -0.1126
  458MPD2    H5 6827   3.131   0.431  13.051 -2.3473  1.2807  1.5767
  458MPD2    N1 6828   3.490   0.638  12.825 -0.3196  0.4667 -0.0787
  458MPD2    H7 6829   3.511   0.610  12.920  1.0678 -3.3020 -1.4913
  459TMC3    C1 6830   3.705   0.727  12.805 -0.5396 -0.4694  0.3334
  459TMC3    C2 6831   3.780   0.833  12.767  0.3193  1.1071 -0.3289
  459TMC3    C3 6832   3.879   0.875  12.850  1.1151 -0.3832 -0.4455
  459TMC3    C4 6833   3.724   0.660  12.927  0.1707  0.3108 -0.2501
  459TMC3    C5 6834   3.826   0.713  12.998  0.3228  0.0028 -0.2489
  459TMC3    C6 6835   3.911   0.816  12.970 -0.0877  0.4152 -0.1183
  459TMC3     C 6836   3.576   0.705  12.740 -0.4984  0.4447 -0.4592
  459TMC3     O 6837   3.557   0.747  12.628 -0.0957 -0.7037  0.5904
  459TMC3     H 6838   3.749   0.888  12.678  1.7899 -0.1528 -1.6305
  459TMC3    H1 6839   3.684   0.561  12.944 -0.1773  0.3385 -0.9241
  459TMC3    H2 6840   4.000   0.842  13.026  0.1999  0.3531 -0.5491
  459TMC3    C7 6841   3.841   0.652  13.133 -0.2095  0.2958  0.3676
  459TMC3    C8 6842   4.010   0.910  12.794  0.3564 -0.1770  0.1450
  459TMC3    O1 6843   3.811   0.533  13.134 -0.0987 -0.3548 -0.0827
  459TMC3    O2 6844   4.106   0.937  12.866 -0.7479 -0.4213  0.0054
  460MPD2     C 6845   2.570   2.804  10.790  0.3201  0.5781 -0.0324
  460MPD2    C1 6846   2.587   2.937  10.799 -0.9704  0.2941 -0.6708
  460MPD2    C2 6847   2.573   3.015  10.680  0.2738  0.3623 -0.8362
  460MPD2    C3 6848   2.554   2.955  10.554  0.1649 -0.2424 -0.4551
  460MPD2    C4 6849   2.529   2.823  10.558  0.0705 -0.3563  0.1487
  460MPD2    C5 6850   2.540   2.747  10.673  0.5380 -0.1489 -0.0957
  460MPD2     H 6851   2.587   3.122  10.672 -0.4990  0.5972  0.9057
  460MPD2    H1 6852   2.506   2.764  10.470  2.3869  0.5039 -1.0474
  460MPD2    H2 6853   2.575   2.732  10.871  0.0774  3.3574  2.4767
  460MPD2    H3 6854   2.528   2.640  10.670  1.2999 -0.2957  2.1243
  460MPD2     N 6855   2.540   3.034  10.436  0.4814 -0.3143 -0.5700
  460MPD2    H5 6856   2.524   3.133  10.447 -0.7160 -0.4769 -0.8612
  460MPD2    N1 6857   2.613   3.001  10.923  0.4607 -0.2988  0.6449
  460MPD2    H7 6858   2.604   2.942  11.006 -2.6243 -3.8024 -2.1577
  461TMC3    C1 6859   2.465   3.057  10.199 -0.6472 -0.7105  0.0219
  461TMC3    C2 6860   2.397   2.988  10.100  0.2325  0.1568 -0.1763
  461TMC3    C3 6861   2.342   3.063  10.001 -0.0411  1.0812 -0.4124
  461TMC3    C4 6862   2.460   3.195  10.206  0.0004 -0.5718 -0.9606
  461TMC3    C5 6863   2.383   3.262  10.109  0.1948 -0.5528 -0.5531
  461TMC3    C6 6864   2.331   3.196  10.000  0.6185 -0.2883  0.4071
  461TMC3     C 6865   2.521   2.979  10.308 -0.4091 -0.2532 -0.0843
  461TMC3     O 6866   2.551   2.866  10.267  0.4704  0.0215 -0.0459
  461TMC3     H 6867   2.394   2.880  10.092 -1.7396  0.3287 -1.6409
  461TMC3    H1 6868   2.515   3.244  10.286 -1.6150 -2.3133  1.2110
  461TMC3    H2 6869   2.277   3.255   9.926  0.8917  0.3835  0.7418
  461TMC3    C7 6870   2.317   3.396  10.133  0.0071 -0.2062 -0.4376
  461TMC3    C8 6871   2.274   3.010   9.875 -0.3333 -0.0275  0.9770
  461TMC3    O1 6872   2.207   3.403  10.079 -0.0726 -0.1690 -0.1943
  461TMC3    O2 6873   2.218   3.092   9.802  0.7053  0.0676  0.1540
  462TMC3    C1 6874   2.175   4.278  17.634 -0.2583  0.3203  0.1774
  462TMC3    C2 6875   2.183   4.179  17.542 -0.0073 -0.6060 -0.1620
  462TMC3    C3 6876   2.201   4.054  17.590 -0.7360 -0.4736 -0.3048
  462TMC3    C4 6877   2.196   4.254   0.073 -0.3302  0.1154 -0.1463
  462TMC3    C5 6878   2.228   4.126   0.116  0.2973 -0.0644  0.3089
  462TMC3    C6 6879   2.225   4.023   0.026 -0.9146  0.1263  0.2642
  462TMC3     C 6880   2.181   4.414  17.585  0.3715 -0.2825 -0.7694
  462TMC3     O 6881   2.201   4.505  17.662  0.2337 -0.2555 -0.1530
  462TMC3     H 6882   2.154   4.192  17.438  0.0014  2.0640  0.1524
  462TMC3    H1 6883   2.201   4.335   0.145  1.6623 -0.4671  0.3687
  462TMC3    H2 6884   2.262   3.925   0.056 -1.6189 -0.6125 -1.2547
  462TMC3    C7 6885   2.257   4.090   0.254  1.3426  0.3952 -0.1042
  462TMC3    C8 6886   2.203   3.947  17.487 -0.1044 -0.2203  0.1161
  462TMC3    O1 6887   2.293   3.973   0.275  1.0103 -0.0809  0.1046
  462TMC3    O2 6888   2.125   3.956  17.392 -0.2405  0.7046  0.4674
  463MPD2     C 6889   3.632   2.372   2.228 -0.2001 -0.0666 -0.1496
  463MPD2    C1 6890   3.536   2.467   2.200 -0.4948 -0.2794 -0.0273
  463MPD2    C2 6891   3.566   2.597   2.246  0.4148 -0.1093  0.1243
  463MPD2    C3 6892   3.693   2.643   2.285 -0.3557 -0.1391 -0.0442
  463MPD2    C4 6893   3.785   2.545   2.296 -0.4336  0.1162  0.2848
  463MPD2    C5 6894   3.755   2.408   2.275 -0.2912  0.3695  0.1891
  463MPD2     H 6895   3.491   2.674   2.230 -0.9600 -1.7686 -1.3993
  463MPD2    H1 6896   3.883   2.566   2.336 -0.6491 -1.1128  1.4425
  463MPD2    H2 6897   3.621   2.269   2.196 -0.0071 -0.2664  0.4313
  463MPD2    H3 6898   3.830   2.330   2.283  1.8870  2.6212  1.4624
  463MPD2     N 6899   3.735   2.773   2.306  0.3437 -1.0359  0.2569
  463MPD2    H5 6900   3.835   2.785   2.316  0.5186 -0.7982 -1.6204
  463MPD2    N1 6901   3.410   2.450   2.141 -0.1664 -0.2640 -0.3072
  463MPD2    H7 6902   3.349   2.530   2.126  0.6194  0.2752 -0.6183
  464TMC3    C1 6903   3.245   2.347   2.013 -0.4724  0.6144 -0.4120
  464TMC3    C2 6904   3.231   2.460   1.948  0.1644  0.3297  0.2023
  464TMC3    C3 6905   3.134   2.463   1.850 -0.3447 -0.2213 -0.5244
  464TMC3    C4 6906   3.182   2.233   1.973  0.2458  0.0511 -0.6028
  464TMC3    C5 6907   3.088   2.235   1.878 -0.0600 -0.9496  0.2664
  464TMC3    C6 6908   3.052   2.357   1.821  1.0338  0.8265 -0.2006
  464TMC3     C 6909   3.364   2.336   2.090 -0.2776 -0.1968 -0.1137
  464TMC3     O 6910   3.396   2.226   2.125 -0.1551  0.3483  0.0145
  464TMC3     H 6911   3.297   2.546   1.954 -1.1018  1.1904  2.0045
  464TMC3    H1 6912   3.202   2.140   2.025 -1.6894 -0.8731 -1.5220
  464TMC3    H2 6913   2.990   2.364   1.732  0.6092 -1.7851 -0.1266
  464TMC3    C7 6914   3.083   2.117   1.792  1.0430 -0.0445  1.0932
  464TMC3    C8 6915   3.096   2.588   1.774 -0.1703  0.2602 -0.4516
  464TMC3    O1 6916   3.173   2.038   1.813  0.1453 -0.3419  0.1261
  464TMC3    O2 6917   3.038   2.583   1.668 -0.0965 -0.0745 -0.0245
  465MPD2     C 6918   4.645   1.111  17.081 -0.5601  0.1275 -0.1768
  465MPD2    C1 6919   4.544   1.184  17.143 -0.2160 -0.7548 -0.7379
  465MPD2    C2 6920   4.473   1.273  17.069 -0.4235  0.1046 -0.3208
  465MPD2    C3 6921   4.511   1.301  16.938  0.1591  0.3881 -0.2364
  465MPD2    C4 6922   4.610   1.226  16.877  0.1537  0.3003 -0.4118
  465MPD2    C5 6923   4.676   1.133  16.948  0.1004 -0.2599  0.7145
  465MPD2     H 6924   4.392   1.321  17.122  1.2271 -1.4365  3.5861
  465MPD2    H1 6925   4.634   1.236  16.772 -0.1715  0.0837 -0.5094
  465MPD2    H2 6926   4.709   1.043  17.135 -0.3132 -0.1424 -0.8064
  465MPD2    H3 6927   0.037   1.076  16.908 -0.0995 -0.0877  0.0626
  465MPD2     N 6928   4.430   1.392  16.868 -0.1957  0.7046  0.2124
  465MPD2    H5 6929   4.359   1.446  16.918  0.3913  1.5352  0.1536
  465MPD2    N1 6930   4.512   1.171  17.284 -0.1858  0.4195 -0.4436
  465MPD2    H7 6931   4.431   1.221  17.319  0.0978  0.5259  0.0638
  466TMC3    C1 6932   4.144   1.646  16.758  0.2087  1.2271  0.5009
  466TMC3    C2 6933   4.166   1.732  16.658  0.7510 -0.4695 -0.5225
  466TMC3    C3 6934   4.288   1.723  16.589 -0.0671 -0.3288  0.2420
  466TMC3    C4 6935   4.228   1.539  16.778  0.1562 -0.1215 -0.4879
  466TMC3    C5 6936   4.337   1.526  16.695  0.6010  0.2757 -0.4045
  466TMC3    C6 6937   4.372   1.616  16.603  0.0409 -0.7530 -0.1271
  466TMC3     C 6938   4.044   1.683  16.857  0.2768  0.0862 -0.7687
  466TMC3     O 6939   4.060   1.633  16.966  0.3423  0.0816  0.3557
  466TMC3     H 6940   4.090   1.803  16.627  1.8420  1.1760  0.5725
  466TMC3    H1 6941   4.198   1.468  16.855  0.5430 -2.2426 -2.2786
  466TMC3    H2 6942   4.462   1.605  16.544  1.0259 -2.7114  1.7502
  466TMC3    C7 6943   4.444   1.432  16.735  0.6854 -0.3525 -0.7075
  466TMC3    C8 6944   4.323   1.832  16.506  0.3523 -0.5999  0.2482
  466TMC3    O1 6945   4.528   1.418  16.652  0.4852  0.3717 -0.7246
  466TMC3    O2 6946   4.372   1.805  16.396 -0.0087  0.2025  0.2613
  467TMC3    C1 6947   1.024   0.035  13.633  0.2400 -0.0631  0.1986
  467TMC3    C2 6948   0.941   0.128  13.576  0.1054 -0.6031  0.2113
  467TMC3    C3 6949   0.809   0.116  13.609  0.5575 -0.5275  0.4608
  467TMC3    C4 6950   0.988   4.660  13.713 -0.1493  0.1920 -0.4694
  467TMC3    C5 6951   0.857   4.644  13.738 -0.0023  0.9089 -0.5236
  467TMC3    C6 6952   0.770   0.014  13.690 -0.2209 -0.4794  0.0598
  467TMC3     C 6953   1.166   0.067  13.640  0.2132 -0.0421 -0.4520
  467TMC3     O 6954   1.223   0.037  13.747 -0.0760 -0.1598 -0.0986
  467TMC3     H 6955   0.983   0.198  13.504 -0.9085 -1.6297 -1.3730
  467TMC3    H1 6956   1.062   4.588  13.746 -0.5181  0.2004  0.3584
  467TMC3    H2 6957   0.666   4.720  13.717 -0.1401 -3.1726 -1.3564
  467TMC3    C7 6958   0.819   4.574  13.862 -0.3915  0.6139  0.5415
  467TMC3    C8 6959   0.730   0.226  13.575 -0.1957  0.3448 -0.3265
  467TMC3    O1 6960   0.904   4.494  13.901 -0.6133  0.0231  0.4252
  467TMC3    O2 6961   0.790   0.312  13.517  0.4243 -0.3838 -0.5082
  468MPD2     C 6962   3.788   2.623  10.591 -0.3591 -0.0786 -0.3973
  468MPD2    C1 6963   3.925   2.671  10.593 -0.1679  1.0377 -0.6817
  468MPD2    C2 6964   4.024   2.589  10.647 -0.0577 -0.0398  0.0606
  468MPD2    C3 6965   3.991   2.462  10.694 -0.7268  0.5730 -0.1617
  468MPD2    C4 6966   3.869   2.411  10.680 -0.8630 -0.1019  0.1658
  468MPD2    C5 6967   3.773   2.492  10.628  0.0209  0.4121 -0.3220
  468MPD2     H 6968   4.126   2.622  10.664 -0.1924  0.3552  0.1001
  468MPD2    H1 6969   3.846   2.308  10.703 -1.8185 -0.4150 -2.1796
  468MPD2    H2 6970   3.696   2.674  10.566  1.4459  2.5820 -1.5588
  468MPD2    H3 6971   3.670   2.461  10.623  0.2505 -0.3820 -0.1915
  468MPD2     N 6972   4.084   2.374  10.753 -1.0340 -0.1100  0.3541
  468MPD2    H5 6973   4.055   2.284  10.791 -0.4517 -1.5565 -2.6562
  468MPD2    N1 6974   3.969   2.799  10.549  0.0958 -0.2809 -0.0189
  468MPD2    H7 6975   4.064   2.829  10.569 -0.3486  1.4866 -0.5868
  469TMC3    C1 6976   3.926   3.042  10.489  0.1711  0.4424  0.2709
  469TMC3    C2 6977   4.058   3.062  10.507 -0.4089 -0.0286 -0.0956
  469TMC3    C3 6978   4.093   3.195  10.517  0.5520 -0.9616  0.2490
  469TMC3    C4 6979   3.823   3.139  10.478  0.0526  0.8338  0.2386
  469TMC3    C5 6980   3.865   3.264  10.483  0.9064 -0.5969 -0.3382
  469TMC3    C6 6981   3.995   3.291  10.509 -0.2139  0.6582 -0.3044
  469TMC3     C 6982   3.878   2.894  10.499 -0.0098 -0.1999  0.7089
  469TMC3     O 6983   3.762   2.884  10.462  0.1899 -0.1018  0.1972
  469TMC3     H 6984   4.134   2.986  10.518 -0.7192 -0.0534  1.8311
  469TMC3    H1 6985   3.721   3.101  10.472  0.4248 -0.2433  0.5990
  469TMC3    H2 6986   4.029   3.394  10.514  1.1097  0.1557  1.2034
  469TMC3    C7 6987   3.757   3.359  10.493  0.3940 -0.6006  0.6276
  469TMC3    C8 6988   4.236   3.221  10.538 -0.2079 -0.2392  0.3648
  469TMC3    O1 6989   3.653   3.328  10.429  0.0791 -0.0260  0.3915
  469TMC3    O2 6990   4.314   3.142  10.486  0.5053  0.1182  0.4695
  470TMC3    C1 6991   2.573   4.200   0.553  1.1033  0.5456 -0.6831
  470TMC3    C2 6992   2.571   4.332   0.599 -0.0037  0.5247 -0.5334
  470TMC3    C3 6993   2.573   4.352   0.730 -0.4578 -0.4969  0.2778
  470TMC3    C4 6994   2.593   4.101   0.643 -0.1625  0.6646 -0.3374
  470TMC3    C5 6995   2.583   4.124   0.775  0.5609 -0.3088 -0.5360
  470TMC3    C6 6996   2.574   4.254   0.827  0.3033 -0.4790 -0.3374
  470TMC3     C 6997   2.587   4.173   0.408 -0.3452 -0.0508 -0.2643
  470TMC3     O 6998   2.629   4.065   0.372  0.4484 -0.5942  0.0455
  470TMC3     H 6999   2.573   4.417   0.532  1.3909  1.3037  0.4977
  470TMC3    H1 7000   2.596   3.999   0.608  1.9414  1.2079 -1.7722
  470TMC3    H2 7001   2.557   4.281   0.931 -0.0071 -0.5634 -0.3662
  470TMC3    C7 7002   2.632   4.016   0.859  0.8181  0.0525 -0.6616
  470TMC3    C8 7003   2.562   4.492   0.774  1.1398  0.2237 -0.4690
  470TMC3    O1 7004   2.691   3.927   0.800  0.2637  0.0877  0.4015
  470TMC3    O2 7005   2.487   4.510   0.870  0.1701 -0.4542 -0.1431
  471MPD2     C 7006   2.032   0.802  16.874  0.7538  1.1969 -0.3113
  471MPD2    C1 7007   2.052   0.668  16.858  0.3411  0.1674 -0.7926
  471MPD2    C2 7008   2.153   0.608  16.935 -0.1187  0.1099 -0.4361
  471MPD2    C3 7009   2.229   0.680  17.025 -0.0742  1.2955  0.5609
  471MPD2    C4 7010   2.209   0.811  17.042  0.1581 -0.0980  0.1070
  471MPD2    C5 7011   2.108   0.867  16.970  0.7374 -0.1377  0.4482
  471MPD2     H 7012   2.165   0.501  16.930  1.5821  0.2278  1.0678
  471MPD2    H1 7013   2.264   0.870  17.114 -0.8194  0.7357  0.1757
  471MPD2    H2 7014   1.964   0.856  16.808  0.8813  1.0964 -0.5246
  471MPD2    H3 7015   2.098   0.974  16.989 -0.4431 -0.2893  0.6330
  471MPD2     N 7016   2.328   0.626  17.110  0.5071  0.2316 -0.6907
  471MPD2    H5 7017   2.363   0.683  17.186  1.3778 -2.0450  0.6302
  471MPD2    N1 7018   1.982   0.580  16.768  0.6292  0.3776  0.2350
  471MPD2    H7 7019   2.015   0.484  16.771  0.4206  0.2958 -0.1529
  472TMC3    C1 7020   1.863   0.508  16.574 -0.3909  0.3680 -0.9824
  472TMC3    C2 7021   1.832   0.545  16.449  0.3374  0.0570  0.2970
  472TMC3    C3 7022   1.836   0.444  16.354 -0.5300 -0.3979 -0.6455
  472TMC3    C4 7023   1.909   0.381  16.604  0.8391  0.3768  0.6073
  472TMC3    C5 7024   1.926   0.290  16.500  0.0984  0.9034  0.1772
  472TMC3    C6 7025   1.889   0.317  16.373 -0.6429 -0.0518 -0.3752
  472TMC3     C 7026   1.900   0.616  16.665 -0.0457  0.2214  0.1353
  472TMC3     O 7027   1.888   0.728  16.622  0.4305  0.6768 -0.5214
  472TMC3     H 7028   1.794   0.644  16.431  0.3039  0.3853  2.1207
  472TMC3    H1 7029   1.912   0.342  16.705  2.7216  0.4206  0.5634
  472TMC3    H2 7030   1.906   0.247  16.292  3.0410  0.8101 -0.3576
  472TMC3    C7 7031   2.021   0.176  16.530 -0.2956  0.0857 -0.4902
  472TMC3    C8 7032   1.724   0.454  16.261 -0.4463  0.0060 -0.4224
  472TMC3    O1 7033   2.003   0.123  16.641  0.0441  0.3411  0.0778
  472TMC3    O2 7034   1.690   0.564  16.226  0.5099  0.2279 -0.0620
  473MPD2     C 7035   2.160   2.697  14.017  0.0837 -0.3577 -0.2451
  473MPD2    C1 7036   2.276   2.747  13.970  0.2262  1.1936 -0.0262
  473MPD2    C2 7037   2.347   2.845  14.042  0.1466  0.3567  0.3831
  473MPD2    C3 7038   2.307   2.871  14.176 -0.1137 -0.4869  0.4265
  473MPD2    C4 7039   2.201   2.808  14.225 -0.0733  0.0191 -0.0989
  473MPD2    C5 7040   2.122   2.733  14.143  1.8773  0.0423  0.2600
  473MPD2     H 7041   2.438   2.886  14.000  0.6139 -0.5247  0.5090
  473MPD2    H1 7042   2.161   2.829  14.323  0.8550  1.6841 -0.0881
  473MPD2    H2 7043   2.090   2.633  13.963  1.1367 -0.4124 -1.5394
  473MPD2    H3 7044   2.028   2.694  14.181  1.3769  1.7090  0.7061
  473MPD2     N 7045   2.361   2.970  14.259  0.2251 -0.1508  0.2042
  473MPD2    H5 7046   2.324   2.981  14.353 -2.2775  1.2512 -0.9572
  473MPD2    N1 7047   2.320   2.712  13.838  0.4222  0.1873  0.1753
  473MPD2    H7 7048   2.386   2.772  13.789  0.2832  0.1323 -0.0762
  474TMC3    C1 7049   2.511   3.123  14.352  0.4101 -1.3997 -0.6478
  474TMC3    C2 7050   2.420   3.190  14.421 -0.3262 -0.8150 -0.4230
  474TMC3    C3 7051   2.453   3.278  14.520 -0.1381  0.6142 -0.1611
  474TMC3    C4 7052   2.642   3.134  14.385 -0.2949  0.4551  0.4306
  474TMC3    C5 7053   2.669   3.213  14.501  0.2714 -0.3848 -0.3094
  474TMC3    C6 7054   2.579   3.285  14.574 -0.0506 -0.4671 -0.3264
  474TMC3     C 7055   2.478   3.037  14.238  0.5182 -0.1137  0.0735
  474TMC3     O 7056   2.559   3.023  14.145  0.1690  0.2228 -0.2256
  474TMC3     H 7057   2.320   3.190  14.378 -0.3066  0.0567 -0.4723
  474TMC3    H1 7058   2.718   3.081  14.329  0.8222  1.5095  0.9707
  474TMC3    H2 7059   2.607   3.350  14.656  0.8937 -1.0196 -0.2111
  474TMC3    C7 7060   2.811   3.229  14.537 -0.2475  0.2501 -0.1730
  474TMC3    C8 7061   2.357   3.383  14.537  1.1564 -0.3616 -0.4634
  474TMC3    O1 7062   2.892   3.203  14.448  0.0302 -0.4715  0.4959
  474TMC3    O2 7063   2.239   3.350  14.523 -0.3162 -0.2667 -0.2881
  475MPD2     C 7064   1.230   0.592  10.247 -0.0498  1.0954 -0.1230
  475MPD2    C1 7065   1.247   0.725  10.283  0.4502 -0.2089  0.3546
  475MPD2    C2 7066   1.130   0.788  10.332  0.5665 -0.1062  0.8114
  475MPD2    C3 7067   1.008   0.732  10.340 -0.0585 -0.3227  0.7256
  475MPD2    C4 7068   0.997   0.599  10.317  0.0890  0.0314 -0.0829
  475MPD2    C5 7069   1.114   0.530  10.278  0.0288 -0.5092 -0.2009
  475MPD2     H 7070   1.128   0.894  10.355  1.5759 -0.0786  0.7636
  475MPD2    H1 7071   0.905   0.544  10.333 -0.2156  0.9897  1.4040
  475MPD2    H2 7072   1.307   0.530  10.202 -0.6867  1.3612 -1.5539
  475MPD2    H3 7073   1.119   0.422  10.275  3.1226 -0.4196  1.6349
  475MPD2     N 7074   0.903   0.818  10.376  0.0428  0.6065 -0.2544
  475MPD2    H5 7075   0.925   0.917  10.381 -1.3746  1.0459 -2.5327
  475MPD2    N1 7076   1.377   0.785  10.275  0.6240  0.0628 -0.2861
  475MPD2    H7 7077   1.447   0.750  10.210 -0.4300 -3.7645  0.6569
  476TMC3    C1 7078   1.532   0.966  10.319 -0.6671  0.6963 -0.2448
  476TMC3    C2 7079   1.512   1.026  10.199 -0.2479  0.1605 -0.4318
  476TMC3    C3 7080   1.493   1.162  10.201 -0.1956  0.0829  0.4462
  476TMC3    C4 7081   1.558   1.041  10.432  0.5262  0.0969  0.1817
  476TMC3    C5 7082   1.547   1.175  10.428  0.6907  0.1687  0.1506
  476TMC3    C6 7083   1.508   1.238  10.315  0.0933  0.2681  0.5594
  476TMC3     C 7084   1.417   0.890  10.357 -0.1065 -0.4195 -0.5704
  476TMC3     O 7085   1.346   0.948  10.435 -0.0366 -0.8462 -0.0197
  476TMC3     H 7086   1.472   0.971  10.114 -1.0143 -2.8879  1.8973
  476TMC3    H1 7087   1.579   1.002  10.531  3.5556 -2.2824 -1.4089
  476TMC3    H2 7088   1.488   1.344  10.328 -2.1697 -0.3469  2.1207
  476TMC3    C7 7089   1.502   1.228  10.554  0.2511 -0.6468 -0.5793
  476TMC3    C8 7090   1.373   1.201  10.129  0.1691 -0.1884  0.4738
  476TMC3    O1 7091   1.531   1.340  10.598  0.2424  0.0987 -0.3471
  476TMC3    O2 7092   1.356   1.320  10.124 -0.2876 -0.4378 -0.3170
  477MPD2     C 7093   2.627   2.001  11.573 -0.7069 -0.4587 -0.1971
  477MPD2    C1 7094   2.612   2.077  11.688  0.4025 -0.5793 -0.1152
  477MPD2    C2 7095   2.615   2.022  11.814  0.0946 -0.5747 -0.2689
  477MPD2    C3 7096   2.632   1.887  11.827  0.6907 -0.0278  0.0327
  477MPD2    C4 7097   2.621   1.809  11.716 -1.1184  0.1069  0.3349
  477MPD2    C5 7098   2.626   1.861  11.590 -0.3115  0.5588  0.0146
  477MPD2     H 7099   2.609   2.086  11.901  2.3742  0.7377 -1.0978
  477MPD2    H1 7100   2.608   1.702  11.720  0.4731 -0.0852  0.1818
  477MPD2    H2 7101   2.627   2.038  11.471 -0.2046  1.8971  0.6401
  477MPD2    H3 7102   2.636   1.791  11.508 -0.1165  0.6161 -0.0099
  477MPD2     N 7103   2.650   1.835  11.960  0.1314 -0.8076 -0.3666
  477MPD2    H5 7104   2.659   1.903  12.035 -0.4517 -1.7060  0.5215
  477MPD2    N1 7105   2.590   2.219  11.670 -0.2000  0.4233  0.3930
  477MPD2    H7 7106   2.619   2.261  11.583 -0.3991 -0.3015 -0.0218
  478TMC3    C1 7107   2.536   2.436  11.707  0.4323  0.6695 -0.1859
  478TMC3    C2 7108   2.582   2.538  11.785  0.0926 -0.2203  0.3328
  478TMC3    C3 7109   2.589   2.664  11.729 -0.6747  0.0258  0.6842
  478TMC3    C4 7110   2.509   2.445  11.571  0.1967  0.0128  0.3750
  478TMC3    C5 7111   2.512   2.574  11.520  0.1189  0.3152  0.3840
  478TMC3    C6 7112   2.553   2.681  11.595  0.0409 -0.0029  0.1753
  478TMC3     C 7113   2.552   2.304  11.766 -0.9113  0.7033  0.1524
  478TMC3     O 7114   2.551   2.296  11.886  0.2479 -0.8332 -0.3052
  478TMC3     H 7115   2.599   2.511  11.888  3.8700  0.3648 -0.1357
  478TMC3    H1 7116   2.476   2.362  11.510  0.2631  0.8905 -0.8456
  478TMC3    H2 7117   2.568   2.777  11.547 -1.3278 -0.6507 -1.5139
  478TMC3    C7 7118   2.474   2.600  11.382  0.5481  0.1238  0.7897
  478TMC3    C8 7119   2.621   2.771  11.826  0.6655  0.0120 -0.2909
  478TMC3    O1 7120   2.517   2.702  11.332 -0.0643  0.2536  0.2813
  478TMC3    O2 7121   2.643   2.736  11.937  0.5167  0.6620  0.1290
  479MPD2     C 7122   2.166   0.092  15.613 -0.6308  0.9391  0.4284
  479MPD2    C1 7123   2.118   4.712  15.686  0.0135  0.6955  0.3379
  479MPD2    C2 7124   2.218   4.655  15.769  0.3673  0.3647 -0.1079
  479MPD2    C3 7125   2.336   4.719  15.791 -0.4112  0.0875 -0.6490
  479MPD2    C4 7126   2.378   0.112  15.721  0.2784  0.2406 -0.1590
  479MPD2    C5 7127   2.291   0.152  15.623 -0.3274  0.0979 -0.4161
  479MPD2     H 7128   2.197   4.568  15.831  1.7650  0.2972  0.2637
  479MPD2    H1 7129   2.481   0.145  15.718  0.1233  0.6816 -0.6836
  479MPD2    H2 7130   2.100   0.137  15.539 -0.4159  0.5860  0.0200
  479MPD2    H3 7131   2.314   0.240  15.563 -1.5765  0.1867 -0.7610
  479MPD2     N 7132   2.431   4.668  15.884  1.1008 -0.2191 -0.1774
  479MPD2    H5 7133   2.523   4.709  15.881  1.5985 -1.3907 -0.9215
  479MPD2    N1 7134   1.998   4.655  15.663  0.6550 -0.7096  0.1877
  479MPD2    H7 7135   1.943   4.697  15.588 -1.0609 -0.5374  1.5570
  480TMC3    C1 7136   2.216   4.476  16.267 -0.2860 -0.2880  0.4593
  480TMC3    C2 7137   2.118   4.572  16.280 -0.3880 -0.0520  0.2353
  480TMC3    C3 7138   2.112   4.676  16.186 -0.0763 -1.1257 -0.5268
  480TMC3    C4 7139   2.301   4.476  16.164  0.0046  0.6031  0.3900
  480TMC3    C5 7140   2.297   4.578  16.072  0.5625  0.5219  0.1067
  480TMC3    C6 7141   2.207   4.682  16.083 -0.2864 -0.4909  0.0786
  480TMC3     C 7142   2.183   4.345  16.321  0.3484 -0.8088  0.4185
  480TMC3     O 7143   2.268   4.253  16.320 -0.0668 -0.1785  0.6563
  480TMC3     H 7144   2.060   4.582  16.370  0.3816  0.5002  0.6756
  480TMC3    H1 7145   2.355   4.383  16.148 -0.1977  0.8546 -1.8155
  480TMC3    H2 7146   2.204   0.030  16.001 -3.2940 -2.9526 -1.9619
  480TMC3    C7 7147   2.416   4.581  15.987 -0.1945  0.2205 -0.4237
  480TMC3    C8 7148   1.979   0.015  16.167  0.3633  0.2413  0.5617
  480TMC3    O1 7149   2.510   4.517  16.038  0.0372  0.4913  0.9231
  480TMC3    O2 7150   1.897   4.685  16.239 -0.2682 -0.1754 -0.5027
  481MPD2     C 7151   3.607   3.909  14.361 -0.0385  0.3986 -0.2803
  481MPD2    C1 7152   3.524   3.974  14.443  0.1348  0.1470  0.2232
  481MPD2    C2 7153   3.549   3.992  14.578 -0.7967 -0.5239 -0.4228
  481MPD2    C3 7154   3.670   3.946  14.626  0.4275 -0.4348  0.1361
  481MPD2    C4 7155   3.757   3.880  14.543 -0.1592 -0.0814 -0.5979
  481MPD2    C5 7156   3.720   3.851  14.410  0.4820  0.4117 -0.2189
  481MPD2     H 7157   3.482   4.041  14.648 -1.9302 -1.3619 -0.9255
  481MPD2    H1 7158   3.845   3.833  14.585 -0.1970  1.4727  1.1930
  481MPD2    H2 7159   3.575   3.870  14.265 -0.8008 -0.4919  0.3299
  481MPD2    H3 7160   3.779   3.782  14.352 -1.9432  2.7827 -5.4516
  481MPD2     N 7161   3.698   3.954  14.767 -0.5088 -0.2339  0.1479
  481MPD2    H5 7162   3.788   3.916  14.795 -0.8024  0.6443  2.3338
  481MPD2    N1 7163   3.400   4.007  14.402  0.4312 -0.1377 -0.2260
  481MPD2    H7 7164   3.371   3.958  14.317  1.1309  0.4092 -0.7807
  482TMC3    C1 7165   3.210   4.148  14.372 -0.0995 -0.3812  0.1808
  482TMC3    C2 7166   3.144   4.038  14.327  0.0022 -0.1102 -0.1528
  482TMC3    C3 7167   3.022   4.059  14.269 -0.4315  0.2735  0.2090
  482TMC3    C4 7168   3.160   4.273  14.352 -0.1031 -0.2917 -0.9774
  482TMC3    C5 7169   3.052   4.285  14.273  0.1196  0.6827 -0.3784
  482TMC3    C6 7170   2.972   4.182  14.245 -0.4122  0.1779 -0.0381
  482TMC3     C 7171   3.333   4.122  14.442  0.1778 -0.2509 -0.1128
  482TMC3     O 7172   3.384   4.216  14.503  0.3887 -0.5048 -0.2087
  482TMC3     H 7173   3.185   3.938  14.336 -1.2204 -0.7070 -1.3747
  482TMC3    H1 7174   3.216   4.357  14.392 -1.4132  1.4324 -2.7229
  482TMC3    H2 7175   2.872   4.205  14.207 -0.5195  0.2084  0.2617
  482TMC3    C7 7176   3.090   4.331  14.143  0.1348  0.2732 -0.4700
  482TMC3    C8 7177   2.993   3.960  14.172  0.3053 -0.8691  0.2317
  482TMC3    O1 7178   3.022   4.285  14.050 -0.8365 -0.4472  0.6276
  482TMC3    O2 7179   3.041   3.848  14.185 -0.3131  0.2447 -0.0165
  483TMC3    C1 7180   1.693   2.951   1.547  0.3830  0.1419 -0.3811
  483TMC3    C2 7181   1.771   3.068   1.530 -1.5955  0.3809 -0.3658
  483TMC3    C3 7182   1.892   3.076   1.598  0.1455  0.7321 -0.1857
  483TMC3    C4 7183   1.735   2.850   1.618 -0.0275 -1.1210 -0.0950
  483TMC3    C5 7184   1.857   2.861   1.677  0.5555 -0.3385  0.2945
  483TMC3    C6 7185   1.933   2.970   1.673 -0.4431  0.5416 -0.2095
  483TMC3     C 7186   1.579   2.937   1.458 -0.1569 -0.2183 -0.9335
  483TMC3     O 7187   1.512   3.034   1.442  0.0403 -0.3874  0.1795
  483TMC3     H 7188   1.739   3.133   1.450  2.2559  0.2260 -2.0160
  483TMC3    H1 7189   1.667   2.770   1.642  1.8514 -2.1201  1.8979
  483TMC3    H2 7190   2.025   2.968   1.730 -1.4148 -3.8138  1.1932
  483TMC3    C7 7191   1.910   2.739   1.741  0.6877  0.6697 -0.8632
  483TMC3    C8 7192   1.984   3.176   1.548  0.0559  0.0256  0.0689
  483TMC3    O1 7193   1.852   2.632   1.711 -0.2769 -0.9890  0.4829
  483TMC3    O2 7194   1.932   3.273   1.492  0.1264 -0.0011  0.1211
  484MPD2     C 7195   4.102   0.868  12.436 -0.2915  0.1333  0.2067
  484MPD2    C1 7196   4.126   0.888  12.571 -0.2699 -0.8541  0.0645
  484MPD2    C2 7197   4.254   0.911  12.618 -0.1603 -0.5760  0.2391
  484MPD2    C3 7198   4.359   0.917  12.529  0.0032  0.2981 -0.0281
  484MPD2    C4 7199   4.332   0.901  12.397  0.0314  0.2905 -0.0775
  484MPD2    C5 7200   4.204   0.884  12.348  0.3089 -0.3308  0.2374
  484MPD2     H 7201   4.268   0.917  12.725  0.1639 -3.1410  0.3303
  484MPD2    H1 7202   4.412   0.907  12.324 -0.2698 -0.5139 -0.4660
  484MPD2    H2 7203   4.009   0.846  12.384 -1.7527  0.8392  2.5718
  484MPD2    H3 7204   4.190   0.872  12.242 -1.4606 -1.3878  0.5871
  484MPD2     N 7205   4.491   0.947  12.570  0.2048 -0.0134 -0.1901
  484MPD2    H5 7206   4.563   0.955  12.499  1.3862 -0.7285  0.9300
  484MPD2    N1 7207   4.010   0.886  12.657 -0.2718 -0.0535  0.3611
  484MPD2    H7 7208   3.918   0.873  12.615 -0.2421  0.7325  0.0478
  485TMC3    C1 7209   4.666   1.028  12.693 -1.1143  0.0253 -0.5157
  485TMC3    C2 7210   0.017   1.005  12.803  0.0412  0.0811  0.5187
  485TMC3    C3 7211   0.140   1.062  12.810 -0.0170  0.5529  0.0092
  485TMC3    C4 7212   0.002   1.088  12.581 -0.0903  0.2461  0.6447
  485TMC3    C5 7213   0.127   1.142  12.589  0.6676 -0.4774  0.0646
  485TMC3    C6 7214   0.195   1.134  12.706 -0.0204  0.1996  0.3103
  485TMC3     C 7215   4.534   0.973  12.695  0.5754 -0.2175  0.2277
  485TMC3     O 7216   4.489   0.937  12.800 -0.1637  0.1343 -0.3327
  485TMC3     H 7217   4.701   0.938  12.879  1.0671  0.3701  1.3063
  485TMC3    H1 7218   4.673   1.096  12.486  1.3644 -0.9689 -0.2324
  485TMC3    H2 7219   0.284   1.193  12.723 -1.1412  1.7983  0.5940
  485TMC3    C7 7220   0.218   1.114  12.480  1.0529  0.7664 -0.2781
  485TMC3    C8 7221   0.242   0.974  12.868 -0.0062 -0.0115 -0.0683
  485TMC3    O1 7222   0.325   1.073  12.520  0.1577  0.2605 -0.2093
  485TMC3    O2 7223   0.207   0.895  12.951 -0.3668  0.1553  0.3390
  486MPD2     C 7224   1.873   0.415  13.235  0.6197 -0.0420 -0.1047
  486MPD2    C1 7225   1.819   0.328  13.143  0.1971  0.2701  0.1600
  486MPD2    C2 7226   1.735   0.376  13.050  0.6058 -0.2106  0.3399
  486MPD2    C3 7227   1.704   0.514  13.046 -0.1831 -0.2143  0.2196
  486MPD2    C4 7228   1.750   0.594  13.150 -0.3812  0.0766  0.6705
  486MPD2    C5 7229   1.829   0.537  13.246  0.3622 -0.3133 -0.2112
  486MPD2     H 7230   1.689   0.308  12.979  1.1582 -0.4736  0.2318
  486MPD2    H1 7231   1.727   0.699  13.159 -1.0142  0.0084 -0.2317
  486MPD2    H2 7232   1.937   0.366  13.308  0.4531 -1.2662 -0.7689
  486MPD2    H3 7233   1.867   0.605  13.321  0.6910  1.0530 -1.6104
  486MPD2     N 7234   1.613   0.552  12.945 -0.5727  0.1350  0.0605
  486MPD2    H5 7235   1.585   0.487  12.873 -0.0610 -0.2030  0.1647
  486MPD2    N1 7236   1.846   0.190  13.173 -0.1464 -0.8622 -0.5067
  486MPD2    H7 7237   1.898   0.165  13.256 -0.6111  1.2555  0.4280
  487TMC3    C1 7238   1.817   4.671  13.140 -0.5739 -0.7341 -0.1414
  487TMC3    C2 7239   1.855   4.569  13.056 -0.5405 -0.3113  0.0191
  487TMC3    C3 7240   1.919   4.459  13.110 -0.2679  0.8264  0.1147
  487TMC3    C4 7241   1.825   4.667  13.283  0.3426 -0.4930 -0.4060
  487TMC3    C5 7242   1.875   4.549  13.325  0.3256 -0.1089  1.1939
  487TMC3    C6 7243   1.933   4.453  13.241  0.0035  0.4682 -0.6176
  487TMC3     C 7244   1.816   0.085  13.088  0.2671  0.5181  0.3090
  487TMC3     O 7245   1.775   0.089  12.972  0.1871 -0.1182 -0.2405
  487TMC3     H 7246   1.860   4.571  12.948  1.2461  0.8360  0.1186
  487TMC3    H1 7247   1.774   0.019  13.342 -0.4117 -1.3989  0.1039
  487TMC3    H2 7248   1.987   4.372  13.288 -1.6119 -0.0255  0.3995
  487TMC3    C7 7249   1.787   4.490  13.427  0.1050  0.3788 -0.3658
  487TMC3    C8 7250   1.855   4.340  13.065 -0.0276  0.0408  0.6217
  487TMC3    O1 7251   1.711   4.567  13.485  0.0361 -0.0778 -0.3109
  487TMC3    O2 7252   1.925   4.243  13.055 -0.0590 -0.2631 -0.1190
  488MPD2     C 7253   1.699   1.644  16.358 -0.1982 -0.6519  0.1394
  488MPD2    C1 7254   1.714   1.776  16.386  0.8879  0.1058 -0.7667
  488MPD2    C2 7255   1.753   1.811  16.520  0.0824 -1.1945  0.2600
  488MPD2    C3 7256   1.775   1.716  16.615 -0.1638  0.0459  0.0551
  488MPD2    C4 7257   1.752   1.586  16.575 -0.3006  0.0319 -0.1517
  488MPD2    C5 7258   1.723   1.545  16.446  0.1791  0.3340 -0.2385
  488MPD2     H 7259   1.778   1.914  16.542  0.0559 -1.2728  0.6657
  488MPD2    H1 7260   1.757   1.510  16.652 -0.2560 -0.2691 -0.4543
  488MPD2    H2 7261   1.668   1.618  16.257 -1.4442 -1.1160  0.6418
  488MPD2    H3 7262   1.702   1.440  16.430  0.4023  0.3289 -0.4975
  488MPD2     N 7263   1.837   1.761  16.731 -0.5335  0.2199 -0.4591
  488MPD2    H5 7264   1.841   1.862  16.745  3.1561 -0.1248  0.8692
  488MPD2    N1 7265   1.710   1.882  16.294  0.0019 -0.3226  0.3276
  488MPD2    H7 7266   1.740   1.976  16.321 -1.5744 -0.5586  2.8537
  489TMC3    C1 7267   1.915   1.779  16.944  0.6894  0.1720 -0.2155
  489TMC3    C2 7268   1.963   1.903  16.906  0.3444 -0.8246  0.0505
  489TMC3    C3 7269   1.958   2.001  16.997 -0.8970  0.2944 -0.8104
  489TMC3    C4 7270   1.854   1.759  17.065  0.2550 -0.1552 -0.4045
  489TMC3    C5 7271   1.842   1.867  17.151  0.3050 -0.2674 -0.1864
  489TMC3    C6 7272   1.893   1.988  17.119 -0.2502  0.3473 -0.5350
  489TMC3     C 7273   1.873   1.687  16.837  1.1359  0.3540 -0.3703
  489TMC3     O 7274   1.852   1.571  16.871 -0.4707  0.7080 -0.1906
  489TMC3     H 7275   1.999   1.915  16.805  0.1028 -1.1643 -0.0742
  489TMC3    H1 7276   1.796   1.667  17.073  2.4630 -1.6746 -1.9238
  489TMC3    H2 7277   1.903   2.066  17.194 -1.9593  0.9601 -0.9343
  489TMC3    C7 7278   1.790   1.849  17.287 -0.9042  0.6962  0.5036
  489TMC3    C8 7279   1.992   2.137  16.952  0.5300 -0.4713  0.7733
  489TMC3    O1 7280   1.792   1.953  17.356  0.6505 -0.8026  0.3628
  489TMC3    O2 7281   2.048   2.151  16.844  0.3337 -0.3226  0.0727
  490MPD2     C 7282   2.871   0.614  17.329 -0.4847 -0.0783  0.5817
  490MPD2    C1 7283   2.807   0.732  17.347  0.1024  0.2898  0.0295
  490MPD2    C2 7284   2.781   0.810  17.234 -0.2923 -0.2784 -0.1277
  490MPD2    C3 7285   2.806   0.767  17.105 -0.4731 -0.3342  0.3951
  490MPD2    C4 7286   2.881   0.652  17.092  0.0874  0.1201 -0.5623
  490MPD2    C5 7287   2.911   0.577  17.197  0.5790  0.0232 -0.2732
  490MPD2     H 7288   2.741   0.910  17.249 -0.3696 -0.3723  0.2933
  490MPD2    H1 7289   2.903   0.614  16.993  1.3390 -0.1235 -0.1857
  490MPD2    H2 7290   2.893   0.535  17.400 -1.0675 -0.2824  0.5302
  490MPD2    H3 7291   2.963   0.483  17.183 -0.8787 -0.8838  0.4821
  490MPD2     N 7292   2.778   0.847  16.990  0.3266 -0.3272 -0.2158
  490MPD2    H5 7293   2.811   0.811  16.902  0.5848 -0.2837 -0.1372
  490MPD2    N1 7294   2.769   0.772  17.471  0.0537 -0.0753  0.4658
  490MPD2    H7 7295   2.716   0.859  17.475  0.5666  0.2214  0.7898
  491TMC3    C1 7296   2.692   0.767   0.001  0.2204 -0.7030  0.2115
  491TMC3    C2 7297   2.698   0.734   0.128 -0.6980  0.4274  0.3666
  491TMC3    C3 7298   2.591   0.745   0.209  0.3292 -0.7425  0.7188
  491TMC3    C4 7299   2.586   0.829  17.644  0.1743 -0.0119  0.7591
  491TMC3    C5 7300   2.472   0.824   0.029  0.4762  0.6923  0.5723
  491TMC3    C6 7301   2.468   0.784   0.156 -0.7060  0.1249  0.2681
  491TMC3     C 7302   2.791   0.719  17.593  0.0213  1.0985  0.2883
  491TMC3     O 7303   2.875   0.632  17.618  1.2869 -0.4291 -0.2620
  491TMC3     H 7304   2.784   0.673   0.152 -0.3746  0.9500  0.5320
  491TMC3    H1 7305   2.558   0.845  17.541 -1.5655  0.0002  1.2204
  491TMC3    H2 7306   2.377   0.773   0.213 -3.2377  1.9418 -3.4341
  491TMC3    C7 7307   2.346   0.830  17.655  0.3366  0.2196  0.0813
  491TMC3    C8 7308   2.595   0.667   0.329 -0.0050 -0.1615  0.0715
  491TMC3    O1 7309   2.256   0.783   0.030 -0.5055 -0.3506 -0.0502
  491TMC3    O2 7310   2.668   0.566   0.329 -0.0558 -0.3494  0.2074
  492MPD2     C 7311   3.302   0.842  11.630  0.5958  0.0525  0.6645
  492MPD2    C1 7312   3.223   0.820  11.519  0.3511  0.1352  0.0985
  492MPD2    C2 7313   3.093   0.775  11.535  0.5086  0.0324 -0.0802
  492MPD2    C3 7314   3.044   0.770  11.665 -0.0068  0.9633 -0.7836
  492MPD2    C4 7315   3.117   0.804  11.774 -0.1531  0.0323 -0.2180
  492MPD2    C5 7316   3.246   0.843  11.757 -0.4791  0.1757  0.1883
  492MPD2     H 7317   3.021   0.763  11.454  0.6378 -1.8332  0.0787
  492MPD2    H1 7318   3.071   0.810  11.872  2.4802 -0.0845  1.0129
  492MPD2    H2 7319   3.409   0.858  11.621  0.6508  0.0074  1.2098
  492MPD2    H3 7320   3.300   0.872  11.846  2.1637 -2.7539 -0.4378
  492MPD2     N 7321   2.911   0.729  11.696  0.8607  0.1087  0.1877
  492MPD2    H5 7322   2.881   0.755  11.789  1.5812 -0.9755  0.7168
  492MPD2    N1 7323   3.273   0.852  11.392 -0.2451 -0.4987  0.2467
  492MPD2    H7 7324   3.356   0.908  11.377 -1.0056  0.6719  0.4272
  493TMC3    C1 7325   3.256   0.887  11.165 -0.0327  0.5400  0.7664
  493TMC3    C2 7326   3.257   1.026  11.182  0.5446  0.0377  1.1297
  493TMC3    C3 7327   3.210   1.107  11.080  0.1694  0.3335  0.0283
  493TMC3    C4 7328   3.201   0.837  11.053  0.6794  0.1243 -0.5799
  493TMC3    C5 7329   3.119   0.908  10.980 -0.7218  0.1041 -1.0649
  493TMC3    C6 7330   3.130   1.051  10.986  0.7691  1.0430  0.3421
  493TMC3     C 7331   3.204   0.812  11.278  0.6071 -0.0201  0.0132
  493TMC3     O 7332   3.110   0.739  11.261  0.0919  0.2768 -0.0531
  493TMC3     H 7333   3.299   1.078  11.267  3.4218 -2.4546  1.2030
  493TMC3    H1 7334   3.183   0.730  11.046  0.7952  0.0102  0.8280
  493TMC3    H2 7335   3.068   1.112  10.921  2.8646  0.1278 -2.5179
  493TMC3    C7 7336   2.994   0.856  10.947  0.5705 -0.8730 -0.2537
  493TMC3    C8 7337   3.180   1.240  11.112  0.6559 -0.2971  0.4526
  493TMC3    O1 7338   2.940   0.900  10.847 -0.5674  0.4507 -0.0954
  493TMC3    O2 7339   3.139   1.269  11.222 -0.8951  0.0212  0.2566
  494TMC3    C1 7340   3.332   2.693   0.531  0.8650 -0.5510  0.1278
  494TMC3    C2 7341   3.293   2.563   0.557 -0.5705  0.6683  0.2133
  494TMC3    C3 7342   3.341   2.461   0.479  0.2798 -0.2411 -0.5780
  494TMC3    C4 7343   3.417   2.726   0.432  0.9063 -0.4768 -0.0089
  494TMC3    C5 7344   3.468   2.620   0.365 -0.0074 -0.2029  0.3974
  494TMC3    C6 7345   3.422   2.487   0.374 -0.6405  0.1666  0.0970
  494TMC3     C 7346   3.263   2.798   0.614  0.4165  0.0153  0.1780
  494TMC3     O 7347   3.192   2.764   0.704  0.3558  0.5082 -0.0084
  494TMC3     H 7348   3.215   2.547   0.631  0.3164  0.4263  1.0867
  494TMC3    H1 7349   3.436   2.831   0.410 -0.0396 -0.3037 -0.0027
  494TMC3    H2 7350   3.468   2.407   0.317 -2.2418 -0.5548 -0.1608
  494TMC3    C7 7351   3.557   2.653   0.259 -0.2851 -0.0067  0.0433
  494TMC3    C8 7352   3.342   2.326   0.535  0.4039  0.0096 -0.5201
  494TMC3    O1 7353   3.552   2.586   0.154  0.2162  0.2962 -0.0373
  494TMC3    O2 7354   3.435   2.252   0.502  0.4834 -0.1645  0.6913
  495TMC3    C1 7355   2.043   0.292  15.256 -0.4603  0.2267  0.2622
  495TMC3    C2 7356   1.943   0.234  15.185 -0.5839 -0.0354 -0.1729
  495TMC3    C3 7357   1.811   0.239  15.242  0.5126  0.4997  0.8967
  495TMC3    C4 7358   2.022   0.341  15.382  0.1062 -0.2216  0.0166
  495TMC3    C5 7359   1.901   0.316  15.445  0.2657  0.1165  0.5515
  495TMC3    C6 7360   1.790   0.265  15.377 -0.6359 -0.1146 -0.4795
  495TMC3     C 7361   2.176   0.264  15.207 -0.4788 -0.0437 -0.7924
  495TMC3     O 7362   2.274   0.333  15.233  0.3954  0.0230 -0.2832
  495TMC3     H 7363   1.955   0.200  15.083  0.6563  0.2842 -0.1337
  495TMC3    H1 7364   2.110   0.374  15.437  0.8900 -1.3041 -0.5835
  495TMC3    H2 7365   1.687   0.251  15.407 -0.1340 -2.5835  0.0387
  495TMC3    C7 7366   1.901   0.318  15.589 -0.9921  0.2845 -0.1728
  495TMC3    C8 7367   1.719   0.164  15.174  0.3440  0.0251 -0.2802
  495TMC3    O1 7368   1.985   0.381  15.654 -0.0438 -0.2274 -0.0655
  495TMC3    O2 7369   1.602   0.201  15.169  0.3586  0.7921 -0.0659
  496MPD2     C 7370   4.423   0.436  15.760 -0.1823  0.1828 -0.0556
  496MPD2    C1 7371   4.306   0.412  15.700  0.1654  0.4342  0.4289
  496MPD2    C2 7372   4.195   0.448  15.773 -0.3540  0.5163 -0.1828
  496MPD2    C3 7373   4.200   0.501  15.900  0.5235  0.1332 -0.3640
  496MPD2    C4 7374   4.326   0.517  15.963 -0.3619 -0.2122 -0.4633
  496MPD2    C5 7375   4.433   0.478  15.887  0.4387  0.0399 -0.1808
  496MPD2     H 7376   4.099   0.427  15.727 -0.6892  0.9329  0.3248
  496MPD2    H1 7377   4.343   0.558  16.062 -1.2219  0.5313 -0.6254
  496MPD2    H2 7378   4.516   0.425  15.706 -0.3358 -0.6780 -0.1385
  496MPD2    H3 7379   4.535   0.495  15.920  0.0341  0.1792  0.9930
  496MPD2     N 7380   4.083   0.544  15.970 -0.5136 -0.9030 -0.3916
  496MPD2    H5 7381   4.096   0.564  16.068  2.7185  1.3169 -1.2585
  496MPD2    N1 7382   4.300   0.357  15.572  0.3264 -0.2158  0.1072
  496MPD2    H7 7383   4.384   0.352  15.515  1.1512  1.5903  1.1523
  497TMC3    C1 7384   3.850   0.562  16.023 -1.1075 -0.1397 -0.5346
  497TMC3    C2 7385   3.731   0.594  15.973 -0.3029  0.0829  0.1144
  497TMC3    C3 7386   3.619   0.545  16.035 -0.7026  0.0080 -0.3581
  497TMC3    C4 7387   3.862   0.494  16.139 -0.0723  0.0866  0.7204
  497TMC3    C5 7388   3.745   0.454  16.204 -0.2980 -0.3839 -0.2559
  497TMC3    C6 7389   3.617   0.471  16.151 -0.4060 -0.4309 -0.0273
  497TMC3     C 7390   3.958   0.552  15.921  0.8570 -0.2841 -0.1917
  497TMC3     O 7391   3.928   0.565  15.804 -0.3766  0.3897 -0.4871
  497TMC3     H 7392   3.731   0.642  15.876 -1.1493  0.4299  0.2853
  497TMC3    H1 7393   3.957   0.450  16.168  0.4038  0.9079  0.3896
  497TMC3    H2 7394   3.526   0.421  16.181  1.1934 -4.4048 -1.7053
  497TMC3    C7 7395   3.748   0.363  16.322  0.5311  1.0915  0.8717
  497TMC3    C8 7396   3.488   0.559  15.961  0.0301 -0.7505  0.5584
  497TMC3    O1 7397   3.649   0.297  16.341 -0.1334  0.0431  0.1348
  497TMC3    O2 7398   3.486   0.649  15.877 -0.0824  0.3716  0.2137
  498MPD2     C 7399   0.036   0.673   9.376  0.2837  0.2098  0.1162
  498MPD2    C1 7400   0.092   0.650   9.502  0.4364 -0.5211 -0.3878
  498MPD2    C2 7401   0.023   0.578   9.594 -0.1166  0.7190  0.4720
  498MPD2    C3 7402   4.617   0.536   9.570 -0.4411 -0.3129 -0.6217
  498MPD2    C4 7403   4.564   0.555   9.448  0.0986 -0.4721  0.0829
  498MPD2    C5 7404   4.626   0.635   9.361  0.0163  0.8232  0.5638
  498MPD2     H 7405   0.069   0.564   9.691 -0.1484  1.4588  0.5954
  498MPD2    H1 7406   4.464   0.530   9.414  0.0741  0.9824 -0.8862
  498MPD2    H2 7407   0.083   0.732   9.299  0.4131  0.2039  0.1900
  498MPD2    H3 7408   4.583   0.658   9.264 -1.4437 -0.6126  0.8707
  498MPD2     N 7409   4.548   0.471   9.677 -0.0014 -0.0729  0.1071
  498MPD2    H5 7410   4.594   0.469   9.767  0.1046 -0.2890  0.0498
  498MPD2    N1 7411   0.221   0.690   9.538  0.8609 -0.2687  0.0693
  498MPD2    H7 7412   0.261   0.654   9.624  2.3663  1.5809  0.1356
  499TMC3    C1 7413   0.434   0.785   9.526 -0.3804  0.2725 -0.4609
  499TMC3    C2 7414   0.497   0.663   9.562 -0.1105 -0.3500 -0.2407
  499TMC3    C3 7415   0.636   0.651   9.570 -0.3621  0.1199  0.3831
  499TMC3    C4 7416   0.503   0.903   9.527 -0.2442  0.0331 -0.6126
  499TMC3    C5 7417   0.636   0.888   9.547 -0.6593  0.2123  0.4280
  499TMC3    C6 7418   0.704   0.769   9.568  0.0856  0.4094  0.2296
  499TMC3     C 7419   0.301   0.779   9.465 -0.3957  0.1287 -0.0076
  499TMC3     O 7420   0.270   0.863   9.384  0.7421 -0.1082  0.1801
  499TMC3     H 7421   0.432   0.577   9.565  1.4506 -1.5368 -0.3884
  499TMC3    H1 7422   0.451   0.985   9.477  0.5486  0.1432 -1.2627
  499TMC3    H2 7423   0.811   0.762   9.583 -0.2332 -2.9487  0.9712
  499TMC3    C7 7424   0.715   1.003   9.588 -0.5570  0.2679  0.3761
  499TMC3    C8 7425   0.701   0.528   9.632 -0.0294  1.2425 -0.1938
  499TMC3    O1 7426   0.836   0.989   9.604  0.2389  0.1576 -0.1653
  499TMC3    O2 7427   0.816   0.537   9.673  0.5809 -0.0346 -0.1087
  500MPD2     C 7428   1.836   2.162  10.681 -0.4290 -0.2152 -0.5265
  500MPD2    C1 7429   1.840   2.226  10.558  0.7522 -0.2652  0.6816
  500MPD2    C2 7430   1.721   2.296  10.522  0.3718 -0.0907  0.3483
  500MPD2    C3 7431   1.609   2.288  10.604 -0.0107 -0.2782 -0.2695
  500MPD2    C4 7432   1.612   2.214  10.720  0.7881 -0.4635 -0.0432
  500MPD2    C5 7433   1.724   2.146  10.756  0.9270  0.1122  0.6452
  500MPD2     H 7434   1.710   2.364  10.439 -0.4965  1.3661  1.6665
  500MPD2    H1 7435   1.529   2.215  10.789  0.8100 -0.9113 -0.0113
  500MPD2    H2 7436   1.921   2.107  10.720 -1.2203 -0.2000  1.2209
  500MPD2    H3 7437   1.721   2.068  10.831  1.5545  1.0769  1.6659
  500MPD2     N 7438   1.484   2.345  10.582 -0.0088  0.2940  0.3783
  500MPD2    H5 7439   1.404   2.294  10.617 -0.6195  0.1713 -1.1691
  500MPD2    N1 7440   1.958   2.236  10.478 -0.0230 -0.5183 -0.1577
  500MPD2    H7 7441   1.950   2.269  10.383  0.9576  0.9099  0.2588
  501TMC3    C1 7442   2.184   2.212  10.428 -0.3527  0.8177  0.6682
  501TMC3    C2 7443   2.175   2.329  10.350 -0.8072 -0.4460 -0.1695
  501TMC3    C3 7444   2.294   2.384  10.308  0.7089 -0.3151  0.1524
  501TMC3    C4 7445   2.307   2.164  10.464  0.0955 -0.2881 -0.2715
  501TMC3    C5 7446   2.420   2.238  10.428 -1.0736 -0.9404  0.3189
  501TMC3    C6 7447   2.413   2.334  10.341 -0.3967 -0.5127 -0.3508
  501TMC3     C 7448   2.077   2.180  10.515 -0.2047  0.0908  0.6181
  501TMC3     O 7449   2.102   2.103  10.601  0.3718 -0.5579 -0.2073
  501TMC3     H 7450   2.083   2.385  10.334 -0.0789  0.5159 -1.0200
  501TMC3    H1 7451   2.325   2.077  10.526 -1.4539 -0.9107 -0.6959
  501TMC3    H2 7452   2.497   2.379  10.288  0.6259 -0.7677  1.0672
  501TMC3    C7 7453   2.537   2.215  10.510  0.2688 -0.9421 -0.1339
  501TMC3    C8 7454   2.287   2.528  10.310  0.2588 -0.4171 -0.1612
  501TMC3    O1 7455   2.548   2.104  10.562  0.1854  0.5723 -0.1609
  501TMC3    O2 7456   2.368   2.575  10.389 -0.0314 -0.3085  0.1863
  502TMC3    C1 7457   1.495   0.919  15.365  0.9374  0.5059 -0.1732
  502TMC3    C2 7458   1.516   0.993  15.255 -0.1866  0.3135  0.4608
  502TMC3    C3 7459   1.424   0.987  15.153 -0.7151  0.1504  0.3704
  502TMC3    C4 7460   1.382   0.846  15.376  0.4595  0.2908  0.0913
  502TMC3    C5 7461   1.304   0.832  15.266 -0.8883 -0.2140 -0.4746
  502TMC3    C6 7462   1.313   0.908  15.156  0.5445 -0.5852 -0.1792
  502TMC3     C 7463   1.582   0.929  15.483  0.4635 -0.9636  0.3921
  502TMC3     O 7464   1.691   0.990  15.469 -0.1763 -0.0142  0.4380
  502TMC3     H 7465   1.602   1.059  15.253 -0.3473  0.5895  1.9813
  502TMC3    H1 7466   1.377   0.766  15.449  0.4910 -0.5736 -0.8391
  502TMC3    H2 7467   1.259   0.881  15.066  0.3709  0.3898 -0.3650
  502TMC3    C7 7468   1.199   0.736  15.292  0.4682 -0.0364  0.4961
  502TMC3    C8 7469   1.428   1.095  15.055 -0.1027 -0.7530  0.4856
  502TMC3    O1 7470   1.227   0.640  15.357  0.0540  0.3242 -0.1302
  502TMC3    O2 7471   1.534   1.154  15.039  0.0786 -0.2601  0.0792
  503MPD2     C 7472   3.367   1.802  17.199  0.0107  0.2540 -0.3583
  503MPD2    C1 7473   3.399   1.818  17.336  0.0213  0.6558  0.3534
  503MPD2    C2 7474   3.433   1.708  17.415 -0.8616 -0.5731 -0.7754
  503MPD2    C3 7475   3.444   1.586  17.356 -0.5354  0.9781 -0.2848
  503MPD2    C4 7476   3.412   1.566  17.227 -0.0757  0.1010  0.4119
  503MPD2    C5 7477   3.376   1.676  17.149 -0.2244 -0.7864 -0.2918
  503MPD2     H 7478   3.465   1.715  17.519  1.7181  2.3010 -1.7795
  503MPD2    H1 7479   3.414   1.466  17.184  1.4225  0.3414 -0.0887
  503MPD2    H2 7480   3.320   1.880  17.140  0.5430  0.3565 -0.6438
  503MPD2    H3 7481   3.357   1.661  17.044  0.6628 -2.4594 -0.2037
  503MPD2     N 7482   3.503   1.487  17.434  0.0274  0.4212 -0.5563
  503MPD2    H5 7483   3.521   1.506  17.532  3.1035 -1.1471 -0.8346
  503MPD2    N1 7484   3.419   1.943  17.396  0.7526 -0.2126  0.0556
  503MPD2    H7 7485   3.460   1.939  17.489  2.6887  0.3537 -0.7566
  504TMC3    C1 7486   3.604   1.284  17.499  0.6819  0.3344 -0.6557
  504TMC3    C2 7487   3.583   1.315  17.632 -0.5003  0.2029  0.6937
  504TMC3    C3 7488   3.650   1.241   0.034  0.3713  0.6194  0.5810
  504TMC3    C4 7489   3.693   1.187  17.463 -0.3761 -0.8778 -0.0716
  504TMC3    C5 7490   3.757   1.122  17.559  0.7179  1.0281  0.3052
  504TMC3    C6 7491   3.746   1.148  17.691 -0.1997  0.3508  0.0399
  504TMC3     C 7492   3.560   1.370  17.395 -0.7633 -0.7203  0.1322
  504TMC3     O 7493   3.576   1.324  17.279 -0.1239  0.1366  0.1898
  504TMC3     H 7494   3.514   1.390  17.668 -0.5835  1.1760 -1.4762
  504TMC3    H1 7495   3.694   1.160  17.358 -0.6447 -2.7407  0.4020
  504TMC3    H2 7496   3.816   1.115   0.075  1.5978  0.4281 -1.5759
  504TMC3    C7 7497   3.875   1.059  17.508  0.2771 -0.5184 -0.7876
  504TMC3    C8 7498   3.643   1.290   0.171  0.5792  0.0165  0.0695
  504TMC3    O1 7499   3.895   1.081  17.389 -0.6499  0.0470  0.1473
  504TMC3    O2 7500   3.603   1.401   0.200 -0.2471 -0.6254  0.0454
  505MPD2     C 7501   3.993   0.280  10.722 -0.0837 -0.1570 -0.2643
  505MPD2    C1 7502   4.019   0.143  10.743 -0.6041  0.0717 -0.1130
  505MPD2    C2 7503   4.140   0.105  10.800  0.3173  0.3995  0.2802
  505MPD2    C3 7504   4.237   0.198  10.827  0.7251 -0.6161 -0.6183
  505MPD2    C4 7505   4.213   0.326  10.803 -0.7100  0.5849  0.3489
  505MPD2    C5 7506   4.097   0.365  10.748  0.3849 -0.4386  0.0126
  505MPD2     H 7507   4.153   0.000  10.827 -0.6252 -0.3788 -2.3135
  505MPD2    H1 7508   4.291   0.401  10.808  0.5358 -0.5081 -2.5893
  505MPD2    H2 7509   3.891   0.307  10.697 -0.6274 -0.7587  1.3227
  505MPD2    H3 7510   4.090   0.470  10.722 -0.1208 -0.9765 -2.0701
  505MPD2     N 7511   4.368   0.164  10.871 -0.3926 -0.0584  0.6010
  505MPD2    H5 7512   4.428   0.246  10.876  0.8152 -1.1388  3.6689
  505MPD2    N1 7513   3.914   0.059  10.719  0.0717  0.0682  0.1626
  505MPD2    H7 7514   3.840   0.100  10.663  1.2163  1.8244 -0.0834
  506TMC3    C1 7515   3.810   4.567  10.691 -0.4869  0.2582 -0.7015
  506TMC3    C2 7516   3.776   4.589  10.562 -0.2269  0.1835  0.3829
  506TMC3    C3 7517   3.743   4.480  10.487  0.7309  0.4002  0.2710
  506TMC3    C4 7518   3.794   4.442  10.742  0.0685 -0.3025  0.1258
  506TMC3    C5 7519   3.773   4.337  10.661 -0.9292  0.0232  0.2236
  506TMC3    C6 7520   3.737   4.356  10.535  0.2517 -0.4402 -0.0958
  506TMC3     C 7521   3.914   4.648  10.752  0.1293 -0.5576 -0.5604
  506TMC3     O 7522   3.987   4.588  10.829  0.2941 -0.1367 -0.0737
  506TMC3     H 7523   3.783   4.686  10.514 -0.9697  0.6100  1.1280
  506TMC3    H1 7524   3.826   4.427  10.844  0.2969  0.0512  0.1059
  506TMC3    H2 7525   3.718   4.274  10.466  0.8754 -0.2461 -0.4898
  506TMC3    C7 7526   3.880   4.241  10.658  0.2195  0.0632 -0.1108
  506TMC3    C8 7527   3.719   4.499  10.348  0.4430 -0.7030 -0.2693
  506TMC3    O1 7528   3.873   4.141  10.586  0.5492 -0.0968  0.2668
  506TMC3    O2 7529   3.628   4.438  10.283 -0.2552 -0.1793 -0.1034
  507TMC3    C1 7530   4.706   0.944  14.526  0.4303  0.5298 -0.5440
  507TMC3    C2 7531   0.015   0.991  14.405  0.5941 -0.5407  0.6331
  507TMC3    C3 7532   0.103   1.096  14.396 -0.7424  0.7273  0.2310
  507TMC3    C4 7533   0.032   1.000  14.641 -0.2718 -0.4265  0.4722
  507TMC3    C5 7534   0.122   1.105  14.642 -0.8369  0.3525 -0.1177
  507TMC3    C6 7535   0.156   1.144  14.516 -0.0056 -0.0588  0.2323
  507TMC3     C 7536   4.582   0.858  14.522  0.6640 -0.0784  0.1931
  507TMC3     O 7537   4.569   0.793  14.420 -0.4254 -0.1871 -0.1303
  507TMC3     H 7538   4.702   0.949  14.312  0.7398 -0.7474  0.6697
  507TMC3    H1 7539   4.709   0.973  14.735 -0.4319  2.0736  1.1081
  507TMC3    H2 7540   0.229   1.225  14.513 -0.3138  0.1570 -1.0975
  507TMC3    C7 7541   0.112   1.215  14.736  0.3049  0.5614  0.9350
  507TMC3    C8 7542   0.095   1.190  14.284 -0.8647  0.2697  0.8326
  507TMC3    O1 7543   0.181   1.215  14.838 -0.6885 -0.2265  0.9385
  507TMC3    O2 7544   0.163   1.289  14.304  0.0775  0.5205 -0.7889
  508MPD2     C 7545   0.681   3.095  16.274  0.0303  0.2461 -0.2146
  508MPD2    C1 7546   0.784   3.176  16.310 -0.1794 -0.1354 -0.2991
  508MPD2    C2 7547   0.814   3.283  16.228 -0.1054 -0.5644 -0.2223
  508MPD2    C3 7548   0.741   3.313  16.117 -0.2175 -0.1028 -0.3796
  508MPD2    C4 7549   0.629   3.235  16.082 -1.5792  0.0071 -0.2461
  508MPD2    C5 7550   0.603   3.123  16.166  0.2829 -0.3733 -0.6222
  508MPD2     H 7551   0.901   3.344  16.251  0.8066 -2.0049  0.1222
  508MPD2    H1 7552   0.558   3.264  16.006 -0.5669  0.5146 -0.9969
  508MPD2    H2 7553   0.648   3.009  16.331  1.1811  0.5625  0.9377
  508MPD2    H3 7554   0.514   3.063  16.153 -0.3191  0.2976  0.3367
  508MPD2     N 7555   0.788   3.425  16.046  0.1685  0.6693 -0.1763
  508MPD2    H5 7556   0.856   3.495  16.072  0.5157  0.6681 -1.0787
  508MPD2    N1 7557   0.843   3.163  16.437 -0.1126 -0.3762  0.9475
  508MPD2    H7 7558   0.791   3.106  16.504 -0.1478 -0.9413  0.4401
  509TMC3    C1 7559   0.724   3.739  15.698  0.2911 -0.1605  0.0312
  509TMC3    C2 7560   0.791   3.837  15.769  1.1139 -0.2909  0.0286
  509TMC3    C3 7561   0.857   3.804  15.882 -0.4789 -0.0800 -0.2441
  509TMC3    C4 7562   0.711   3.611  15.748  1.1423  1.0112  0.4437
  509TMC3    C5 7563   0.770   3.585  15.871 -0.5324  0.5604 -0.0766
  509TMC3    C6 7564   0.840   3.678  15.942  0.6008 -0.1666  0.2684
  509TMC3     C 7565   0.625   3.769  15.598  0.4688 -0.6922  0.1938
  509TMC3     O 7566   0.572   3.678  15.535  0.2385  0.4593  0.3042
  509TMC3     H 7567   0.799   3.936  15.727 -0.5604 -0.0040  0.3736
  509TMC3    H1 7568   0.655   3.535  15.695 -1.1553  1.5129  2.1439
  509TMC3    H2 7569   0.890   3.665  16.036 -3.0036  0.6254  2.2958
  509TMC3    C7 7570   0.733   3.453  15.926  0.0899 -0.2768 -0.3496
  509TMC3    C8 7571   0.949   3.906  15.946  0.2994 -0.3505  0.1672
  509TMC3    O1 7572   0.678   3.379  15.850  0.1886 -0.4712 -0.3913
  509TMC3    O2 7573   1.004   3.868  16.047 -0.2159  0.2636  0.2744
  510MPD2     C 7574   3.612   0.608  14.690 -0.2135 -0.1940  0.6791
  510MPD2    C1 7575   3.653   0.487  14.742  0.2568  0.4416 -0.1354
  510MPD2    C2 7576   3.747   0.407  14.682 -0.0343  0.1996  0.0478
  510MPD2    C3 7577   3.810   0.455  14.568 -0.2198 -0.1479  1.1972
  510MPD2    C4 7578   3.775   0.576  14.517 -0.2537  0.4398  0.1875
  510MPD2    C5 7579   3.673   0.653  14.579 -0.1496  0.0343 -0.6366
  510MPD2     H 7580   3.784   0.314  14.724 -1.6925 -0.3870  0.1999
  510MPD2    H1 7581   3.824   0.616  14.429  0.9654  0.7668  1.0053
  510MPD2    H2 7582   3.524   0.650  14.738  1.0904  0.2991  2.6613
  510MPD2    H3 7583   3.648   0.754  14.547 -2.4847 -0.0506  0.9372
  510MPD2     N 7584   3.929   0.386  14.535  0.3130 -0.1766  0.0126
  510MPD2    H5 7585   3.956   0.309  14.595  2.8230 -0.2993 -1.2816
  510MPD2    N1 7586   3.577   0.426  14.847  0.1299  0.0424 -0.1043
  510MPD2    H7 7587   3.504   0.490  14.878  0.1813 -0.0366  0.1779
  511TMC3    C1 7588   3.499   0.270  15.010 -1.0114 -0.5646 -0.7155
  511TMC3    C2 7589   3.451   0.372  15.089  0.5999  0.3217 -0.6042
  511TMC3    C3 7590   3.379   0.333  15.202  0.3043 -0.4838  0.4093
  511TMC3    C4 7591   3.465   0.140  15.036  0.4252  0.4730 -0.4691
  511TMC3    C5 7592   3.384   0.110  15.141  0.3718 -0.1748  0.0252
  511TMC3    C6 7593   3.357   0.202  15.233  0.2559  0.4532  0.8331
  511TMC3     C 7594   3.592   0.298  14.904  0.8266  0.1788  0.0870
  511TMC3     O 7595   3.668   0.209  14.868  0.6158 -0.1095  0.3348
  511TMC3     H 7596   3.479   0.475  15.071 -0.4175  0.6431 -0.3793
  511TMC3    H1 7597   3.506   0.072  14.962  1.5701  1.8363 -1.0827
  511TMC3    H2 7598   3.315   0.177  15.330 -0.0651 -0.5929  0.4231
  511TMC3    C7 7599   3.336   4.693  15.141  0.0224 -0.5530 -0.5112
  511TMC3    C8 7600   3.357   0.434  15.305 -0.5122  0.0199  0.3979
  511TMC3    O1 7601   3.375   4.624  15.048  0.1364 -0.1320  0.5807
  511TMC3    O2 7602   3.393   0.399  15.414 -0.2515 -0.7231  0.2075
  512TMC3    C1 7603   2.367   4.412  13.170 -0.3424  0.3036 -0.1925
  512TMC3    C2 7604   2.423   4.360  13.283 -0.1723  0.0947  0.1626
  512TMC3    C3 7605   2.484   4.239  13.265 -0.0097  0.4094  0.2146
  512TMC3    C4 7606   2.357   4.342  13.058  0.1903 -0.0860 -0.4333
  512TMC3    C5 7607   2.397   4.216  13.049 -0.5769  0.3069 -0.0462
  512TMC3    C6 7608   2.452   4.157  13.155 -0.4353  0.0840  0.5600
  512TMC3     C 7609   2.297   4.537  13.170 -0.4332  0.4811  0.7175
  512TMC3     O 7610   2.301   4.602  13.064  0.1878 -0.4689 -0.5052
  512TMC3     H 7611   2.415   4.413  13.377 -1.7968 -2.9217  1.7209
  512TMC3    H1 7612   2.299   4.390  12.979  0.2496 -1.3331 -1.2324
  512TMC3    H2 7613   2.493   4.057  13.151  1.4023  0.8253  0.5670
  512TMC3    C7 7614   2.346   4.141  12.932 -0.6677  0.4496 -0.1426
  512TMC3    C8 7615   2.505   4.173  13.389 -0.2793 -0.1615 -0.4996
  512TMC3    O1 7616   2.264   4.194  12.858 -0.0341  0.2418 -0.2948
  512TMC3    O2 7617   2.448   4.064  13.391  0.7017  0.5439 -0.7945
  513MPD2     C 7618   3.947   4.221  13.600  0.0191  0.4918  0.4704
  513MPD2    C1 7619   4.029   4.146  13.511 -0.2698 -0.1911  0.1237
  513MPD2    C2 7620   4.159   4.185  13.497  0.8214  0.7715 -0.2670
  513MPD2    C3 7621   4.212   4.296  13.562  0.1439 -0.3464  0.3233
  513MPD2    C4 7622   4.131   4.373  13.649  0.1488 -0.1309 -0.1234
  513MPD2    C5 7623   4.001   4.333  13.672 -0.4994  0.6149  1.0220
  513MPD2     H 7624   4.226   4.132  13.430 -0.7494 -1.5638 -0.0284
  513MPD2    H1 7625   4.162   4.460  13.706  0.8303  0.7475 -1.8451
  513MPD2    H2 7626   3.842   4.199  13.615  0.2622 -1.2998 -0.5067
  513MPD2    H3 7627   3.942   4.398  13.735  0.9511  1.0311  1.9371
  513MPD2     N 7628   4.338   4.336  13.526  0.3642 -0.2830 -0.2362
  513MPD2    H5 7629   4.384   4.281  13.454 -1.6943 -0.8519 -1.1292
  513MPD2    N1 7630   3.977   4.038  13.429 -0.2078 -0.1454  0.3749
  513MPD2    H7 7631   3.878   4.047  13.408 -0.3632  1.0475  1.5974
  514TMC3    C1 7632   3.969   3.881  13.258 -0.0442 -0.2665  0.1442
  514TMC3    C2 7633   3.905   3.972  13.179  0.0259 -0.3444 -0.1383
  514TMC3    C3 7634   3.922   3.956  13.045 -0.1577 -0.0534 -0.6812
  514TMC3    C4 7635   4.046   3.775  13.206  0.3231  0.1555  0.6383
  514TMC3    C5 7636   4.063   3.766  13.075 -0.2832 -0.1772  0.2027
  514TMC3    C6 7637   3.994   3.848  12.989  0.3176  0.5287  0.5215
  514TMC3     C 7638   4.044   3.939  13.369  0.2427  0.0836  0.0473
  514TMC3     O 7639   4.161   3.907  13.355  0.1084  0.2695 -0.0170
  514TMC3     H 7640   3.868   4.067  13.215 -2.0793 -1.5529  0.9126
  514TMC3    H1 7641   4.094   3.703  13.271  0.4265 -0.1879  0.1864
  514TMC3    H2 7642   4.018   3.842  12.883  0.9541  0.3292  0.6771
  514TMC3    C7 7643   4.202   3.756  13.031  0.3366  0.2776 -0.2526
  514TMC3    C8 7644   3.874   4.063  12.961 -0.5613 -0.3498  0.7291
  514TMC3    O1 7645   4.228   3.742  12.914 -0.0489  0.0806 -0.1070
  514TMC3    O2 7646   3.812   4.154  13.012 -0.1465 -0.7487  0.1653
  515MPD2     C 7647   2.067   1.982  14.682 -0.1300  0.2191  0.1604
  515MPD2    C1 7648   2.115   1.858  14.691 -0.1299  0.0797 -0.6192
  515MPD2    C2 7649   2.219   1.838  14.781  0.3294 -0.3318  0.5355
  515MPD2    C3 7650   2.269   1.931  14.874  0.1148 -0.5975  0.3066
  515MPD2    C4 7651   2.211   2.054  14.860  0.3278 -0.1363  0.1893
  515MPD2    C5 7652   2.112   2.080  14.769  0.8884 -0.0439 -0.3446
  515MPD2     H 7653   2.262   1.739  14.783  0.6900 -0.1776  0.4687
  515MPD2    H1 7654   2.237   2.137  14.925 -1.5448 -0.6327  1.5747
  515MPD2    H2 7655   1.991   2.009  14.610 -0.2598 -0.6795 -0.0466
  515MPD2    H3 7656   2.082   2.183  14.754  0.0416 -0.1207  0.8313
  515MPD2     N 7657   2.385   1.912  14.959  0.4129 -0.2647  0.0602
  515MPD2    H5 7658   2.403   1.986  15.026 -0.5559 -0.2215  0.2769
  515MPD2    N1 7659   2.079   1.746  14.611  0.5074 -0.4461  0.2326
  515MPD2    H7 7660   2.144   1.670  14.632  0.0571 -1.1948 -1.1187
  516TMC3    C1 7661   1.986   1.624  14.438 -0.4032 -0.0805 -0.3081
  516TMC3    C2 7662   1.967   1.631  14.301 -0.8857 -0.0909 -0.2272
  516TMC3    C3 7663   1.911   1.520  14.245 -0.0364  0.0650 -0.0400
  516TMC3    C4 7664   1.976   1.503  14.510  0.3337 -0.0719  0.7078
  516TMC3    C5 7665   1.925   1.396  14.449 -0.2406  0.2281  0.1406
  516TMC3    C6 7666   1.894   1.409  14.317 -0.8489  1.5074  0.0312
  516TMC3     C 7667   2.001   1.747  14.498 -0.2961  0.0367 -0.0251
  516TMC3     O 7668   1.955   1.850  14.449  0.0054 -0.0998  0.2750
  516TMC3     H 7669   1.965   1.725  14.248  0.5580  0.9921  1.6420
  516TMC3    H1 7670   1.971   1.516  14.618  1.4512 -0.4029  0.7958
  516TMC3    H2 7671   1.870   1.321  14.257  0.4983 -0.2706  2.1019
  516TMC3    C7 7672   1.871   1.289  14.530 -0.1697  0.1707  0.2528
  516TMC3    C8 7673   1.821   1.531  14.134 -0.4539  0.0529 -0.3768
  516TMC3    O1 7674   1.905   1.268  14.645 -0.1594 -0.1423 -0.4797
  516TMC3    O2 7675   1.724   1.460  14.140  0.8286 -0.7010  0.1955
  517MPD2     C 7676   1.803   3.344   0.431  0.4698  0.5905  0.1924
  517MPD2    C1 7677   1.936   3.303   0.447 -0.6918  0.1152  1.1217
  517MPD2    C2 7678   2.008   3.347   0.557  0.3260 -0.7254  0.8637
  517MPD2    C3 7679   1.959   3.443   0.650  0.4431 -0.1395 -0.4752
  517MPD2    C4 7680   1.829   3.486   0.624  0.8783  0.2630 -0.4732
  517MPD2    C5 7681   1.752   3.437   0.518 -0.5153 -0.1488 -0.3606
  517MPD2     H 7682   2.112   3.322   0.571  0.5844 -0.2925 -0.2556
  517MPD2    H1 7683   1.780   3.556   0.691 -0.6780 -0.4523 -0.8618
  517MPD2    H2 7684   1.737   3.288   0.366  0.3944 -3.4902  3.7590
  517MPD2    H3 7685   1.648   3.467   0.514 -0.0264  1.1658 -2.7973
  517MPD2     N 7686   2.034   3.511   0.754 -0.6622  0.6066  0.5114
  517MPD2    H5 7687   1.995   3.593   0.798 -1.9090  0.5239 -0.4458
  517MPD2    N1 7688   1.987   3.199   0.367  0.5140  0.1095  0.1889
  517MPD2    H7 7689   2.071   3.149   0.396  0.2167 -0.0224  0.8018
  518TMC3    C1 7690   2.027   3.080   0.168  0.2927 -0.2127  1.0653
  518TMC3    C2 7691   2.037   2.963   0.238  0.0296 -0.3282 -0.1942
  518TMC3    C3 7692   2.067   2.850   0.171  0.2293  0.7397 -0.1261
  518TMC3    C4 7693   2.062   3.095   0.036  0.5296  0.4859 -0.0510
  518TMC3    C5 7694   2.108   2.973  17.671  0.5142  0.4243  0.3937
  518TMC3    C6 7695   2.110   2.853   0.039  0.4398  0.8208  0.4174
  518TMC3     C 7696   1.954   3.183   0.235  0.3571 -0.1108 -0.1110
  518TMC3     O 7697   1.880   3.238   0.154  0.5406  0.4874 -0.8013
  518TMC3     H 7698   1.999   2.963   0.340 -0.2233 -1.2908 -0.2930
  518TMC3    H1 7699   2.070   3.191  17.678 -0.2295 -1.3459 -3.6641
  518TMC3    H2 7700   2.129   2.764  17.672 -2.8787 -0.1605  0.8573
  518TMC3    C7 7701   2.141   2.974  17.534  0.3868  0.2405 -0.3368
  518TMC3    C8 7702   2.004   2.729   0.216  0.1875  0.2157 -0.1128
  518TMC3    O1 7703   2.125   3.079  17.472 -0.6533 -0.1052 -0.2610
  518TMC3    O2 7704   1.944   2.728   0.327  0.2173  0.0379 -0.2576
  519MPD2     C 7705   3.794   1.593  14.221 -0.2446  0.8906 -1.3149
  519MPD2    C1 7706   3.693   1.505  14.219  0.6329 -0.4464  0.2738
  519MPD2    C2 7707   3.712   1.368  14.209  0.5109  0.9067  0.0147
  519MPD2    C3 7708   3.842   1.317  14.202 -0.3870 -0.5334 -0.0428
  519MPD2    C4 7709   3.950   1.403  14.217  0.0693  0.0233 -0.4348
  519MPD2    C5 7710   3.920   1.539  14.215  0.6924 -0.5594  0.3231
  519MPD2     H 7711   3.632   1.297  14.194  0.6077  0.7298  0.3176
  519MPD2    H1 7712   4.050   1.361  14.221  0.1655  0.2486 -0.5052
  519MPD2    H2 7713   3.774   1.700  14.220 -0.0685  0.9540  2.7893
  519MPD2    H3 7714   3.996   1.615  14.198 -1.0215  1.5933  2.2892
  519MPD2     N 7715   3.877   1.186  14.182 -0.7840  0.3304  0.2539
  519MPD2    H5 7716   3.973   1.171  14.153 -0.5280  1.2684  0.6249
  519MPD2    N1 7717   3.557   1.561  14.203 -0.4814 -0.5696  0.1996
  519MPD2    H7 7718   3.541   1.662  14.201  2.6200 -0.1171 -1.2556
  520TMC3    C1 7719   3.859   0.941  14.176  0.2315 -0.7430 -0.1200
  520TMC3    C2 7720   3.772   0.844  14.123  0.4052 -0.1314 -0.7761
  520TMC3    C3 7721   3.822   0.727  14.067  0.1258 -0.3400  0.2129
  520TMC3    C4 7722   3.989   0.919  14.191  0.0140  0.2553 -0.0615
  520TMC3    C5 7723   4.033   0.811  14.128  0.1877 -0.3852  0.6949
  520TMC3    C6 7724   3.958   0.713  14.059  0.2475 -1.1573 -0.7489
  520TMC3     C 7725   3.794   1.073  14.190 -0.8603  0.0165  0.0236
  520TMC3     O 7726   3.677   1.074  14.224  0.4449  0.0035 -0.1368
  520TMC3     H 7727   3.665   0.860  14.136  0.4524  0.6455 -1.3152
  520TMC3    H1 7728   4.050   0.992  14.243  1.8494  0.0383 -1.8748
  520TMC3    H2 7729   4.011   0.627  14.018  1.0249  0.4227 -3.0360
  520TMC3    C7 7730   4.177   0.782  14.141 -0.5892 -0.0016 -0.1321
  520TMC3    C8 7731   3.744   0.651  13.963  0.2582  0.0043 -0.0017
  520TMC3    O1 7732   4.236   0.804  14.247 -0.1474 -0.4118  0.2124
  520TMC3    O2 7733   3.804   0.559  13.906 -0.3758 -0.5144  0.1111
  521MPD2     C 7734   4.513   4.113  17.578  0.4115 -0.0761  0.0122
  521MPD2    C1 7735   4.522   3.986  17.528 -0.8374  0.0850 -0.4578
  521MPD2    C2 7736   4.607   3.949  17.428  0.0583 -0.6576  0.6227
  521MPD2    C3 7737   4.685   4.046  17.369 -0.4798  0.1515  0.0945
  521MPD2    C4 7738   4.675   4.177  17.416  0.4424 -0.3588 -0.4894
  521MPD2    C5 7739   4.596   4.211  17.523  0.0536 -0.6816  0.8732
  521MPD2     H 7740   4.616   3.845  17.400 -0.6057 -0.2495 -1.0794
  521MPD2    H1 7741   0.006   4.259  17.369 -0.5682  0.2084 -0.6520
  521MPD2    H2 7742   4.451   4.140  17.662 -0.4435 -0.5573 -0.4692
  521MPD2    H3 7743   4.592   4.312  17.561  0.6986  0.0932 -1.1425
  521MPD2     N 7744   0.054   4.012  17.274 -0.2228  0.2240 -0.4256
  521MPD2    H5 7745   0.064   3.912  17.258  2.4949  0.1834  1.6153
  521MPD2    N1 7746   4.428   3.901  17.592 -0.0451  0.6956  0.1352
  521MPD2    H7 7747   4.368   3.946  17.660  0.9287  1.0231  0.7711
  522TMC3    C1 7748   0.228   4.031  17.114  0.0453 -0.9554 -0.3768
  522TMC3    C2 7749   0.317   3.951  17.183  0.5273 -0.1620  0.6468
  522TMC3    C3 7750   0.432   3.918  17.116 -0.0946  0.1393  0.0276
  522TMC3    C4 7751   0.256   4.086  16.995  0.3286 -0.7619  0.3639
  522TMC3    C5 7752   0.368   4.053  16.930  0.7974 -0.1708  0.2751
  522TMC3    C6 7753   0.459   3.969  16.991  0.5803 -0.4128 -0.4466
  522TMC3     C 7754   0.124   4.099  17.195  0.0379 -0.6826  0.0150
  522TMC3     O 7755   0.119   4.217  17.182 -0.0060  0.1918  0.0666
  522TMC3     H 7756   0.293   3.906  17.279 -1.5781 -1.2158 -0.3868
  522TMC3    H1 7757   0.183   4.160  16.965  1.1829 -0.8109 -1.8234
  522TMC3    H2 7758   0.563   3.967  16.960  0.3982 -0.8382 -1.0134
  522TMC3    C7 7759   0.403   4.124  16.810 -0.2782  0.3287 -0.3576
  522TMC3    C8 7760   0.533   3.840  17.185  0.0802  0.1740 -0.4891
  522TMC3    O1 7761   0.514   4.101  16.761 -0.2456 -0.2364 -0.0453
  522TMC3    O2 7762   0.513   3.829  17.302  0.1123 -0.1742 -0.4265
  523MPD2     C 7763   2.490   3.696  10.261 -0.0278  0.0567  0.2383
  523MPD2    C1 7764   2.381   3.623  10.217 -0.4761 -0.4697  0.6166
  523MPD2    C2 7765   2.269   3.684  10.171 -0.3049 -1.3528  0.7563
  523MPD2    C3 7766   2.263   3.822  10.163  0.1767 -0.0309 -0.0738
  523MPD2    C4 7767   2.372   3.889  10.211  0.5666 -0.9013 -0.5154
  523MPD2    C5 7768   2.479   3.827  10.260 -0.0307 -0.4967  0.2705
  523MPD2     H 7769   2.184   3.623  10.145 -1.9898  1.2022  0.2118
  523MPD2    H1 7770   2.375   3.996  10.194  0.3449 -0.6623  0.9154
  523MPD2    H2 7771   2.578   3.650  10.305  2.7504  4.1143 -1.1153
  523MPD2    H3 7772   2.563   3.887  10.291  0.6638 -1.3176 -0.0465
  523MPD2     N 7773   2.160   3.902  10.109  0.5975 -0.2700 -0.0352
  523MPD2    H5 7774   2.178   4.002  10.107  0.2165 -0.1712  1.0855
  523MPD2    N1 7775   2.396   3.482  10.199 -0.0685 -0.0420  0.1330
  523MPD2    H7 7776   2.484   3.442  10.230  0.1290  0.3780  0.1169
  524TMC3    C1 7777   1.968   3.964   9.984  0.0803  0.0458 -0.5368
  524TMC3    C2 7778   1.887   3.925   9.885  0.6163 -0.1768 -0.4315
  524TMC3    C3 7779   1.829   4.022   9.808 -0.1973 -0.1016  0.0872
  524TMC3    C4 7780   1.992   4.092  10.017 -0.6317  0.0952  0.2572
  524TMC3    C5 7781   1.927   4.183   9.936 -0.0822 -0.1418  0.0600
  524TMC3    C6 7782   1.852   4.154   9.829  0.1084 -0.0268 -0.2483
  524TMC3     C 7783   2.051   3.853  10.040 -0.0355 -0.9163  0.5040
  524TMC3     O 7784   2.035   3.739  10.003 -0.0966 -0.0445 -0.4573
  524TMC3     H 7785   1.887   3.822   9.852 -0.7167 -0.3432  0.0746
  524TMC3    H1 7786   2.045   4.126  10.104  2.0649 -0.6376 -1.1038
  524TMC3    H2 7787   1.805   4.234   9.773 -0.6915 -0.0965  0.3142
  524TMC3    C7 7788   1.862   4.278  10.019 -0.3892 -1.1106  0.2099
  524TMC3    C8 7789   1.733   3.994   9.704 -0.4281  0.4961 -0.5193
  524TMC3    O1 7790   1.750   4.243  10.061  0.5727  0.2063  0.3675
  524TMC3    O2 7791   1.702   4.090   9.633 -0.0612  0.3333  0.3438
  525MPD2     C 7792   0.294   0.675  14.437 -0.2540 -0.2596  0.5301
  525MPD2    C1 7793   0.391   0.737  14.510  0.6480 -0.8838 -0.0633
  525MPD2    C2 7794   0.460   0.847  14.462 -0.0572 -0.1146 -0.2228
  525MPD2    C3 7795   0.416   0.899  14.340 -0.8046  0.2706  0.1276
  525MPD2    C4 7796   0.308   0.844  14.276 -0.2133 -0.1184  1.0111
  525MPD2    C5 7797   0.252   0.726  14.316  0.8506 -0.2462  0.4705
  525MPD2     H 7798   0.536   0.896  14.521 -0.2570  0.9001 -0.8057
  525MPD2    H1 7799   0.276   0.884  14.180 -0.2743 -2.1861  0.1821
  525MPD2    H2 7800   0.231   0.596  14.478  0.0154 -0.0174  1.4204
  525MPD2    H3 7801   0.167   0.685  14.264  1.1745 -1.1465  0.6473
  525MPD2     N 7802   0.474   1.005  14.274  0.0963 -0.2290  0.3403
  525MPD2    H5 7803   0.426   1.040  14.192 -1.5793 -0.8640  1.0583
  525MPD2    N1 7804   0.437   0.682  14.634  0.3438 -0.5976  0.0430
  525MPD2    H7 7805   0.534   0.706  14.653 -0.4344  0.4951  2.6523
  526TMC3    C1 7806   0.427   0.563  14.842  0.8154  0.5371  0.5688
  526TMC3    C2 7807   0.343   0.509  14.936 -0.0176  0.8830  0.2705
  526TMC3    C3 7808   0.393   0.458  15.051 -0.9082 -0.6445  0.3571
  526TMC3    C4 7809   0.565   0.564  14.851 -0.7005 -0.3924 -0.2460
  526TMC3    C5 7810   0.615   0.501  14.963 -0.7765  0.2852  0.4262
  526TMC3    C6 7811   0.532   0.460  15.065 -0.1646  0.1014 -0.6768
  526TMC3     C 7812   0.356   0.610  14.720 -0.3595  0.2578 -1.2690
  526TMC3     O 7813   0.236   0.599  14.711  0.3299 -0.0423 -0.0131
  526TMC3     H 7814   0.237   0.527  14.920 -0.1119 -0.9798 -1.2642
  526TMC3    H1 7815   0.627   0.633  14.794  0.5313 -1.4089 -0.1613
  526TMC3    H2 7816   0.573   0.408  15.151 -0.0160  3.2439  1.1711
  526TMC3    C7 7817   0.751   0.510  14.995  0.2188  0.0560 -0.0484
  526TMC3    C8 7818   0.307   0.453  15.181 -0.2737 -0.3309  0.0174
  526TMC3    O1 7819   0.777   0.473  15.108  0.2569  0.7230  0.1715
  526TMC3    O2 7820   0.363   0.417  15.288  0.4633 -0.4260 -0.1935
  527MPD2     C 7821   3.099   3.443   1.170 -0.5294 -0.1199 -0.0331
  527MPD2    C1 7822   3.132   3.458   1.307  0.2806  0.2786 -0.1401
  527MPD2    C2 7823   3.258   3.421   1.350 -0.0943 -0.3479  0.2344
  527MPD2    C3 7824   3.353   3.368   1.257 -0.2443  0.3021 -0.0368
  527MPD2    C4 7825   3.316   3.349   1.128 -0.0049  0.4470 -0.7812
  527MPD2    C5 7826   3.197   3.400   1.086  0.0370 -0.2931  0.4261
  527MPD2     H 7827   3.272   3.419   1.457  0.7222 -0.0258  0.1361
  527MPD2    H1 7828   3.379   3.303   1.052 -2.4607 -2.8564 -0.8134
  527MPD2    H2 7829   3.010   3.485   1.124 -0.1870 -1.3479 -1.7935
  527MPD2    H3 7830   3.171   3.400   0.981  1.6555  1.1137  0.0349
  527MPD2     N 7831   3.477   3.307   1.311  0.0793 -0.1554  0.4665
  527MPD2    H5 7832   3.499   3.310   1.410 -0.0108  0.1587  0.4776
  527MPD2    N1 7833   3.034   3.497   1.403 -0.1968  0.1696 -0.2851
  527MPD2    H7 7834   3.071   3.494   1.498  0.4995 -0.4479 -0.5658
  528TMC3    C1 7835   2.836   3.541   1.511  0.3862 -0.2311  0.5641
  528TMC3    C2 7836   2.912   3.518   1.628  0.0110  0.2483  0.0140
  528TMC3    C3 7837   2.858   3.559   1.750  0.1413  0.0644 -0.1060
  528TMC3    C4 7838   2.707   3.593   1.512 -0.3270 -0.0688 -0.1760
  528TMC3    C5 7839   2.663   3.640   1.635 -0.2607 -0.0181 -0.7381
  528TMC3    C6 7840   2.729   3.617   1.753 -0.3038  0.3409  0.1309
  528TMC3     C 7841   2.900   3.513   1.382 -0.1448 -0.8990  0.0805
  528TMC3     O 7842   2.835   3.527   1.277  0.0796 -0.5935  0.9323
  528TMC3     H 7843   2.993   3.448   1.641 -1.2632 -0.8788  2.0213
  528TMC3    H1 7844   2.652   3.620   1.422 -0.6716 -0.3821 -0.0601
  528TMC3    H2 7845   2.678   3.642   1.846 -1.9239 -0.4180 -0.5525
  528TMC3    C7 7846   2.543   3.728   1.645  0.1801 -0.2899 -0.5970
  528TMC3    C8 7847   2.971   3.617   1.823 -0.3642 -0.0733 -0.0279
  528TMC3    O1 7848   2.525   3.772   1.757 -0.5684 -0.2971 -0.4072
  528TMC3    O2 7849   3.075   3.616   1.766 -0.0906  0.2033 -0.2830
  529MPD2     C 7850   1.020   2.381   0.841  0.5640 -0.0598 -0.4591
  529MPD2    C1 7851   0.952   2.262   0.822 -0.0342 -0.4461  0.7661
  529MPD2    C2 7852   0.908   2.237   0.699 -0.0507 -0.9450 -0.0706
  529MPD2    C3 7853   0.912   2.339   0.600  0.7364  0.7141 -0.1929
  529MPD2    C4 7854   0.967   2.463   0.628 -0.5644  0.5488 -0.0471
  529MPD2    C5 7855   1.023   2.484   0.756  0.0250 -0.4115  0.4652
  529MPD2     H 7856   0.863   2.142   0.674 -2.1542  0.3190 -1.1045
  529MPD2    H1 7857   0.966   2.542   0.554  0.1997  0.8543  0.2809
  529MPD2    H2 7858   1.074   2.391   0.935  0.2387 -2.0564 -0.0424
  529MPD2    H3 7859   1.065   2.582   0.777 -1.1589  0.3125 -0.5046
  529MPD2     N 7860   0.870   2.323   0.460  0.0477  0.2910 -0.3386
  529MPD2    H5 7861   0.884   2.402   0.398  1.4598  0.7257  0.5183
  529MPD2    N1 7862   0.937   2.158   0.911  0.1663  0.0594  0.2647
  529MPD2    H7 7863   0.875   2.085   0.880  1.3704 -0.1846 -1.5525
  530TMC3    C1 7864   0.948   2.026   1.097  0.3023 -0.2062  0.6456
  530TMC3    C2 7865   0.927   2.011   1.232  0.2394 -0.3114 -0.0816
  530TMC3    C3 7866   0.870   1.899   1.280 -0.2978  0.4784  0.1241
  530TMC3    C4 7867   0.910   1.926   1.013  0.3835  0.3692 -0.5687
  530TMC3    C5 7868   0.859   1.812   1.069  0.2827 -0.1683  0.2555
  530TMC3    C6 7869   0.838   1.794   1.201 -0.3927  0.2548 -0.0685
  530TMC3     C 7870   0.986   2.153   1.037  0.4480 -0.8779 -0.1597
  530TMC3     O 7871   1.050   2.229   1.102  0.1220  0.5056  0.5599
  530TMC3     H 7872   0.969   2.080   1.305 -0.1956  0.1768 -0.2866
  530TMC3    H1 7873   0.954   1.918   0.914 -1.5763  3.1048 -1.6670
  530TMC3    H2 7874   0.777   1.710   1.234  0.6182 -0.9734 -1.3201
  530TMC3    C7 7875   0.829   1.705   0.971  0.7951  0.3989  0.0772
  530TMC3    C8 7876   0.818   1.893   1.417  0.1628 -0.0258  0.0351
  530TMC3    O1 7877   0.793   1.751   0.867 -0.4914  0.5863  0.1144
  530TMC3    O2 7878   0.772   1.996   1.463  0.5038 -0.5103  0.4186
  531MPD2     C 7879   4.698   3.890  13.116 -0.1079 -0.7480 -0.3870
  531MPD2    C1 7880   4.611   3.954  13.206 -0.0889  0.3738 -0.0668
  531MPD2    C2 7881   4.479   3.922  13.211  0.2823  0.4656  0.2269
  531MPD2    C3 7882   4.423   3.836  13.124 -0.1647  0.1688 -0.1565
  531MPD2    C4 7883   4.505   3.774  13.028  0.0517  0.1719  0.1092
  531MPD2    C5 7884   4.645   3.795  13.036  0.2482  0.1064 -0.4542
  531MPD2     H 7885   4.422   3.951  13.298 -0.0721 -1.9653  0.8294
  531MPD2    H1 7886   4.470   3.702  12.955  2.3267 -3.1009  2.3005
  531MPD2    H2 7887   0.083   3.896  13.128 -0.0485 -0.4373 -1.0979
  531MPD2    H3 7888   4.710   3.738  12.970  0.1499 -1.6448  0.9453
  531MPD2     N 7889   4.281   3.810  13.128 -0.1244 -0.2876  0.0278
  531MPD2    H5 7890   4.231   3.843  13.210  0.3939 -1.8918  1.0042
  531MPD2    N1 7891   4.665   4.069  13.267  0.6939  0.2355 -0.4130
  531MPD2    H7 7892   0.043   4.080  13.265  0.6427  0.6645 -0.8447
  532TMC3    C1 7893   4.649   4.262  13.395  0.0244 -0.1268 -0.0395
  532TMC3    C2 7894   4.558   4.368  13.420 -1.0010  0.6400  0.0285
  532TMC3    C3 7895   4.552   4.411  13.547  0.5999 -0.2923 -0.2692
  532TMC3    C4 7896   4.718   4.199  13.496  0.6992 -0.1014  0.1418
  532TMC3    C5 7897   4.706   4.258  13.619 -0.8205 -0.5528  0.5554
  532TMC3    C6 7898   4.632   4.363  13.643 -0.0879  0.4195  0.4384
  532TMC3     C 7899   4.585   4.174  13.307  0.0142 -0.6390 -0.2993
  532TMC3     O 7900   4.468   4.190  13.294  0.0325 -0.2817 -0.3712
  532TMC3     H 7901   4.500   4.412  13.340 -1.4122 -0.0773 -0.0604
  532TMC3    H1 7902   0.038   4.101  13.479  0.1943 -0.6313  1.9508
  532TMC3    H2 7903   4.621   4.391  13.748  2.7728  0.1984  0.7776
  532TMC3    C7 7904   0.113   4.274  13.681 -0.3493 -0.1114  0.0773
  532TMC3    C8 7905   4.414   4.435  13.589  0.2835 -0.0121  0.5454
  532TMC3    O1 7906   0.141   4.384  13.731 -0.2237  0.2232  0.1575
  532TMC3    O2 7907   4.408   4.507  13.687  0.0442  0.7574  0.0931
  533TMC3    C1 7908   0.603   1.198  14.277  0.7852 -1.0093  0.8257
  533TMC3    C2 7909   0.734   1.250  14.278  0.4178  0.3380 -0.1918
  533TMC3    C3 7910   0.758   1.378  14.332  0.4307 -0.1597  0.1776
  533TMC3    C4 7911   0.511   1.270  14.348 -0.1925 -0.8135 -0.0352
  533TMC3    C5 7912   0.538   1.385  14.413  0.6964  0.0181  0.2692
  533TMC3    C6 7913   0.658   1.444  14.398 -0.3103 -0.3332  0.1880
  533TMC3     C 7914   0.594   1.059  14.312 -0.0973 -0.9846  0.1856
  533TMC3     O 7915   0.681   1.034  14.401  0.1832 -0.4776 -0.8486
  533TMC3     H 7916   0.813   1.206  14.218  2.0634  1.0459  1.4449
  533TMC3    H1 7917   0.405   1.245  14.357  0.2989 -3.1018 -0.6441
  533TMC3    H2 7918   0.687   1.538  14.445 -1.6571  0.5025 -0.6415
  533TMC3    C7 7919   0.490   1.384  14.548  0.0199  0.3095  0.4025
  533TMC3    C8 7920   0.881   1.445  14.317 -0.2423 -0.5375  0.9641
  533TMC3    O1 7921   0.437   1.280  14.582  0.1379 -0.6616 -0.4892
  533TMC3    O2 7922   0.927   1.496  14.421 -1.0254 -0.5562 -0.3014
  534MPD2     C 7923   3.022   1.930   1.579  0.0708 -0.6182  0.7130
  534MPD2    C1 7924   2.936   2.024   1.617 -0.5644 -0.1011  0.4348
  534MPD2    C2 7925   2.804   2.013   1.566 -0.3245 -0.3966  0.4403
  534MPD2    C3 7926   2.773   1.905   1.475 -0.1048  0.3908  0.2250
  534MPD2    C4 7927   2.867   1.820   1.434 -0.5900  0.7179 -0.1835
  534MPD2    C5 7928   2.992   1.837   1.487  1.0036 -0.6613 -0.3687
  534MPD2     H 7929   2.724   2.077   1.602 -1.4816 -0.6630 -1.6515
  534MPD2    H1 7930   2.841   1.733   1.374  1.3321  0.3507 -0.4568
  534MPD2    H2 7931   3.125   1.934   1.611  0.4804 -1.2810 -0.5046
  534MPD2    H3 7932   3.067   1.767   1.453  0.5733 -0.6111 -1.4260
  534MPD2     N 7933   2.647   1.875   1.422  0.0432 -0.4449  0.0447
  534MPD2    H5 7934   2.633   1.796   1.359 -2.3852  0.4198 -0.5083
  534MPD2    N1 7935   2.967   2.116   1.716 -0.2456  0.1616 -0.3858
  534MPD2    H7 7936   2.893   2.182   1.740 -2.2329 -1.9750 -0.7357
  535TMC3    C1 7937   2.423   1.884   1.380 -0.3089 -0.4624  0.1908
  535TMC3    C2 7938   2.347   1.803   1.459 -0.3352  0.1613  0.0944
  535TMC3    C3 7939   2.286   1.695   1.400 -0.0987  0.0768  0.5739
  535TMC3    C4 7940   2.446   1.851   1.250 -0.5413 -0.2705 -0.0399
  535TMC3    C5 7941   2.372   1.751   1.188 -0.8018 -0.1143 -0.0962
  535TMC3    C6 7942   2.289   1.670   1.264 -0.1890  0.1599  0.2011
  535TMC3     C 7943   2.531   1.942   1.452  0.3149 -0.0017 -0.8735
  535TMC3     O 7944   2.512   2.032   1.535 -0.4329 -0.9195  0.7094
  535TMC3     H 7945   2.345   1.815   1.567 -0.1966 -0.2491  0.1458
  535TMC3    H1 7946   2.503   1.917   1.185 -2.8038 -0.6550 -2.3827
  535TMC3    H2 7947   2.232   1.589   1.218 -0.7616  1.2143 -0.9540
  535TMC3    C7 7948   2.392   1.725   1.047 -0.5075  0.3738  0.3455
  535TMC3    C8 7949   2.182   1.633   1.475 -0.1194 -0.5742  0.3295
  535TMC3    O1 7950   2.504   1.758   1.006 -0.5057 -0.0292 -0.2184
  535TMC3    O2 7951   2.098   1.578   1.406  0.1645  0.2797 -0.0773
  536MPD2     C 7952   1.629   0.224  16.762  0.3669  0.0585 -0.5818
  536MPD2    C1 7953   1.629   0.357  16.808  0.0643 -0.0810  0.1115
  536MPD2    C2 7954   1.574   0.461  16.734 -0.8608 -0.2104  0.1520
  536MPD2    C3 7955   1.513   0.431  16.612  0.2060 -1.2401  0.0437
  536MPD2    C4 7956   1.493   0.305  16.579 -0.0849 -0.7178  0.2442
  536MPD2    C5 7957   1.554   0.206  16.652  0.2692  0.4278 -0.1887
  536MPD2     H 7958   1.570   0.564  16.768 -0.6909  0.3621 -1.5977
  536MPD2    H1 7959   1.429   0.279  16.496  1.4359  1.6335 -1.6730
  536MPD2    H2 7960   1.651   0.136  16.821 -0.6199  0.1440 -0.0713
  536MPD2    H3 7961   1.534   0.109  16.609 -0.6503  0.6022 -0.1363
  536MPD2     N 7962   1.460   0.534  16.524 -0.1151  0.4330 -0.3643
  536MPD2    H5 7963   1.390   0.496  16.460  1.6329 -1.0794 -1.3870
  536MPD2    N1 7964   1.676   0.379  16.940 -0.4124 -1.1286 -0.3197
  536MPD2    H7 7965   1.713   0.296  16.986 -1.7490 -0.7991  1.3373
  537TMC3    C1 7966   1.707   0.481  17.155  0.1008 -0.6203 -0.3776
  537TMC3    C2 7967   1.794   0.565  17.213 -0.4669 -0.9324  0.5230
  537TMC3    C3 7968   1.809   0.562  17.348  0.1186  0.2889  0.7144
  537TMC3    C4 7969   1.631   0.390  17.227 -0.9704 -0.2017  0.3334
  537TMC3    C5 7970   1.649   0.391  17.364  0.2632 -0.0806  0.1817
  537TMC3    C6 7971   1.736   0.477  17.428  0.4451 -0.1214  0.1425
  537TMC3     C 7972   1.684   0.498  17.013  0.6996 -0.8533  0.1464
  537TMC3     O 7973   1.632   0.603  16.979  0.1466  0.0716  0.3665
  537TMC3     H 7974   1.840   0.637  17.148  0.5908 -1.5549  0.5908
  537TMC3    H1 7975   1.565   0.320  17.178  0.8595 -1.0680 -0.9105
  537TMC3    H2 7976   1.764   0.463  17.532 -2.1641 -2.0429  0.5641
  537TMC3    C7 7977   1.595   0.275  17.444  0.3735  0.4744 -0.9289
  537TMC3    C8 7978   1.910   0.647  17.406 -0.0808  0.2627 -0.4781
  537TMC3    O1 7979   1.573   0.290  17.565 -0.0975  0.2470  0.0424
  537TMC3    O2 7980   1.964   0.620  17.510 -0.1870  0.4437  0.0062
  538TMC3    C1 7981   3.018   3.156  10.506 -0.8584 -0.0982  0.2491
  538TMC3    C2 7982   3.129   3.194  10.439 -0.4045 -0.2169  0.1601
  538TMC3    C3 7983   3.135   3.321  10.388 -0.3499 -0.0584  0.2505
  538TMC3    C4 7984   2.911   3.237  10.521  0.7222 -0.2267 -0.5006
  538TMC3    C5 7985   2.926   3.367  10.476  0.5521 -0.4835  0.1689
  538TMC3    C6 7986   3.033   3.414  10.399  0.4444  0.4911  0.7368
  538TMC3     C 7987   3.037   3.075  10.624 -0.0020 -0.0565  0.9155
  538TMC3     O 7988   2.943   3.001  10.646 -0.1899 -0.0421  0.5282
  538TMC3     H 7989   3.218   3.133  10.442  0.8231  1.5346 -0.2861
  538TMC3    H1 7990   2.829   3.205  10.585  0.8108  1.1055  0.2761
  538TMC3    H2 7991   3.034   3.513  10.354  0.2743  0.1915  0.0794
  538TMC3    C7 7992   2.814   3.451  10.488  0.2680  0.1592 -0.2683
  538TMC3    C8 7993   3.251   3.357  10.313 -0.0677  0.4031  0.4924
  538TMC3    O1 7994   2.713   3.390  10.515 -0.4160 -0.7594 -0.0112
  538TMC3    O2 7995   3.310   3.269  10.246 -0.2641  0.2214 -0.4649
  539MPD2     C 7996   2.595   3.018  11.986 -0.3929 -0.4160  0.1603
  539MPD2    C1 7997   2.631   3.014  11.851  0.6225 -0.1075  0.1117
  539MPD2    C2 7998   2.658   3.136  11.794  0.6606  1.6339 -1.0036
  539MPD2    C3 7999   2.660   3.253  11.864  0.3829 -0.4541  0.8745
  539MPD2    C4 8000   2.625   3.257  11.998 -0.0248 -0.3212 -0.3859
  539MPD2    C5 8001   2.597   3.138  12.063  0.1854  0.1165  0.1434
  539MPD2     H 8002   2.676   3.137  11.687 -1.3501  1.5095 -1.3430
  539MPD2    H1 8003   2.625   3.348  12.056 -1.0052  0.2158 -1.2269
  539MPD2    H2 8004   2.578   2.922  12.034  0.4736 -0.2001  0.8974
  539MPD2    H3 8005   2.580   3.144  12.170 -1.0307 -4.4226  0.1760
  539MPD2     N 8006   2.677   3.382  11.800 -0.1510 -0.1810 -0.1049
  539MPD2    H5 8007   2.655   3.467  11.851  1.9411  0.1526  0.2378
  539MPD2    N1 8008   2.629   2.897  11.774  0.2125 -0.1138 -0.1521
  539MPD2    H7 8009   2.635   2.910  11.674 -0.9137  2.8914  0.1602
  540TMC3    C1 8010   2.702   3.524  11.610  0.3196 -0.2567  0.1911
  540TMC3    C2 8011   2.769   3.558  11.497 -0.7682  0.6104  0.3385
  540TMC3    C3 8012   2.733   3.668  11.432  1.0011 -0.3806 -0.6165
  540TMC3    C4 8013   2.595   3.601  11.651  0.3860 -0.3545  0.2399
  540TMC3    C5 8014   2.549   3.704  11.573 -0.3996 -0.5014  0.0689
  540TMC3    C6 8015   2.620   3.742  11.463 -0.7474 -0.8469 -0.3604
  540TMC3     C 8016   2.728   3.392  11.673 -1.1034  0.1779 -0.0047
  540TMC3     O 8017   2.792   3.310  11.612 -0.0012 -0.4496  0.1268
  540TMC3     H 8018   2.847   3.491  11.461 -1.0732  1.0204 -1.0633
  540TMC3    H1 8019   2.524   3.551  11.716 -0.2654 -0.6552 -0.7145
  540TMC3    H2 8020   2.586   3.824  11.400  1.1328  1.0385  1.0621
  540TMC3    C7 8021   2.456   3.792  11.646  0.2026 -0.9033  0.3996
  540TMC3    C8 8022   2.768   3.662  11.294 -0.5393 -0.1812  0.2301
  540TMC3    O1 8023   2.409   3.751  11.752 -0.1255  0.0513  0.1645
  540TMC3    O2 8024   2.880   3.685  11.255 -0.0803  0.1589  0.1785
  541MPD2     C 8025   0.668   4.601  13.401  0.9170 -0.2797  0.6246
  541MPD2    C1 8026   0.796   4.591  13.347  0.2537  0.1953 -0.0523
  541MPD2    C2 8027   0.818   4.654  13.229 -0.1100  0.4031  0.1702
  541MPD2    C3 8028   0.720   0.001  13.154  0.1246 -0.2100 -0.3929
  541MPD2    C4 8029   0.598   0.017  13.212  0.0351 -0.0762 -0.4792
  541MPD2    C5 8030   0.577   4.682  13.334  0.0487  0.8267  0.5345
  541MPD2     H 8031   0.916   4.644  13.184  0.3607  0.1556  1.2563
  541MPD2    H1 8032   0.518   0.069  13.162  0.2072 -0.3739 -1.0673
  541MPD2    H2 8033   0.628   4.542  13.482  2.4925  0.6347  2.0870
  541MPD2    H3 8034   0.478   4.688  13.376  0.0444 -1.4292  0.8456
  541MPD2     N 8035   0.730   0.052  13.018 -0.9147 -0.4088  0.0309
  541MPD2    H5 8036   0.642   0.089  12.983 -0.8495 -1.8736 -1.6741
  541MPD2    N1 8037   0.897   4.505  13.396 -0.0712 -0.6301 -0.9104
  541MPD2    H7 8038   0.992   4.520  13.362  0.2789 -1.6400 -0.3778
  542TMC3    C1 8039   0.818   0.117  12.804  0.2254 -0.0158  0.0928
  542TMC3    C2 8040   0.899   0.074  12.702  0.6016  0.2015  0.9902
  542TMC3    C3 8041   0.864   0.117  12.579  0.0984 -0.2317 -0.1988
  542TMC3    C4 8042   0.709   0.196  12.787  0.6819 -0.5205  0.2999
  542TMC3    C5 8043   0.688   0.247  12.661 -0.5745  0.0956 -0.3586
  542TMC3    C6 8044   0.768   0.208  12.558 -0.5020 -0.3243  0.1577
  542TMC3     C 8045   0.845   0.049  12.931  0.5749 -0.4697  0.1400
  542TMC3     O 8046   0.945   4.697  12.937 -0.2721 -0.5281  0.5503
  542TMC3     H 8047   0.971   4.719  12.720  0.4970 -0.0881  0.1849
  542TMC3    H1 8048   0.658   0.234  12.875  0.6180 -0.3339  0.1823
  542TMC3    H2 8049   0.753   0.248  12.458 -0.8536 -2.0517 -0.4965
  542TMC3    C7 8050   0.589   0.357  12.657  0.7049 -0.4384  0.8282
  542TMC3    C8 8051   0.952   0.089  12.466  0.0017  0.1984 -0.1393
  542TMC3    O1 8052   0.523   0.375  12.760 -0.4946 -0.2258  0.0282
  542TMC3    O2 8053   0.909   0.111  12.352  0.1887 -0.4994  0.7504
  543TMC3    C1 8054   0.254   1.135  17.614  0.3968  0.3592 -0.5993
  543TMC3    C2 8055   0.262   1.001  17.602 -1.0165 -0.2738  0.2117
  543TMC3    C3 8056   0.214   0.920   0.010 -0.3298  0.3521 -0.2119
  543TMC3    C4 8057   0.203   1.193   0.034  1.2028 -0.0491 -1.0223
  543TMC3    C5 8058   0.144   1.114   0.133 -0.6000  0.5031  0.6055
  543TMC3    C6 8059   0.155   0.973   0.119  0.3153  0.0369 -0.1318
  543TMC3     C 8060   0.321   1.202  17.505 -0.0190 -0.5034 -0.0280
  543TMC3     O 8061   0.394   1.295  17.533 -0.0541  0.2293  0.6910
  543TMC3     H 8062   0.324   0.972  17.518 -0.7140  0.4492  0.1827
  543TMC3    H1 8063   0.217   1.300   0.040 -1.3355  0.3384 -2.2982
  543TMC3    H2 8064   0.110   0.906   0.192  0.1382  1.3397  0.9780
  543TMC3    C7 8065   0.032   1.171   0.205  0.4237 -0.0466 -0.7459
  543TMC3    C8 8066   0.231   0.773   0.002 -0.3479 -0.5109  0.4304
  543TMC3    O1 8067   4.687   1.089   0.270  0.4614 -0.1469 -0.4481
  543TMC3    O2 8068   0.233   0.734  17.578 -0.3773 -0.5654 -0.5310
  544MPD2     C 8069   0.185   0.279   0.167  0.0816 -0.2169 -0.1098
  544MPD2    C1 8070   0.171   0.333   0.045 -0.3144 -0.2995 -0.9519
  544MPD2    C2 8071   0.181   0.471   0.023  0.1995 -0.1004 -0.1463
  544MPD2    C3 8072   0.205   0.556   0.130 -0.6388 -0.0646  0.6162
  544MPD2    C4 8073   0.210   0.501   0.255 -0.3967 -0.0479  0.1657
  544MPD2    C5 8074   0.203   0.367   0.269  0.0804  0.1329 -0.2502
  544MPD2     H 8075   0.167   0.512  17.616  0.2797  1.2062  0.3831
  544MPD2    H1 8076   0.232   0.562   0.342  2.3148 -2.5967  1.2871
  544MPD2    H2 8077   0.167   0.174   0.189 -0.2039 -0.4607 -1.5453
  544MPD2    H3 8078   0.205   0.326   0.369  0.2241 -0.6998 -0.5922
  544MPD2     N 8079   0.221   0.697   0.118 -0.0663  0.0922 -0.1738
  544MPD2    H5 8080   0.217   0.746   0.207  3.0094  0.1459 -0.0551
  544MPD2    N1 8081   0.144   0.239  17.633 -0.1497 -0.9965 -1.0605
  544MPD2    H7 8082   0.186   0.147  17.642 -2.0453 -1.7031  0.5678
  545TMC3    C1 8083   0.210   0.192  17.411 -0.2007 -0.1251 -0.4678
  545TMC3    C2 8084   0.316   0.242  17.343 -1.0806  0.6185  0.0698
  545TMC3    C3 8085   0.399   0.156  17.272 -0.9357  0.3138  0.3687
  545TMC3    C4 8086   0.180   0.059  17.412 -1.0888  0.1125 -0.1845
  545TMC3    C5 8087   0.259   4.696  17.336 -0.5650 -0.0810  0.1187
  545TMC3    C6 8088   0.368   0.020  17.259  0.2068 -0.3938 -0.4073
  545TMC3     C 8089   0.145   0.282  17.504  0.4475  0.7462 -0.0178
  545TMC3     O 8090   0.095   0.379  17.451 -0.0899  0.3245  0.1611
  545TMC3     H 8091   0.318   0.351  17.347  2.5351  0.6255 -1.6950
  545TMC3    H1 8092   0.109   0.015  17.481  0.3891 -2.9810 -0.6333
  545TMC3    H2 8093   0.430   4.678  17.198 -0.9728 -0.3927 -1.6060
  545TMC3    C7 8094   0.246   4.554  17.366 -0.7216 -1.0920 -0.1638
  545TMC3    C8 8095   0.507   0.211  17.201 -0.0030 -0.4190 -0.4418
  545TMC3    O1 8096   0.135   4.522  17.409  0.2220  0.2729 -0.5394
  545TMC3    O2 8097   0.524   0.149  17.100 -0.3080 -0.3862 -0.0091
  546MPD2     C 8098   1.947   1.157   0.289 -0.0693 -0.1311 -0.6040
  546MPD2    C1 8099   1.930   1.167   0.155  0.2204  0.0237 -0.6575
  546MPD2    C2 8100   1.984   1.276   0.082  0.3366  0.0469  0.5930
  546MPD2    C3 8101   2.035   1.384   0.148  0.2472  0.3640  0.5188
  546MPD2    C4 8102   2.046   1.376   0.290  0.1358  0.1976 -0.6215
  546MPD2    C5 8103   2.001   1.267   0.355 -0.2141 -0.2488  0.0455
  546MPD2     H 8104   1.982   1.281  17.666  0.3911  4.3181  0.8077
  546MPD2    H1 8105   2.096   1.451   0.350  1.5218  1.0077 -2.7907
  546MPD2    H2 8106   1.902   1.078   0.347 -1.9958  0.5363 -1.1537
  546MPD2    H3 8107   2.013   1.267   0.463 -0.4848 -1.0396  0.0743
  546MPD2     N 8108   2.069   1.513   0.091 -0.2073  0.4235 -0.3348
  546MPD2    H5 8109   2.099   1.587   0.154  0.3147 -0.3116  0.2868
  546MPD2    N1 8110   1.861   1.060   0.096 -0.1377 -0.1971  0.7145
  546MPD2    H7 8111   1.812   0.992   0.154 -2.1077 -0.2475 -1.0287
  547TMC3    C1 8112   1.726   0.948  17.625  0.6250  0.8352 -0.0587
  547TMC3    C2 8113   1.641   0.974  17.519  0.6562 -0.2177 -0.0040
  547TMC3    C3 8114   1.540   0.885  17.493  0.3109  0.3646  0.3048
  547TMC3    C4 8115   1.730   0.828  17.690 -0.5399  0.3046  0.0254
  547TMC3    C5 8116   1.630   0.740  17.654 -0.2247 -0.5141 -0.6885
  547TMC3    C6 8117   1.534   0.762  17.550 -0.2196  0.4200 -0.2894
  547TMC3     C 8118   1.824   1.057  17.655 -0.6243  0.2085  0.2023
  547TMC3     O 8119   1.849   1.123  17.554 -0.4582 -0.6442  0.5385
  547TMC3     H 8120   1.644   1.075  17.479 -4.1802  0.3301  1.0037
  547TMC3    H1 8121   1.789   0.813   0.087  1.0975 -2.8732 -1.5697
  547TMC3    H2 8122   1.458   0.687  17.532  2.2034 -1.7380 -1.5614
  547TMC3    C7 8123   1.591   0.631   0.059  0.3450 -0.4420  0.1130
  547TMC3    C8 8124   1.433   0.935  17.409  0.5370  0.1918 -0.6982
  547TMC3    O1 8125   1.485   0.572   0.037  1.1845 -0.2421  0.0240
  547TMC3    O2 8126   1.451   1.043  17.350 -0.1291  0.1902  0.0097
  548MPD2     C 8127   1.541   1.830  12.086  1.0269  0.1783  0.8824
  548MPD2    C1 8128   1.501   1.730  12.174 -0.0747  0.4873  0.1803
  548MPD2    C2 8129   1.596   1.626  12.192 -0.1189 -0.1464  0.2971
  548MPD2    C3 8130   1.721   1.621  12.134  1.1922  0.2722  0.4496
  548MPD2    C4 8131   1.745   1.722  12.046  0.4428 -0.4772  0.4050
  548MPD2    C5 8132   1.661   1.824  12.022  0.3017  0.3764 -0.0477
  548MPD2     H 8133   1.571   1.546  12.261 -1.3138  0.1978  0.2597
  548MPD2    H1 8134   1.842   1.744  12.001  0.1739  0.9529  0.5165
  548MPD2    H2 8135   1.482   1.917  12.059  1.7744 -0.5351 -3.1085
  548MPD2    H3 8136   1.683   1.897  11.945  2.0682 -1.9809 -1.7832
  548MPD2     N 8137   1.814   1.522  12.172  0.2798 -0.2140  0.0682
  548MPD2    H5 8138   1.797   1.472  12.259 -0.9207 -0.1339 -0.1166
  548MPD2    N1 8139   1.377   1.738  12.247  0.6217  0.2323  0.6767
  548MPD2    H7 8140   1.313   1.812  12.223  0.8361  0.8062  1.9071
  549TMC3    C1 8141   1.232   1.704  12.426  0.5459  0.0174  0.0630
  549TMC3    C2 8142   1.189   1.832  12.412 -0.6388  0.4865  0.6451
  549TMC3    C3 8143   1.076   1.860  12.493 -0.3704 -0.0030 -0.4507
  549TMC3    C4 8144   1.173   1.606  12.498  0.1588  0.5157  0.3129
  549TMC3    C5 8145   1.060   1.643  12.560  1.0386 -0.4058  0.3296
  549TMC3    C6 8146   1.010   1.769  12.570  0.5614 -0.5393  0.4303
  549TMC3     C 8147   1.354   1.667  12.358 -0.1186 -0.3354 -0.1732
  549TMC3     O 8148   1.414   1.573  12.407 -0.5256 -0.3140  0.3547
  549TMC3     H 8149   1.244   1.908  12.358 -1.6844  0.3195 -0.6591
  549TMC3    H1 8150   1.207   1.504  12.486 -0.0484  0.4010  0.6826
  549TMC3    H2 8151   0.923   1.789  12.632  0.2162 -1.6305  0.2971
  549TMC3    C7 8152   0.978   1.536  12.612  0.2521  0.4071 -0.1660
  549TMC3    C8 8153   0.997   1.980  12.466  0.3709  0.5358 -0.0837
  549TMC3    O1 8154   0.857   1.552  12.612  0.2344 -0.4403  0.5840
  549TMC3    O2 8155   0.883   1.983  12.513 -0.4767 -0.0934  0.4689
  550TMC3    C1 8156   0.427   4.049  12.812  0.0152 -0.0987 -0.1895
  550TMC3    C2 8157   0.358   4.081  12.923  0.3639 -0.1215  0.0379
  550TMC3    C3 8158   0.220   4.092  12.922  0.5109  0.0820  0.2277
  550TMC3    C4 8159   0.365   3.995  12.705  0.4769 -0.0061 -0.8210
  550TMC3    C5 8160   0.226   3.982  12.715 -0.2343  0.3431 -0.9804
  550TMC3    C6 8161   0.152   4.029  12.822 -0.1853 -0.1299  0.4924
  550TMC3     C 8162   0.563   4.107  12.795  0.2353 -0.0591 -0.6052
  550TMC3     O 8163   0.628   4.111  12.896 -0.1426  0.0458 -0.1228
  550TMC3     H 8164   0.412   4.134  13.001 -0.7070  1.7505 -0.4815
  550TMC3    H1 8165   0.420   3.972  12.615  0.3753  2.3284 -1.4843
  550TMC3    H2 8166   0.044   4.041  12.818  0.0193  2.3488  2.3009
  550TMC3    C7 8167   0.149   3.952  12.589 -1.2030  0.4451  0.2602
  550TMC3    C8 8168   0.161   4.212  12.978  0.3533  0.7574 -0.0487
  550TMC3    O1 8169   0.027   3.949  12.604 -0.3015  0.5371  0.9222
  550TMC3    O2 8170   0.075   4.259  12.907  0.2471 -0.1730  0.0820
  551TMC3    C1 8171   2.350   2.078  13.219  0.2132  0.3675 -0.4434
  551TMC3    C2 8172   2.459   2.095  13.137 -0.6827 -0.3030  0.9846
  551TMC3    C3 8173   2.570   2.160  13.175 -0.1360 -0.1367  0.1828
  551TMC3    C4 8174   2.354   2.125  13.350  0.0340  0.3723  0.4236
  551TMC3    C5 8175   2.467   2.199  13.376  0.5343 -0.6305 -0.5910
  551TMC3    C6 8176   2.577   2.215  13.295  0.5986 -0.8991  0.1927
  551TMC3     C 8177   2.256   1.974  13.179 -0.3533 -0.1386 -0.1330
  551TMC3     O 8178   2.238   1.955  13.059  0.1475  0.2799 -0.2297
  551TMC3     H 8179   2.445   2.065  13.034  2.5523 -0.9370  0.7249
  551TMC3    H1 8180   2.274   2.119  13.423 -1.1267  0.2330 -0.8568
  551TMC3    H2 8181   2.674   2.254  13.325  1.3782 -1.0261 -2.1092
  551TMC3    C7 8182   2.476   2.258  13.513  0.4158 -0.4260  0.2127
  551TMC3    C8 8183   2.664   2.184  13.072  0.7349  0.4982  0.2702
  551TMC3    O1 8184   2.454   2.186  13.609 -0.4355  0.2409 -0.1496
  551TMC3    O2 8185   2.686   2.095  12.991 -0.7778  0.0651 -0.0767
  552MPD2     C 8186   0.021   4.297  14.069 -0.4578  0.5546  0.1509
  552MPD2    C1 8187   4.706   4.167  14.108  0.0345  0.1294  0.5583
  552MPD2    C2 8188   0.070   4.088  14.180 -0.3834 -0.1675  0.1408
  552MPD2    C3 8189   0.201   4.133  14.209  0.8045  0.3822  0.1046
  552MPD2    C4 8190   0.230   4.262  14.167  1.1645 -0.1195 -0.6121
  552MPD2    C5 8191   0.144   4.341  14.098  0.5910 -0.2990  0.4882
  552MPD2     H 8192   0.050   3.986  14.210  0.6419 -0.6261 -0.6984
  552MPD2    H1 8193   0.328   4.298  14.197  1.7766 -0.7608 -1.8140
  552MPD2    H2 8194   4.677   4.369  14.022  0.5461  0.6701 -1.0830
  552MPD2    H3 8195   0.192   4.430  14.059  0.6129 -2.1671 -3.7464
  552MPD2     N 8196   0.294   4.059  14.283  0.7488 -0.7745 -0.5312
  552MPD2    H5 8197   0.379   4.110  14.302  0.9759 -1.6216  0.7242
  552MPD2    N1 8198   4.587   4.114  14.070  0.9741 -0.1667  0.0925
  552MPD2    H7 8199   4.566   4.016  14.084  0.6902 -0.3698 -1.7987
  553TMC3    C1 8200   4.381   4.088  13.949 -0.3692  0.2899 -0.6539
  553TMC3    C2 8201   4.354   4.094  13.814  0.2023  0.2572 -1.0927
  553TMC3    C3 8202   4.323   3.988  13.734 -0.6151 -0.1471  0.0165
  553TMC3    C4 8203   4.354   3.974  14.018 -0.2830  0.0010  0.1033
  553TMC3    C5 8204   4.315   3.869  13.939 -0.1296  0.2067 -0.1117
  553TMC3    C6 8205   4.284   3.878  13.803  0.1172  0.6735  0.4655
  553TMC3     C 8206   4.489   4.180  13.993  0.3870  0.4258 -0.1699
  553TMC3     O 8207   4.496   4.292  13.938  0.1158  0.1474 -0.0411
  553TMC3     H 8208   4.379   4.190  13.769 -0.3408  0.1484 -1.6353
  553TMC3    H1 8209   4.394   3.947  14.115 -1.2947 -1.3275  0.1578
  553TMC3    H2 8210   4.245   3.789  13.755  0.6217  0.5027  0.3726
  553TMC3    C7 8211   4.336   3.731  13.981 -0.2168 -0.1965 -0.0176
  553TMC3    C8 8212   4.433   3.955  13.634 -0.0482  0.1828  0.5136
  553TMC3    O1 8213   4.233   3.665  13.972 -0.9417  0.7422  0.5596
  553TMC3    O2 8214   4.542   4.003  13.662  0.2826 -0.1353  0.1319
  554TMC3    C1 8215   1.705   3.361  11.897 -0.4881 -0.1743 -0.8299
  554TMC3    C2 8216   1.600   3.298  11.830 -0.3217  0.3548  0.7180
  554TMC3    C3 8217   1.586   3.328  11.697 -0.1041 -0.0420  0.5653
  554TMC3    C4 8218   1.773   3.464  11.844  1.5089  0.5932 -0.1199
  554TMC3    C5 8219   1.761   3.486  11.713 -0.1174  0.3131  0.0974
  554TMC3    C6 8220   1.663   3.421  11.636 -0.5378 -0.1556  0.0551
  554TMC3     C 8221   1.707   3.340  12.038  0.3720  0.1742  0.6183
  554TMC3     O 8222   1.746   3.432  12.104  0.0909  0.3258  0.2391
  554TMC3     H 8223   1.520   3.236  11.868 -1.2642  0.0985 -1.7014
  554TMC3    H1 8224   1.856   3.501  11.903  0.8347  1.6291  0.1801
  554TMC3    H2 8225   1.658   3.441  11.529  1.3392  0.2276  0.0453
  554TMC3    C7 8226   1.875   3.519  11.629  0.0241 -0.2113  0.4124
  554TMC3    C8 8227   1.506   3.251  11.609 -0.4390 -1.0412  0.6335
  554TMC3    O1 8228   1.895   3.445  11.530 -0.4144 -0.5522 -0.1235
  554TMC3    O2 8229   1.494   3.300  11.498  0.5586 -0.2283  0.1873
  555TMC3    C1 8230   0.487   2.432  14.857  0.4900  0.0929 -0.2486
  555TMC3    C2 8231   0.398   2.507  14.933 -0.4690  0.7902 -0.0970
  555TMC3    C3 8232   0.403   2.511  15.074  0.1158  0.4860 -0.6879
  555TMC3    C4 8233   0.585   2.357  14.924  0.0068 -0.2124 -0.5397
  555TMC3    C5 8234   0.591   2.364  15.059 -0.2207 -0.2751 -0.3571
  555TMC3    C6 8235   0.499   2.441  15.135 -0.0127  0.1529 -0.6122
  555TMC3     C 8236   0.495   2.455  14.715  0.2160  0.0630  0.3960
  555TMC3     O 8237   0.599   2.408  14.671  0.0612  0.9726 -0.4603
  555TMC3     H 8238   0.331   2.576  14.883  1.2619  0.6341 -2.6112
  555TMC3    H1 8239   0.644   2.289  14.863 -0.9175 -1.6612  0.1848
  555TMC3    H2 8240   0.495   2.422  15.241 -1.8453  0.2376 -0.6639
  555TMC3    C7 8241   0.618   2.238  15.132 -0.2182 -0.0343 -0.2557
  555TMC3    C8 8242   0.344   2.627  15.150  0.0375  0.0144 -0.2597
  555TMC3    O1 8243   0.530   2.207  15.210 -0.0323  0.1330 -0.1382
  555TMC3    O2 8244   0.249   2.688  15.097  0.3691 -0.6673 -0.5199
  556MPD2     C 8245   3.052   4.458  10.860  0.6882 -0.4336  0.5222
  556MPD2    C1 8246   3.184   4.407  10.859  0.9992 -0.6261  0.3831
  556MPD2    C2 8247   3.246   4.382  10.739  0.2309 -0.9355 -0.0566
  556MPD2    C3 8248   3.181   4.396  10.621 -0.1160 -0.1498  0.2345
  556MPD2    C4 8249   3.051   4.445  10.622 -0.6535  0.5344 -1.0330
  556MPD2    C5 8250   2.996   4.483  10.739  0.1815  0.1356  0.0914
  556MPD2     H 8251   3.344   4.334  10.735  0.2758 -0.8424 -0.0664
  556MPD2    H1 8252   2.992   4.446  10.532 -1.7605  0.1878 -0.3095
  556MPD2    H2 8253   3.003   4.490  10.951 -0.9425  1.0252 -0.8767
  556MPD2    H3 8254   2.905   4.542  10.739  0.3717  0.4302 -3.0175
  556MPD2     N 8255   3.250   4.360  10.500  0.0184 -0.3433 -0.6787
  556MPD2    H5 8256   3.329   4.298  10.516 -0.3088 -0.7776 -0.7531
  556MPD2    N1 8257   3.248   4.373  10.975  1.0777  0.0776 -0.1758
  556MPD2    H7 8258   3.343   4.338  10.968  0.8885 -0.5547  0.3568
  557TMC3    C1 8259   3.265   4.316  10.264 -0.5604 -0.2662  0.2820
  557TMC3    C2 8260   3.181   4.319  10.155  0.2541  0.3144  0.5532
  557TMC3    C3 8261   3.189   4.216  10.070 -1.3477  0.5650  0.3010
  557TMC3    C4 8262   3.359   4.224  10.290 -0.6433  0.0728  0.7131
  557TMC3    C5 8263   3.352   4.123  10.209  0.1775  0.2329  0.4014
  557TMC3    C6 8264   3.277   4.115  10.089 -0.4104  0.0488  0.1377
  557TMC3     C 8265   3.210   4.398  10.377 -0.1906  0.0455 -0.3416
  557TMC3     O 8266   3.121   4.475  10.345  0.1324 -0.3128  0.0385
  557TMC3     H 8267   3.103   4.391  10.137 -1.0546 -0.6370  2.4445
  557TMC3    H1 8268   3.440   4.231  10.362  0.3811  0.8320 -0.5193
  557TMC3    H2 8269   3.274   4.029  10.023  0.7815  0.4724 -0.4515
  557TMC3    C7 8270   3.398   3.995  10.264  0.1881  0.1047 -0.3389
  557TMC3    C8 8271   3.137   4.241   9.941  1.2077  0.0155  0.5324
  557TMC3    O1 8272   3.388   3.976  10.385  0.5686 -0.2088 -0.2827
  557TMC3    O2 8273   3.072   4.342   9.931  0.1778  0.7220 -0.6022
  558TMC3    C1 8274   1.336   2.486  10.448 -0.0327  0.3746  0.1863
  558TMC3    C2 8275   1.233   2.402  10.483  0.0620  0.2858 -0.3881
  558TMC3    C3 8276   1.144   2.360  10.389 -0.2246  0.1564 -0.5299
  558TMC3    C4 8277   1.350   2.528  10.314 -0.3006 -0.2398  0.4514
  558TMC3    C5 8278   1.255   2.487  10.222 -0.0007  0.4032 -0.0971
  558TMC3    C6 8279   1.150   2.413  10.262  0.1370  0.0770 -0.3801
  558TMC3     C 8280   1.469   2.463  10.500 -0.6763  0.2749  0.4855
  558TMC3     O 8281   1.563   2.535  10.467 -0.1842  0.1567 -0.0575
  558TMC3     H 8282   1.218   2.386  10.589  1.6380  0.6332 -0.1217
  558TMC3    H1 8283   1.431   2.591  10.280 -0.4041  0.3657  1.3396
  558TMC3    H2 8284   1.074   2.397  10.186 -1.5192 -2.0015  1.7592
  558TMC3    C7 8285   1.295   2.471  10.090  0.0388 -0.5483  0.3747
  558TMC3    C8 8286   1.051   2.256  10.415 -0.1201  0.0316 -0.0854
  558TMC3    O1 8287   1.376   2.547  10.034  0.0832  0.1352  0.2364
  558TMC3    O2 8288   0.996   2.210  10.311 -0.2951  0.0859 -0.4543
  559MPD2     C 8289   1.233   2.761  10.637  0.1761  0.5660  0.8970
  559MPD2    C1 8290   1.194   2.665  10.727 -0.0535 -0.2370  0.6636
  559MPD2    C2 8291   1.283   2.610  10.821 -0.3132 -0.1264  0.7709
  559MPD2    C3 8292   1.416   2.660  10.819  0.3560  0.8394  0.4779
  559MPD2    C4 8293   1.452   2.751  10.725  0.1576 -0.5294 -0.3920
  559MPD2    C5 8294   1.366   2.802  10.638  0.2122  0.2876 -0.1780
  559MPD2     H 8295   1.251   2.544  10.901 -0.7054  0.2077  0.8925
  559MPD2    H1 8296   1.553   2.788  10.713  0.1092 -0.3426 -0.2224
  559MPD2    H2 8297   1.166   2.795  10.558 -0.5116  0.2347  1.3407
  559MPD2    H3 8298   1.397   2.883  10.573  2.7065 -0.7741 -0.3045
  559MPD2     N 8299   1.513   2.621  10.917 -0.3112 -0.1633 -0.3128
  559MPD2    H5 8300   1.492   2.540  10.975  1.0635 -0.7841 -0.6885
  559MPD2    N1 8301   1.053   2.629  10.722 -0.3222  0.4566 -0.4458
  559MPD2    H7 8302   1.001   2.685  10.656 -1.2270  0.8829  0.6406
  560TMC3    C1 8303   1.714   2.598  11.016  0.0457  0.0056  0.4981
  560TMC3    C2 8304   1.682   2.464  11.010  0.0248  1.1070 -0.2135
  560TMC3    C3 8305   1.736   2.386  11.112 -0.4336 -0.4673  0.1390
  560TMC3    C4 8306   1.791   2.651  11.115 -0.0788 -0.1200  0.0148
  560TMC3    C5 8307   1.839   2.569  11.211 -0.0287  0.0649 -0.0568
  560TMC3    C6 8308   1.809   2.435  11.216 -0.0464 -0.2627  0.3626
  560TMC3     C 8309   1.635   2.685  10.941 -0.8003  0.1722  0.0423
  560TMC3     O 8310   1.679   2.795  10.916  1.0485 -0.1424 -0.0937
  560TMC3     H 8311   1.639   2.410  10.927 -1.3213  2.5033 -0.4140
  560TMC3    H1 8312   1.808   2.758  11.124 -0.9316  0.0317 -0.1175
  560TMC3    H2 8313   1.844   2.374  11.299 -2.5186 -3.0652 -0.6573
  560TMC3    C7 8314   1.904   2.627  11.329 -0.2586 -0.3100 -0.5534
  560TMC3    C8 8315   1.682   2.246  11.126  0.0663 -0.5163 -1.1028
  560TMC3    O1 8316   1.887   2.574  11.436  0.0103 -0.2607  0.1920
  560TMC3    O2 8317   1.576   2.226  11.073 -0.8340  0.5893 -0.0033
  561TMC3    C1 8318   3.791   1.424  11.494  0.4025  0.0811  0.9638
  561TMC3    C2 8319   3.726   1.370  11.598 -0.1773  0.0436 -0.5441
  561TMC3    C3 8320   3.671   1.453  11.690 -0.8460  0.0564  0.0999
  561TMC3    C4 8321   3.811   1.559  11.475  0.1357  0.0633 -1.2271
  561TMC3    C5 8322   3.759   1.640  11.569 -0.4193  0.6075 -0.4616
  561TMC3    C6 8323   3.693   1.587  11.679  0.7702 -0.1749 -0.4639
  561TMC3     C 8324   3.887   1.339  11.432 -0.1807  0.4011 -0.1977
  561TMC3     O 8325   3.853   1.231  11.390  0.3489 -0.7279  0.2315
  561TMC3     H 8326   3.729   1.263  11.615  2.1234  0.6101  2.5242
  561TMC3    H1 8327   3.837   1.595  11.377  2.7177 -1.8454 -1.2407
  561TMC3    H2 8328   3.656   1.657  11.752 -0.5520  1.2427 -2.4725
  561TMC3    C7 8329   3.759   1.784  11.556 -0.2169  0.2520  0.4671
  561TMC3    C8 8330   3.636   1.402  11.819 -0.6140  0.6098  0.3164
  561TMC3    O1 8331   3.685   1.848  11.627 -0.2353  1.0899 -0.3849
  561TMC3    O2 8332   3.696   1.302  11.855 -0.0977  0.0336 -0.1632
  562TMC3    C1 8333   0.400   3.051  16.483 -0.3813  0.5309  0.1350
  562TMC3    C2 8334   0.358   3.170  16.426  0.6972 -0.4089  0.4226
  562TMC3    C3 8335   0.284   3.170  16.313 -0.0469 -0.2502  0.7060
  562TMC3    C4 8336   0.368   2.931  16.428  0.1909  0.3893  0.1514
  562TMC3    C5 8337   0.286   2.942  16.314 -0.1554  0.1610  0.0083
  562TMC3    C6 8338   0.241   3.054  16.258  0.1310  0.6920 -0.2938
  562TMC3     C 8339   0.479   3.052  16.603  1.0835  0.2576 -0.4158
  562TMC3     O 8340   0.479   3.152  16.675  0.1450  0.2478  0.5415
  562TMC3     H 8341   0.386   3.257  16.483 -1.1273  0.8309 -0.5735
  562TMC3    H1 8342   0.412   2.837  16.458 -1.2852 -0.7415 -1.2027
  562TMC3    H2 8343   0.173   3.060  16.173 -1.2181 -1.0811  0.6813
  562TMC3    C7 8344   0.279   2.827  16.237  0.3920  0.7948 -0.2477
  562TMC3    C8 8345   0.237   3.299  16.262 -0.0683  0.2333  0.5035
  562TMC3    O1 8346   0.288   2.848  16.114  0.0921  0.0717  0.3920
  562TMC3    O2 8347   0.249   3.396  16.340 -1.0906 -0.1600  0.3170
  563MPD2     C 8348   2.848   4.501  15.910  0.2861  0.2255 -0.6766
  563MPD2    C1 8349   2.882   4.494  16.041 -0.6983 -0.0120 -0.0976
  563MPD2    C2 8350   3.016   4.469  16.071 -0.1932  0.6255 -0.1535
  563MPD2    C3 8351   3.111   4.477  15.970  0.1813  0.6487  0.3080
  563MPD2    C4 8352   3.071   4.511  15.837  0.3290  0.4258  1.0036
  563MPD2    C5 8353   2.936   4.515  15.803 -0.3248 -0.3343  0.5495
  563MPD2     H 8354   3.053   4.440  16.169 -2.0151 -1.7105 -0.1502
  563MPD2    H1 8355   3.144   4.509  15.756 -0.2570  1.8837  0.4299
  563MPD2    H2 8356   2.741   4.506  15.892 -0.0713 -0.3562  1.3429
  563MPD2    H3 8357   2.901   4.541  15.703 -1.1554 -0.5296  0.7848
  563MPD2     N 8358   3.245   4.454  16.013  0.5273  0.3543  0.0287
  563MPD2    H5 8359   3.262   4.463  16.113  1.7054 -0.3097 -0.1176
  563MPD2    N1 8360   2.781   4.470  16.134  0.3413 -0.1090  0.3011
  563MPD2    H7 8361   2.689   4.450  16.095 -0.6833  0.5994  2.3097
  564TMC3    C1 8362   2.759   4.401  16.359 -0.2168 -0.0603  0.4316
  564TMC3    C2 8363   2.659   4.313  16.315  0.2622  0.4591 -0.6921
  564TMC3    C3 8364   2.623   4.218  16.412 -0.2969 -0.1304  0.4932
  564TMC3    C4 8365   2.815   4.393  16.485  0.2670  0.2726  0.4224
  564TMC3    C5 8366   2.773   4.291  16.565 -0.0264 -0.2561 -0.0655
  564TMC3    C6 8367   2.660   4.224  16.546  0.4024  0.0772  0.0834
  564TMC3     C 8368   2.799   4.506  16.269  0.4017  0.0358  0.2442
  564TMC3     O 8369   2.878   4.594  16.304  0.3229 -0.0310  0.3392
  564TMC3     H 8370   2.620   4.298  16.215 -1.8445  0.9769  0.0606
  564TMC3    H1 8371   2.894   4.459  16.518  1.6487 -1.7623  1.1686
  564TMC3    H2 8372   2.633   4.148  16.618  0.2269 -0.9301 -1.0384
  564TMC3    C7 8373   2.884   4.214  16.622  0.4700 -0.3016  0.0373
  564TMC3    C8 8374   2.590   4.089  16.373  0.0332  0.3730 -0.2831
  564TMC3    O1 8375   2.979   4.273  16.671 -0.4560  0.0366 -0.1969
  564TMC3    O2 8376   2.523   4.023  16.453 -0.7720  0.4502  0.4924
  565TMC3    C1 8377   3.675   1.012  10.133 -0.2357  0.1553 -0.2497
  565TMC3    C2 8378   3.633   0.882  10.159 -0.7173 -0.3351 -0.4787
  565TMC3    C3 8379   3.544   0.832  10.063 -0.5910 -0.3650  0.2744
  565TMC3    C4 8380   3.648   1.084  10.021  0.6929  0.4912  0.3011
  565TMC3    C5 8381   3.560   1.028   9.942  0.0263  0.5841  0.8106
  565TMC3    C6 8382   3.508   0.905   9.951  0.4594  0.6770  0.0118
  565TMC3     C 8383   3.786   1.064  10.216  0.2449 -0.1014 -0.1362
  565TMC3     O 8384   3.851   1.155  10.168  1.0024 -0.4595  0.6388
  565TMC3     H 8385   3.669   0.818  10.239 -2.2988  0.0122  0.5105
  565TMC3    H1 8386   3.670   1.189  10.017  0.0917  0.6451  0.9205
  565TMC3    H2 8387   3.412   0.889   9.903  0.2921  1.3622  0.1095
  565TMC3    C7 8388   3.535   1.113   9.826 -0.3461 -0.6142 -0.7114
  565TMC3    C8 8389   3.462   0.718  10.102  0.5425  0.0464 -0.6746
  565TMC3    O1 8390   3.576   1.230   9.820  0.1733 -0.5427 -0.3178
  565TMC3    O2 8391   3.475   0.687  10.219 -0.4027 -0.0616  0.1125
  566MPD2     C 8392   0.120   2.214  14.123 -0.4988  0.7206 -0.8085
  566MPD2    C1 8393   0.215   2.299  14.075 -0.1480  0.2742  0.4274
  566MPD2    C2 8394   0.179   2.410  13.996  0.4070  0.6302  0.4932
  566MPD2    C3 8395   0.047   2.438  13.972  0.5402  0.3448  0.3922
  566MPD2    C4 8396   4.676   2.342  14.006 -0.3284 -0.1354  0.7172
  566MPD2    C5 8397   4.715   2.232  14.081  0.5934 -0.0183 -0.5283
  566MPD2     H 8398   0.259   2.479  13.972  0.9447  0.0100  0.4928
  566MPD2    H1 8399   4.573   2.354  13.974 -0.5411 -1.2252  0.9898
  566MPD2    H2 8400   0.140   2.135  14.195  5.1092  1.3192 -1.7323
  566MPD2    H3 8401   4.640   2.165  14.121  0.7861  0.2684  0.3131
  566MPD2     N 8402   0.008   2.549  13.890  0.0886 -0.2010  0.2355
  566MPD2    H5 8403   4.634   2.549  13.856  0.0895  1.0668  0.2479
  566MPD2    N1 8404   0.350   2.263  14.105  0.3348 -0.1701  0.4632
  566MPD2    H7 8405   0.366   2.182  14.164  2.1572 -0.4867 -0.4658
  567TMC3    C1 8406   0.590   2.267  14.108 -0.2352 -0.7546 -0.2999
  567TMC3    C2 8407   0.699   2.330  14.056  0.3782  0.8752 -0.2542
  567TMC3    C3 8408   0.811   2.341  14.121 -0.0811 -0.0652  0.8666
  567TMC3    C4 8409   0.602   2.209  14.234  0.2813  0.2174 -0.0262
  567TMC3    C5 8410   0.728   2.199  14.293  0.2576 -0.7032 -0.1658
  567TMC3    C6 8411   0.830   2.265  14.234  0.6237  0.5042 -0.3153
  567TMC3     C 8412   0.463   2.316  14.054 -0.1273  0.0363 -0.4733
  567TMC3     O 8413   0.470   2.412  13.977  0.2976 -0.4961  1.0600
  567TMC3     H 8414   0.696   2.381  13.961 -0.0531 -1.3610 -1.4338
  567TMC3    H1 8415   0.522   2.144  14.266 -1.2703  2.5921  0.9231
  567TMC3    H2 8416   0.927   2.274  14.283  1.1542  1.5606 -1.5534
  567TMC3    C7 8417   0.741   2.172  14.433  0.4126 -0.6831 -0.0795
  567TMC3    C8 8418   0.855   2.482  14.129 -0.0645  0.0220  0.2060
  567TMC3    O1 8419   0.849   2.174  14.488 -0.1981 -0.2485 -0.2765
  567TMC3    O2 8420   0.802   2.560  14.053 -0.6583 -0.5496  0.5249
  568MPD2     C 8421   2.649   2.745  17.016 -0.0756  0.1319  0.0758
  568MPD2    C1 8422   2.616   2.861  17.086 -0.1229  0.0567 -0.2353
  568MPD2    C2 8423   2.558   2.965  17.014  0.3833  0.1025 -0.2001
  568MPD2    C3 8424   2.526   2.960  16.879 -0.3300 -0.4695  0.4844
  568MPD2    C4 8425   2.561   2.844  16.811  0.3046  0.6062 -0.1772
  568MPD2    C5 8426   2.618   2.734  16.882  0.0427 -0.1715 -0.0040
  568MPD2     H 8427   2.539   3.054  17.073  1.1193  0.5636 -0.6561
  568MPD2    H1 8428   2.539   2.825  16.707 -2.7542 -0.9340  0.7585
  568MPD2    H2 8429   2.695   2.665  17.072  0.2629  0.5823  0.4451
  568MPD2    H3 8430   2.648   2.642  16.833 -2.5481 -0.4322 -1.1095
  568MPD2     N 8431   2.467   3.075  16.813 -0.1694 -0.2892 -0.0401
  568MPD2    H5 8432   2.455   3.152  16.877  0.7259  0.6971 -1.0602
  568MPD2    N1 8433   2.652   2.865  17.224 -0.3569 -0.6911 -0.5740
  568MPD2    H7 8434   2.691   2.786  17.276 -1.5274 -1.8469 -1.4500
  569TMC3    C1 8435   2.473   3.238  16.643  0.4190  0.0147  0.5237
  569TMC3    C2 8436   2.453   3.327  16.740  0.3991 -0.3082  0.4034
  569TMC3    C3 8437   2.526   3.435  16.763  0.6308  0.5048 -0.1959
  569TMC3    C4 8438   2.558   3.266  16.540  0.1472  0.2265  0.2029
  569TMC3    C5 8439   2.615   3.391  16.548  0.3730  0.4364  0.3534
  569TMC3    C6 8440   2.611   3.471  16.661 -0.4921 -0.0229 -0.0510
  569TMC3     C 8441   2.467   3.096  16.677  0.6245  0.4406 -0.2106
  569TMC3     O 8442   2.491   3.018  16.587  0.1418 -0.0778  0.2613
  569TMC3     H 8443   2.384   3.294  16.817  0.4492  1.2186  1.1018
  569TMC3    H1 8444   2.588   3.200  16.460 -2.5139 -0.8283  0.0672
  569TMC3    H2 8445   2.672   3.561  16.667 -0.8881  0.0592  2.4961
  569TMC3    C7 8446   2.676   3.454  16.422  0.3983 -0.2124  0.4601
  569TMC3    C8 8447   2.466   3.550  16.832  0.5358 -0.2274 -0.8270
  569TMC3    O1 8448   2.709   3.381  16.330  0.0995 -0.1480  0.4218
  569TMC3    O2 8449   2.351   3.544  16.873 -0.8194 -0.0470 -0.0126
  570TMC3    C1 8450   1.656   2.004  16.101 -0.0077  0.4961  0.4109
  570TMC3    C2 8451   1.645   2.016  15.965 -0.0632  1.3037  0.1899
  570TMC3    C3 8452   1.634   2.144  15.909  0.2127 -0.1819 -0.2385
  570TMC3    C4 8453   1.637   2.111  16.187 -0.2289 -0.0577  0.6614
  570TMC3    C5 8454   1.633   2.236  16.125 -0.0744 -0.3371  0.3279
  570TMC3    C6 8455   1.627   2.251  15.988  1.2217 -0.3070  0.2715
  570TMC3     C 8456   1.675   1.872  16.165  0.2117 -0.8545 -0.4100
  570TMC3     O 8457   1.634   1.782  16.097 -0.9019  0.1495  0.0848
  570TMC3     H 8458   1.667   1.926  15.909 -0.1966  1.7847 -0.6272
  570TMC3    H1 8459   1.656   2.112  16.294 -0.5177 -3.2375  0.7257
  570TMC3    H2 8460   1.640   2.353  15.955 -0.9107 -0.5374 -1.2940
  570TMC3    C7 8461   1.686   2.356  16.204 -0.3501  0.2072  0.3074
  570TMC3    C8 8462   1.716   2.165  15.792 -0.0821 -0.0640  0.3065
  570TMC3    O1 8463   1.778   2.339  16.284  0.3777 -0.1636  0.3933
  570TMC3    O2 8464   1.757   2.275  15.772  0.4688 -0.4719  0.7689
  571MPD2     C 8465   0.060   3.048  17.415 -0.1890 -0.2559  0.3948
  571MPD2    C1 8466   0.041   3.005  17.542 -0.5695  0.6928 -0.1084
  571MPD2    C2 8467   0.002   3.100  17.637  0.1591  0.5273  0.7037
  571MPD2    C3 8468   4.706   3.231  17.609 -0.1249  0.6931  0.1703
  571MPD2    C4 8469   4.718   3.270  17.477 -0.6266  0.1159 -0.3113
  571MPD2    C5 8470   0.046   3.179  17.385  0.5650  0.2002 -0.0413
  571MPD2     H 8471   4.694   3.063   0.042  0.3023  0.4187  0.7079
  571MPD2    H1 8472   4.689   3.369  17.443  0.4079  0.4331 -0.2818
  571MPD2    H2 8473   0.103   2.986  17.336  0.2045  1.8159 -1.0139
  571MPD2    H3 8474   0.053   3.207  17.280 -2.4975 -1.1464 -0.5971
  571MPD2     N 8475   4.672   3.327   0.017 -0.5696  0.4314  0.1349
  571MPD2    H5 8476   4.656   3.421  17.675  1.2276  1.0164  0.9048
  571MPD2    N1 8477   0.065   2.871  17.573 -0.3037  0.2916  0.0729
  571MPD2    H7 8478   0.080   2.818  17.488 -4.2346  2.0877 -1.7608
  572TMC3    C1 8479   4.581   3.402   0.226 -0.0050  0.5402 -0.0620
  572TMC3    C2 8480   4.495   3.356   0.320  0.4018 -0.0707  0.2483
  572TMC3    C3 8481   4.440   3.466   0.389  1.5536  0.0818  0.2490
  572TMC3    C4 8482   4.603   3.540   0.197 -0.5136  0.3089  0.2194
  572TMC3    C5 8483   4.548   3.632   0.277  0.1991 -0.5619 -0.0053
  572TMC3    C6 8484   4.455   3.600   0.361 -0.1087  0.3622 -0.2966
  572TMC3     C 8485   4.646   3.297   0.151  0.2455  0.6575 -0.1594
  572TMC3     O 8486   4.664   3.191   0.211  0.0404 -0.4118  0.1252
  572TMC3     H 8487   4.493   3.258   0.367  1.2620 -0.2256 -0.0367
  572TMC3    H1 8488   4.663   3.572   0.113 -0.8837 -0.0319 -0.1740
  572TMC3    H2 8489   4.418   3.670   0.435 -0.4741 -0.2467  0.0996
  572TMC3    C7 8490   4.558   3.777   0.233 -0.3887  0.5393 -0.6827
  572TMC3    C8 8491   4.370   3.440   0.509  0.2466  0.5587  0.1196
  572TMC3    O1 8492   4.483   3.861   0.284 -0.1974 -0.0434 -0.4743
  572TMC3    O2 8493   4.407   3.511   0.604 -0.0431  0.2570 -0.0448
  573MPD2     C 8494   1.161   3.818   0.519  0.2476  0.0001 -1.0418
  573MPD2    C1 8495   1.178   3.943   0.481 -0.5605 -0.4888 -0.1352
  573MPD2    C2 8496   1.162   3.962   0.349 -0.0159 -0.9109  0.2142
  573MPD2    C3 8497   1.144   3.863   0.257  0.7097  0.5991  0.4205
  573MPD2    C4 8498   1.136   3.739   0.296 -0.0467  0.4036 -0.0838
  573MPD2    C5 8499   1.149   3.715   0.425 -0.0389 -0.3209  0.7920
  573MPD2     H 8500   1.159   4.066   0.318 -1.0186 -0.7380  0.9073
  573MPD2    H1 8501   1.131   3.654   0.228 -0.2745 -0.9830  1.6698
  573MPD2    H2 8502   1.172   3.797   0.625 -1.9926 -2.2378 -1.2361
  573MPD2    H3 8503   1.136   3.613   0.457  0.9352 -0.2721  1.3445
  573MPD2     N 8504   1.132   3.885   0.122  0.3525 -0.0437 -0.3568
  573MPD2    H5 8505   1.076   3.814   0.076 -0.5272 -0.7820  1.8441
  573MPD2    N1 8506   1.184   4.042   0.581 -0.4362 -0.5063  0.4541
  573MPD2    H7 8507   1.201   4.010   0.675 -0.5038 -0.4734  0.4777
  574TMC3    C1 8508   1.105   4.012  17.618  0.1771  0.5300 -0.0959
  574TMC3    C2 8509   0.972   3.982  17.609 -0.1874  0.6503 -1.4029
  574TMC3    C3 8510   0.900   4.038  17.501 -0.1694 -0.3458  0.0100
  574TMC3    C4 8511   1.176   4.092  17.532 -0.2284 -0.7056 -0.1662
  574TMC3    C5 8512   1.104   4.134  17.425  0.0849  0.1153  0.1073
  574TMC3    C6 8513   0.968   4.124  17.417  0.3958  0.1065 -0.1873
  574TMC3     C 8514   1.156   4.005   0.061  0.3008  0.5793  0.7818
  574TMC3     O 8515   1.234   4.094   0.097  0.1396  0.4654 -0.1906
  574TMC3     H 8516   0.921   3.914  17.675  2.3857 -0.1221 -0.2149
  574TMC3    H1 8517   1.281   4.110  17.555 -0.4019 -0.0731  0.1184
  574TMC3    H2 8518   0.911   4.161  17.332  2.4321  2.1080 -0.6972
  574TMC3    C7 8519   1.184   4.184  17.310 -0.3609 -0.0095 -0.1058
  574TMC3    C8 8520   0.756   4.046  17.516 -0.7065 -0.1817 -0.1662
  574TMC3    O1 8521   1.291   4.224  17.349  0.0245 -0.4537  0.1830
  574TMC3    O2 8522   0.701   3.957  17.578 -0.6860  0.5002  0.1527
  575TMC3    C1 8523   3.186   0.163  10.686  0.4220  0.0743 -0.8201
  575TMC3    C2 8524   3.064   0.096  10.678  0.2176 -0.4567 -0.3327
  575TMC3    C3 8525   3.014   0.095  10.553 -0.1654 -0.3113  0.1569
  575TMC3    C4 8526   3.249   0.227  10.588 -0.2487 -0.5154 -1.4945
  575TMC3    C5 8527   3.195   0.225  10.465 -0.2432  0.1725 -0.7625
  575TMC3    C6 8528   3.071   0.167  10.447  0.5584  0.2041  0.0697
  575TMC3     C 8529   3.245   0.171  10.818 -0.3451 -0.1979  0.0124
  575TMC3     O 8530   3.360   0.221  10.825 -0.0609  0.3292  0.0484
  575TMC3     H 8531   3.027   0.024  10.751 -0.8477  0.2050 -0.2242
  575TMC3    H1 8532   3.334   0.294  10.602 -0.2263 -0.2348 -2.9678
  575TMC3    H2 8533   3.004   0.194  10.366  1.0727  0.2182 -0.3502
  575TMC3    C7 8534   3.243   0.327  10.371 -0.3418  0.4636  0.0048
  575TMC3    C8 8535   2.888   0.026  10.535 -0.3654  0.3075  0.0443
  575TMC3    O1 8536   3.302   0.426  10.413  0.1093  0.2026 -0.6860
  575TMC3    O2 8537   2.802   0.045  10.620  0.1940  0.1730 -0.2997
  576MPD2     C 8538   2.540   1.889  12.678  0.0199  0.2851  0.3361
  576MPD2    C1 8539   2.560   1.949  12.558  0.4493  0.4637 -0.3511
  576MPD2    C2 8540   2.552   2.086  12.543 -0.2523  0.5774 -0.2073
  576MPD2    C3 8541   2.508   2.162  12.649  0.6763  0.3550 -0.7492
  576MPD2    C4 8542   2.470   2.098  12.765 -0.6687 -0.2540 -0.2648
  576MPD2    C5 8543   2.495   1.966  12.779  0.0671  0.4873  0.1435
  576MPD2     H 8544   2.567   2.143  12.452 -1.2134  0.7709 -0.2386
  576MPD2    H1 8545   2.436   2.157  12.849  1.2420 -0.8155  0.8954
  576MPD2    H2 8546   2.553   1.782  12.688  0.6158  0.2904 -0.3746
  576MPD2    H3 8547   2.465   1.921  12.873  2.2006 -0.0000  0.5984
  576MPD2     N 8548   2.523   2.300  12.633 -0.2730  0.0667  0.2160
  576MPD2    H5 8549   2.541   2.340  12.541 -0.4418 -1.4716 -0.4951
  576MPD2    N1 8550   2.613   1.877  12.449 -0.1448  0.5076  0.0284
  576MPD2    H7 8551   2.622   1.926  12.361  0.2552  0.0422 -0.1924
  577TMC3    C1 8552   2.739   1.706  12.344  0.2193  0.2602 -0.6098
  577TMC3    C2 8553   2.859   1.644  12.361  0.0426 -0.4895  0.1435
  577TMC3    C3 8554   2.936   1.613  12.248  0.7536  0.1763  0.0111
  577TMC3    C4 8555   2.690   1.740  12.219  0.8149 -0.2867 -0.7078
  577TMC3    C5 8556   2.769   1.706  12.111  0.0406  0.0420 -0.3607
  577TMC3    C6 8557   2.890   1.635  12.122 -0.0871  0.6202  0.8450
  577TMC3     C 8558   2.662   1.747  12.464  0.1126  0.3191  0.8773
  577TMC3     O 8559   2.693   1.681  12.564 -0.5443  0.1455  0.4616
  577TMC3     H 8560   2.902   1.631  12.459 -0.3704 -1.8333  0.1422
  577TMC3    H1 8561   2.590   1.783  12.217 -0.3023 -3.0444 -3.5256
  577TMC3    H2 8562   2.937   1.590  12.035  0.3089  0.2305  1.2680
  577TMC3    C7 8563   2.706   1.709  11.987 -0.4447  0.8909 -0.5847
  577TMC3    C8 8564   3.072   1.572  12.268  0.9734  0.0781  0.6144
  577TMC3    O1 8565   2.728   1.616  11.914  0.2302 -0.6020 -0.0315
  577TMC3    O2 8566   3.091   1.527  12.382 -0.9062  0.3634 -0.2686
  578MPD2     C 8567   1.190   1.977   1.537 -0.0050 -0.1726 -0.2147
  578MPD2    C1 8568   1.263   1.916   1.436 -0.5355 -0.4654  0.6392
  578MPD2    C2 8569   1.302   1.783   1.456 -0.3062  0.2914  0.3682
  578MPD2    C3 8570   1.291   1.717   1.580 -0.6670  0.6308  0.3720
  578MPD2    C4 8571   1.222   1.788   1.681  0.9738 -0.2544  0.1184
  578MPD2    C5 8572   1.156   1.907   1.653 -0.0835 -0.8006 -0.8623
  578MPD2     H 8573   1.367   1.737   1.382 -0.7164 -0.2969  0.3749
  578MPD2    H1 8574   1.211   1.739   1.776 -0.6502  1.0182  0.5865
  578MPD2    H2 8575   1.154   2.079   1.523  0.5330 -0.0875 -0.9943
  578MPD2    H3 8576   1.094   1.959   1.726 -0.2379  1.5931 -2.7006
  578MPD2     N 8577   1.351   1.584   1.588  0.6282  0.4789 -0.3044
  578MPD2    H5 8578   1.409   1.558   1.509  1.4146  1.6338 -0.1120
  578MPD2    N1 8579   1.304   1.992   1.320 -0.5203  0.3665 -0.7121
  578MPD2    H7 8580   1.295   2.093   1.320  1.6219  0.5488  0.9755
  579TMC3    C1 8581   1.406   1.375   1.685  0.1524 -1.0924 -0.0235
  579TMC3    C2 8582   1.482   1.337   1.792 -0.4258 -0.0097 -0.1740
  579TMC3    C3 8583   1.601   1.275   1.760  0.2200  0.4192  0.4502
  579TMC3    C4 8584   1.426   1.331   1.559 -0.6870 -0.1925  0.8842
  579TMC3    C5 8585   1.531   1.246   1.534  0.1689  0.2710  0.6053
  579TMC3    C6 8586   1.628   1.235   1.628  0.5225 -0.4099  0.7363
  579TMC3     C 8587   1.350   1.502   1.701 -0.9482  0.5236  0.0454
  579TMC3     O 8588   1.314   1.537   1.811  0.0881 -0.2526 -0.0316
  579TMC3     H 8589   1.476   1.377   1.892  2.4078 -1.2229  0.4995
  579TMC3    H1 8590   1.375   1.369   1.471  0.6952 -0.8375 -0.1956
  579TMC3    H2 8591   1.722   1.183   1.616  1.7938  2.1463 -0.1493
  579TMC3    C7 8592   1.570   1.220   1.398 -0.2324  0.1855 -0.9115
  579TMC3    C8 8593   1.710   1.334   1.834 -0.0553  0.3566  0.4909
  579TMC3    O1 8594   1.688   1.193   1.376  0.8025 -0.2184 -0.3479
  579TMC3    O2 8595   1.704   1.347   1.956 -0.2712 -0.0740 -0.0306
  580TMC3    C1 8596   0.974   1.197  11.954 -0.1534 -0.3961  0.0739
  580TMC3    C2 8597   0.976   1.171  11.827 -0.4889 -0.4501  0.1020
  580TMC3    C3 8598   0.995   1.040  11.781  0.2328  0.3607 -0.0419
  580TMC3    C4 8599   0.992   1.087  12.038 -0.5577  0.2715 -0.0181
  580TMC3    C5 8600   1.004   0.954  11.994  0.5137 -0.6089  0.5860
  580TMC3    C6 8601   1.001   0.932  11.860  0.6905  0.2469 -0.2011
  580TMC3     C 8602   1.042   1.325  11.979  0.0816  0.1285 -0.3507
  580TMC3     O 8603   1.123   1.351  11.893 -0.2996 -0.5866  0.0894
  580TMC3     H 8604   0.983   1.248  11.750  1.3570  0.0445  0.7541
  580TMC3    H1 8605   1.010   1.105  12.143 -0.1086 -3.3006  0.5078
  580TMC3    H2 8606   1.027   0.836  11.816  1.7375  0.1273  0.6548
  580TMC3    C7 8607   1.070   0.867  12.087  1.1554 -0.1849 -0.5064
  580TMC3    C8 8608   1.115   1.027  11.710  0.2562 -0.3975  0.4889
  580TMC3    O1 8609   1.114   0.919  12.190 -0.0491 -0.0238  0.6122
  580TMC3    O2 8610   1.119   0.944  11.619 -0.7619 -0.4018  0.7634
  581MPD2     C 8611   3.986   1.429  15.521 -0.0823  0.0129  0.4864
  581MPD2    C1 8612   3.964   1.319  15.441 -0.7910 -0.7961 -0.2518
  581MPD2    C2 8613   3.870   1.317  15.334  0.2156 -0.3197 -0.1627
  581MPD2    C3 8614   3.786   1.428  15.315  0.3995  0.3427 -0.0439
  581MPD2    C4 8615   3.813   1.536  15.397 -0.2496  0.3448 -0.3763
  581MPD2    C5 8616   3.912   1.535  15.493 -0.2276  0.1758 -1.0052
  581MPD2     H 8617   3.855   1.234  15.266 -2.1140 -0.0150 -0.0237
  581MPD2    H1 8618   3.770   1.636  15.388  0.1748  0.3504 -2.3017
  581MPD2    H2 8619   4.063   1.438  15.597  0.5616  0.2232 -0.1890
  581MPD2    H3 8620   3.933   1.627  15.548  1.1508  0.1034 -1.4068
  581MPD2     N 8621   3.688   1.422  15.213  0.4641 -0.8791  0.4424
  581MPD2    H5 8622   3.692   1.341  15.153 -1.5961  0.0854 -0.9771
  581MPD2    N1 8623   4.027   1.206  15.495  0.0194  0.1666  0.7422
  581MPD2    H7 8624   4.075   1.213  15.584  2.2361  0.4840 -0.4747
  582TMC3    C1 8625   4.085   0.979  15.520  0.2657  0.3159  0.2356
  582TMC3    C2 8626   4.067   1.003  15.657 -0.7279 -0.4191  0.0644
  582TMC3    C3 8627   4.121   0.910  15.740  0.2994  0.0751  0.3660
  582TMC3    C4 8628   4.151   0.869  15.470 -0.1766  0.0833  0.2820
  582TMC3    C5 8629   4.209   0.781  15.557  0.2364  1.5433  0.1465
  582TMC3    C6 8630   4.182   0.798  15.691 -0.0882  0.1756 -0.2462
  582TMC3     C 8631   4.041   1.085  15.433  0.0037  0.5884 -0.2695
  582TMC3     O 8632   4.018   1.066  15.319  0.3038 -0.3272  0.2922
  582TMC3     H 8633   4.016   1.089  15.698  1.6935 -0.4719  3.2004
  582TMC3    H1 8634   4.150   0.848  15.363 -1.8219 -0.9616  0.4951
  582TMC3    H2 8635   4.213   0.723  15.764 -0.6284 -1.1211 -1.3455
  582TMC3    C7 8636   4.174   0.654  15.497  0.3097 -0.0800 -0.3721
  582TMC3    C8 8637   4.079   0.906  15.877 -0.4180  0.6843 -0.5781
  582TMC3    O1 8638   4.240   0.609  15.403  0.5821 -0.5203  0.1407
  582TMC3    O2 8639   3.963   0.948  15.888  0.4840  0.1274  0.2897
  583MPD2     C 8640   3.933   2.353  16.596  0.0850 -0.0727 -0.9933
  583MPD2    C1 8641   3.916   2.490  16.581  0.3998  0.4537  0.3956
  583MPD2    C2 8642   3.876   2.554  16.698  0.1488 -0.0062 -0.3411
  583MPD2    C3 8643   3.872   2.490  16.821  0.1540  0.4748  0.5101
  583MPD2    C4 8644   3.882   2.356  16.828  0.5752 -0.4819  0.3751
  583MPD2    C5 8645   3.915   2.288  16.713  0.7015  0.6824 -0.2717
  583MPD2     H 8646   3.853   2.660  16.702 -1.8991 -0.4254 -1.1029
  583MPD2    H1 8647   3.870   2.296  16.917 -2.8005  2.1505  1.6887
  583MPD2    H2 8648   3.961   2.293  16.510 -0.3134 -1.3767 -0.2135
  583MPD2    H3 8649   3.927   2.180  16.710 -0.8900  0.5382 -1.3655
  583MPD2     N 8650   3.826   2.568  16.929 -0.3517 -0.2223  0.5483
  583MPD2    H5 8651   3.823   2.669  16.924 -0.7891 -0.2753 -0.3763
  583MPD2    N1 8652   3.932   2.564  16.461 -0.4570  0.0621  0.0746
  583MPD2    H7 8653   3.905   2.662  16.469 -1.7410 -0.3290  0.3983
  584TMC3    C1 8654   3.746   2.624  17.141 -0.4901  0.2887  0.3825
  584TMC3    C2 8655   3.745   2.750  17.094  0.3669  0.8454 -0.3108
  584TMC3    C3 8656   3.783   2.849  17.176  0.7105 -0.1331 -0.3032
  584TMC3    C4 8657   3.782   2.592  17.269  0.1780  0.0367  0.6136
  584TMC3    C5 8658   3.825   2.698  17.345  0.6949 -0.2486  0.5383
  584TMC3    C6 8659   3.821   2.829  17.307  0.5390 -0.5600  0.2216
  584TMC3     C 8660   3.785   2.516  17.050 -0.3091  0.3935 -0.0690
  584TMC3     O 8661   3.786   2.404  17.090 -0.0124 -0.4347 -0.3460
  584TMC3     H 8662   3.711   2.769  16.993 -0.2240 -1.3367 -0.5202
  584TMC3    H1 8663   3.789   2.489  17.303  2.2626  0.0121  0.1244
  584TMC3    H2 8664   3.811   2.918  17.368 -0.6093  2.1876 -3.9946
  584TMC3    C7 8665   3.823   2.683  17.494 -0.6679 -0.0303 -0.3760
  584TMC3    C8 8666   3.839   2.955  17.109  0.5607 -0.3019  0.1355
  584TMC3    O1 8667   3.775   2.579  17.538  0.4397  0.7458  0.2834
  584TMC3    O2 8668   3.883   2.932  16.995 -0.3536  0.5805  0.2801
  585MPD2     C 8669   2.905   1.109   0.033  0.3500 -0.1485  0.2580
  585MPD2    C1 8670   2.855   1.217  17.667 -0.1747 -0.1509  0.7911
  585MPD2    C2 8671   2.842   1.225  17.531 -0.2336 -0.1390 -0.1397
  585MPD2    C3 8672   2.905   1.131  17.455  0.2825  0.6055 -0.0126
  585MPD2    C4 8673   2.979   1.026  17.515  0.3854  0.5060  0.5301
  585MPD2    C5 8674   2.969   1.010  17.652 -0.4822 -0.1448  0.0331
  585MPD2     H 8675   2.799   1.313  17.485 -0.8596 -0.2441  0.2473
  585MPD2    H1 8676   3.040   0.958  17.457 -3.7969 -1.4317 -1.6031
  585MPD2    H2 8677   2.906   1.098   0.141 -0.6625 -0.9197  0.1945
  585MPD2    H3 8678   3.034   0.938   0.006 -0.7665 -0.3370  0.1320
  585MPD2     N 8679   2.917   1.142  17.315 -0.0438 -0.1986 -0.0665
  585MPD2    H5 8680   2.979   1.079  17.265 -0.3611  1.8406 -3.0732
  585MPD2    N1 8681   2.800   1.309   0.067 -0.2887 -0.1697  0.0947
  585MPD2    H7 8682   2.792   1.273   0.161  0.8204 -2.7032 -0.7757
  586TMC3    C1 8683   2.881   1.221  17.103 -0.1113  0.6944 -0.9904
  586TMC3    C2 8684   3.011   1.174  17.085  0.0246 -0.3815  0.0238
  586TMC3    C3 8685   3.025   1.078  16.988  0.1991 -0.1721 -0.9813
  586TMC3    C4 8686   2.776   1.180  17.031 -0.1531  0.3647  0.0914
  586TMC3    C5 8687   2.796   1.076  16.947  0.4972 -0.6361  0.2556
  586TMC3    C6 8688   2.919   1.039  16.916  0.1477  0.2143  0.8573
  586TMC3     C 8689   2.848   1.234  17.243  0.1654 -0.4906  0.5031
  586TMC3     O 8690   2.756   1.310  17.274 -0.2313 -1.0853  0.2235
  586TMC3     H 8691   3.099   1.203  17.141  0.9221  2.9950 -3.1221
  586TMC3    H1 8692   2.675   1.213  17.055  0.2285  2.3025 -0.8797
  586TMC3    H2 8693   2.930   0.956  16.847  0.6524  0.7601  0.2799
  586TMC3    C7 8694   2.712   0.966  16.990  0.0309  0.8334 -0.1911
  586TMC3    C8 8695   3.119   0.972  17.034  0.8548  0.3007  0.0710
  586TMC3    O1 8696   2.624   0.996  17.068  0.2996 -0.2249 -0.1513
  586TMC3    O2 8697   3.140   0.970  17.157  0.2980  0.0827 -0.1048
  587TMC3    C1 8698   0.661   0.983  16.537  0.4216  0.2726  0.6829
  587TMC3    C2 8699   0.628   1.033  16.660  0.2608 -0.5763 -0.1036
  587TMC3    C3 8700   0.724   1.023  16.756 -0.5970 -0.2619  0.0785
  587TMC3    C4 8701   0.776   0.908  16.510 -0.1705  0.5141 -0.1616
  587TMC3    C5 8702   0.868   0.903  16.613 -0.3850  0.0222 -0.2397
  587TMC3    C6 8703   0.845   0.961  16.735  1.3048  0.0232  0.1590
  587TMC3     C 8704   0.548   0.960  16.449 -0.3309 -0.7887 -0.0680
  587TMC3     O 8705   0.542   1.009  16.337  0.7028 -0.0918 -0.2678
  587TMC3     H 8706   0.538   1.091  16.678  1.0556  0.8674 -0.7779
  587TMC3    H1 8707   0.793   0.870  16.410  1.3520  0.2371  0.1967
  587TMC3    H2 8708   0.917   0.958  16.816  2.1704 -1.2148 -0.6554
  587TMC3    C7 8709   0.964   0.801  16.592 -0.4024 -0.3263 -0.3488
  587TMC3    C8 8710   0.683   1.033  16.896 -0.1405  0.6429  0.2174
  587TMC3    O1 8711   0.967   0.750  16.480  0.2832 -0.0984  0.0615
  587TMC3    O2 8712   0.767   1.071  16.977 -0.3719  0.2846 -0.1024
  588TMC3    C1 8713   2.844   2.608   9.667  0.4873 -0.0110  0.5949
  588TMC3    C2 8714   2.862   2.470   9.670  0.6139  0.4550 -0.5130
  588TMC3    C3 8715   2.920   2.422   9.780 -0.2481  0.0073 -0.3255
  588TMC3    C4 8716   2.886   2.685   9.769  0.4094  0.1458 -0.0208
  588TMC3    C5 8717   2.964   2.640   9.870  0.1846  0.9899 -0.1012
  588TMC3    C6 8718   2.971   2.503   9.878  0.4741 -0.1712  0.2988
  588TMC3     C 8719   2.778   2.672   9.562 -0.4456 -0.1387 -0.0231
  588TMC3     O 8720   2.696   2.615   9.492 -0.0229 -0.1413  0.7371
  588TMC3     H 8721   2.847   2.418   9.576 -1.0922  0.4781 -0.2463
  588TMC3    H1 8722   2.844   2.783   9.787 -0.6769 -0.3931  0.3626
  588TMC3    H2 8723   3.026   2.464   9.964 -0.4245 -1.6619  0.2019
  588TMC3    C7 8724   2.960   2.719   9.993 -0.3368  0.0453 -0.1709
  588TMC3    C8 8725   2.887   2.275   9.805  0.0317 -0.1246 -0.2103
  588TMC3    O1 8726   2.969   2.659  10.101  0.4629  0.1037  0.0250
  588TMC3    O2 8727   2.794   2.226   9.740  0.1563  0.5836  0.2688
  589TMC3    C1 8728   2.065   0.445   1.022  0.4667  0.2071 -0.4831
  589TMC3    C2 8729   2.117   0.546   1.099  0.6750  0.4958 -0.0574
  589TMC3    C3 8730   2.257   0.548   1.105  0.1080 -0.2133 -0.4552
  589TMC3    C4 8731   2.134   0.346   0.962  0.1303 -0.3377  0.3749
  589TMC3    C5 8732   2.270   0.353   0.976  0.1406 -0.0513  0.6826
  589TMC3    C6 8733   2.338   0.453   1.045 -0.1704 -0.0159 -0.5119
  589TMC3     C 8734   1.926   0.423   1.045 -0.4313 -0.1381  0.3324
  589TMC3     O 8735   1.873   0.376   0.946  0.5430 -0.1087 -0.1520
  589TMC3     H 8736   2.058   0.626   1.142  0.1992  0.9927 -1.6424
  589TMC3    H1 8737   2.084   0.266   0.908 -0.2458  0.5132 -0.5260
  589TMC3    H2 8738   2.445   0.447   1.061 -0.0464 -1.7048 -1.9466
  589TMC3    C7 8739   2.345   0.242   0.911  0.0531 -1.2042  0.0019
  589TMC3    C8 8740   2.310   0.671   1.165 -0.4440  0.6099 -0.0674
  589TMC3    O1 8741   2.275   0.148   0.879  0.4328 -0.0328  0.4452
  589TMC3    O2 8742   2.221   0.748   1.207  0.2294  0.1174 -0.2826
  590MPD2     C 8743   1.604   2.981  16.688 -0.3071  0.0104 -0.2162
  590MPD2    C1 8744   1.554   3.112  16.704  0.1230 -0.1846 -0.1857
  590MPD2    C2 8745   1.638   3.215  16.710  0.9642  0.0222  0.6966
  590MPD2    C3 8746   1.776   3.194  16.694  0.1761 -0.5543 -0.4512
  590MPD2    C4 8747   1.825   3.066  16.702 -0.1576  0.2658 -0.0401
  590MPD2    C5 8748   1.738   2.959  16.688 -0.6572 -0.4378  0.6926
  590MPD2     H 8749   1.602   3.317  16.709  1.5050  0.2116  0.7568
  590MPD2    H1 8750   1.928   3.034  16.707 -0.2507 -0.1967 -1.0280
  590MPD2    H2 8751   1.532   2.900  16.681  0.6608 -0.7323 -1.6504
  590MPD2    H3 8752   1.777   2.858  16.684  1.7216  0.5191 -0.5668
  590MPD2     N 8753   1.857   3.305  16.680  0.6364 -0.0153  0.2661
  590MPD2    H5 8754   1.809   3.388  16.646 -2.7660 -1.5815  1.2497
  590MPD2    N1 8755   1.412   3.137  16.710 -0.3410 -0.2350 -0.5990
  590MPD2    H7 8756   1.352   3.058  16.688  0.5335 -1.0877  0.1053
  591TMC3    C1 8757   2.052   3.417  16.600  0.2883  0.1427 -0.2165
  591TMC3    C2 8758   2.152   3.401  16.507 -0.2882 -0.3554 -0.1695
  591TMC3    C3 8759   2.196   3.504  16.427 -0.0158  0.6590 -1.0050
  591TMC3    C4 8760   1.987   3.535  16.611  0.4413 -0.4670  0.4843
  591TMC3    C5 8761   2.033   3.640  16.527 -0.6026  0.3493  0.1943
  591TMC3    C6 8762   2.134   3.626  16.434  0.2836 -0.2683  0.1090
  591TMC3     C 8763   1.996   3.294  16.658  0.6342 -0.5400 -0.3064
  591TMC3     O 8764   2.073   3.198  16.665 -0.4399  0.5705  0.0144
  591TMC3     H 8765   2.194   3.302  16.494  0.9504  0.0638  0.6998
  591TMC3    H1 8766   1.926   3.560  16.697 -1.2795 -0.6261 -0.6861
  591TMC3    H2 8767   2.147   3.704  16.360 -2.5507 -0.3192 -0.4423
  591TMC3    C7 8768   1.940   3.754  16.515 -0.5133  0.2083  0.0785
  591TMC3    C8 8769   2.262   3.470  16.301 -0.7712  0.6510  0.9977
  591TMC3    O1 8770   1.826   3.723  16.549 -0.7291  0.2781 -0.2547
  591TMC3    O2 8771   2.294   3.354  16.288 -0.1473  0.7624 -0.1362
  592MPD2     C 8772   2.272   0.792  11.512 -0.3736 -0.5719  0.3563
  592MPD2    C1 8773   2.216   0.853  11.618  0.1885  0.2692  0.2120
  592MPD2    C2 8774   2.105   0.797  11.681 -0.3937 -0.1883  0.1715
  592MPD2    C3 8775   2.045   0.682  11.634  0.3409  0.9836 -0.5618
  592MPD2    C4 8776   2.101   0.626  11.520  0.3565 -0.2448  0.5441
  592MPD2    C5 8777   2.219   0.676  11.466 -0.7439 -1.0802  0.3420
  592MPD2     H 8778   2.055   0.856  11.757 -1.6481  1.0643 -1.6373
  592MPD2    H1 8779   2.050   0.547  11.466 -0.7828  2.0826 -1.7971
  592MPD2    H2 8780   2.366   0.826  11.470  0.1846 -0.9897  1.2761
  592MPD2    H3 8781   2.270   0.623  11.386 -0.8360 -2.6943  1.3446
  592MPD2     N 8782   1.932   0.633  11.698  0.0611  0.5887  0.5832
  592MPD2    H5 8783   1.915   0.676  11.788  1.8942  0.5951  0.9096
  592MPD2    N1 8784   2.284   0.961  11.672  0.0611 -0.1537  0.3447
  592MPD2    H7 8785   2.368   0.980  11.619  0.0626  0.5379  0.5897
  593TMC3    C1 8786   2.333   1.154  11.803  0.5680 -0.4810 -0.5881
  593TMC3    C2 8787   2.335   1.201  11.929 -0.0943  0.1103  0.5803
  593TMC3    C3 8788   2.446   1.277  11.957 -0.4637 -0.1912  0.0717
  593TMC3    C4 8789   2.396   1.215  11.700  0.8783  0.7696  0.3374
  593TMC3    C5 8790   2.494   1.305  11.733 -0.4421 -0.1151 -0.6028
  593TMC3    C6 8791   2.523   1.334  11.860 -0.3305 -0.3670  0.1062
  593TMC3     C 8792   2.248   1.039  11.778  0.0516 -0.5565  0.4014
  593TMC3     O 8793   2.160   1.029  11.862  0.2348 -0.0356  0.7208
  593TMC3     H 8794   2.282   1.150  12.008  2.8937 -4.2248 -0.2116
  593TMC3    H1 8795   2.376   1.169  11.604  2.8373 -1.0099  0.7895
  593TMC3    H2 8796   2.596   1.407  11.892 -1.9996  0.6728  1.5414
  593TMC3    C7 8797   2.571   1.367  11.628  0.1900  0.6000  0.1470
  593TMC3    C8 8798   2.473   1.315  12.088  0.5202 -1.0556 -0.6635
  593TMC3    O1 8799   2.642   1.459  11.649  0.2045  0.6365 -0.1749
  593TMC3    O2 8800   2.368   1.324  12.150  0.0350 -0.5022  0.0220
  594MPD2     C 8801   0.856   4.090  14.146 -0.4148 -0.0511  0.3325
  594MPD2    C1 8802   0.845   4.060  14.279  0.3261  0.8647 -0.3148
  594MPD2    C2 8803   0.911   4.147  14.374 -0.1936 -0.5017  0.7942
  594MPD2    C3 8804   0.983   4.252  14.337  0.5796  1.1638 -0.5462
  594MPD2    C4 8805   0.991   4.286  14.199 -0.6177  0.1145 -0.1982
  594MPD2    C5 8806   0.933   4.205  14.108  0.5279  0.3079  0.8994
  594MPD2     H 8807   0.898   4.142  14.482 -1.5753 -0.8053  0.6188
  594MPD2    H1 8808   1.037   4.373  14.153  0.9594  0.2405  1.6380
  594MPD2    H2 8809   0.803   4.027  14.076 -0.4867 -1.4417  1.6162
  594MPD2    H3 8810   0.947   4.233  14.004 -3.7708 -0.9842 -0.0297
  594MPD2     N 8811   1.044   4.342  14.438  0.2810 -0.1931 -0.2339
  594MPD2    H5 8812   1.044   4.319  14.536 -1.2185 -2.2070 -0.7036
  594MPD2    N1 8813   0.764   3.950  14.315  0.0207  0.0653 -0.5844
  594MPD2    H7 8814   0.704   3.920  14.239  1.1580  0.5288 -1.6519
  595TMC3    C1 8815   1.261   4.541  14.727  0.4992 -0.3521 -0.3662
  595TMC3    C2 8816   1.239   4.471  14.606  0.1162  0.3321 -0.1389
  595TMC3    C3 8817   1.145   4.533  14.521 -0.5134 -0.6375  0.4626
  595TMC3    C4 8818   1.232   4.678  14.740 -0.1582 -0.0855 -0.5742
  595TMC3    C5 8819   1.175   0.021  14.636  0.2162 -0.3501 -0.1249
  595TMC3    C6 8820   1.132   4.668  14.527 -0.3788 -0.6772 -0.1909
  595TMC3     C 8821   1.367   4.485  14.794  1.0991  0.2552  0.1794
  595TMC3     O 8822   1.398   4.369  14.775  0.4339  0.3496 -0.1898
  595TMC3     H 8823   1.246   4.363  14.599 -0.1412  0.2694  0.5448
  595TMC3    H1 8824   1.245   4.710  14.843  1.3541 -2.1459 -0.1162
  595TMC3    H2 8825   1.076   4.719  14.450  2.6474  1.2592 -1.0898
  595TMC3    C7 8826   1.134   0.156  14.647  0.1705 -0.2368 -0.0340
  595TMC3    C8 8827   1.075   4.472  14.407  0.4400  0.6204  0.1018
  595TMC3    O1 8828   1.048   0.196  14.575 -1.0432  0.4880 -0.0868
  595TMC3    O2 8829   1.056   4.543  14.308 -0.7153 -0.0664 -0.0303
  596MPD2     C 8830   4.633   2.468  16.774  0.2370  0.2075  0.1852
  596MPD2    C1 8831   4.600   2.582  16.711 -0.0315  1.0046  0.5674
  596MPD2    C2 8832   4.603   2.578  16.572  0.4511  0.2893 -0.0833
  596MPD2    C3 8833   4.635   2.463  16.500 -0.0083  0.0107 -0.2966
  596MPD2    C4 8834   4.662   2.351  16.574  0.0825 -0.2015  0.0985
  596MPD2    C5 8835   4.660   2.351  16.709  0.6543 -0.3802  0.7100
  596MPD2     H 8836   4.572   2.666  16.516  3.1098  2.4482  1.8730
  596MPD2    H1 8837   4.694   2.258  16.530  1.5974 -0.1368  1.0695
  596MPD2    H2 8838   4.644   2.466  16.882  2.3438  2.0166  0.0109
  596MPD2    H3 8839   4.685   2.273  16.780 -2.1309 -3.5269 -1.7428
  596MPD2     N 8840   4.626   2.448  16.362  0.4605  0.4215 -0.5376
  596MPD2    H5 8841   4.622   2.351  16.332 -0.2187  0.5231 -0.7777
  596MPD2    N1 8842   4.573   2.710  16.772  0.0351  0.0016 -0.1643
  596MPD2    H7 8843   4.536   2.779  16.707  1.7154  0.1393 -0.9715
  597TMC3    C1 8844   4.541   2.857  16.945 -0.5222  0.5523 -0.1805
  597TMC3    C2 8845   4.490   2.950  16.861  0.6873  0.1994  0.4811
  597TMC3    C3 8846   4.417   3.047  16.913  0.4813 -0.1785 -0.1010
  597TMC3    C4 8847   4.533   2.880  17.074 -0.1105 -0.0368 -0.2970
  597TMC3    C5 8848   4.464   2.980  17.128  0.4741  0.9071  0.7241
  597TMC3    C6 8849   4.400   3.065  17.047  0.1503 -0.2242  1.0131
  597TMC3     C 8850   4.611   2.740  16.900 -0.0616  0.0456 -0.3150
  597TMC3     O 8851   4.684   2.680  16.978 -0.0996 -0.0242  0.1932
  597TMC3     H 8852   4.491   2.948  16.753 -2.2006 -1.9473  0.4782
  597TMC3    H1 8853   4.569   2.802  17.140  1.5949  0.5124 -0.5796
  597TMC3    H2 8854   4.332   3.140  17.084 -0.6053 -0.0869 -0.6360
  597TMC3    C7 8855   4.455   2.989  17.273  0.3359  0.1313  0.5189
  597TMC3    C8 8856   4.358   3.147  16.822 -0.2519 -0.9416  0.1879
  597TMC3    O1 8857   4.493   2.890  17.338  0.0057  0.3934 -0.1045
  597TMC3    O2 8858   4.315   3.107  16.715  0.2666  0.4324 -0.1856
  598TMC3    C1 8859   3.007   4.160  15.835 -0.2752  0.0970 -0.3264
  598TMC3    C2 8860   2.885   4.140  15.902  0.1414  0.2431  0.0440
  598TMC3    C3 8861   2.765   4.140  15.834 -0.2224 -0.0415 -1.1366
  598TMC3    C4 8862   3.006   4.192  15.700 -0.0253  0.6952 -0.4522
  598TMC3    C5 8863   2.882   4.217  15.644  0.0635 -0.2431  0.1563
  598TMC3    C6 8864   2.762   4.168  15.698  0.4202  0.9346  0.1740
  598TMC3     C 8865   3.123   4.124  15.899  0.2962 -0.4070  0.3450
  598TMC3     O 8866   3.118   4.108  16.018  0.3555 -0.1550  0.9321
  598TMC3     H 8867   2.880   4.122  16.008 -2.0569 -2.6299 -0.5320
  598TMC3    H1 8868   3.098   4.229  15.655 -0.3246  1.0461 -0.7719
  598TMC3    H2 8869   2.668   4.185  15.646 -0.8119 -0.9304  1.7871
  598TMC3    C7 8870   2.886   4.257  15.503 -0.1994 -0.2901 -0.1405
  598TMC3    C8 8871   2.645   4.131  15.908 -0.5132  0.0154 -0.0360
  598TMC3    O1 8872   2.812   4.199  15.422 -0.0214  0.1569 -0.4543
  598TMC3    O2 8873   2.639   4.178  16.020  0.5926 -0.1361 -0.1267
  599MPD2     C 8874   2.892   1.405  15.455  0.8609  0.2455  0.9559
  599MPD2    C1 8875   2.941   1.442  15.576  0.3537 -0.0613  0.4794
  599MPD2    C2 8876   2.872   1.537  15.647 -0.5381  0.0932  0.7460
  599MPD2    C3 8877   2.740   1.575  15.603  0.0958  0.8285  0.0307
  599MPD2    C4 8878   2.691   1.537  15.484  0.5683 -1.0227 -0.3963
  599MPD2    C5 8879   2.773   1.448  15.412  0.1476 -0.5367  0.1912
  599MPD2     H 8880   2.916   1.575  15.739  1.6041  0.0770 -0.2801
  599MPD2    H1 8881   2.592   1.550  15.443 -1.2162  0.5258  4.4195
  599MPD2    H2 8882   2.931   1.320  15.402 -2.9890 -1.0468  0.1564
  599MPD2    H3 8883   2.742   1.403  15.318  0.9358  0.6225 -0.6298
  599MPD2     N 8884   2.657   1.661  15.681 -0.4103 -0.5630 -0.5329
  599MPD2    H5 8885   2.562   1.688  15.656 -0.3283 -0.4494 -0.7216
  599MPD2    N1 8886   3.061   1.380  15.616  0.5332 -0.4143 -0.0492
  599MPD2    H7 8887   3.111   1.329  15.544  0.5044 -1.9231  0.9881
  600TMC3    C1 8888   2.569   1.767  15.861  0.8550  0.2429  0.0527
  600TMC3    C2 8889   2.455   1.693  15.866  0.3243  0.0823 -0.4476
  600TMC3    C3 8890   2.344   1.755  15.912  0.5257 -0.5112 -1.1844
  600TMC3    C4 8891   2.580   1.898  15.905  0.5083 -0.6092 -0.0040
  600TMC3    C5 8892   2.464   1.950  15.955  0.6404 -0.4724  0.2739
  600TMC3    C6 8893   2.340   1.886  15.949 -0.0185  0.5084 -0.1526
  600TMC3     C 8894   2.688   1.714  15.800  0.8606  0.2807  0.3899
  600TMC3     O 8895   2.790   1.738  15.858 -0.3152 -0.1004 -0.3822
  600TMC3     H 8896   2.448   1.591  15.830  0.9977 -0.3541  0.6253
  600TMC3    H1 8897   2.664   1.967  15.895  0.9369 -0.9692  1.0450
  600TMC3    H2 8898   2.250   1.924  15.996  0.2601  0.6834  0.2448
  600TMC3    C7 8899   2.484   2.031  16.071  0.3112 -1.0904 -0.1902
  600TMC3    C8 8900   2.295   1.688  16.034  0.0042  0.4960 -0.1230
  600TMC3    O1 8901   2.546   2.137  16.065  0.4600  0.5200  0.1013
  600TMC3    O2 8902   2.332   1.733  16.140 -0.9974 -0.4859  0.0783
  601MPD2     C 8903   0.133   4.190   0.159  0.1520 -0.1028 -0.1905
  601MPD2    C1 8904   4.722   4.177   0.165  0.0673  0.4540 -0.7595
  601MPD2    C2 8905   4.669   4.053   0.167 -0.0478  0.7301 -0.5560
  601MPD2    C3 8906   0.015   3.930   0.168  0.4503  0.0647 -0.5500
  601MPD2    C4 8907   0.151   3.950   0.151 -0.0786 -0.4728  0.2708
  601MPD2    C5 8908   0.209   4.076   0.153  0.3960 -0.1113 -0.0419
  601MPD2     H 8909   4.563   4.042   0.186 -0.2260  1.3380 -1.1946
  601MPD2    H1 8910   0.213   3.861   0.146 -0.0225 -0.4630  0.8467
  601MPD2    H2 8911   0.172   4.289   0.135  0.8928 -0.7755 -1.8293
  601MPD2    H3 8912   0.316   4.080   0.137  0.7599  0.4983  2.4154
  601MPD2     N 8913   4.685   3.803   0.189 -0.2428 -0.4677 -0.7118
  601MPD2    H5 8914   0.015   3.716   0.179  0.6665 -0.3727  3.4311
  601MPD2    N1 8915   4.633   4.291   0.164 -0.3863  0.0927  0.2216
  601MPD2    H7 8916   4.533   4.278   0.156 -0.1937 -1.7018  0.6967
  602TMC3    C1 8917   4.554   4.505   0.156 -0.3427  0.5769  0.3939
  602TMC3    C2 8918   4.539   4.618   0.240 -0.2685  0.4612  0.2333
  602TMC3    C3 8919   4.423   4.690   0.219  0.2409  0.9975  0.5085
  602TMC3    C4 8920   4.458   4.461   0.070  0.5102  0.2611  0.1178
  602TMC3    C5 8921   4.343   4.533   0.055 -0.1906 -0.0164  0.2633
  602TMC3    C6 8922   4.335   4.655   0.123  0.5543 -0.2118  0.8106
  602TMC3     C 8923   4.664   4.422   0.180 -0.7437  0.5977  0.5241
  602TMC3     O 8924   0.037   4.468   0.230 -0.1667 -0.3002 -0.5198
  602TMC3     H 8925   4.614   4.648   0.313 -0.7535 -0.5667  1.1651
  602TMC3    H1 8926   4.482   4.381   0.001 -0.1285  0.6019 -0.4964
  602TMC3    H2 8927   4.272   0.012   0.085  0.2903 -1.1238 -0.7047
  602TMC3    C7 8928   4.273   4.514  17.624  0.3536 -0.0790 -0.0278
  602TMC3    C8 8929   4.404   0.098   0.284  0.2782  0.2780  0.0611
  602TMC3    O1 8930   4.319   4.430  17.541  0.3863  0.1166 -0.4112
  602TMC3    O2 8931   4.499   0.173   0.282 -0.0401 -0.6696  0.5717
  603TMC3    C1 8932   2.616   0.228  11.289 -0.1353  0.0832  0.6689
  603TMC3    C2 8933   2.624   0.236  11.427 -0.4847 -0.5838  0.1149
  603TMC3    C3 8934   2.747   0.285  11.466  0.4021 -0.2257 -0.0413
  603TMC3    C4 8935   2.711   0.247  11.191 -0.3820  0.1901 -0.0313
  603TMC3    C5 8936   2.828   0.303  11.234  0.1263  0.6568  0.0910
  603TMC3    C6 8937   2.840   0.322  11.368 -0.0565  0.2807 -0.5718
  603TMC3     C 8938   2.495   0.159  11.248  0.1553 -0.5782 -0.5320
  603TMC3     O 8939   2.501   0.079  11.157 -0.4923  0.4613  0.1428
  603TMC3     H 8940   2.549   0.199  11.497 -1.2563  1.1553  0.2103
  603TMC3    H1 8941   2.681   0.231  11.088  0.3994  1.4036 -0.4568
  603TMC3    H2 8942   2.944   0.323  11.398 -0.3259  0.3505  0.3791
  603TMC3    C7 8943   2.924   0.378  11.151 -0.4443 -0.4222 -0.6275
  603TMC3    C8 8944   2.793   0.258  11.601 -0.2822 -0.4322 -0.8096
  603TMC3    O1 8945   3.023   0.421  11.211 -0.0076 -0.2367  0.5536
  603TMC3    O2 8946   2.749   0.159  11.656 -0.1292 -0.0284  0.0970
  604MPD2     C 8947   4.011   4.039  16.232  0.2994  0.9659 -0.3050
  604MPD2    C1 8948   3.908   3.948  16.232 -0.1392  0.4377 -0.1588
  604MPD2    C2 8949   3.899   3.859  16.129  0.3745 -0.9434 -0.1607
  604MPD2    C3 8950   3.980   3.871  16.020 -0.7074 -0.3776 -0.0547
  604MPD2    C4 8951   4.076   3.974  16.016  0.5461 -0.3108  0.2557
  604MPD2    C5 8952   4.085   4.065  16.120  0.3220 -0.7672  0.2083
  604MPD2     H 8953   3.822   3.783  16.123 -0.6130 -0.0024  0.4042
  604MPD2    H1 8954   4.148   3.991  15.936 -2.0944  0.3201 -1.9923
  604MPD2    H2 8955   4.020   4.100  16.322  0.9044 -3.0470  2.3625
  604MPD2    H3 8956   4.165   4.138  16.117 -1.2966  1.1483  3.6310
  604MPD2     N 8957   3.945   3.787  15.915  0.0061 -0.0856 -0.1920
  604MPD2    H5 8958   3.858   3.733  15.916 -1.0172  1.5767  0.5464
  604MPD2    N1 8959   3.839   3.940  16.355 -0.1784 -1.1220 -0.0005
  604MPD2    H7 8960   3.871   4.004  16.426  2.5001 -3.0598  0.5407
  605TMC3    C1 8961   3.691   3.872  16.521 -0.1704  0.4505 -0.1781
  605TMC3    C2 8962   3.777   3.931  16.611 -0.3314 -0.4050 -0.3284
  605TMC3    C3 8963   3.735   4.018  16.709 -0.4246 -0.0666  0.2831
  605TMC3    C4 8964   3.558   3.887  16.539  0.5441  0.4955  0.4758
  605TMC3    C5 8965   3.522   3.979  16.639  0.6073  0.6823  0.8572
  605TMC3    C6 8966   3.605   4.042  16.726  0.1544  0.6680 -0.5631
  605TMC3     C 8967   3.726   3.869  16.378  0.2387  0.6251  0.1384
  605TMC3     O 8968   3.653   3.812  16.303 -0.6337 -0.2795  0.1256
  605TMC3     H 8969   3.885   3.930  16.603 -0.2782 -0.3011  0.4236
  605TMC3    H1 8970   3.488   3.851  16.464  0.3219  1.2719  0.3096
  605TMC3    H2 8971   3.568   4.120  16.793 -2.5792 -0.7018 -0.4575
  605TMC3    C7 8972   3.378   4.006  16.651  0.6237 -0.8812  0.3353
  605TMC3    C8 8973   3.821   4.126  16.732  0.3214 -0.0201 -0.2915
  605TMC3    O1 8974   3.346   4.113  16.695 -0.1744 -0.3706  0.0483
  605TMC3    O2 8975   3.890   4.155  16.639  0.7490  0.2437  1.1889
  606TMC3    C1 8976   0.067   1.627  17.127  0.1953 -0.4809  0.3334
  606TMC3    C2 8977   0.182   1.676  17.189 -0.3736 -0.4311 -0.2725
  606TMC3    C3 8978   0.227   1.614  17.305 -0.0913 -0.2639  0.3584
  606TMC3    C4 8979   4.707   1.538  17.189 -0.4613  0.8859 -0.4234
  606TMC3    C5 8980   0.032   1.477  17.301  0.6214 -0.1812 -0.1548
  606TMC3    C6 8981   0.145   1.520  17.368  0.1791  0.6657 -0.3300
  606TMC3     C 8982   0.010   1.697  17.011 -0.3279 -0.1955 -0.0934
  606TMC3     O 8983   4.625   1.655  16.962 -1.0230  0.3725 -0.1479
  606TMC3     H 8984   0.257   1.741  17.146  0.4432 -1.0383  0.2350
  606TMC3    H1 8985   4.616   1.507  17.137  0.2568 -2.3460  0.1981
  606TMC3    H2 8986   0.175   1.475  17.462  1.2637  1.5648 -0.2385
  606TMC3    C7 8987   4.660   1.456  17.406  0.4908  0.0606 -0.5298
  606TMC3    C8 8988   0.341   1.677  17.365 -0.4618 -0.5230 -0.4951
  606TMC3    O1 8989   4.689   1.376  17.496  0.8275  0.0872 -0.0780
  606TMC3    O2 8990   0.368   1.793  17.335  0.2852 -0.0577  0.0823
  607MPD2     C 8991   2.146   0.278  11.744 -0.2870 -0.0174  0.0448
  607MPD2    C1 8992   2.185   0.387  11.823 -0.7845 -0.2520 -0.2164
  607MPD2    C2 8993   2.123   0.408  11.940 -0.3648  0.9666  0.1689
  607MPD2    C3 8994   2.020   0.326  11.988  1.1108  0.1874  0.1042
  607MPD2    C4 8995   1.972   0.224  11.911  0.3323 -0.5893 -0.2153
  607MPD2    C5 8996   2.040   0.198  11.792  0.3589  0.2629 -0.5538
  607MPD2     H 8997   2.157   0.483  12.010  0.4306  1.1242 -0.3855
  607MPD2    H1 8998   1.895   0.156  11.946 -0.0066  0.2045  0.5848
  607MPD2    H2 8999   2.193   0.254  11.649  0.2826  0.3432  0.2360
  607MPD2    H3 9000   2.016   0.108  11.736  0.5086 -1.0686  1.5002
  607MPD2     N 9001   1.977   0.352  12.114  0.5526 -0.1416 -0.2369
  607MPD2    H5 9002   2.000   0.443  12.151  1.9117 -0.1159 -1.1384
  607MPD2    N1 9003   2.293   0.468  11.794 -0.0844  0.3820 -0.2342
  607MPD2    H7 9004   2.319   0.533  11.868 -1.9060 -0.3638  1.0422
  608TMC3    C1 9005   2.469   0.586  11.697 -0.4336  0.1681 -0.0682
  608TMC3    C2 9006   2.438   0.686  11.789  0.0429  0.2409  0.4091
  608TMC3    C3 9007   2.537   0.778  11.824  0.4419  0.4850  0.1494
  608TMC3    C4 9008   2.593   0.578  11.645 -0.5058  0.1951  0.1488
  608TMC3    C5 9009   2.679   0.684  11.671 -0.4716 -0.4120  0.6076
  608TMC3    C6 9010   2.651   0.793  11.754 -0.6969 -0.1595 -0.4776
  608TMC3     C 9011   2.383   0.467  11.688 -0.3612  0.0286 -0.4999
  608TMC3     O 9012   2.401   0.392  11.591  0.2976  1.1100 -0.4652
  608TMC3     H 9013   2.338   0.699  11.828  0.0675  2.4496 -0.2336
  608TMC3    H1 9014   2.629   0.495  11.586  0.2805  1.4631 -1.1479
  608TMC3    H2 9015   2.716   0.874  11.785  0.3547 -0.5652 -1.6054
  608TMC3    C7 9016   2.811   0.680  11.616 -0.3945 -0.4331  0.4911
  608TMC3    C8 9017   2.522   0.866  11.935  0.1374  0.2165 -0.1639
  608TMC3    O1 9018   2.830   0.599  11.523 -1.0869  0.0436 -0.0513
  608TMC3    O2 9019   2.584   0.973  11.939  0.0825  0.1284 -0.0844
  609TMC3    C1 9020   0.463   4.675   9.339 -0.0693 -0.1764 -0.1069
  609TMC3    C2 9021   0.552   0.055   9.362  0.5242 -1.1351  0.2984
  609TMC3    C3 9022   0.675   0.010   9.414 -0.0009  0.0962  0.6268
  609TMC3    C4 9023   0.497   4.539   9.345 -1.0294  0.7241  0.1607
  609TMC3    C5 9024   0.626   4.505   9.384 -0.1197  0.0748  0.3535
  609TMC3    C6 9025   0.712   4.600   9.424  0.2539  0.4517  0.9324
  609TMC3     C 9026   0.334   4.700   9.270  0.0804 -0.8525  0.2343
  609TMC3     O 9027   0.252   4.608   9.255  0.1784  0.5661 -0.1655
  609TMC3     H 9028   0.509   0.151   9.388  2.4066  0.6671 -3.2230
  609TMC3    H1 9029   0.437   4.462   9.297 -0.6677 -0.6397  1.9099
  609TMC3    H2 9030   0.809   4.569   9.461  1.4557  2.7205 -0.3366
  609TMC3    C7 9031   0.647   4.367   9.413  0.3659  0.1790 -0.8628
  609TMC3    C8 9032   0.791   0.099   9.412 -0.4272  0.3432 -0.7064
  609TMC3    O1 9033   0.765   4.328   9.415 -0.0459 -0.6148  0.6144
  609TMC3    O2 9034   0.893   0.070   9.471  0.1872  0.1456  0.5084
  610TMC3    C1 9035   2.527   0.393  12.761  0.4788 -0.7522  0.2486
  610TMC3    C2 9036   2.598   0.444  12.655 -0.5485 -0.4951  0.3053
  610TMC3    C3 9037   2.715   0.377  12.626 -0.4166  0.4381  0.0033
  610TMC3    C4 9038   2.575   0.293  12.839  0.4259 -0.1330  0.7914
  610TMC3    C5 9039   2.691   0.230  12.798  0.0966 -0.0652  0.0234
  610TMC3    C6 9040   2.768   0.266  12.694  0.0812 -0.7255  0.8258
  610TMC3     C 9041   2.394   0.435  12.806 -0.4808  0.1810  0.1669
  610TMC3     O 9042   2.334   0.369  12.890 -0.6933  0.3088 -0.1356
  610TMC3     H 9043   2.560   0.517  12.584 -0.7039 -0.4550  0.4281
  610TMC3    H1 9044   2.519   0.257  12.925 -2.0426  1.1513 -0.2760
  610TMC3    H2 9045   2.869   0.231  12.675  0.1127  0.4821 -1.2302
  610TMC3    C7 9046   2.749   0.124  12.881  0.2211  0.0196  0.0971
  610TMC3    C8 9047   2.798   0.426  12.521 -0.3815 -1.1276 -0.8420
  610TMC3    O1 9048   2.870   0.120  12.872  0.3789 -0.2735  0.2533
  610TMC3    O2 9049   2.892   0.366  12.469 -0.6567  0.8957 -0.9046
  611MPD2     C 9050   2.320   0.006  10.317 -0.1622 -0.0357 -0.0275
  611MPD2    C1 9051   2.275   0.135  10.330 -0.0893  0.3730 -0.2843
  611MPD2    C2 9052   2.364   0.236  10.298 -0.4386  0.4746  0.8499
  611MPD2    C3 9053   2.486   0.207  10.247  0.4455 -0.3515  0.0779
  611MPD2    C4 9054   2.521   0.073  10.231 -0.6099 -0.4055  0.2498
  611MPD2    C5 9055   2.440   4.697  10.264 -0.1461 -0.1559  0.6748
  611MPD2     H 9056   2.342   0.341  10.314  1.1886  1.2067 -1.8587
  611MPD2    H1 9057   2.618   0.049  10.189 -0.4658 -1.3338  1.1120
  611MPD2    H2 9058   2.269   4.641  10.355 -0.6088  0.4352  0.4593
  611MPD2    H3 9059   2.464   4.591  10.254 -0.2814 -0.3175  2.0782
  611MPD2     N 9060   2.580   0.304  10.232  0.7524  0.1035  0.8126
  611MPD2    H5 9061   2.673   0.265  10.218  0.9374  0.9831 -0.4694
  611MPD2    N1 9062   2.149   0.158  10.384  0.4618  0.2492  0.6291
  611MPD2    H7 9063   2.088   0.078  10.397  2.2207 -0.9278  1.7718
  612TMC3    C1 9064   2.694   0.495  10.208  0.5888 -0.0402 -0.3411
  612TMC3    C2 9065   2.776   0.478  10.323  0.5331 -1.5088 -0.3216
  612TMC3    C3 9066   2.876   0.576  10.338  0.2306  0.1515 -0.4679
  612TMC3    C4 9067   2.712   0.597  10.121  0.5337  0.6899  0.3657
  612TMC3    C5 9068   2.823   0.677  10.133  0.3582  0.4017  0.0895
  612TMC3    C6 9069   2.912   0.668  10.240  0.5862 -0.5393 -0.0761
  612TMC3     C 9070   2.565   0.437  10.208 -0.8321 -0.3090 -0.0076
  612TMC3     O 9071   2.464   0.496  10.175 -0.2298  0.2665 -0.1768
  612TMC3     H 9072   2.769   0.390  10.385 -0.2995 -1.0812  0.1781
  612TMC3    H1 9073   2.655   0.597  10.029  1.5235  2.4611 -0.2455
  612TMC3    H2 9074   3.000   0.730  10.239 -1.5285  2.4204 -0.6685
  612TMC3    C7 9075   2.865   0.740  10.009 -0.0391  0.9676  0.3287
  612TMC3    C8 9076   2.967   0.578  10.446 -0.2629  0.2493 -0.5384
  612TMC3    O1 9077   2.809   0.710   9.905  0.2224 -0.0060 -0.1940
  612TMC3    O2 9078   3.077   0.631  10.428 -0.4803  0.2438 -0.0997
  613MPD2     C 9079   1.066   2.808  16.400  0.3307 -0.4062  0.6454
  613MPD2    C1 9080   0.961   2.769  16.326  0.0198 -0.2217 -0.6901
  613MPD2    C2 9081   0.908   2.647  16.367  0.2389 -0.5077  0.6075
  613MPD2    C3 9082   0.961   2.571  16.466  0.4278  0.4359  0.0980
  613MPD2    C4 9083   1.066   2.614  16.539  0.3933 -0.0544 -0.7682
  613MPD2    C5 9084   1.122   2.730  16.502  0.1476  0.6080  0.1401
  613MPD2     H 9085   0.837   2.599  16.301 -0.6152 -0.4200  1.4635
  613MPD2    H1 9086   1.113   2.555  16.617  0.6355  1.9102  0.5734
  613MPD2    H2 9087   1.120   2.899  16.379 -0.4927  0.5236  2.6137
  613MPD2    H3 9088   1.208   2.759  16.560  0.8457 -1.5810  0.2081
  613MPD2     N 9089   0.916   2.436  16.480 -0.1619  0.2392 -0.1010
  613MPD2    H5 9090   0.951   2.379  16.555  1.5498  0.3748 -0.8027
  613MPD2    N1 9091   0.924   2.843  16.212  0.5180 -0.2632 -0.0726
  613MPD2    H7 9092   0.988   2.911  16.172 -0.4077 -0.1884 -1.4312
  614TMC3    C1 9093   0.817   2.859  16.003  0.0813 -0.4289 -0.2424
  614TMC3    C2 9094   0.935   2.843  15.943  0.5996 -0.1510  0.0207
  614TMC3    C3 9095   0.935   2.856  15.809 -0.0586 -0.2190 -0.5069
  614TMC3    C4 9096   0.701   2.904  15.936 -0.0925  0.4340  0.3556
  614TMC3    C5 9097   0.716   2.938  15.805 -0.1434  0.4717  0.1287
  614TMC3    C6 9098   0.833   2.914  15.737  0.0668  0.7484 -0.2933
  614TMC3     C 9099   0.804   2.821  16.139 -0.6010 -0.5270 -0.2923
  614TMC3     O 9100   0.707   2.758  16.173  0.4358  0.9445  0.7029
  614TMC3     H 9101   1.015   2.798  16.001  1.2868 -0.4731 -1.1713
  614TMC3    H1 9102   0.601   2.891  15.976  0.0571  3.1827  1.6688
  614TMC3    H2 9103   0.827   2.907  15.629  0.8098 -0.4884 -0.2491
  614TMC3    C7 9104   0.595   2.976  15.732 -0.5375 -0.0465  0.5945
  614TMC3    C8 9105   0.979   2.732  15.739  0.2279  0.4691  0.4692
  614TMC3    O1 9106   0.533   3.069  15.776 -0.8135  0.0259  0.2433
  614TMC3    O2 9107   0.981   2.734  15.616  0.7902 -0.3880  0.4951
  615MPD2     C 9108   0.345   3.743  15.882 -0.2452 -0.3682 -0.2066
  615MPD2    C1 9109   0.248   3.844  15.885  0.1197  0.1910  0.2964
  615MPD2    C2 9110   0.157   3.859  15.782 -0.3032 -0.2861  0.4496
  615MPD2    C3 9111   0.158   3.776  15.669  0.5998 -0.2943 -0.0539
  615MPD2    C4 9112   0.256   3.676  15.670 -0.1388  0.0860  0.3137
  615MPD2    C5 9113   0.341   3.660  15.776 -0.1227 -0.6518 -0.2001
  615MPD2     H 9114   0.083   3.936  15.802 -0.8520 -0.4912 -0.8394
  615MPD2    H1 9115   0.271   3.616  15.581  0.6166  0.5683  0.1137
  615MPD2    H2 9116   0.428   3.740  15.951 -1.7852 -1.8790  1.5985
  615MPD2    H3 9117   0.413   3.580  15.767  0.2915 -0.0355 -2.2477
  615MPD2     N 9118   0.062   3.781  15.565  0.2554 -0.3965 -0.2614
  615MPD2    H5 9119   0.086   3.730  15.481  0.9903 -0.8004  0.1966
  615MPD2    N1 9120   0.247   3.945  15.985  0.0916 -0.3022 -0.2786
  615MPD2    H7 9121   0.189   4.025  15.963  0.5587 -0.1251 -0.8758
  616TMC3    C1 9122   0.278   4.074  16.184  0.4532  0.2688  0.9386
  616TMC3    C2 9123   0.276   4.184  16.108 -0.0177 -0.1134  0.2308
  616TMC3    C3 9124   0.202   4.289  16.153  0.2508  0.3182 -0.3001
  616TMC3    C4 9125   0.199   4.066  16.298 -0.6884 -0.4450 -0.1297
  616TMC3    C5 9126   0.130   4.177  16.340  0.4947  0.1282 -0.3598
  616TMC3    C6 9127   0.132   4.291  16.270  0.2054  0.3213 -1.0195
  616TMC3     C 9128   0.299   3.948  16.114  0.0422 -0.8158  1.5105
  616TMC3     O 9129   0.339   3.850  16.173 -0.5012 -0.0890 -0.0267
  616TMC3     H 9130   0.335   4.197  16.018  1.7306 -1.9326  1.1009
  616TMC3    H1 9131   0.210   3.980  16.362 -0.7429 -0.3635 -0.0119
  616TMC3    H2 9132   0.088   4.378  16.318 -0.2586 -0.0519 -0.7597
  616TMC3    C7 9133   0.016   4.158  16.425 -0.5422  0.1691 -0.0595
  616TMC3    C8 9134   0.274   4.410  16.131  0.0338 -0.1162  0.2863
  616TMC3    O1 9135   0.019   4.073  16.511 -0.5136  0.1674  0.1454
  616TMC3    O2 9136   0.211   4.511  16.158 -0.2735  0.0564 -0.0048
  617MPD2     C 9137   3.082   2.420  13.901  0.3515 -0.0911 -0.0014
  617MPD2    C1 9138   3.130   2.336  13.999  0.1193 -0.1479  0.2238
  617MPD2    C2 9139   3.051   2.230  14.041 -0.4871 -0.1032 -0.8625
  617MPD2    C3 9140   2.930   2.200  13.973  0.4145  0.0541  0.3602
  617MPD2    C4 9141   2.893   2.272  13.866  0.9742 -0.0867 -0.1381
  617MPD2    C5 9142   2.966   2.385  13.832 -0.8641 -1.0466  0.0163
  617MPD2     H 9143   3.090   2.166  14.119  2.1142  3.7147  0.9627
  617MPD2    H1 9144   2.795   2.254  13.824  1.4448  0.1418 -1.3195
  617MPD2    H2 9145   3.134   2.514  13.885  2.0773 -1.0893 -0.3293
  617MPD2    H3 9146   2.941   2.440  13.742  0.6751  0.2822  0.3990
  617MPD2     N 9147   2.841   2.100  14.009 -0.5327 -0.1672 -0.8568
  617MPD2    H5 9148   2.754   2.095  13.957 -0.9080 -1.0789 -0.1466
  617MPD2    N1 9149   3.262   2.363  14.057  0.8701  0.5007  0.0309
  617MPD2    H7 9150   3.326   2.429  14.014  1.5970 -0.7365 -0.7911
  618TMC3    C1 9151   3.449   2.336  14.200  0.3834  0.4789 -0.4863
  618TMC3    C2 9152   3.531   2.235  14.218 -0.3714 -0.5747  0.0715
  618TMC3    C3 9153   3.663   2.254  14.195  0.3628  0.4110  0.2418
  618TMC3    C4 9154   3.497   2.461  14.175  0.5060  0.5101  0.1036
  618TMC3    C5 9155   3.634   2.479  14.175  0.1897  0.5449 -0.0622
  618TMC3    C6 9156   3.717   2.374  14.174 -0.8598 -0.4116 -0.2078
  618TMC3     C 9157   3.311   2.296  14.169  0.1071 -0.7761  0.2558
  618TMC3     O 9158   3.249   2.228  14.250  0.3807  0.2082  0.0130
  618TMC3     H 9159   3.494   2.134  14.227  1.0524 -0.9890  1.2998
  618TMC3    H1 9160   3.432   2.544  14.146  0.9744  0.1784 -1.9383
  618TMC3    H2 9161   3.824   2.390  14.169 -0.9171  0.2269  0.5220
  618TMC3    C7 9162   3.684   2.611  14.215 -0.0284  0.6705 -0.3283
  618TMC3    C8 9163   3.734   2.134  14.143 -0.8042 -0.4526  0.1507
  618TMC3    O1 9164   3.602   2.677  14.276 -0.1105 -0.7052 -0.3109
  618TMC3    O2 9165   3.682   2.026  14.157 -0.9163 -0.0521 -0.3553
  619MPD2     C 9166   0.040   3.385  13.976  0.1797 -0.2173 -0.2934
  619MPD2    C1 9167   0.028   3.425  13.847  0.1215 -0.6931 -0.2158
  619MPD2    C2 9168   4.631   3.440  13.777 -0.4817 -0.3486  0.2937
  619MPD2    C3 9169   4.516   3.407  13.843 -0.7863 -0.4108  0.3217
  619MPD2    C4 9170   4.530   3.363  13.972  0.7733  0.0952 -0.4699
  619MPD2    C5 9171   4.649   3.353  14.038  0.6891 -0.6093 -0.4021
  619MPD2     H 9172   4.634   3.471  13.673 -0.6183  0.4965  0.5424
  619MPD2    H1 9173   4.444   3.326  14.026 -0.6980 -0.1460 -2.9479
  619MPD2    H2 9174   0.129   3.377  14.036  0.6624  0.7654 -0.8833
  619MPD2    H3 9175   4.645   3.311  14.138 -1.8000  2.0795  0.6020
  619MPD2     N 9176   4.393   3.406  13.773 -0.0730  0.6440 -0.0762
  619MPD2    H5 9177   4.310   3.403  13.832  0.4146  0.5775  0.6165
  619MPD2    N1 9178   0.134   3.466  13.769 -0.3429 -1.3723  0.1972
  619MPD2    H7 9179   0.116   3.505  13.677  0.7966  0.4505  0.7672
  620TMC3    C1 9180   0.363   3.530  13.722 -0.7758 -0.0475  0.9693
  620TMC3    C2 9181   0.305   3.572  13.604 -0.8044  0.4686 -0.5590
  620TMC3    C3 9182   0.332   3.699  13.560  0.0235  0.5771 -0.1371
  620TMC3    C4 9183   0.453   3.607  13.786  0.1913  0.3080 -0.3391
  620TMC3    C5 9184   0.484   3.729  13.732 -0.0984 -0.0805 -0.4094
  620TMC3    C6 9185   0.422   3.775  13.619  0.3003 -0.8117  0.3826
  620TMC3     C 9186   0.268   3.460  13.811  0.1087  1.0633  0.5763
  620TMC3     O 9187   0.328   3.406  13.904  0.2556  0.3728 -0.2573
  620TMC3     H 9188   0.249   3.497  13.549  0.9082  0.1876 -1.9006
  620TMC3    H1 9189   0.487   3.585  13.887 -0.8399  1.0741  0.1653
  620TMC3    H2 9190   0.442   3.873  13.577 -1.3472 -0.8156 -0.4132
  620TMC3    C7 9191   0.582   3.805  13.804  0.4967 -0.3874 -0.0685
  620TMC3    C8 9192   0.217   3.763  13.504  0.5296  0.0231  0.3950
  620TMC3    O1 9193   0.660   3.736  13.869 -0.2587 -0.6712  0.2662
  620TMC3    O2 9194   0.189   3.878  13.525  0.2094 -0.3622 -0.1731
  621MPD2     C 9195   0.128   3.114  10.150  0.2398 -0.4511 -0.1033
  621MPD2    C1 9196   0.155   3.217  10.060  0.1509 -0.0059 -0.7051
  621MPD2    C2 9197   0.281   3.283  10.066 -0.4068 -0.3362  0.5636
  621MPD2    C3 9198   0.368   3.261  10.171 -0.2361 -0.3122  0.0608
  621MPD2    C4 9199   0.355   3.149  10.252  1.0539 -0.4748  0.2590
  621MPD2    C5 9200   0.233   3.081  10.241  0.1364 -0.0173 -0.7670
  621MPD2     H 9201   0.309   3.365  10.002 -1.8117  1.3920  2.1493
  621MPD2    H1 9202   0.434   3.122  10.321  1.4439 -0.0125 -0.0064
  621MPD2    H2 9203   0.034   3.061  10.143  1.2142 -2.2282  0.2316
  621MPD2    H3 9204   0.212   2.996  10.305  1.9247 -0.2530 -0.4761
  621MPD2     N 9205   0.483   3.352  10.188  0.1746  0.2428  0.0031
  621MPD2    H5 9206   0.553   3.324  10.256 -0.0325  1.2646  0.6556
  621MPD2    N1 9207   0.060   3.284   9.985  0.1337  0.3267  0.8831
  621MPD2    H7 9208   0.094   3.363   9.931 -0.4271 -0.0213  0.0178
  622TMC3    C1 9209   4.569   3.368   9.924  0.1415 -0.7955 -0.1942
  622TMC3    C2 9210   4.439   3.346   9.882 -0.5720 -0.2050  0.1322
  622TMC3    C3 9211   4.362   3.456   9.857 -0.2376 -0.2737  0.0858
  622TMC3    C4 9212   4.625   3.491   9.909  0.2887 -0.5590 -0.3623
  622TMC3    C5 9213   4.551   3.598   9.856  0.4405 -0.2098  0.2702
  622TMC3    C6 9214   4.412   3.580   9.840 -0.2445  0.3448 -0.1297
  622TMC3     C 9215   4.644   3.260   9.982 -0.7402 -0.5629  0.5200
  622TMC3     O 9216   4.577   3.170  10.024 -0.1425 -0.4991 -0.1455
  622TMC3     H 9217   4.391   3.249   9.887 -0.2404 -0.3896 -0.2440
  622TMC3    H1 9218   0.008   3.509   9.927  0.6508 -0.7971 -2.2503
  622TMC3    H2 9219   4.350   3.667   9.823 -0.1633  0.8185  1.9407
  622TMC3    C7 9220   4.608   3.728   9.831  0.1775  0.1575 -0.0204
  622TMC3    C8 9221   4.226   3.437   9.891 -0.3073  0.2928 -0.6643
  622TMC3    O1 9222   4.719   3.745   9.881  0.3402  0.0774  0.0286
  622TMC3    O2 9223   4.174   3.329   9.861 -0.3837  0.5347  0.4434
  623MPD2     C 9224   4.080   4.380  15.938 -0.1547 -0.4207 -0.7302
  623MPD2    C1 9225   4.000   4.394  16.054  0.2246 -0.0064 -0.2835
  623MPD2    C2 9226   4.061   4.461  16.164  0.5194  0.8569  0.2517
  623MPD2    C3 9227   4.179   4.527  16.154 -0.3530 -0.1200  0.8363
  623MPD2    C4 9228   4.249   4.526  16.033 -0.2762  0.4220  0.3311
  623MPD2    C5 9229   4.202   4.446  15.929  0.6137  0.1527  0.6061
  623MPD2     H 9230   4.003   4.457  16.256  0.0195  2.0954 -0.0036
  623MPD2    H1 9231   4.348   4.567  16.020 -0.0992  0.3382  1.3607
  623MPD2    H2 9232   4.055   4.309  15.860  3.1151 -0.7724 -1.4640
  623MPD2    H3 9233   4.259   4.424  15.840  0.2121 -1.4105  0.7389
  623MPD2     N 9234   4.224   4.584  16.268 -0.4669 -0.8079  0.6827
  623MPD2    H5 9235   4.153   4.582  16.340  1.3655 -0.0345  2.4943
  623MPD2    N1 9236   3.869   4.334  16.066  1.0639  0.1064 -0.1982
  623MPD2    H7 9237   3.824   4.340  16.158  0.4559  2.8620 -0.6844
  624TMC3    C1 9238   4.508   4.584  16.601  0.5707 -0.2423  0.0203
  624TMC3    C2 9239   4.404   4.570  16.685 -0.6661  0.0022  0.1617
  624TMC3    C3 9240   4.278   4.605  16.635 -0.2764 -0.8197  0.0595
  624TMC3    C4 9241   4.496   4.633  16.477  0.5334  0.0221 -1.0873
  624TMC3    C5 9242   4.373   4.661  16.430  0.7721  0.3027  0.6380
  624TMC3    C6 9243   4.263   4.652  16.507  0.2682 -0.8985  0.0206
  624TMC3     C 9244   4.633   4.532  16.651 -0.5722  0.1689  0.3828
  624TMC3     O 9245   4.628   4.456  16.745  0.2678 -0.3637 -0.6400
  624TMC3     H 9246   4.413   4.523  16.783 -0.5404 -0.3437 -0.0140
  624TMC3    H1 9247   4.578   4.638  16.407 -1.0345  1.7595 -2.8004
  624TMC3    H2 9248   4.164   4.685  16.479  0.5657  0.8355  0.9970
  624TMC3    C7 9249   4.357   4.613  16.297 -0.1408 -0.1402 -0.5113
  624TMC3    C8 9250   4.160   4.537  16.681 -0.1352 -0.3266 -0.0125
  624TMC3    O1 9251   4.453   4.609  16.216 -0.0747 -0.1421  0.2431
  624TMC3    O2 9252   4.066   4.510  16.605  0.4386  0.5244 -0.3895
  625MPD2     C 9253   3.889   0.201   0.980 -0.2882  0.0900  0.5172
  625MPD2    C1 9254   3.954   0.322   0.994 -0.2796 -0.1874 -0.1164
  625MPD2    C2 9255   4.091   0.323   1.017 -0.1988 -0.2283 -0.2162
  625MPD2    C3 9256   4.160   0.209   1.022  0.4312 -0.3364 -0.5306
  625MPD2    C4 9257   4.097   0.085   1.001 -0.2045 -0.0074 -0.0896
  625MPD2    C5 9258   3.959   0.082   0.987 -0.2509  0.6154  0.9108
  625MPD2     H 9259   4.150   0.412   1.038 -1.0215  0.0770  0.7993
  625MPD2    H1 9260   4.149   4.712   0.998  3.0235  1.7524 -0.4509
  625MPD2    H2 9261   3.783   0.205   0.959  0.0739 -0.5064 -1.4674
  625MPD2    H3 9262   3.904   4.712   0.996 -0.5219  0.4940 -1.9718
  625MPD2     N 9263   4.300   0.223   1.050 -0.3678  0.1807 -0.2714
  625MPD2    H5 9264   4.327   0.318   1.073 -3.3626  0.9048  0.3211
  625MPD2    N1 9265   3.893   0.452   0.986 -0.1614 -0.6742  0.2895
  625MPD2    H7 9266   3.959   0.530   0.993  0.8712 -1.6140  1.1000
  626TMC3    C1 9267   3.752   0.630   0.955 -0.2511  0.4430  0.1299
  626TMC3    C2 9268   3.708   0.681   0.838  0.5271  0.3044  0.7341
  626TMC3    C3 9269   3.762   0.804   0.804  0.1873  0.7696 -0.1033
  626TMC3    C4 9270   3.848   0.689   1.033 -0.2650 -0.3800 -0.2952
  626TMC3    C5 9271   3.901   0.804   0.995 -0.6801 -0.7300 -0.3185
  626TMC3    C6 9272   3.856   0.866   0.878 -0.1172 -0.2423  0.3272
  626TMC3     C 9273   3.763   0.482   0.954 -0.1509 -0.2334  0.0016
  626TMC3     O 9274   3.683   0.416   0.893  0.6043 -0.3265  0.3874
  626TMC3     H 9275   3.651   0.623   0.766 -1.9825  2.6756  0.8247
  626TMC3    H1 9276   3.865   0.644   1.130  3.0679 -0.5374 -0.9340
  626TMC3    H2 9277   3.912   0.948   0.834  0.4326  0.0289  1.5408
  626TMC3    C7 9278   4.045   0.792   1.003 -0.6020  0.6198  0.1004
  626TMC3    C8 9279   3.720   0.875   0.687 -0.2362  0.0409 -0.1518
  626TMC3    O1 9280   4.083   0.697   1.064  0.4309  0.0341 -0.6104
  626TMC3    O2 9281   3.686   0.811   0.588 -0.3420 -0.3633 -0.0331
  627MPD2     C 9282   3.354   1.133  14.488  0.7334  0.0234 -0.1523
  627MPD2    C1 9283   3.342   1.123  14.628 -0.8058  0.0915 -0.3860
  627MPD2    C2 9284   3.266   1.018  14.681  0.2202  0.2358  0.2656
  627MPD2    C3 9285   3.206   0.924  14.607 -0.1737 -0.6366 -0.0352
  627MPD2    C4 9286   3.222   0.930  14.473 -0.5264 -0.0609  0.2579
  627MPD2    C5 9287   3.304   1.030  14.417 -0.5321 -0.1230  0.0035
  627MPD2     H 9288   3.255   1.023  14.789 -0.6807 -1.0992  0.2253
  627MPD2    H1 9289   3.178   0.857  14.405 -0.2006 -1.3406  1.4192
  627MPD2    H2 9290   3.420   1.209  14.450  0.6112  0.7100  1.0261
  627MPD2    H3 9291   3.326   1.028  14.311 -0.2641 -1.1838  0.0770
  627MPD2     N 9292   3.130   0.824  14.677  0.2616  0.3088 -1.1660
  627MPD2    H5 9293   3.125   0.833  14.778  1.7662  0.9755 -1.1608
  627MPD2    N1 9294   3.395   1.227  14.706  0.9078  0.1989  0.1220
  627MPD2    H7 9295   3.423   1.314  14.662  0.9135  0.1020 -0.0622
  628TMC3    C1 9296   3.413   1.347  14.912 -0.3196  0.1164 -0.1184
  628TMC3    C2 9297   3.487   1.350  15.023 -0.3327 -0.0391  0.3484
  628TMC3    C3 9298   3.483   1.466  15.097 -0.3921  0.0728 -0.0169
  628TMC3    C4 9299   3.322   1.441  14.869 -0.2495  0.0778 -0.1471
  628TMC3    C5 9300   3.327   1.560  14.937 -0.2763  0.6451 -0.0440
  628TMC3    C6 9301   3.397   1.563  15.057 -0.3091 -0.2582  0.1047
  628TMC3     C 9302   3.419   1.222  14.840 -0.0249  0.0682 -0.1087
  628TMC3     O 9303   3.432   1.122  14.911  0.3838  0.1257  0.3799
  628TMC3     H 9304   3.563   1.275  15.040  0.2038  0.5728  0.6721
  628TMC3    H1 9305   3.255   1.423  14.787 -0.2733  1.7033 -0.4938
  628TMC3    H2 9306   3.415   1.662  15.098 -0.8910  1.0092 -2.7403
  628TMC3    C7 9307   3.216   1.663  14.921 -0.4453  0.1121  0.7384
  628TMC3    C8 9308   3.585   1.511  15.189  0.5728  0.6866  0.2027
  628TMC3    O1 9309   3.201   1.735  15.018  0.1313  0.2548 -0.5138
  628TMC3    O2 9310   3.566   1.610  15.253  0.0389  0.4859  0.2538
  629MPD2     C 9311   0.685   4.710  16.146  0.7297 -0.1239 -0.0352
  629MPD2    C1 9312   0.730   4.584  16.172  0.1965 -0.4106  0.2670
  629MPD2    C2 9313   0.634   4.482  16.157  0.3199 -0.4100  0.0833
  629MPD2    C3 9314   0.502   4.502  16.124 -0.3719 -0.6187  0.1072
  629MPD2    C4 9315   0.464   4.633  16.094  0.8852  0.0735 -0.3531
  629MPD2    C5 9316   0.559   0.011  16.103  0.0273  0.5810 -0.3150
  629MPD2     H 9317   0.671   4.380  16.156  0.5273 -0.3343 -0.3360
  629MPD2    H1 9318   0.364   4.656  16.058 -0.2198 -0.5140  2.3204
  629MPD2    H2 9319   0.751   0.073  16.155  1.1637 -0.4529 -0.1207
  629MPD2    H3 9320   0.531   0.109  16.066  0.2004  0.5754 -0.4639
  629MPD2     N 9321   0.410   4.398  16.132 -0.2897  0.4557 -0.4508
  629MPD2    H5 9322   0.452   4.310  16.161 -0.2073  0.8798  0.7347
  629MPD2    N1 9323   0.864   4.559  16.191 -0.5885  0.0611 -0.2003
  629MPD2    H7 9324   0.925   4.638  16.173  1.6924 -0.7723  3.7769
  630TMC3    C1 9325   1.071   4.445  16.245 -0.9018  0.0623 -0.7757
  630TMC3    C2 9326   1.147   4.536  16.173 -0.2084 -0.2591  0.7325
  630TMC3    C3 9327   1.282   4.536  16.195 -0.4749 -0.5133 -0.3276
  630TMC3    C4 9328   1.126   4.343  16.316  0.3291  0.6553  0.4249
  630TMC3    C5 9329   1.259   4.341  16.332  1.4900  0.2929  0.8843
  630TMC3    C6 9330   1.337   4.446  16.282  0.0375 -0.0064 -0.5898
  630TMC3     C 9331   0.929   4.438  16.226  0.3607 -0.0916 -0.0003
  630TMC3     O 9332   0.882   4.331  16.258  0.6036  0.2195 -0.5164
  630TMC3     H 9333   1.094   4.606  16.109 -0.2168 -1.2779 -0.3588
  630TMC3    H1 9334   1.067   4.281  16.382 -1.6986  4.0533  1.8307
  630TMC3    H2 9335   1.438   4.459  16.320  0.0412 -2.4528  0.2704
  630TMC3    C7 9336   1.314   4.271  16.443 -0.2202 -0.4313  0.0943
  630TMC3    C8 9337   1.365   4.647  16.157 -0.0217  0.3789 -0.1426
  630TMC3    O1 9338   1.400   4.335  16.498 -0.6613  0.1097 -0.7543
  630TMC3    O2 9339   1.487   4.629  16.170 -0.2743 -0.0703  0.6690
  631MPD2     C 9340   3.956   4.376  15.359  0.4619 -0.3865 -0.8958
  631MPD2    C1 9341   4.075   4.436  15.332  0.5876  0.1255 -0.4893
  631MPD2    C2 9342   4.192   4.363  15.327 -0.9448  0.3566  0.3588
  631MPD2    C3 9343   4.186   4.227  15.348  0.5449  0.6251  0.3741
  631MPD2    C4 9344   4.071   4.176  15.405 -0.3414  0.4194  0.8327
  631MPD2    C5 9345   3.956   4.249  15.403  0.1683 -0.7758  0.0988
  631MPD2     H 9346   4.291   4.397  15.300 -0.4903  1.3115  3.2120
  631MPD2    H1 9347   4.066   4.073  15.436 -0.5975 -0.1306 -1.0536
  631MPD2    H2 9348   3.867   4.436  15.352  0.4975 -0.0128  1.5801
  631MPD2    H3 9349   3.874   4.198  15.453 -0.4603 -1.1400 -1.2933
  631MPD2     N 9350   4.299   4.140  15.337  0.6599  0.1316 -0.1109
  631MPD2    H5 9351   4.296   4.042  15.365 -0.1551  0.1359 -0.1733
  631MPD2    N1 9352   4.073   4.574  15.288 -0.5902 -0.3524  0.0794
  631MPD2    H7 9353   3.979   4.611  15.297 -1.1752 -1.7519 -0.2339
  632TMC3    C1 9354   4.152   0.071  15.247  0.0650 -0.8130 -0.0345
  632TMC3    C2 9355   4.131   0.116  15.372 -0.5965  0.1745  0.0039
  632TMC3    C3 9356   4.216   0.224  15.400  0.0821 -0.0930  0.3693
  632TMC3    C4 9357   4.223   0.130  15.148 -0.2351  0.4106 -0.2964
  632TMC3    C5 9358   4.299   0.238  15.181  0.1729  0.5357 -0.3273
  632TMC3    C6 9359   4.300   0.289  15.308  0.7679 -0.7098  0.1681
  632TMC3     C 9360   4.180   4.652  15.256  0.0128 -0.3628  0.0570
  632TMC3     O 9361   4.299   4.623  15.262  0.0220 -0.5138 -0.0603
  632TMC3     H 9362   4.100   0.049  15.451 -0.4642 -0.1973 -0.2597
  632TMC3    H1 9363   4.230   0.077  15.054 -1.4162 -0.6117  0.2018
  632TMC3    H2 9364   4.371   0.362  15.347  2.2239 -1.3677 -1.2549
  632TMC3    C7 9365   4.407   0.261  15.088 -0.3600 -0.2212  0.1693
  632TMC3    C8 9366   4.199   0.276  15.531 -0.0104 -1.4019  0.2587
  632TMC3    O1 9367   4.365   0.291  14.979  0.2185  0.6457  0.4286
  632TMC3    O2 9368   4.096   0.241  15.585  0.0878 -0.0536  0.1531
  633MPD2     C 9369   4.164   2.667  17.382  0.1168 -0.5284  0.1938
  633MPD2    C1 9370   4.134   2.575  17.278  0.2187 -0.2483 -0.3160
  633MPD2    C2 9371   4.068   2.458  17.311 -0.1831 -0.2348  0.0945
  633MPD2    C3 9372   4.044   2.428  17.448  0.2811 -0.0673 -0.0405
  633MPD2    C4 9373   4.098   2.509  17.543  0.3420 -0.2953  0.1008
  633MPD2    C5 9374   4.150   2.628  17.512  0.7116 -0.0893 -0.2101
  633MPD2     H 9375   4.035   2.391  17.233 -1.3739  0.2013  0.2198
  633MPD2    H1 9376   4.089   2.478  17.646 -0.3628 -0.7825 -0.1077
  633MPD2    H2 9377   4.209   2.762  17.359  3.0824 -1.7576  0.8719
  633MPD2    H3 9378   4.174   2.698  17.591 -0.2554 -0.9540  0.8536
  633MPD2     N 9379   3.987   2.305  17.495  0.3781 -0.1049  0.4617
  633MPD2    H5 9380   3.988   2.282  17.594  0.1248 -1.4290  0.1578
  633MPD2    N1 9381   4.153   2.602  17.139  0.3842 -0.3074  0.7235
  633MPD2    H7 9382   4.134   2.527  17.073  0.8802 -1.0254  1.3906
  634TMC3    C1 9383   4.207   2.726  16.943  0.5142 -0.4005 -0.8639
  634TMC3    C2 9384   4.243   2.603  16.894 -0.2867 -0.3000 -0.0422
  634TMC3    C3 9385   4.215   2.583  16.761 -0.0902  0.6136 -0.2293
  634TMC3    C4 9386   4.150   2.830  16.869 -0.0164  0.1084  0.0474
  634TMC3    C5 9387   4.137   2.799  16.739 -0.8107 -0.1859 -0.3788
  634TMC3    C6 9388   4.165   2.681  16.677  0.4468 -0.1905 -0.2694
  634TMC3     C 9389   4.175   2.731  17.090 -0.1497  0.3210 -1.0849
  634TMC3     O 9390   4.161   2.839  17.150 -0.6161 -0.4056 -0.4062
  634TMC3     H 9391   4.311   2.543  16.954  0.1754  0.1460 -0.1194
  634TMC3    H1 9392   4.135   2.931  16.906 -0.7050 -0.5502  1.5513
  634TMC3    H2 9393   4.164   2.667  16.570  0.7169  0.5157 -0.3621
  634TMC3    C7 9394   4.081   2.903  16.661 -0.0554 -0.4075  0.1586
  634TMC3    C8 9395   4.243   2.448  16.717  0.7407  0.6596  0.0899
  634TMC3    O1 9396   4.115   2.894  16.542 -0.3104  0.0613  0.0956
  634TMC3    O2 9397   4.240   2.361  16.801 -0.2406  0.0068  0.0452
  635TMC3    C1 9398   0.085   2.671  17.685 -0.5367  0.0535  0.0401
  635TMC3    C2 9399   0.099   2.610  17.558 -0.4778 -0.3141 -0.2302
  635TMC3    C3 9400   0.150   2.482  17.566 -0.0578 -0.3716 -0.4844
  635TMC3    C4 9401   0.119   2.611   0.112 -0.3163  0.1037  0.7161
  635TMC3    C5 9402   0.161   2.484   0.105  0.3618 -0.5023  0.9156
  635TMC3    C6 9403   0.171   2.409  17.682 -0.0117 -0.1486  0.5198
  635TMC3     C 9404   0.061   2.814   0.007  0.0140 -0.2867 -0.1216
  635TMC3     O 9405   0.060   2.867   0.118  1.3923  0.2775  0.0028
  635TMC3     H 9406   0.096   2.653  17.459  1.4217 -2.4820 -1.2243
  635TMC3    H1 9407   0.103   2.664   0.205  1.2899  1.6513  0.1126
  635TMC3    H2 9408   0.198   2.304  17.676 -2.2709 -0.6426 -1.3844
  635TMC3    C7 9409   0.190   2.415   0.232  0.7043 -0.1525 -0.2329
  635TMC3    C8 9410   0.237   2.432  17.461 -0.7421  0.2608  0.1269
  635TMC3    O1 9411   0.224   2.487   0.320  0.4841 -0.2420 -0.4740
  635TMC3    O2 9412   0.328   2.360  17.505  0.1396  0.6572  0.6208
  636MPD2     C 9413   0.239   2.569  16.105  0.1450 -0.2985 -0.3195
  636MPD2    C1 9414   0.309   2.588  16.223 -0.3613  0.2581 -0.0360
  636MPD2    C2 9415   0.377   2.482  16.278 -0.0815 -0.0548  0.8989
  636MPD2    C3 9416   0.397   2.364  16.204  0.2851 -0.2963  0.6443
  636MPD2    C4 9417   0.343   2.356  16.078 -0.5857  0.0053  0.1157
  636MPD2    C5 9418   0.256   2.454  16.033 -0.1243  0.1776 -0.4971
  636MPD2     H 9419   0.432   2.484  16.371 -0.4155  0.9330  1.0641
  636MPD2    H1 9420   0.377   2.278  16.012  0.7188  1.5447 -1.0169
  636MPD2    H2 9421   0.176   2.643  16.059 -1.5102 -2.0736 -0.9241
  636MPD2    H3 9422   0.211   2.442  15.935  1.1294 -0.4711 -1.0036
  636MPD2     N 9423   0.493   2.284  16.259 -0.7449 -0.1044  0.3077
  636MPD2    H5 9424   0.548   2.327  16.333  0.7486  1.7215 -1.8853
  636MPD2    N1 9425   0.303   2.705  16.301 -0.0847  0.2377  0.2380
  636MPD2    H7 9426   0.319   2.702  16.401  0.2563  2.5006  0.2623
  637TMC3    C1 9427   0.663   2.138  16.275  0.2082  0.3453  0.2074
  637TMC3    C2 9428   0.677   2.206  16.386 -0.0256  0.1492  0.4185
  637TMC3    C3 9429   0.802   2.239  16.424  0.0788  0.0729 -0.4174
  637TMC3    C4 9430   0.773   2.127  16.195 -0.1241  0.1033  0.8368
  637TMC3    C5 9431   0.902   2.154  16.232 -0.2358  0.3568 -0.5381
  637TMC3    C6 9432   0.916   2.205  16.359 -0.1470 -1.1891  0.1270
  637TMC3     C 9433   0.543   2.169  16.206 -0.4962 -0.3178 -0.5022
  637TMC3     O 9434   0.517   2.124  16.091 -0.6021 -0.1301 -0.7002
  637TMC3     H 9435   0.608   2.228  16.466  0.3533 -1.9559  1.3317
  637TMC3    H1 9436   0.760   2.093  16.093 -1.0099 -1.0712  1.3399
  637TMC3    H2 9437   1.011   2.228  16.405 -0.3966  0.3874 -0.1414
  637TMC3    C7 9438   0.974   2.243  16.142 -0.6909 -0.1588 -0.2933
  637TMC3    C8 9439   0.799   2.381  16.434  0.6347 -0.7768 -0.5501
  637TMC3    O1 9440   1.017   2.345  16.190 -0.5546  0.9414  0.0603
  637TMC3    O2 9441   0.700   2.434  16.382  0.0313 -0.5880  0.2925
  638MPD2     C 9442   0.581   1.600  14.830  0.4305  0.5445 -0.2150
  638MPD2    C1 9443   0.530   1.490  14.767 -0.3023 -0.9365  0.0266
  638MPD2    C2 9444   0.472   1.394  14.849 -0.3028 -0.4777 -0.1808
  638MPD2    C3 9445   0.462   1.408  14.987  0.1733 -0.1777  0.2040
  638MPD2    C4 9446   0.498   1.525  15.048  0.4422 -0.1985  0.1819
  638MPD2    C5 9447   0.561   1.624  14.970 -0.1031 -0.5446  0.4590
  638MPD2     H 9448   0.439   1.303  14.800  1.0592 -1.0573 -0.0168
  638MPD2    H1 9449   0.507   1.531  15.156  1.9646 -0.0404  0.0531
  638MPD2    H2 9450   0.636   1.673  14.772  0.2095  0.4266 -0.5685
  638MPD2    H3 9451   0.616   1.705  15.014  2.6542 -1.1676 -1.8612
  638MPD2     N 9452   0.394   1.302  15.055  0.1035 -0.1352  0.2805
  638MPD2    H5 9453   0.336   1.238  15.001  2.2799 -2.1759  0.3537
  638MPD2    N1 9454   0.545   1.485  14.626  0.6442 -0.4619 -0.7699
  638MPD2    H7 9455   0.603   1.556  14.585 -0.3964 -0.1874 -1.7549
  639TMC3    C1 9456   0.345   1.146  15.212  0.1840 -0.1053  0.2473
  639TMC3    C2 9457   0.244   1.095  15.134 -0.3296 -0.5890 -0.3915
  639TMC3    C3 9458   0.207   0.964  15.156 -0.4120  0.1544  0.2229
  639TMC3    C4 9459   0.423   1.063  15.289 -0.3140  0.9421 -0.2665
  639TMC3    C5 9460   0.391   0.933  15.303 -0.0100 -0.2639  0.3675
  639TMC3    C6 9461   0.285   0.884  15.233 -0.4914  0.7165  0.1345
  639TMC3     C 9462   0.397   1.279  15.190  0.4519 -0.2764 -0.2770
  639TMC3     O 9463   0.481   1.324  15.265  0.0482  0.3248 -0.0864
  639TMC3     H 9464   0.182   1.157  15.069  0.6543 -1.3821 -2.0850
  639TMC3    H1 9465   0.489   1.107  15.364 -3.2070  0.1795  2.6918
  639TMC3    H2 9466   0.261   0.778  15.229  1.1958  0.3785 -0.8926
  639TMC3    C7 9467   0.486   0.839  15.364  0.4489  0.2251 -0.3090
  639TMC3    C8 9468   0.152   0.895  15.038  0.2857  0.0325  0.0623
  639TMC3    O1 9469   0.439   0.749  15.433  0.4501  0.2188 -0.0884
  639TMC3    O2 9470   0.243   0.837  14.976  0.2171  0.0220 -0.5291
  640MPD2     C 9471   1.001   4.665  10.338  0.1889 -0.2648  0.3159
  640MPD2    C1 9472   1.063   0.014  10.241  0.3697  0.9103 -0.0558
  640MPD2    C2 9473   1.013   0.134  10.209  0.1598 -0.6015  0.3076
  640MPD2    C3 9474   0.897   0.182  10.256 -0.0956 -0.3370 -0.3985
  640MPD2    C4 9475   0.838   0.115  10.362 -0.0020 -0.1648  0.0616
  640MPD2    C5 9476   0.890   4.717  10.400 -0.0513  0.5603 -0.5989
  640MPD2     H 9477   1.069   0.198  10.142  1.1961 -1.4086  0.3992
  640MPD2    H1 9478   0.755   0.157  10.417 -0.3647 -0.0115 -0.6027
  640MPD2    H2 9479   1.046   4.572  10.370  2.3619  0.4701 -0.6296
  640MPD2    H3 9480   0.847   4.663  10.484 -0.1796 -1.5580 -2.0211
  640MPD2     N 9481   0.819   0.286  10.196 -0.3353  0.4906 -0.5846
  640MPD2    H5 9482   0.723   0.291  10.230 -0.1668  0.4076 -0.0945
  640MPD2    N1 9483   1.172   4.678  10.177 -0.4612 -0.1230 -0.0419
  640MPD2    H7 9484   1.205   4.589  10.211 -0.5750 -0.3467 -0.5224
  641TMC3    C1 9485   1.342   4.629  10.022 -0.0185 -0.6062 -0.6798
  641TMC3    C2 9486   1.319   4.490  10.026 -0.5826  0.1744 -0.8898
  641TMC3    C3 9487   1.416   4.406   9.976 -0.2838  1.1252 -0.4228
  641TMC3    C4 9488   1.460   4.673   9.963 -0.0887  0.1746  0.0855
  641TMC3    C5 9489   1.543   4.582   9.906  0.3144 -0.7176  0.6364
  641TMC3    C6 9490   1.527   4.445   9.913 -0.7551  0.2501  0.2314
  641TMC3     C 9491   1.243   0.002  10.071  0.1530  0.4602  0.2112
  641TMC3     O 9492   1.248   0.111  10.028  0.8652  0.5476 -0.4424
  641TMC3     H 9493   1.229   4.442  10.064 -0.5247  1.1068  0.4477
  641TMC3    H1 9494   1.468   0.057   9.942  0.5168  0.1074 -0.0041
  641TMC3    H2 9495   1.593   4.377   9.861  0.7301  1.5252  0.4631
  641TMC3    C7 9496   1.663   4.622   9.851  0.4457 -0.7704 -0.1561
  641TMC3    C8 9497   1.381   4.266   9.984  0.3583 -0.1159  0.4591
  641TMC3    O1 9498   1.748   4.540   9.818  0.9748 -0.3964  0.0269
  641TMC3    O2 9499   1.265   4.240   9.993 -0.5009  0.4432  0.7518
  642TMC3    C1 9500   2.004   1.388  12.164  0.6768 -0.0748  0.0077
  642TMC3    C2 9501   2.035   1.424  12.288  0.3173 -0.2780 -0.3291
  642TMC3    C3 9502   2.042   1.325  12.383 -0.0167 -0.0627 -0.1736
  642TMC3    C4 9503   1.978   1.263  12.130  0.0238  0.6178 -0.2331
  642TMC3    C5 9504   1.979   1.167  12.221 -0.1740 -0.0755  0.0219
  642TMC3    C6 9505   2.019   1.197  12.354 -0.1689 -1.2252 -0.2970
  642TMC3     C 9506   1.923   1.490  12.097  0.3851 -0.7380  0.7627
  642TMC3     O 9507   1.957   1.540  11.991  0.2783  0.4880 -0.3347
  642TMC3     H 9508   2.042   1.531  12.305 -1.6967  0.0894 -1.8739
  642TMC3    H1 9509   1.962   1.236  12.027  0.1355  2.2939 -0.6790
  642TMC3    H2 9510   2.040   1.118  12.426 -0.1137  1.0232  2.1416
  642TMC3    C7 9511   1.878   1.067  12.199 -0.3313  0.2994 -0.1897
  642TMC3    C8 9512   2.142   1.347  12.483  0.0773  0.0808  0.6018
  642TMC3    O1 9513   1.818   1.074  12.090 -0.4101  0.0663 -0.6350
  642TMC3    O2 9514   2.233   1.263  12.497  0.0223  0.4496  0.3075
  643TMC3    C1 9515   1.023   0.426   0.563  0.2660 -0.4180 -0.3910
  643TMC3    C2 9516   0.927   0.383   0.475  0.6505 -0.5059 -0.4587
  643TMC3    C3 9517   0.951   0.278   0.388 -0.3208  0.2905 -0.5901
  643TMC3    C4 9518   1.145   0.356   0.561  0.3464 -0.8737  0.3994
  643TMC3    C5 9519   1.176   0.272   0.459 -0.5112 -0.4618 -0.1451
  643TMC3    C6 9520   1.078   0.215   0.380 -0.4971  0.0767  0.1485
  643TMC3     C 9521   1.040   0.569   0.533  0.7528 -0.0619 -0.1442
  643TMC3     O 9522   0.996   0.612   0.428 -0.2493 -0.0236  0.7194
  643TMC3     H 9523   0.829   0.427   0.480  0.9324  0.4364 -3.0493
  643TMC3    H1 9524   1.231   0.395   0.615 -0.5531  2.2832 -0.4869
  643TMC3    H2 9525   1.098   0.146   0.299  0.0432 -0.9927  1.2117
  643TMC3    C7 9526   1.287   0.324   0.382  0.2033  0.0295 -0.8075
  643TMC3    C8 9527   0.901   0.293   0.250  0.4497  0.5488 -0.6815
  643TMC3    O1 9528   1.259   0.377   0.280  0.1723  0.6182 -0.0662
  643TMC3    O2 9529   0.877   0.183   0.191 -0.1327 -0.3302 -0.1718
  644MPD2     C 9530   2.032   0.969   9.623  0.1689  0.2186 -0.9793
  644MPD2    C1 9531   1.944   0.869   9.632 -0.7710 -0.2893  0.5294
  644MPD2    C2 9532   1.812   0.888   9.583 -0.5438 -0.6396  0.0704
  644MPD2    C3 9533   1.776   1.019   9.534  0.2194  0.1453 -0.1143
  644MPD2    C4 9534   1.870   1.117   9.526 -0.9880  0.0782  0.5591
  644MPD2    C5 9535   1.998   1.085   9.567 -0.2480 -0.4535  0.2604
  644MPD2     H 9536   1.741   0.807   9.578  0.0026 -1.0671 -0.8056
  644MPD2    H1 9537   1.859   1.216   9.483  1.7899  0.0539 -0.2444
  644MPD2    H2 9538   2.135   0.956   9.652 -0.5937 -0.4251  1.4228
  644MPD2    H3 9539   2.077   1.159   9.559 -1.4242  0.6095 -1.3967
  644MPD2     N 9540   1.643   1.050   9.500 -0.7252  0.4296  0.0167
  644MPD2    H5 9541   1.577   0.973   9.498 -0.2871  0.0108  1.5230
  644MPD2    N1 9542   1.988   0.757   9.700 -0.0471 -0.2966 -0.4332
  644MPD2    H7 9543   2.088   0.759   9.717  0.2420  0.1549 -2.1380
  645TMC3    C1 9544   1.462   1.166   9.420 -0.0479  0.3034 -0.4210
  645TMC3    C2 9545   1.389   1.278   9.437 -0.6190  0.2867  0.0034
  645TMC3    C3 9546   1.259   1.288   9.386  0.2272  0.2836  0.3413
  645TMC3    C4 9547   1.408   1.055   9.356  0.0063  0.0555 -0.1306
  645TMC3    C5 9548   1.280   1.067   9.301 -0.3889 -0.2002 -0.4962
  645TMC3    C6 9549   1.201   1.181   9.320  0.3028  0.4234 -0.2533
  645TMC3     C 9550   1.597   1.176   9.467 -0.1143 -0.3358 -0.3525
  645TMC3     O 9551   1.642   1.288   9.471  0.1641  0.0172  0.1131
  645TMC3     H 9552   1.421   1.353   9.508 -1.0609 -0.6786  1.2325
  645TMC3    H1 9553   1.468   0.971   9.323 -0.6980 -0.2180 -0.7067
  645TMC3    H2 9554   1.110   1.182   9.261  0.4151  0.4799 -0.4230
  645TMC3    C7 9555   1.215   0.961   9.223  0.8098 -0.2468 -0.1618
  645TMC3    C8 9556   1.168   1.392   9.425 -0.4562  0.1163 -0.3853
  645TMC3    O1 9557   1.100   0.972   9.189  0.3549 -0.3099 -0.1615
  645TMC3    O2 9558   1.054   1.365   9.401 -0.8058 -0.1346  0.3643
  646MPD2     C 9559   0.736   0.110  14.789 -0.0087 -0.0142 -0.0257
  646MPD2    C1 9560   0.627   0.079  14.865  0.1788  0.4673 -0.3206
  646MPD2    C2 9561   0.508   0.127  14.811  0.4599 -0.0517 -0.0497
  646MPD2    C3 9562   0.499   0.199  14.692  0.5687 -0.1137 -0.3154
  646MPD2    C4 9563   0.615   0.236  14.631  0.9242  0.3915  0.1753
  646MPD2    C5 9564   0.728   0.169  14.664 -0.0558  0.0026 -0.5833
  646MPD2     H 9565   0.414   0.104  14.860  0.4246 -1.0682 -0.5846
  646MPD2    H1 9566   0.622   0.293  14.539  1.2689  1.5837  0.9401
  646MPD2    H2 9567   0.836   0.084  14.819 -0.1370 -0.8227 -0.3039
  646MPD2    H3 9568   0.816   0.189  14.604  0.6499  0.7246  0.6904
  646MPD2     N 9569   0.373   0.246  14.651 -0.1782 -0.1215  0.7418
  646MPD2    H5 9570   0.295   0.219  14.710 -0.8075 -0.1903 -0.1126
  646MPD2    N1 9571   0.651   0.012  14.985 -0.5815 -0.5183  0.2943
  646MPD2    H7 9572   0.740   4.695  15.013 -0.7094 -1.0051 -0.0010
  647TMC3    C1 9573   0.601   4.659  15.195  0.4875 -0.3287 -0.0703
  647TMC3    C2 9574   0.517   4.576  15.270  0.1224 -0.2020 -0.3491
  647TMC3    C3 9575   0.553   4.540  15.394 -0.3029  0.1441 -0.1752
  647TMC3    C4 9576   0.722   4.699  15.251  0.2237  0.3033  0.2626
  647TMC3    C5 9577   0.754   4.655  15.382 -0.8214  0.0117  0.8326
  647TMC3    C6 9578   0.675   4.569  15.447  0.1736  0.7692  0.1754
  647TMC3     C 9579   0.548   4.704  15.071  0.2661  0.1139  1.2887
  647TMC3     O 9580   0.431   4.704  15.052 -0.0955  0.2741  0.0447
  647TMC3     H 9581   0.424   4.539  15.228  0.5615  0.9956 -2.4075
  647TMC3    H1 9582   0.787   0.039  15.191  1.4101 -1.5443 -0.3951
  647TMC3    H2 9583   0.700   4.546  15.550 -1.0912 -0.3183  0.2381
  647TMC3    C7 9584   0.890   4.658  15.423 -0.1621 -0.5251  0.2514
  647TMC3    C8 9585   0.503   4.419  15.455  0.1278  0.3454  0.9887
  647TMC3    O1 9586   0.935   4.569  15.493 -0.0118  0.1990  0.5467
  647TMC3    O2 9587   0.522   4.397  15.574 -0.7469  0.1261 -0.0900
  648TMC3    C1 9588   4.589   2.494  16.137 -0.1226  0.2918 -0.3152
  648TMC3    C2 9589   4.578   2.364  16.113 -0.8977  0.1038 -0.1187
  648TMC3    C3 9590   4.572   2.323  15.986  0.2353  0.1919 -0.7013
  648TMC3    C4 9591   4.584   2.580  16.037 -0.1563  0.2333  0.0163
  648TMC3    C5 9592   4.588   2.538  15.906 -0.2844 -0.7834 -0.4030
  648TMC3    C6 9593   4.586   2.407  15.875 -0.1893 -0.3987  0.2464
  648TMC3     C 9594   4.610   2.548  16.271  0.1629 -0.3976 -0.3340
  648TMC3     O 9595   4.604   2.668  16.296  0.2842 -0.6832 -0.5378
  648TMC3     H 9596   4.551   2.300  16.196 -0.2258  1.7144  1.3501
  648TMC3    H1 9597   4.591   2.685  16.062 -1.4274  0.2460  0.3157
  648TMC3    H2 9598   4.574   2.373  15.773 -0.4354 -0.4931  0.3053
  648TMC3    C7 9599   4.520   2.616  15.804  0.6914 -0.1818 -0.0311
  648TMC3    C8 9600   4.549   2.177  15.968  0.7264 -0.2336  0.5027
  648TMC3    O1 9601   4.509   2.578  15.688  0.3550 -0.1184  0.5607
  648TMC3    O2 9602   4.447   2.125  16.009  0.5734 -0.2908 -0.0727
  649TMC3    C1 9603   3.257   3.398  12.676 -0.2871 -0.3590  0.4908
  649TMC3    C2 9604   3.351   3.488  12.642  0.1939  0.3108 -0.4082
  649TMC3    C3 9605   3.441   3.528  12.739  0.2731 -0.0786 -0.1996
  649TMC3    C4 9606   3.255   3.334  12.794 -0.5152  0.3215  0.6808
  649TMC3    C5 9607   3.357   3.361  12.884 -0.0450  0.1502  0.8732
  649TMC3    C6 9608   3.444   3.467  12.858 -0.2009  0.1089  0.4762
  649TMC3     C 9609   3.122   3.413  12.610  0.7289 -0.2285  0.6151
  649TMC3     O 9610   3.021   3.398  12.676  0.1325  0.0735 -0.4972
  649TMC3     H 9611   3.337   3.553  12.556 -0.7528  0.8324  0.1400
  649TMC3    H1 9612   3.179   3.258  12.812 -0.8491  0.9286  1.7780
  649TMC3    H2 9613   3.512   3.506  12.933  0.3974  1.6612 -0.8751
  649TMC3    C7 9614   3.363   3.285  13.009  0.6698 -0.0560 -0.4826
  649TMC3    C8 9615   3.537   3.632  12.723  0.6055  0.4926  0.5568
  649TMC3    O1 9616   3.416   3.338  13.106  0.0653  0.4809  0.0985
  649TMC3    O2 9617   3.608   3.655  12.817  0.5860 -0.3459  0.0741
  650TMC3    C1 9618   1.478   0.696  12.830  0.4013  0.0871 -1.1252
  650TMC3    C2 9619   1.418   0.818  12.826 -0.8724  0.1402  0.4208
  650TMC3    C3 9620   1.293   0.818  12.769 -0.1618 -0.2325 -0.5519
  650TMC3    C4 9621   1.416   0.581  12.772  0.0654 -0.1143  0.0947
  650TMC3    C5 9622   1.295   0.595  12.709 -0.1167 -0.2979 -0.2121
  650TMC3    C6 9623   1.228   0.718  12.706 -1.0072  0.4713  0.1518
  650TMC3     C 9624   1.598   0.682  12.914  0.7455 -0.4313  0.0429
  650TMC3     O 9625   1.641   0.781  12.974  0.0312 -0.2945 -0.3416
  650TMC3     H 9626   1.469   0.901  12.873  0.9153 -0.3921 -0.5679
  650TMC3    H1 9627   1.466   0.484  12.765  0.6574  0.2973 -1.3961
  650TMC3    H2 9628   1.132   0.740  12.661 -1.5497  0.6335  1.3800
  650TMC3    C7 9629   1.298   0.517  12.585 -0.4724  0.2242 -0.1036
  650TMC3    C8 9630   1.238   0.954  12.761 -0.1643  0.6272 -0.1854
  650TMC3    O1 9631   1.342   0.407  12.581  0.4192  0.1019 -0.1233
  650TMC3    O2 9632   1.314   1.050  12.770 -0.2893  0.5947 -0.2277
  651MPD2     C 9633   0.140   2.039  10.780 -0.1159 -0.3223 -0.5729
  651MPD2    C1 9634   0.105   2.169  10.811 -0.1238  0.5212  0.1877
  651MPD2    C2 9635   0.201   2.268  10.815  0.6442 -0.7770 -0.3587
  651MPD2    C3 9636   0.333   2.234  10.792 -0.0918  0.5902 -0.0106
  651MPD2    C4 9637   0.371   2.105  10.777 -0.5086  0.0653  0.0111
  651MPD2    C5 9638   0.273   2.007  10.768  0.0008  0.7745 -0.0956
  651MPD2     H 9639   0.169   2.369  10.837 -0.2687 -0.9361 -0.9456
  651MPD2    H1 9640   0.475   2.079  10.767 -0.4747  0.3231 -0.3215
  651MPD2    H2 9641   0.073   1.956  10.766 -1.1799  0.3859  0.3307
  651MPD2    H3 9642   0.304   1.908  10.740 -0.2258  0.3999  0.9571
  651MPD2     N 9643   0.430   2.331  10.804  0.1127 -0.4677  0.3817
  651MPD2    H5 9644   0.393   2.425  10.810  1.5475  0.0201  1.5250
  651MPD2    N1 9645   4.697   2.203  10.848 -0.6542  0.2369  0.3122
  651MPD2    H7 9646   4.683   2.303  10.859 -2.5020  0.1089 -0.8413
  652TMC3    C1 9647   0.858   2.539  10.786 -0.0997 -0.1746  0.2364
  652TMC3    C2 9648   0.786   2.429  10.790  0.4140  0.2720  0.4520
  652TMC3    C3 9649   0.654   2.435  10.825 -0.2435 -0.1268 -0.3973
  652TMC3    C4 9650   0.806   2.658  10.832 -0.0891  0.4867 -0.1027
  652TMC3    C5 9651   0.671   2.670  10.867  0.4681  0.4940 -0.2585
  652TMC3    C6 9652   0.593   2.553  10.860 -0.1034  0.6536 -0.4876
  652TMC3     C 9653   0.994   2.527  10.799 -0.1561  0.3051  0.4349
  652TMC3     O 9654   1.032   2.430  10.865 -0.2584  0.1918  0.3522
  652TMC3     H 9655   0.826   2.337  10.748 -0.3650  0.7575 -1.3716
  652TMC3    H1 9656   0.873   2.741  10.848  1.1271 -0.7956  1.6277
  652TMC3    H2 9657   0.493   2.559  10.902 -0.3117 -0.2282 -0.8554
  652TMC3    C7 9658   0.641   2.750  10.982 -0.4465 -0.4133  0.3686
  652TMC3    C8 9659   0.569   2.316  10.830 -0.1490  0.0064 -0.7245
  652TMC3    O1 9660   0.578   2.698  11.070 -0.3891  0.2311  0.1906
  652TMC3    O2 9661   0.634   2.213  10.839  0.4736 -0.5024  0.0152
  653MPD2     C 9662   4.094   2.325   0.250 -0.4370  0.1690  0.6846
  653MPD2    C1 9663   4.036   2.448   0.223 -0.4450  0.0830 -0.1624
  653MPD2    C2 9664   3.911   2.445   0.162 -0.6984  0.1379  0.5188
  653MPD2    C3 9665   3.844   2.326   0.129  0.3944  0.0065  0.5030
  653MPD2    C4 9666   3.902   2.201   0.165  0.4064  0.0895  0.4697
  653MPD2    C5 9667   4.028   2.210   0.215 -0.1427  0.2535 -0.4798
  653MPD2     H 9668   3.876   2.540   0.122  0.7252 -0.3076 -1.8145
  653MPD2    H1 9669   3.858   2.104   0.148  0.9168 -0.0124 -0.2701
  653MPD2    H2 9670   4.189   2.306   0.300 -0.3358 -0.6215  0.1988
  653MPD2    H3 9671   4.075   2.118   0.249  2.3951  1.7555  0.1057
  653MPD2     N 9672   3.712   2.329   0.069 -0.2989  0.0076  0.3764
  653MPD2    H5 9673   3.667   2.419   0.057 -1.9001 -0.6189  1.6682
  653MPD2    N1 9674   4.082   2.569   0.262  0.0401  0.1589 -0.0186
  653MPD2    H7 9675   4.042   2.654   0.223  0.6430  0.8711  0.8978
  654TMC3    C1 9676   3.526   2.254  17.628  0.2426 -0.0845  0.2061
  654TMC3    C2 9677   3.510   2.376  17.576  0.4754  0.4467 -0.1292
  654TMC3    C3 9678   3.460   2.400  17.452  0.9256 -0.5983  0.0922
  654TMC3    C4 9679   3.476   2.152  17.554  0.3735 -0.2115 -0.6626
  654TMC3    C5 9680   3.425   2.173  17.426  0.1209  0.2008  0.1401
  654TMC3    C6 9681   3.412   2.298  17.376  0.7159 -0.2650  0.4762
  654TMC3     C 9682   3.641   2.220   0.027  0.0086 -0.1053  0.0734
  654TMC3     O 9683   3.664   2.103   0.055  0.2068 -0.0947 -0.3362
  654TMC3     H 9684   3.545   2.460  17.634 -1.5350  0.7161  0.6786
  654TMC3    H1 9685   3.492   2.051  17.591  2.0888 -0.2708 -1.5323
  654TMC3    H2 9686   3.380   2.313  17.274 -0.4229 -1.4449  0.6620
  654TMC3    C7 9687   3.378   2.061  17.351  0.0819  0.0400  0.9225
  654TMC3    C8 9688   3.411   2.526  17.412  0.7875  0.0977 -0.1939
  654TMC3    O1 9689   3.305   2.090  17.258  0.1914 -0.2931 -0.5435
  654TMC3    O2 9690   3.316   2.537  17.334  0.5398 -0.0531  0.3011
  655MPD2     C 9691   0.285   2.470  15.611  0.5585 -0.0686 -0.3019
  655MPD2    C1 9692   0.181   2.540  15.550  0.5648  0.2331 -0.2371
  655MPD2    C2 9693   0.136   2.495  15.429  0.3451  0.2864 -0.2932
  655MPD2    C3 9694   0.185   2.375  15.374  0.3497  0.2353 -0.1726
  655MPD2    C4 9695   0.272   2.299  15.444  0.2546  0.0962 -0.2711
  655MPD2    C5 9696   0.324   2.347  15.563 -0.8466 -0.2547  0.0502
  655MPD2     H 9697   0.049   2.535  15.379 -1.4781 -1.4730  1.4596
  655MPD2    H1 9698   0.309   2.204  15.408  1.0176 -0.6750  2.4945
  655MPD2    H2 9699   0.333   2.508  15.700 -1.8920 -1.2661  1.5517
  655MPD2    H3 9700   0.404   2.296  15.615 -1.7011 -0.0399  1.5932
  655MPD2     N 9701   0.141   2.331  15.250  0.4722  0.3042  0.5254
  655MPD2    H5 9702   0.169   2.236  15.229  0.7130  0.0577  1.9986
  655MPD2    N1 9703   0.127   2.662  15.603  0.1334  0.4781 -0.3775
  655MPD2    H7 9704   0.049   2.706  15.554  1.2899  2.0515 -0.8295
  656TMC3    C1 9705   0.123   2.850  15.727 -0.1125  0.0913  0.3299
  656TMC3    C2 9706   0.097   2.896  15.849  0.1778 -0.0661  0.3455
  656TMC3    C3 9707   0.025   3.013  15.864 -0.1259 -0.3037  0.4871
  656TMC3    C4 9708   0.074   2.918  15.617 -0.3063  0.9298  0.4463
  656TMC3    C5 9709   4.718   3.027  15.632 -0.3653 -0.0002  0.0206
  656TMC3    C6 9710   4.698   3.080  15.755 -1.1672 -0.5435  0.2829
  656TMC3     C 9711   0.175   2.724  15.716  0.4595 -0.0841 -0.0338
  656TMC3     O 9712   0.239   2.679  15.804  0.5795 -0.2485 -0.3018
  656TMC3     H 9713   0.139   2.852  15.939 -0.1745 -1.0495  0.0315
  656TMC3    H1 9714   0.089   2.885  15.515  1.0164  0.9083  0.6580
  656TMC3    H2 9715   4.644   3.173  15.768  0.3944  0.4964 -0.6052
  656TMC3    C7 9716   4.645   3.080  15.517  0.0023  0.3481 -0.0153
  656TMC3    C8 9717   4.678   3.018  15.989  0.5186 -0.1342 -0.2872
  656TMC3    O1 9718   4.680   3.029  15.411  0.4411 -0.3354 -0.5921
  656TMC3    O2 9719   4.666   2.907  16.040 -0.3610 -0.2498  0.5172
  657TMC3    C1 9720   3.919   1.973  15.006 -0.1592  0.5223  0.1777
  657TMC3    C2 9721   3.974   2.006  15.125 -0.3308  0.1773  0.1102
  657TMC3    C3 9722   3.908   2.093  15.203  0.0245  0.1413 -0.5134
  657TMC3    C4 9723   3.799   2.023  14.956 -0.3371 -0.0682  0.0565
  657TMC3    C5 9724   3.736   2.110  15.044 -0.4075 -0.2451 -0.3093
  657TMC3    C6 9725   3.794   2.153  15.164 -0.2203 -0.6978 -0.6258
  657TMC3     C 9726   3.987   1.870  14.935  0.2204  0.4424 -0.0818
  657TMC3     O 9727   3.904   1.811  14.867 -0.3189  0.3146 -0.1762
  657TMC3     H 9728   4.067   1.962  15.162 -0.0032  0.9248  0.1657
  657TMC3    H1 9729   3.737   1.968  14.885  1.7045 -0.8587 -1.1068
  657TMC3    H2 9730   3.739   2.212  15.237 -0.4738 -0.4152 -1.0406
  657TMC3    C7 9731   3.619   2.175  14.992  0.8065  0.5108  0.1047
  657TMC3    C8 9732   3.983   2.148  15.311 -0.2692  0.6023  0.2681
  657TMC3    O1 9733   3.568   2.133  14.892  0.2095  0.7104  0.3012
  657TMC3    O2 9734   4.063   2.061  15.358 -0.2115 -0.0154 -0.0368
  658MPD2     C 9735   0.562   1.992  14.881  0.2684 -1.7170 -0.5957
  658MPD2    C1 9736   0.465   2.056  14.811 -0.3971 -0.4419  0.5924
  658MPD2    C2 9737   0.489   2.099  14.684  0.6143  0.2352  0.1586
  658MPD2    C3 9738   0.609   2.094  14.622  0.3178  0.5699 -0.1151
  658MPD2    C4 9739   0.712   2.037  14.698 -0.0528 -0.0712 -0.6165
  658MPD2    C5 9740   0.690   1.982  14.824 -0.1759  0.0562 -0.2746
  658MPD2     H 9741   0.408   2.148  14.630  2.0597 -0.5996 -2.7845
  658MPD2    H1 9742   0.813   2.020  14.661  0.2769  0.6744 -0.0616
  658MPD2    H2 9743   0.546   1.965  14.985 -1.8975 -0.3516 -0.5841
  658MPD2    H3 9744   0.766   1.938  14.887 -0.6626  0.3607  0.5146
  658MPD2     N 9745   0.625   2.151  14.494  0.1519 -0.4428  0.5165
  658MPD2    H5 9746   0.542   2.181  14.444  0.2364 -1.5462 -0.2821
  658MPD2    N1 9747   0.342   2.082  14.877  0.4499  0.4077 -0.9476
  658MPD2    H7 9748   0.336   2.063  14.976 -2.6693 -0.7523 -1.3744
  659TMC3    C1 9749   0.115   2.138  14.919  0.2937  0.3019  0.4722
  659TMC3    C2 9750   0.131   2.228  15.020  0.0412  0.6612  0.1230
  659TMC3    C3 9751   0.031   2.308  15.052 -0.2027  0.1207  0.8300
  659TMC3    C4 9752   4.718   2.139  14.855 -0.1061 -0.1052 -0.1704
  659TMC3    C5 9753   4.627   2.233  14.888 -0.1888 -0.8870 -0.2415
  659TMC3    C6 9754   4.634   2.314  14.993  0.2138  0.0649  0.0326
  659TMC3     C 9755   0.221   2.122  14.822 -0.2191 -0.1062 -0.5978
  659TMC3     O 9756   0.187   2.153  14.707  0.1659 -0.0900 -0.0462
  659TMC3     H 9757   0.231   2.258  15.047  1.0032 -2.7340  0.3556
  659TMC3    H1 9758   4.707   2.071  14.771  3.1406 -1.2466  0.3269
  659TMC3    H2 9759   4.559   2.389  15.016 -1.1644 -1.0331 -0.8919
  659TMC3    C7 9760   4.502   2.242  14.808  1.2603 -0.0291 -0.4326
  659TMC3    C8 9761   0.055   2.393  15.162 -0.2675 -0.1484 -0.0710
  659TMC3    O1 9762   4.423   2.335  14.826  0.0367  0.3972  0.4973
  659TMC3    O2 9763   4.704   2.489  15.170  0.1337 -0.1127  0.1383
  660MPD2     C 9764   3.506   0.988  12.993 -0.7686 -0.0655 -0.4320
  660MPD2    C1 9765   3.392   0.965  12.918  0.2174  0.3908 -0.1814
  660MPD2    C2 9766   3.286   0.901  12.981  0.1471  0.3831  0.1534
  660MPD2    C3 9767   3.279   0.868  13.120 -0.5627  0.0333 -0.3469
  660MPD2    C4 9768   3.391   0.909  13.192 -0.3654 -0.7631  0.2772
  660MPD2    C5 9769   3.502   0.954  13.126 -0.2497 -0.0778  0.1735
  660MPD2     H 9770   3.204   0.879  12.913  1.4656 -1.4703 -0.8391
  660MPD2    H1 9771   3.394   0.894  13.300  2.1905  1.1932  0.4774
  660MPD2    H2 9772   3.593   1.038  12.954  0.8259 -2.8327 -0.4065
  660MPD2    H3 9773   3.584   0.978  13.193  1.5781  1.8950 -2.8022
  660MPD2     N 9774   3.164   0.811  13.185  0.5810 -0.6703 -0.5454
  660MPD2    H5 9775   3.178   0.795  13.285 -1.0203 -0.2065 -0.2405
  660MPD2    N1 9776   3.383   1.007  12.786 -0.3609  0.5183  0.5099
  660MPD2    H7 9777   3.467   1.033  12.734  0.7484 -1.9609  1.0653
  661TMC3    C1 9778   3.290   1.065  12.573  0.7314 -0.1441 -0.3717
  661TMC3    C2 9779   3.382   0.995  12.500 -0.2290 -0.1461 -0.3754
  661TMC3    C3 9780   3.369   1.007  12.361 -0.3809  0.4775 -0.2207
  661TMC3    C4 9781   3.187   1.131  12.520 -0.0376 -0.1853 -0.5838
  661TMC3    C5 9782   3.175   1.139  12.384 -0.3745 -0.2591 -0.1160
  661TMC3    C6 9783   3.267   1.085  12.303 -0.1695 -0.6982 -0.0424
  661TMC3     C 9784   3.267   1.024  12.713 -0.1172 -0.0318 -0.0422
  661TMC3     O 9785   3.149   1.032  12.751  0.7095 -0.5425  0.0601
  661TMC3     H 9786   3.437   0.917  12.550 -0.4738  0.9284  1.5488
  661TMC3    H1 9787   3.106   1.160  12.586  1.9629 -1.2219  2.2927
  661TMC3    H2 9788   3.262   1.095  12.195  0.3182  1.5951  0.1559
  661TMC3    C7 9789   3.053   1.188  12.327 -0.0637 -0.3934  0.3940
  661TMC3    C8 9790   3.475   0.966  12.270 -0.4666  0.2649 -0.1003
  661TMC3    O1 9791   3.035   1.160  12.208 -0.5057  0.7702 -0.2223
  661TMC3    O2 9792   3.467   1.010  12.156 -0.0334 -0.0068  0.2127
  662MPD2     C 9793   3.254   0.482  16.984 -0.1186 -0.1721 -0.9756
  662MPD2    C1 9794   3.269   0.577  17.087 -1.1446  0.2927  0.4313
  662MPD2    C2 9795   3.226   0.705  17.076  0.3951 -0.2374  0.0026
  662MPD2    C3 9796   3.173   0.748  16.957 -0.2963  0.3701  0.0812
  662MPD2    C4 9797   3.191   0.667  16.848 -0.6350 -0.5690 -0.1352
  662MPD2    C5 9798   3.235   0.537  16.862  0.3903 -0.1173  0.0401
  662MPD2     H 9799   3.237   0.767  17.163  0.0772  0.1941 -0.2664
  662MPD2    H1 9800   3.175   0.710  16.750  0.9954 -1.7181 -0.9113
  662MPD2    H2 9801   3.289   0.380  16.997 -4.1844 -1.8704 -3.2642
  662MPD2    H3 9802   3.237   0.472  16.775  0.0374 -0.4955  0.3214
  662MPD2     N 9803   3.136   0.877  16.934 -0.0315 -0.5363  0.0856
  662MPD2    H5 9804   3.116   0.901  16.838  0.3959  0.4211  0.2368
  662MPD2    N1 9805   3.311   0.544  17.218  0.0771 -0.8802  0.3550
  662MPD2    H7 9806   3.336   0.622  17.277 -0.6918 -0.9830  0.8132
  663TMC3    C1 9807   3.388   0.430  17.409 -0.2324  0.5097  0.0950
  663TMC3    C2 9808   3.434   0.553  17.442  0.0777  0.8545  0.3648
  663TMC3    C3 9809   3.452   0.575  17.576 -0.4209  0.3646 -0.1504
  663TMC3    C4 9810   3.367   0.328  17.496 -0.5305 -0.2669  0.0523
  663TMC3    C5 9811   3.373   0.355  17.628  0.5096  0.6332 -0.0039
  663TMC3    C6 9812   3.392   0.487  17.668  0.8591  0.1139 -0.6101
  663TMC3     C 9813   3.328   0.422  17.270 -0.0185 -0.3916  0.6647
  663TMC3     O 9814   3.295   0.312  17.222 -0.2506 -0.0650 -0.0953
  663TMC3     H 9815   3.501   0.602  17.372 -1.6735  0.0228 -1.9053
  663TMC3    H1 9816   3.327   0.233  17.462  0.7225 -1.1054  0.9041
  663TMC3    H2 9817   3.412   0.503   0.081  0.8691 -2.3930 -0.2465
  663TMC3    C7 9818   3.293   0.277   0.027  0.1201  0.4274 -0.5545
  663TMC3    C8 9819   3.413   0.705  17.621  0.4676  0.3937 -0.4411
  663TMC3    O1 9820   3.217   0.340   0.100  0.3689  0.1622 -0.0009
  663TMC3    O2 9821   3.421   0.731   0.048  0.2445  0.1478  0.4814
  664MPD2     C 9822   1.541   3.704  17.500 -0.1729 -0.1099 -0.6203
  664MPD2    C1 9823   1.522   3.841  17.525 -0.1922  0.3815  0.7323
  664MPD2    C2 9824   1.520   3.883  17.659  0.6448 -0.0284  0.5129
  664MPD2    C3 9825   1.551   3.794   0.071  0.3286 -0.8394  0.1361
  664MPD2    C4 9826   1.563   3.659   0.044  0.7889 -0.5482  0.2207
  664MPD2    C5 9827   1.553   3.623  17.608  0.1129  0.7408 -0.3052
  664MPD2     H 9828   1.520   3.989  17.682  2.0735 -0.1774  1.1667
  664MPD2    H1 9829   1.572   3.576   0.113 -1.8195 -0.3770  0.7763
  664MPD2    H2 9830   1.561   3.657  17.405 -1.2426 -2.6017  0.3923
  664MPD2    H3 9831   1.575   3.520  17.580 -0.5690  0.4750  0.1519
  664MPD2     N 9832   1.563   3.851   0.198 -0.2760  0.3131  0.2597
  664MPD2    H5 9833   1.543   3.949   0.212 -1.1644 -0.0905  1.7753
  664MPD2    N1 9834   1.522   3.940  17.429 -0.1517 -0.1223  0.0727
  664MPD2    H7 9835   1.502   4.037  17.451 -0.3620 -0.5171  1.6657
  665TMC3    C1 9836   1.603   3.868   0.427 -0.0952 -0.2204  0.2607
  665TMC3    C2 9837   1.687   3.817   0.518 -0.4018  0.8852  0.3016
  665TMC3    C3 9838   1.705   3.906   0.619  0.7576  0.4867 -1.0187
  665TMC3    C4 9839   1.532   3.985   0.427 -0.5996  0.1819  0.3076
  665TMC3    C5 9840   1.570   4.078   0.521  0.1708  0.1964  0.5688
  665TMC3    C6 9841   1.653   4.036   0.621 -0.9045  0.7047  0.1080
  665TMC3     C 9842   1.580   3.778   0.314 -0.6236  0.2235  0.4014
  665TMC3     O 9843   1.599   3.659   0.331 -0.3518  0.2640 -0.3765
  665TMC3     H 9844   1.723   3.715   0.507  1.3664  1.6332 -0.9942
  665TMC3    H1 9845   1.469   4.008   0.341  1.0854 -1.0835 -1.2605
  665TMC3    H2 9846   1.696   4.093   0.703 -2.2312  0.0434  1.2414
  665TMC3    C7 9847   1.533   4.214   0.497 -0.2242  0.0536 -0.1292
  665TMC3    C8 9848   1.774   3.850   0.735 -0.0609  0.1725  0.1241
  665TMC3    O1 9849   1.465   4.238   0.402  0.3102  0.0770 -0.0218
  665TMC3    O2 9850   1.865   3.772   0.714 -0.1550 -0.6516  0.0331
  666TMC3    C1 9851   0.616   3.544  10.199 -0.6126  0.4969  0.1195
  666TMC3    C2 9852   0.731   3.468  10.219  0.2940  0.3845  0.6016
  666TMC3    C3 9853   0.849   3.533  10.252  0.0101  1.1762 -0.8090
  666TMC3    C4 9854   0.615   3.677  10.202 -0.1499  0.8002 -0.4760
  666TMC3    C5 9855   0.734   3.738  10.229 -0.0145 -0.5931  0.1651
  666TMC3    C6 9856   0.848   3.667  10.254  0.2576  0.5262 -0.0470
  666TMC3     C 9857   0.492   3.485  10.150  0.3381 -0.4706  0.3152
  666TMC3     O 9858   0.411   3.549  10.086 -0.3574 -0.3625 -0.5023
  666TMC3     H 9859   0.723   3.360  10.227  0.1245  0.5629  3.0268
  666TMC3    H1 9860   0.529   3.740  10.180  1.5270  2.5531 -2.0602
  666TMC3    H2 9861   0.943   3.712  10.280  0.2839 -0.2975  1.2844
  666TMC3    C7 9862   0.728   3.887  10.224 -0.5715  0.6153  0.5206
  666TMC3    C8 9863   0.939   3.452  10.338  0.6219  0.1371 -0.2693
  666TMC3    O1 9864   0.619   3.941  10.203  0.1149  0.2279  0.2861
  666TMC3    O2 9865   0.880   3.399  10.431 -0.0755  0.3447 -0.1190
  667MPD2     C 9866   2.624   4.057  14.873 -0.0700 -0.2014  0.9701
  667MPD2    C1 9867   2.534   4.112  14.971  0.2838 -0.0507  0.5281
  667MPD2    C2 9868   2.405   4.057  14.977 -0.7161  0.3309  0.0978
  667MPD2    C3 9869   2.369   3.948  14.896 -0.4660 -0.1259  0.0121
  667MPD2    C4 9870   2.463   3.907  14.798  0.2183  0.1742  0.5097
  667MPD2    C5 9871   2.585   3.963  14.785 -0.8652 -0.0386 -0.1520
  667MPD2     H 9872   2.332   4.096  15.047 -2.1035  0.1419 -1.2413
  667MPD2    H1 9873   2.432   3.823  14.738  1.6903 -1.4670  2.0678
  667MPD2    H2 9874   2.722   4.100  14.859  0.6901 -2.3905 -0.4516
  667MPD2    H3 9875   2.655   3.925  14.711  0.0402  0.8519  0.2393
  667MPD2     N 9876   2.248   3.871  14.901  0.5156 -0.5771  0.0388
  667MPD2    H5 9877   2.224   3.807  14.825  0.0486 -1.9019  1.3107
  667MPD2    N1 9878   2.564   4.221  15.052 -0.0458 -0.4119  0.3059
  667MPD2    H7 9879   2.494   4.235  15.125 -0.7729 -1.9868 -0.1056
  668TMC3    C1 9880   2.669   4.417  15.147  0.1552 -0.3240  0.2228
  668TMC3    C2 9881   2.752   4.528  15.131 -0.0848  0.5333 -0.3760
  668TMC3    C3 9882   2.778   4.603  15.242 -0.0615 -0.0923  0.2369
  668TMC3    C4 9883   2.621   4.386  15.271 -0.1111 -0.3772  1.0825
  668TMC3    C5 9884   2.647   4.466  15.375  0.9061 -0.3242 -0.5660
  668TMC3    C6 9885   2.728   4.575  15.367 -0.3422  0.6660 -0.3985
  668TMC3     C 9886   2.664   4.312  15.035 -0.7005  0.0059 -0.4410
  668TMC3     O 9887   2.741   4.320  14.942  0.2141  0.2582 -0.0416
  668TMC3     H 9888   2.793   4.547  15.032  0.8964 -0.7528 -0.2134
  668TMC3    H1 9889   2.580   4.286  15.286  3.1150 -1.9893 -0.9909
  668TMC3    H2 9890   2.768   4.631  15.450  0.3617  0.6048 -0.6942
  668TMC3    C7 9891   2.583   4.436  15.501 -0.1957  0.1802  0.1089
  668TMC3    C8 9892   2.866   4.718  15.228  0.6113  0.2141 -0.0474
  668TMC3    O1 9893   2.627   4.501  15.594  0.3558 -0.0592  0.4573
  668TMC3    O2 9894   2.877   0.056  15.333 -0.3707  0.3792  0.3206
  669TMC3    C1 9895   0.459   3.712  14.572 -0.4045  0.8191 -0.2882
  669TMC3    C2 9896   0.353   3.776  14.504 -0.1565 -0.0043 -0.1031
  669TMC3    C3 9897   0.381   3.879  14.420  0.2527  0.3914  0.3204
  669TMC3    C4 9898   0.592   3.746  14.553 -0.5128 -0.5691  0.1842
  669TMC3    C5 9899   0.612   3.845  14.453  0.5512  0.1826 -0.1941
  669TMC3    C6 9900   0.507   3.901  14.385 -0.1468  0.3971 -0.3993
  669TMC3     C 9901   0.423   3.625  14.685 -0.1934 -0.0396 -0.1738
  669TMC3     O 9902   0.309   3.642  14.731 -0.3808 -0.2999  0.0024
  669TMC3     H 9903   0.249   3.754  14.528 -0.1049 -0.6457 -0.4634
  669TMC3    H1 9904   0.681   3.694  14.587 -1.8881 -2.8524  0.2297
  669TMC3    H2 9905   0.522   3.988  14.323 -0.8286  1.7956  1.4190
  669TMC3    C7 9906   0.746   3.899  14.444 -0.3172  0.1916  0.2390
  669TMC3    C8 9907   0.267   3.940  14.353  0.4566 -0.0621  0.5257
  669TMC3    O1 9908   0.821   3.904  14.540  0.2746  0.2636 -0.3487
  669TMC3    O2 9909   0.166   3.870  14.361 -0.7028 -0.6828 -0.1302
  670MPD2     C 9910   3.360   1.931  13.464 -0.0234  0.1581  0.0820
  670MPD2    C1 9911   3.452   1.942  13.571  0.2469  0.7837 -0.4687
  670MPD2    C2 9912   3.419   1.891  13.697 -0.1659 -0.9017 -0.3674
  670MPD2    C3 9913   3.300   1.823  13.713 -0.1580 -0.0288  0.1178
  670MPD2    C4 9914   3.215   1.808  13.603 -0.4376 -0.2877  0.4498
  670MPD2    C5 9915   3.246   1.860  13.480  0.0949  0.4265 -0.2991
  670MPD2     H 9916   3.490   1.905  13.778  2.7443 -2.3054 -2.6585
  670MPD2    H1 9917   3.133   1.741  13.623 -0.4122 -0.1774  0.9306
  670MPD2    H2 9918   3.382   1.958  13.361 -1.2061 -1.7775 -0.6759
  670MPD2    H3 9919   3.187   1.845  13.391  1.2861  1.8028 -1.3259
  670MPD2     N 9920   3.281   1.773  13.842  0.0616  0.3005  0.2971
  670MPD2    H5 9921   3.356   1.781  13.911  1.4275  0.0862 -1.1650
  670MPD2    N1 9922   3.559   2.028  13.569 -0.0902  0.1886  0.1429
  670MPD2    H7 9923   3.605   2.049  13.658 -0.7857 -2.0442  1.0124
  671TMC3    C1 9924   3.180   1.644  14.023  0.8170  1.0119 -0.1898
  671TMC3    C2 9925   3.307   1.632  14.072 -0.1743 -0.3506  0.4328
  671TMC3    C3 9926   3.320   1.554  14.187  0.4877  0.2596  0.3015
  671TMC3    C4 9927   3.065   1.604  14.094 -0.2412  0.1756 -0.8778
  671TMC3    C5 9928   3.084   1.534  14.211 -0.1698  0.1331  0.2860
  671TMC3    C6 9929   3.213   1.508  14.255  0.2229 -0.1301 -0.2271
  671TMC3     C 9930   3.166   1.707  13.887  0.1071 -0.3585  0.2467
  671TMC3     O 9931   3.053   1.687  13.837 -1.2799  0.3192  0.2073
  671TMC3     H 9932   3.393   1.628  14.006  0.6111  1.9941  1.3066
  671TMC3    H1 9933   2.970   1.639  14.056 -0.9017 -0.7301 -0.0383
  671TMC3    H2 9934   3.230   1.454  14.347  0.4544  0.8827  0.3311
  671TMC3    C7 9935   2.985   1.419  14.204 -0.1622 -0.2274 -0.2978
  671TMC3    C8 9936   3.442   1.481  14.201 -0.0847 -0.6646  0.2202
  671TMC3    O1 9937   2.922   1.418  14.100  0.2372  0.0140 -0.5126
  671TMC3    O2 9938   3.430   1.364  14.174  0.2835  0.0996  0.5622
  672MPD2     C 9939   3.701   1.708   1.640  0.7740 -0.3931  0.0221
  672MPD2    C1 9940   3.718   1.831   1.584  0.0016  0.9247  0.3673
  672MPD2    C2 9941   3.757   1.940   1.662  0.0037 -0.0316 -0.1482
  672MPD2    C3 9942   3.773   1.925   1.803  0.3292 -0.6992  0.3060
  672MPD2    C4 9943   3.764   1.798   1.857  0.2624  0.2190 -0.5753
  672MPD2    C5 9944   3.739   1.690   1.771  0.1800  0.2395  0.5091
  672MPD2     H 9945   3.753   2.038   1.616 -0.0395 -1.0201 -2.2793
  672MPD2    H1 9946   3.787   1.778   1.961 -3.2540  0.8614  0.3253
  672MPD2    H2 9947   3.692   1.621   1.576 -1.4176  1.1251 -1.7083
  672MPD2    H3 9948   3.757   1.588   1.803  2.6705  0.3212 -0.5424
  672MPD2     N 9949   3.797   2.036   1.893  0.1704 -0.7064  0.6528
  672MPD2    H5 9950   3.827   2.012   1.987 -0.2812  3.3272  1.8084
  672MPD2    N1 9951   3.693   1.851   1.442 -0.5684  0.7960  0.3024
  672MPD2    H7 9952   3.725   1.942   1.410  1.6867  0.5686  1.8443
  673TMC3    C1 9953   3.639   1.801   1.218  0.1802  0.3303 -0.1641
  673TMC3    C2 9954   3.756   1.847   1.167  0.1437  0.3447  0.1686
  673TMC3    C3 9955   3.756   1.858   1.028  0.5815 -0.2036 -0.4130
  673TMC3    C4 9956   3.523   1.779   1.151 -0.2637  0.0361  0.3117
  673TMC3    C5 9957   3.525   1.807   1.019  0.6938 -1.0107  0.2944
  673TMC3    C6 9958   3.643   1.855   0.959  0.2028 -0.1867  0.0181
  673TMC3     C 9959   3.635   1.760   1.357  0.4527  0.1770  0.4782
  673TMC3     O 9960   3.558   1.672   1.384  0.2310  0.0316  0.2014
  673TMC3     H 9961   3.848   1.839   1.223  1.4483  0.4329 -1.9809
  673TMC3    H1 9962   3.438   1.734   1.202 -0.9273 -1.5651 -2.2178
  673TMC3    H2 9963   3.654   1.868   0.852  1.3282  0.0884  0.1658
  673TMC3    C7 9964   3.391   1.841   0.966 -0.1666  0.6233  0.2511
  673TMC3    C8 9965   3.878   1.917   0.965  0.3439 -0.3132  0.7641
  673TMC3    O1 9966   3.299   1.789   1.032 -0.5472  0.7026 -0.5636
  673TMC3    O2 9967   3.868   1.965   0.852 -0.0898 -0.3853 -0.4862
  674MPD2     C 9968   3.205   2.182   0.275  0.4154 -0.8207  0.4440
  674MPD2    C1 9969   3.251   2.048   0.274 -0.4093  0.4701 -0.1770
  674MPD2    C2 9970   3.161   1.950   0.253 -0.4488 -0.4423  0.1615
  674MPD2    C3 9971   3.024   1.978   0.244 -0.4485  1.0302 -0.3094
  674MPD2    C4 9972   2.984   2.115   0.255  0.1289 -0.0737 -1.3348
  674MPD2    C5 9973   3.072   2.215   0.270  0.4658  0.6932  0.3847
  674MPD2     H 9974   3.199   1.849   0.239 -0.2555 -0.3315 -0.1210
  674MPD2    H1 9975   2.877   2.131   0.246  0.0197 -0.4614 -0.7429
  674MPD2    H2 9976   3.285   2.254   0.280  0.2892 -0.5932 -0.8278
  674MPD2    H3 9977   3.044   2.320   0.271 -1.8722  0.0766  0.1599
  674MPD2     N 9978   2.931   1.869   0.226  0.4807 -0.3706  0.1705
  674MPD2    H5 9979   2.973   1.778   0.214 -0.7750 -1.1562  1.5815
  674MPD2    N1 9980   3.390   2.035   0.302 -0.4992 -0.1956 -0.5771
  674MPD2    H7 9981   3.439   2.116   0.338 -0.1294 -0.2627 -0.9304
  675TMC3    C1 9982   3.582   1.934   0.361 -0.6793 -0.2201  0.4744
  675TMC3    C2 9983   3.637   1.819   0.401  0.3478 -0.9349  0.2704
  675TMC3    C3 9984   3.736   1.823   0.496  1.0831 -0.2963 -0.0095
  675TMC3    C4 9985   3.634   2.057   0.385 -0.1404 -0.1832  0.1525
  675TMC3    C5 9986   3.746   2.059   0.474 -0.0850  0.2925 -0.2446
  675TMC3    C6 9987   3.796   1.942   0.523  0.0477 -0.4860 -0.1226
  675TMC3     C 9988   3.460   1.923   0.283 -0.4196 -0.6110 -0.1826
  675TMC3     O 9989   3.432   1.823   0.222  0.3441  0.5035 -0.2754
  675TMC3     H 9990   3.586   1.725   0.387  1.5542 -1.4589 -0.5836
  675TMC3    H1 9991   3.616   2.149   0.330  1.0616  1.0849  1.8754
  675TMC3    H2 9992   3.874   1.949   0.597  0.1054  2.2031 -0.4108
  675TMC3    C7 9993   3.811   2.185   0.494  0.4357 -0.2317  0.2102
  675TMC3    C8 9994   3.720   1.729   0.609  0.1466  0.1774  0.5840
  675TMC3    O1 9995   3.930   2.187   0.527 -0.0063  0.1866  0.2792
  675TMC3    O2 9996   3.609   1.685   0.629 -0.2984 -0.1043 -0.5945
  676MPD2     C 9997   1.606   0.240  11.100 -0.1991 -0.5345  0.5359
  676MPD2    C1 9998   1.469   0.220  11.126  0.3517  0.1986 -0.4131
  676MPD2    C2 9999   1.416   0.095  11.111  0.5495  0.2225  0.4879
  676MPD2    C310000   1.505   4.713  11.100  0.3226 -0.5286 -0.1053
  676MPD2    C410001   1.634   0.005  11.068 -0.1703 -1.2078 -0.6149
  676MPD2    C510002   1.684   0.132  11.062 -0.4222 -0.1176 -1.0485
  676MPD2     H10003   1.310   0.076  11.114  0.6481 -0.6537 -1.6407
  676MPD2    H110004   1.704   4.647  11.049  0.8521 -0.0501 -1.7507
  676MPD2    H210005   1.659   0.334  11.106 -0.2392 -0.6257  2.1272
  676MPD2    H310006   1.788   0.157  11.045 -0.7191  1.1278 -1.0063
  676MPD2     N10007   1.463   4.582  11.107 -0.7012  0.0233  0.9559
  676MPD2    H510008   1.533   4.511  11.086  1.4353  2.5505 -0.4535
  676MPD2    N110009   1.376   0.318  11.179  0.1093 -0.5368 -0.3841
  676MPD2    H710010   1.280   0.289  11.192  0.1657 -0.0428  1.0587
  677TMC3    C110011   1.284   0.490  11.299 -0.7917  0.2621 -0.9551
  677TMC3    C210012   1.157   0.442  11.277  0.3710 -0.0193 -0.1818
  677TMC3    C310013   1.066   0.491  11.358 -0.1620  0.3544 -0.0023
  677TMC3    C410014   1.318   0.571  11.406  0.5154  0.0242 -0.0753
  677TMC3    C510015   1.215   0.609  11.491 -0.6030 -0.3222 -0.1614
  677TMC3    C610016   1.087   0.581  11.460 -0.2270  0.1581 -0.3861
  677TMC3     C10017   1.400   0.450  11.221 -0.2443 -0.7506 -0.4194
  677TMC3     O10018   1.507   0.507  11.218 -0.6800 -0.3360 -0.7659
  677TMC3     H10019   1.129   0.362  11.208 -0.2281 -0.0437  0.0890
  677TMC3    H110020   1.424   0.580  11.429  0.2525  0.6486  0.9094
  677TMC3    H210021   1.009   0.625  11.521  0.7254  1.3911 -0.0496
  677TMC3    C710022   1.246   0.642  11.629 -0.6176  0.0416 -0.3628
  677TMC3    C810023   0.945   0.414  11.355 -0.1386  0.9824  0.0070
  677TMC3    O110024   1.155   0.631  11.712  0.1029  0.0167  0.2448
  677TMC3    O210025   0.894   0.386  11.247  0.1209 -0.1465 -0.6938
  678MPD2     C10026   2.708   0.978   1.286  0.2359 -0.2076 -0.6123
  678MPD2    C110027   2.758   0.859   1.237 -0.2857  0.0515  0.3017
  678MPD2    C210028   2.668   0.772   1.181 -0.0147 -0.3324  0.4856
  678MPD2    C310029   2.531   0.791   1.193  0.8051  0.1827 -0.0822
  678MPD2    C410030   2.482   0.901   1.264 -0.0884  0.2450  0.2713
  678MPD2    C510031   2.573   0.997   1.303 -1.1711  0.3405  0.5946
  678MPD2     H10032   2.693   0.686   1.120 -0.0294  0.2562 -0.3538
  678MPD2    H110033   2.378   0.929   1.274 -0.4780 -1.7721  1.8282
  678MPD2    H210034   2.771   1.057   1.325 -0.2329 -0.2527  0.2161
  678MPD2    H310035   2.547   1.074   1.376 -0.1059  1.6402 -0.4062
  678MPD2     N10036   2.445   0.693   1.138 -0.2800 -0.6778  0.4174
  678MPD2    H510037   2.492   0.622   1.083 -1.8776 -2.3465  1.1907
  678MPD2    N110038   2.896   0.831   1.214 -0.2870 -0.0265  0.2222
  678MPD2    H710039   2.969   0.899   1.232  0.0406 -0.3069 -0.0374
  679TMC3    C110040   3.296   0.597   1.167 -0.9929  0.3431  0.7017
  679TMC3    C210041   3.159   0.589   1.162 -0.3509  0.5358 -1.0156
  679TMC3    C310042   3.093   0.709   1.159 -0.4558  0.0630 -0.5669
  679TMC3    C410043   3.367   0.712   1.159  0.3122 -0.7717  0.1928
  679TMC3    C510044   3.293   0.829   1.149  0.1263  0.2713 -0.1790
  679TMC3    C610045   3.158   0.831   1.139 -0.3837 -0.1409  0.3444
  679TMC3     C10046   3.367   0.479   1.219 -0.3163  0.3440 -0.1573
  679TMC3     O10047   3.308   0.370   1.209 -0.3655  1.1387  0.0956
  679TMC3     H10048   3.111   0.494   1.179  0.8580  0.1611  0.2877
  679TMC3    H110049   3.472   0.732   1.177  0.5955  1.7297 -4.2170
  679TMC3    H210050   3.100   0.917   1.110 -1.4667 -0.4745  1.5358
  679TMC3    C710051   3.354   0.943   1.084 -0.4578 -0.6544  0.8071
  679TMC3    C810052   2.948   0.710   1.173 -0.0860 -0.0957  0.1388
  679TMC3    O110053   3.442   0.926   1.002  0.6880  0.0010  0.3747
  679TMC3    O210054   2.898   0.597   1.151 -0.4080  0.0802  0.4651
  680MPD2     C10055   2.900   3.832  13.678  0.4152  0.5480 -0.0596
  680MPD2    C110056   2.935   3.762  13.788  0.2291 -0.8994  0.1109
  680MPD2    C210057   2.961   3.815  13.913  0.4130  0.5616 -0.0909
  680MPD2    C310058   2.948   3.951  13.933 -0.4418  0.6120 -0.4529
  680MPD2    C410059   2.927   4.024  13.821 -0.0885 -0.7416  0.4297
  680MPD2    C510060   2.910   3.969  13.697 -0.9542  0.6960  0.1312
  680MPD2     H10061   2.989   3.758  14.001 -0.4632 -0.8265 -0.7017
  680MPD2    H110062   2.908   4.130  13.827 -1.9473 -1.0312 -0.1016
  680MPD2    H210063   2.877   3.802  13.576 -0.2794  1.1986 -0.0870
  680MPD2    H310064   2.888   4.033  13.612  2.8523  0.0114 -1.3631
  680MPD2     N10065   2.949   4.016  14.053 -0.5619 -0.6337 -0.4752
  680MPD2    H510066   2.929   4.116  14.051 -0.2822 -0.5872 -1.0123
  680MPD2    N110067   2.957   3.618  13.773 -0.0347  0.3701  0.4136
  680MPD2    H710068   2.993   3.570  13.854 -1.4310 -1.8552 -0.3024
  681TMC3    C110069   2.934   3.399  13.691  0.0491  0.1031 -0.4814
  681TMC3    C210070   2.857   3.351  13.796 -0.2030 -0.6924 -0.1834
  681TMC3    C310071   2.875   3.221  13.831  0.2059  0.3416 -0.6195
  681TMC3    C410072   3.008   3.315  13.610  0.1543 -0.6694  0.0396
  681TMC3    C510073   3.021   3.186  13.644  0.0152 -0.2987  0.1469
  681TMC3    C610074   2.956   3.142  13.760 -0.2020 -0.3532 -0.3411
  681TMC3     C10075   2.931   3.540  13.662  0.2371  0.2507 -0.5567
  681TMC3     O10076   2.888   3.561  13.547  0.0603  0.0832 -0.3055
  681TMC3     H10077   2.796   3.420  13.854  1.8977 -1.0986  2.4748
  681TMC3    H110078   3.059   3.360  13.526 -3.1235  0.9982 -1.0607
  681TMC3    H210079   2.983   3.042  13.794  1.5341 -0.2052 -1.3015
  681TMC3    C710080   3.080   3.080  13.555  0.6016 -0.4582 -0.3598
  681TMC3    C810081   2.871   3.210  13.975  0.3350 -0.2027 -0.3753
  681TMC3    O110082   3.035   2.965  13.560  0.2788 -0.0724 -0.8408
  681TMC3    O210083   2.973   3.160  14.025  0.1358 -0.3454 -0.0736
  682MPD2     C10084   0.539   0.380  10.540  0.0681  0.0491 -0.2539
  682MPD2    C110085   0.513   0.245  10.568 -0.2634 -0.5118 -0.2054
  682MPD2    C210086   0.516   0.211  10.702 -0.2569  0.1641  0.1738
  682MPD2    C310087   0.530   0.304  10.803  0.2770  0.7080  0.8809
  682MPD2    C410088   0.529   0.439  10.777 -0.2198 -0.3246 -0.6246
  682MPD2    C510089   0.539   0.470  10.648 -0.3178  0.1886 -0.2185
  682MPD2     H10090   0.479   0.113  10.730  0.5218 -0.7495 -2.0002
  682MPD2    H110091   0.509   0.520  10.845  0.9509 -0.8346  0.3350
  682MPD2    H210092   0.544   0.428  10.443  0.0685  2.8203  1.1155
  682MPD2    H310093   0.544   0.573  10.615  0.2331 -0.1370 -1.1559
  682MPD2     N10094   0.525   0.253  10.932 -1.0718 -0.3914 -0.1510
  682MPD2    H510095   0.505   0.154  10.945 -3.7778  0.2101  0.2923
  682MPD2    N110096   0.489   0.143  10.478  0.1922 -0.1974  0.4686
  682MPD2    H710097   0.478   0.052  10.522  0.2746  0.1575  1.2340
  683TMC3    C110098   0.484   0.295  11.396  0.9589 -0.3779  0.2741
  683TMC3    C210099   0.443   0.164  11.409 -0.8595  1.6150  0.3028
  683TMC3    C310100   0.444   0.083  11.299 -0.9986  0.2363  0.1360
  683TMC3    C410101   0.553   0.324  11.288  0.5150 -0.9700  0.1066
  683TMC3    C510102   0.539   0.252  11.172 -0.2004  0.1533  0.2472
  683TMC3    C610103   0.486   0.126  11.178  0.1433  0.3980 -0.2037
  683TMC3     C10104   0.509   0.379  11.518  0.7219 -0.9100 -0.0943
  683TMC3     O10105   0.604   0.458  11.518 -0.6216  1.1494 -0.2900
  683TMC3     H10106   0.383   0.142  11.496 -1.4467  0.0047 -0.5242
  683TMC3    H110107   0.599   0.422  11.290  0.4782 -0.9590  0.4683
  683TMC3    H210108   0.473   0.059  11.094  1.2658  0.1461 -0.1792
  683TMC3    C710109   0.557   0.325  11.049  0.9557  0.0463  0.6042
  683TMC3    C810110   0.410   4.666  11.315 -0.0789 -0.3176 -0.2329
  683TMC3    O110111   0.597   0.441  11.060 -0.4210  0.7150 -0.0970
  683TMC3    O210112   0.370   4.602  11.217 -0.3048  0.5282 -0.6064
  684MPD2     C10113   3.610   4.420  16.618 -0.7676  0.1032 -0.7195
  684MPD2    C110114   3.542   4.483  16.513 -0.0636 -0.2949  0.0461
  684MPD2    C210115   3.516   4.619  16.524  0.2944  0.2857  0.8937
  684MPD2    C310116   3.537   4.682  16.645  0.4137 -0.1853  0.0535
  684MPD2    C410117   3.597   4.618  16.750 -0.1568 -0.1376  0.9314
  684MPD2    C510118   3.635   4.494  16.736 -0.9375 -0.1039  0.0139
  684MPD2     H10119   3.464   4.668  16.442  0.6460 -0.2644  0.3386
  684MPD2    H110120   3.621   4.666  16.845  1.2716  2.3599 -0.7012
  684MPD2    H210121   3.646   4.318  16.615 -1.2520 -0.0347 -1.6878
  684MPD2    H310122   3.670   4.454  16.830 -1.9012 -0.0926  0.3801
  684MPD2     N10123   3.519   0.093  16.668  0.1730  0.3475  0.2070
  684MPD2    H510124   3.555   0.140  16.751 -1.4815  2.2954 -0.1754
  684MPD2    N110125   3.511   4.412  16.390  0.2359  0.1789 -0.0677
  684MPD2    H710126   3.467   4.466  16.316  0.5364  0.9978  0.3513
  685TMC3    C110127   3.546   4.272  16.213  0.2727  0.2392 -0.5825
  685TMC3    C210128   3.446   4.343  16.151  0.4242  0.0677 -0.6292
  685TMC3    C310129   3.461   4.362  16.015  0.6019  0.3820  0.1088
  685TMC3    C410130   3.655   4.236  16.150  0.3336 -0.0199 -0.3776
  685TMC3    C510131   3.668   4.254  16.011 -0.6775 -0.2997 -0.6566
  685TMC3    C610132   3.566   4.311  15.943 -0.5486  0.3165 -0.4278
  685TMC3     C10133   3.560   4.288  16.354 -0.5980  0.0876 -0.2046
  685TMC3     O10134   3.633   4.209  16.409 -0.1495 -0.1151 -0.1678
  685TMC3     H10135   3.354   4.362  16.205 -0.5200 -3.7405 -0.9371
  685TMC3    H110136   3.714   4.164  16.204  0.1577  1.6761  2.0744
  685TMC3    H210137   3.575   4.316  15.835 -0.0417  0.2819 -0.3883
  685TMC3    C710138   3.798   4.283  15.961 -0.8568 -0.3478 -0.3429
  685TMC3    C810139   3.350   4.416  15.936  0.8078 -0.4907  0.2942
  685TMC3    O110140   3.816   4.295  15.840  0.3211  0.4955  0.5085
  685TMC3    O210141   3.363   4.413  15.813  0.2794  0.1248  1.4541
  686MPD2     C10142   0.095   4.492  15.201  0.0436 -0.2055  0.0264
  686MPD2    C110143   0.095   4.387  15.288  0.8150  0.0914  0.5433
  686MPD2    C210144   0.120   4.263  15.235  0.2281 -0.3967 -0.0470
  686MPD2    C310145   0.134   4.236  15.104  0.2133 -0.2114  0.3485
  686MPD2    C410146   0.139   4.335  15.019 -0.2945  0.4779 -0.0687
  686MPD2    C510147   0.121   4.457  15.067 -1.4325 -0.0621 -0.0278
  686MPD2     H10148   0.131   4.183  15.307  0.1001  0.2491  0.6959
  686MPD2    H110149   0.157   4.315  14.914 -0.8265 -0.1666 -0.0283
  686MPD2    H210150   0.086   4.596  15.231 -1.0952  0.4190 -2.4544
  686MPD2    H310151   0.126   4.538  14.995  0.0851  0.6188  0.8579
  686MPD2     N10152   0.137   4.108  15.050 -0.0497 -0.9571  0.5096
  686MPD2    H510153   0.164   4.097  14.953  0.0167 -2.4032  0.6850
  686MPD2    N110154   0.057   4.414  15.422 -0.0702 -0.2115  0.6677
  686MPD2    H710155   0.037   4.510  15.447 -0.4888 -0.6065  1.8243
  687TMC3    C110156   0.011   4.001  15.225 -0.8306 -0.0447 -0.5663
  687TMC3    C210157   4.620   4.069  15.201  0.4707 -0.9575  0.3022
  687TMC3    C310158   4.523   4.068  15.297 -0.6946  0.3447  0.3227
  687TMC3    C410159   0.016   3.918  15.329  0.3887  0.4909 -0.3526
  687TMC3    C510160   4.642   3.921  15.429  0.7005  0.8083 -0.3709
  687TMC3    C610161   4.534   4.009  15.418  0.3976  0.0439 -0.2131
  687TMC3     C10162   0.114   3.989  15.123  0.0448  0.0394 -0.3061
  687TMC3     O10163   0.136   3.870  15.100 -0.5191  0.2929  0.1022
  687TMC3     H10164   4.596   4.116  15.106  2.5844 -1.1306 -0.3239
  687TMC3    H110165   0.101   3.851  15.325  0.4329  0.6625 -2.1061
  687TMC3    H210166   4.458   4.024  15.494  2.5330  0.2641  1.8715
  687TMC3    C710167   4.684   3.881  15.559 -0.2462 -0.1667  0.2345
  687TMC3    C810168   4.425   4.171  15.283 -0.3975  0.3853 -0.0331
  687TMC3    O110169   4.635   3.943  15.654 -0.0813 -0.0776 -0.0168
  687TMC3    O210170   4.470   4.274  15.235  0.5774  0.3163 -1.0089
  688MPD2     C10171   4.340   3.256  17.691 -0.1371  0.5399  0.0245
  688MPD2    C110172   4.350   3.121  17.676  0.0456  0.2914 -0.2005
  688MPD2    C210173   4.376   3.072  17.544 -0.0034  0.3455 -0.3686
  688MPD2    C310174   4.393   3.159  17.439 -0.6432 -0.3076 -0.9508
  688MPD2    C410175   4.386   3.293  17.462 -0.0972  0.6047  0.2010
  688MPD2    C510176   4.362   3.341  17.585 -0.5231 -0.6206  0.6141
  688MPD2     H10177   4.389   2.964  17.544  0.2282  0.3752 -0.5854
  688MPD2    H110178   4.386   3.364  17.380  1.5506 -0.2170 -0.5031
  688MPD2    H210179   4.319   3.308   0.091 -1.3055  0.6175 -0.2772
  688MPD2    H310180   4.355   3.448  17.597  1.4356 -0.2546 -1.4461
  688MPD2     N10181   4.427   3.120  17.306  0.0148  0.8720  0.1184
  688MPD2    H510182   4.432   3.191  17.235 -0.9995  1.0793  0.2533
  688MPD2    N110183   4.339   3.034   0.095  0.1420  0.4037  0.1116
  688MPD2    H710184   4.368   2.938   0.078  0.6938  0.4136  1.0162
  689TMC3    C110185   4.285   2.946   0.312 -0.4634 -0.5421  0.3277
  689TMC3    C210186   4.297   2.973   0.449 -0.3285 -0.2010 -0.7416
  689TMC3    C310187   4.286   2.878   0.547  0.1348 -0.3456 -0.2068
  689TMC3    C410188   4.246   2.821   0.276 -0.1994  0.2136  0.3020
  689TMC3    C510189   4.219   2.733   0.383 -0.2569 -0.1252  0.1080
  689TMC3    C610190   4.238   2.755   0.512  0.7062 -0.3380 -0.4449
  689TMC3     C10191   4.296   3.061   0.220  0.2256 -0.4437  0.5554
  689TMC3     O10192   4.260   3.166   0.265 -0.5767 -0.0510 -0.2010
  689TMC3     H10193   4.295   3.077   0.480 -2.9536 -0.2833 -0.6644
  689TMC3    H110194   4.229   2.785   0.175  0.6789 -0.7149  0.4846
  689TMC3    H210195   4.221   2.683   0.591 -0.2729  1.2965  0.8223
  689TMC3    C710196   4.182   2.594   0.356  0.5546  0.4597 -0.0577
  689TMC3    C810197   4.258   2.912   0.687 -0.8478  0.3971 -0.4923
  689TMC3    O110198   4.222   2.515   0.438 -0.0642 -0.1750 -0.1321
  689TMC3    O210199   4.166   2.853   0.740 -0.0639  0.7501 -0.5031
  690MPD2     C10200   1.540   0.458  15.757  0.3034 -0.2876  0.1832
  690MPD2    C110201   1.445   0.440  15.665  0.1924  0.7824  0.4216
  690MPD2    C210202   1.464   0.490  15.538 -0.0402  0.3581  0.2012
  690MPD2    C310203   1.577   0.559  15.500 -0.2752  0.1685  0.6254
  690MPD2    C410204   1.675   0.572  15.600 -0.5315 -0.3666 -0.6836
  690MPD2    C510205   1.652   0.525  15.727  0.4582  0.8048  0.0122
  690MPD2     H10206   1.392   0.471  15.459  1.1015 -0.6835 -0.5886
  690MPD2    H110207   1.767   0.629  15.588 -1.4710  1.4080  0.5391
  690MPD2    H210208   1.533   0.419  15.858 -2.1751 -3.3176 -1.1600
  690MPD2    H310209   1.722   0.527  15.810  0.8762  1.9317 -0.3575
  690MPD2     N10210   1.605   0.593  15.362 -0.3701 -0.1622  0.2445
  690MPD2    H510211   1.526   0.583  15.299  1.0147 -0.1815 -1.4949
  690MPD2    N110212   1.353   0.338  15.688 -0.6227 -0.6817 -0.5990
  690MPD2    H710213   1.361   0.276  15.768  4.0102  0.8785  0.1459
  691TMC3    C110214   1.145   0.224  15.695 -0.0049 -0.0437  0.2415
  691TMC3    C210215   1.013   0.230  15.675 -0.2264  0.1764 -0.3453
  691TMC3    C310216   0.930   0.127  15.717 -0.0755 -0.2399  0.1679
  691TMC3    C410217   1.208   0.119  15.758 -0.2481  0.6573  0.4044
  691TMC3    C510218   1.122   0.009  15.770  0.7862 -0.4666  0.3717
  691TMC3    C610219   0.986   0.008  15.755  0.2664 -0.0182 -0.6569
  691TMC3     C10220   1.224   0.335  15.637  0.3999  0.3618  0.7400
  691TMC3     O10221   1.152   0.415  15.578  0.1967  0.2539  0.1031
  691TMC3     H10222   0.967   0.318  15.633  0.7293 -0.0848 -1.9557
  691TMC3    H110223   1.315   0.106  15.769 -0.2580  1.0636  1.0020
  691TMC3    H210224   0.920   4.654  15.793  1.7027  0.0179  1.9531
  691TMC3    C710225   1.180   4.598  15.810 -0.3156 -0.5969  0.2868
  691TMC3    C810226   0.791   0.167  15.733 -0.1870 -0.4263  0.3415
  691TMC3    O110227   1.294   4.599  15.849 -0.1210 -0.3018  0.1012
  691TMC3    O210228   0.765   0.279  15.688 -0.0639 -0.4623  0.6915
  692TMC3    C110229   3.245   1.306  15.744  0.6744 -1.0296  0.2396
  692TMC3    C210230   3.343   1.347  15.825  0.2278 -0.2913 -0.0424
  692TMC3    C310231   3.424   1.258  15.888  0.3411  0.3633  1.3654
  692TMC3    C410232   3.210   1.177  15.745 -0.0244 -0.6157 -0.0473
  692TMC3    C510233   3.274   1.083  15.824  0.4578 -0.1089 -0.2783
  692TMC3    C610234   3.384   1.125  15.899 -0.3320  0.0111  0.2246
  692TMC3     C10235   3.141   1.406  15.729  0.2751 -0.4409  0.4072
  692TMC3     O10236   3.119   1.468  15.833 -0.3067 -0.6798  0.4008
  692TMC3     H10237   3.377   1.449  15.817 -0.0652 -0.2750 -1.0445
  692TMC3    H110238   3.113   1.147  15.705 -1.1846  0.5502  1.8474
  692TMC3    H210239   3.452   1.046  15.929 -0.9003 -0.7972 -0.5970
  692TMC3    C710240   3.203   0.967  15.865 -0.0609 -0.0888 -0.1358
  692TMC3    C810241   3.446   1.303  16.028  0.0450  0.2255  0.0293
  692TMC3    O110242   3.092   0.945  15.818 -0.1046 -0.4672  0.4162
  692TMC3    O210243   3.486   1.223  16.109  0.3870 -0.0665 -0.2577
  693MPD2     C10244   2.593   3.901  10.593 -0.2733 -0.2082 -0.1148
  693MPD2    C110245   2.547   3.770  10.612 -0.1598 -0.1892 -0.5344
  693MPD2    C210246   2.625   3.668  10.559  0.6780 -0.7137 -0.2915
  693MPD2    C310247   2.757   3.694  10.511 -0.3409 -0.9062 -0.0804
  693MPD2    C410248   2.795   3.824  10.484 -0.4612  0.3370 -0.5097
  693MPD2    C510249   2.717   3.924  10.528 -0.7244 -0.2122  0.3115
  693MPD2     H10250   2.590   3.567  10.576 -2.3583  0.1812 -1.3033
  693MPD2    H110251   2.890   3.841  10.436  0.0520 -0.5932  0.1720
  693MPD2    H210252   2.526   3.986  10.602 -0.8305 -0.3098 -3.2070
  693MPD2    H310253   2.751   4.022  10.497  2.0862 -1.0423  0.8178
  693MPD2     N10254   2.842   3.587  10.477 -0.2838 -0.3000  0.2853
  693MPD2    H510255   2.942   3.603  10.462 -0.3024  1.1108  1.7577
  693MPD2    N110256   2.422   3.751  10.678 -0.4691  0.5572  0.5237
  693MPD2    H710257   2.378   3.836  10.711 -3.4702 -0.3818 -1.0583
  694TMC3    C110258   2.215   3.656  10.755 -0.7539 -0.5830  0.4134
  694TMC3    C210259   2.126   3.561  10.733 -0.5247  0.8484  0.1262
  694TMC3    C310260   2.041   3.511  10.831  0.6051 -0.3285  0.5335
  694TMC3    C410261   2.227   3.710  10.881  0.1259 -0.4329  0.2663
  694TMC3    C510262   2.139   3.663  10.981  0.2536  0.5175 -0.1781
  694TMC3    C610263   2.044   3.570  10.957 -0.5901 -0.4960 -0.1977
  694TMC3     C10264   2.346   3.634  10.680  0.5501  0.3866  0.3181
  694TMC3     O10265   2.348   3.535  10.604  0.3098  0.3404  0.2756
  694TMC3     H10266   2.129   3.506  10.640  0.1304 -1.6188  1.5940
  694TMC3    H110267   2.307   3.779  10.905  1.0910 -0.9493 -1.4677
  694TMC3    H210268   1.979   3.541  11.039  0.4766  0.9034  1.1429
  694TMC3    C710269   2.136   3.755  11.093  0.1755 -0.1341  0.2366
  694TMC3    C810270   1.933   3.415  10.803  0.3111 -0.4364  0.3058
  694TMC3    O110271   2.175   3.868  11.073 -0.2884 -0.5276  0.0866
  694TMC3    O210272   1.858   3.389  10.894  0.2762 -0.0038 -0.2261
  695MPD2     C10273   3.577   0.603  13.712 -0.9704 -0.6918  0.2779
  695MPD2    C110274   3.545   0.681  13.820 -0.4793  0.0682 -0.5470
  695MPD2    C210275   3.422   0.734  13.808  0.0112 -0.1671  0.6175
  695MPD2    C310276   3.351   0.738  13.688  0.1678  0.5239 -0.0465
  695MPD2    C410277   3.391   0.657  13.584 -0.2170 -0.6188  0.6653
  695MPD2    C510278   3.504   0.590  13.596  0.4431  0.1787 -0.1002
  695MPD2     H10279   3.381   0.782  13.896 -0.2280 -1.1533  1.0409
  695MPD2    H110280   3.329   0.641  13.496 -0.8046 -2.3559  1.4084
  695MPD2    H210281   3.672   0.551  13.717  0.7220  2.4303  0.9671
  695MPD2    H310282   3.543   0.530  13.515 -2.0151  1.3155 -2.0992
  695MPD2     N10283   3.229   0.803  13.696  0.2040 -0.3506 -0.3423
  695MPD2    H510284   3.217   0.861  13.779  2.3120  0.7272 -0.8060
  695MPD2    N110285   3.621   0.710  13.929 -0.3191 -0.4736  0.1540
  695MPD2    H710286   3.584   0.783  13.989 -2.7677 -1.4765 -0.1087
  696TMC3    C110287   3.013   0.865  13.633  0.0615 -0.1322 -0.0532
  696TMC3    C210288   2.957   0.856  13.759 -0.2022 -0.2894 -0.0721
  696TMC3    C310289   2.841   0.925  13.778  0.5852  0.5865  1.2561
  696TMC3    C410290   2.958   0.939  13.532  0.0716 -0.7737 -0.3444
  696TMC3    C510291   2.836   0.997  13.564 -0.9899  0.3354  0.3150
  696TMC3    C610292   2.776   0.990  13.681  0.3924 -0.3989  0.8119
  696TMC3     C10293   3.138   0.804  13.596 -0.0588  0.5205  0.3036
  696TMC3     O10294   3.147   0.766  13.480 -0.5486 -0.0294 -0.1204
  696TMC3     H10295   3.004   0.803  13.842  2.8154 -0.9567 -2.1713
  696TMC3    H110296   3.004   0.953  13.435 -0.4612 -0.6703 -0.5827
  696TMC3    H210297   2.678   1.033  13.698  0.1409 -0.1452 -1.3232
  696TMC3    C710298   2.817   1.130  13.507  0.8257  0.1097  0.0350
  696TMC3    C810299   2.842   1.005  13.896 -0.2994  0.3228  0.3099
  696TMC3    O110300   2.861   1.148  13.395  0.5103  0.4468  0.2476
  696TMC3    O210301   2.835   1.124  13.882 -1.1316  0.5751 -0.0868
  697MPD2     C10302   2.614   2.784  15.821 -0.0949 -0.4970  0.2016
  697MPD2    C110303   2.640   2.751  15.690 -0.2902  0.8006 -0.6722
  697MPD2    C210304   2.711   2.844  15.606 -0.6214 -0.3870  0.3176
  697MPD2    C310305   2.745   2.967  15.657 -0.5999 -0.0763 -0.6112
  697MPD2    C410306   2.715   2.999  15.789 -0.0008 -0.2414  0.1256
  697MPD2    C510307   2.658   2.903  15.869  0.0826  0.0281 -0.2608
  697MPD2     H10308   2.729   2.828  15.500  0.4690 -1.0689  0.6080
  697MPD2    H110309   2.743   3.091  15.839 -1.4170 -0.1631  0.7755
  697MPD2    H210310   2.550   2.722  15.883 -2.2680  0.6620 -0.8776
  697MPD2    H310311   2.627   2.922  15.971  1.9302 -0.0260  0.3050
  697MPD2     N10312   2.808   3.049  15.566 -0.3542 -0.3614  0.1801
  697MPD2    H510313   2.838   3.003  15.480  2.7017 -0.5724  1.3573
  697MPD2    N110314   2.589   2.638  15.630  0.3982 -0.1124 -0.4995
  697MPD2    H710315   2.587   2.641  15.528  0.6647 -4.1717 -0.6201
  698TMC3    C110316   2.956   3.227  15.495 -0.2812  0.0195 -0.0491
  698TMC3    C210317   3.021   3.332  15.538 -0.4057 -0.3280 -0.5404
  698TMC3    C310318   3.103   3.400  15.456  0.9092  0.0975  0.3747
  698TMC3    C410319   2.969   3.180  15.369 -0.3699 -0.5321  0.3336
  698TMC3    C510320   3.056   3.245  15.282  0.1405  0.5241 -0.0446
  698TMC3    C610321   3.126   3.358  15.326  0.3800 -0.3201  0.2225
  698TMC3     C10322   2.859   3.172  15.593 -0.3913 -0.4041  0.1082
  698TMC3     O10323   2.827   3.247  15.681  0.2732  1.0849 -0.4091
  698TMC3     H10324   3.023   3.359  15.643  0.2062 -2.4839  0.0111
  698TMC3    H110325   2.923   3.085  15.344  3.0950 -2.2078  0.4137
  698TMC3    H210326   3.185   3.422  15.262 -0.4143 -0.4567 -0.6496
  698TMC3    C710327   3.015   3.239  15.138  1.1187  0.7050  0.3080
  698TMC3    C810328   3.099   3.539  15.478 -0.0903 -0.9099 -0.2351
  698TMC3    O110329   2.905   3.190  15.107  0.3860  0.0791  0.2485
  698TMC3    O210330   2.997   3.581  15.531 -0.0776  0.3934  0.0117
  699TMC3    C110331   2.942   0.762  13.233 -0.2605 -0.5417  0.4319
  699TMC3    C210332   2.963   0.642  13.299 -0.0627 -0.0273  0.0021
  699TMC3    C310333   2.865   0.611  13.389 -0.0171 -0.3023 -0.4528
  699TMC3    C410334   2.818   0.816  13.224 -0.1492 -0.5994  0.3132
  699TMC3    C510335   2.718   0.767  13.312  0.2615 -0.1652 -0.4653
  699TMC3    C610336   2.745   0.670  13.405  0.0597  1.0133  0.1045
  699TMC3     C10337   3.040   0.799  13.131 -0.2628 -1.1977  0.9227
  699TMC3     O10338   2.992   0.850  13.030  0.3358  0.2848 -0.6187
  699TMC3     H10339   3.060   0.596  13.291 -0.2413 -0.3294 -0.4061
  699TMC3    H110340   2.793   0.905  13.169 -0.0249 -0.7621 -0.0079
  699TMC3    H210341   2.675   0.649  13.485  1.7030 -3.0635  0.4518
  699TMC3    C710342   2.603   0.844  13.332 -0.2303 -0.1218  0.2528
  699TMC3    C810343   2.895   0.516  13.501  0.0322 -0.7449 -0.3715
  699TMC3    O110344   2.569   0.878  13.446 -0.0387 -0.2359 -0.3051
  699TMC3    O210345   2.808   0.472  13.572  0.0174 -0.1785 -0.1684
  700TMC3    C110346   1.871   3.733  17.349  0.0171  0.5769 -0.1017
  700TMC3    C210347   1.937   3.621  17.398 -0.5868  0.0455 -0.4317
  700TMC3    C310348   1.972   3.619  17.534 -0.1589 -0.7732 -0.1911
  700TMC3    C410349   1.851   3.847  17.428 -0.0882 -0.1385  0.4806
  700TMC3    C510350   1.881   3.830  17.558 -0.1493  0.1481  0.5396
  700TMC3    C610351   1.937   3.727  17.620 -0.4898  0.3908  0.4550
  700TMC3     C10352   1.867   3.763  17.209 -0.6670 -0.1770 -0.9102
  700TMC3     O10353   1.827   3.685  17.123  0.2802 -0.5451  0.2430
  700TMC3     H10354   1.956   3.537  17.332 -1.2528 -1.9435  1.9194
  700TMC3    H110355   1.783   3.922  17.389  1.4688  0.8157 -0.4102
  700TMC3    H210356   1.960   3.716   0.032  0.6374 -1.9648 -0.0461
  700TMC3    C710357   1.859   3.955  17.634  0.0722 -0.0343  0.8494
  700TMC3    C810358   2.079   3.523  17.573 -0.4251  0.2075 -0.4014
  700TMC3    O110359   1.814   4.041  17.561 -0.6848 -0.4742  0.0050
  700TMC3    O210360   2.131   3.457  17.482  0.1119  0.1663 -0.2369
  701TMC3    C110361   1.624   2.280  15.354  0.1650 -0.1457 -0.8938
  701TMC3    C210362   1.664   2.257  15.223  0.4298  0.2917  0.7403
  701TMC3    C310363   1.761   2.337  15.171  0.3234  0.2933 -0.4541
  701TMC3    C410364   1.694   2.362  15.437  0.0063  0.3054 -0.0239
  701TMC3    C510365   1.794   2.434  15.380 -0.0878  0.1043  0.0290
  701TMC3    C610366   1.830   2.419  15.255 -0.2775 -0.4580 -0.0731
  701TMC3     C10367   1.519   2.200  15.421  0.3899  0.2026 -0.5493
  701TMC3     O10368   1.479   2.251  15.524  0.5836 -0.0781  0.1578
  701TMC3     H10369   1.599   2.203  15.156  2.5952  0.8797 -1.8374
  701TMC3    H110370   1.664   2.379  15.540  0.7801  0.0280  0.2456
  701TMC3    H210371   1.911   2.483  15.221 -0.7164 -0.2512 -0.7288
  701TMC3    C710372   1.892   2.509  15.466 -0.0673 -0.4677  0.4773
  701TMC3    C810373   1.799   2.341  15.035 -0.0466  0.5967  0.3554
  701TMC3    O110374   1.949   2.600  15.412  0.0176  0.2488  0.1663
  701TMC3    O210375   1.880   2.426  14.992  0.4167  0.3845  0.5877
  702MPD2     C10376   1.697   4.254  10.672 -0.1841  0.3711  0.4945
  702MPD2    C110377   1.626   4.360  10.717  0.1573 -1.1554 -0.3808
  702MPD2    C210378   1.651   4.490  10.682 -0.7086 -0.9995  0.0895
  702MPD2    C310379   1.763   4.510  10.604 -0.2870  0.2948 -0.8191
  702MPD2    C410380   1.832   4.403  10.551 -0.4104  0.2562 -0.6017
  702MPD2    C510381   1.803   4.271  10.582 -0.5236 -0.2904 -0.5323
  702MPD2     H10382   1.593   4.571  10.724  1.4182  0.5490 -0.0172
  702MPD2    H110383   1.928   4.423  10.504 -0.6290 -0.2963 -1.2757
  702MPD2    H210384   1.672   4.152  10.699  1.9239 -0.0262  0.9813
  702MPD2    H310385   1.872   4.192  10.552 -1.7987 -0.9726 -1.6878
  702MPD2     N10386   1.806   4.638  10.559 -0.3895 -0.0038 -0.0444
  702MPD2    H510387   1.883   4.642  10.493  0.4592 -1.2114  0.8651
  702MPD2    N110388   1.509   4.338  10.802  0.0108 -0.1785  0.4219
  702MPD2    H710389   1.468   4.427  10.827  0.8246  0.9833 -2.4722
  703TMC3    C110390   1.784   0.152  10.520 -0.5267  0.2229 -0.4462
  703TMC3    C210391   1.701   0.261  10.512 -0.1820  0.2003  0.2970
  703TMC3    C310392   1.744   0.373  10.444  0.3667  1.1892 -0.7107
  703TMC3    C410393   1.918   0.161  10.494  0.1721  0.8813 -0.5438
  703TMC3    C510394   1.954   0.271  10.428  0.6212 -0.3375 -0.2582
  703TMC3    C610395   1.875   0.376  10.396  0.4622  0.4836 -0.4152
  703TMC3     C10396   1.737   0.030  10.582  0.3756  0.1270  0.7610
  703TMC3     O10397   1.628   0.042  10.637  0.1062  0.7898 -0.2639
  703TMC3     H10398   1.606   0.252  10.562 -0.6403 -2.2825 -1.0204
  703TMC3    H110399   1.981   0.085  10.541  0.4191 -0.3955 -2.8975
  703TMC3    H210400   1.906   0.459  10.334  1.2984  1.3826  1.2037
  703TMC3    C710401   2.085   0.281  10.382 -0.1083 -0.1967 -0.3776
  703TMC3    C810402   1.684   0.505  10.460 -0.2520 -0.3176  0.2211
  703TMC3    O110403   2.131   0.391  10.366 -0.2493  0.4433  0.4660
  703TMC3    O210404   1.753   0.606  10.473  0.5037  0.3383  0.1440
  704TMC3    C110405   3.622   2.811  12.486 -0.8262  0.0862  0.4736
  704TMC3    C210406   3.749   2.847  12.492  0.0604 -0.0260 -0.1173
  704TMC3    C310407   3.851   2.762  12.526  0.0019  0.6181  0.0095
  704TMC3    C410408   3.584   2.679  12.518 -0.2905 -0.0137  0.5418
  704TMC3    C510409   3.686   2.594  12.546 -0.2419  0.0621 -0.2877
  704TMC3    C610410   3.820   2.630  12.555 -1.2552 -0.2453 -0.3228
  704TMC3     C10411   3.540   2.873  12.382  0.6757 -0.1806 -0.0255
  704TMC3     O10412   3.417   2.852  12.377 -0.5679  0.4603  0.0470
  704TMC3     H10413   3.774   2.947  12.457 -0.0504 -0.0356 -0.2238
  704TMC3    H110414   3.483   2.645  12.499 -0.5807  1.4138 -0.5419
  704TMC3    H210415   3.900   2.558  12.571 -0.4304  1.0858  1.5764
  704TMC3    C710416   3.672   2.468  12.486  0.2489  0.2139 -0.3222
  704TMC3    C810417   3.977   2.785  12.469  0.0667  0.8024  0.3565
  704TMC3    O110418   3.776   2.432  12.427 -0.1636  0.0570 -0.2665
  704TMC3    O210419   3.973   2.838  12.360  0.1542 -0.4521  0.2857
  705MPD2     C10420   3.218   0.902  16.569  0.3816  0.2399  0.3968
  705MPD2    C110421   3.223   1.026  16.628  0.2014  0.4465 -0.1457
  705MPD2    C210422   3.101   1.096  16.635  1.0913  0.0042  0.0107
  705MPD2    C310423   2.985   1.041  16.593  0.1579  0.2847 -0.0902
  705MPD2    C410424   2.977   0.921  16.538 -1.0206  0.4803 -0.1830
  705MPD2    C510425   3.098   0.846  16.528  0.2652 -0.4815 -0.1244
  705MPD2     H10426   3.107   1.196  16.677 -0.2768  1.0300 -2.2679
  705MPD2    H110427   2.882   0.888  16.497 -1.6027  0.2938  1.3221
  705MPD2    H210428   3.309   0.851  16.539  0.4404  0.7971 -0.3838
  705MPD2    H310429   3.108   0.762  16.461 -1.2800 -0.3439 -0.5392
  705MPD2     N10430   2.855   1.106  16.607 -0.6892  0.0678 -0.3767
  705MPD2    H510431   2.771   1.058  16.578 -0.5576 -0.5638  0.2691
  705MPD2    N110432   3.345   1.087  16.670 -0.2975 -0.3133 -0.2746
  705MPD2    H710433   3.352   1.183  16.702  1.8512 -1.1104  1.5941
  706TMC3    C110434   3.778   1.085  16.519 -0.7100 -0.4016 -0.0402
  706TMC3    C210435   3.765   1.210  16.467  0.1898  0.5885 -0.2885
  706TMC3    C310436   3.665   1.283  16.531  0.1025 -0.0627 -0.1975
  706TMC3    C410437   3.698   1.026  16.610  0.3952 -0.4316  0.5909
  706TMC3    C510438   3.583   1.092  16.656  0.7754 -0.1678 -0.0865
  706TMC3    C610439   3.577   1.222  16.629 -1.0049  0.3066  0.6887
  706TMC3     C10440   3.903   1.015  16.495  0.2082 -0.1442  0.5472
  706TMC3     O10441   3.946   0.943  16.584  0.0625  0.3344 -0.6926
  706TMC3     H10442   3.830   1.247  16.388 -1.3336  0.1339 -1.7562
  706TMC3    H110443   3.716   0.922  16.636 -0.1736 -0.6549  0.1120
  706TMC3    H210444   3.488   1.277  16.659 -0.4945  0.6443  1.5858
  706TMC3    C710445   3.462   1.011  16.683 -0.1663 -0.5330  0.2795
  706TMC3    C810446   3.652   1.417  16.495 -0.1297 -0.0001  0.3899
  706TMC3    O110447   3.468   0.889  16.706 -0.6823 -0.0255  0.3347
  706TMC3    O210448   3.707   1.464  16.397 -0.0167  0.0486 -0.3579
  707TMC3    C110449   0.611   0.060   1.322 -0.4864 -0.0172  0.2288
  707TMC3    C210450   0.712   0.012   1.396 -0.3106  0.1413  0.0665
  707TMC3    C310451   0.691   4.682   1.523  0.6568 -0.9602  0.2885
  707TMC3    C410452   0.484   0.074   1.370  0.3370 -0.7402 -0.6005
  707TMC3    C510453   0.461   0.025   1.492  0.3464  0.0072 -0.0390
  707TMC3    C610454   0.565   4.696   1.569  0.4732 -0.0310 -0.1965
  707TMC3     C10455   0.627   0.107   1.185  0.5997 -0.4948 -0.2833
  707TMC3     O10456   0.538   0.180   1.145  0.0251 -0.6413  0.4875
  707TMC3     H10457   0.811   4.722   1.352 -0.2110 -0.8755  0.5876
  707TMC3    H110458   0.406   0.104   1.301 -0.7842 -1.6874  0.2475
  707TMC3    H210459   0.541   4.646   1.662 -1.6243  1.9540  0.3154
  707TMC3    C710460   0.321   4.716   1.533  1.0802 -0.5124  0.8230
  707TMC3    C810461   0.795   4.683   1.621  0.1205  0.3371  0.2963
  707TMC3    O110462   0.309   4.636   1.625  0.0484 -0.1594  0.2767
  707TMC3    O210463   0.764   0.012   1.734 -0.0120 -0.2847 -0.2123
  708MPD2     C10464   1.890   4.646  14.087  0.3120 -0.2088  0.3257
  708MPD2    C110465   1.817   4.569  14.168  0.5589  0.9527  0.3828
  708MPD2    C210466   1.879   4.526  14.283 -0.2274  0.2705  0.1154
  708MPD2    C310467   2.018   4.532  14.312  0.0094  0.6862  0.0321
  708MPD2    C410468   2.082   4.631  14.242  0.0386 -0.4007  0.4333
  708MPD2    C510469   2.022   4.680  14.128 -0.6223 -0.4070  0.0569
  708MPD2     H10470   1.822   4.467  14.354 -0.5202  0.1537 -0.2211
  708MPD2    H110471   2.187   4.650  14.263 -0.0274  0.7776 -0.3325
  708MPD2    H210472   1.868   4.666  13.983 -0.5421 -0.2372  0.4985
  708MPD2    H310473   2.081   0.024  14.065  0.8442  1.1337  3.0812
  708MPD2     N10474   2.086   4.448  14.401  0.5589  0.5311  0.3960
  708MPD2    H510475   2.180   4.479  14.424  0.5986  1.1367 -0.5775
  708MPD2    N110476   1.681   4.534  14.124 -0.2714 -0.3215  0.3926
  708MPD2    H710477   1.640   4.585  14.047  0.9622  0.5699  0.3331
  709TMC3    C110478   1.459   4.438  14.138  0.0487  0.0604  0.2435
  709TMC3    C210479   1.471   4.371  14.024  0.3634 -0.3819  0.4537
  709TMC3    C310480   1.389   4.260  14.006  0.1064 -0.5587 -0.4423
  709TMC3    C410481   1.371   4.397  14.230 -0.4588 -0.2700 -0.5517
  709TMC3    C510482   1.304   4.276  14.222 -0.3714 -0.7381  0.3404
  709TMC3    C610483   1.310   4.207  14.106 -0.0692 -0.0433  0.0681
  709TMC3     C10484   1.596   4.454  14.199  0.8687  0.1883  0.2240
  709TMC3     O10485   1.615   4.399  14.306 -0.1580  0.5588 -0.4682
  709TMC3     H10486   1.550   4.394  13.954  0.3893 -1.6882  0.0515
  709TMC3    H110487   1.368   4.452  14.324 -0.5519 -0.0916 -0.6578
  709TMC3    H210488   1.255   4.114  14.099 -1.0137  0.4404  1.1194
  709TMC3    C710489   1.320   4.190  14.339 -0.7419 -0.6478  1.0376
  709TMC3    C810490   1.400   4.191  13.875 -0.0541  0.5639  0.1431
  709TMC3    O110491   1.248   4.091  14.359  0.3050  0.3417 -0.3171
  709TMC3    O210492   1.348   4.080  13.858 -0.0396  0.5771  0.2376
  710TMC3    C110493   3.178   1.439   0.391  0.1385 -0.8730 -0.2130
  710TMC3    C210494   3.179   1.364   0.278  0.2364  0.4617 -0.1432
  710TMC3    C310495   3.268   1.257   0.272 -0.1210  0.1195 -0.5219
  710TMC3    C410496   3.239   1.400   0.508 -0.4262 -0.3852  0.1409
  710TMC3    C510497   3.317   1.289   0.505  0.2562 -0.0071 -0.7502
  710TMC3    C610498   3.333   1.218   0.390  0.2615  0.3382 -0.7464
  710TMC3     C10499   3.075   1.541   0.397 -0.2723 -0.2030 -0.5912
  710TMC3     O10500   3.063   1.628   0.308  0.8472 -0.6051 -0.2884
  710TMC3     H10501   3.110   1.391   0.199 -0.2357  0.8045  0.3947
  710TMC3    H110502   3.208   1.448   0.601  0.0225 -1.8753  1.0672
  710TMC3    H210503   3.398   1.131   0.391 -0.6175 -0.3119 -0.1281
  710TMC3    C710504   3.365   1.244   0.636 -1.1733 -0.0500  0.1097
  710TMC3    C810505   3.253   1.154   0.166  0.5213 -0.0909 -0.6994
  710TMC3    O110506   3.400   1.126   0.637 -0.1713  0.3384 -0.2418
  710TMC3    O210507   3.264   1.040   0.201  0.2803 -0.1200 -0.6564
  711TMC3    C110508   2.576   1.815  15.053 -0.3418  0.6563 -0.1142
  711TMC3    C210509   2.569   1.913  15.155  0.2844 -0.1889 -0.3677
  711TMC3    C310510   2.655   1.894  15.261  0.1078  0.2098  0.1897
  711TMC3    C410511   2.664   1.715  15.052  0.4871 -1.0908  0.5535
  711TMC3    C510512   2.759   1.707  15.148 -0.2659  0.8409 -0.3563
  711TMC3    C610513   2.745   1.789  15.256  0.0133 -0.7670 -0.1550
  711TMC3     C10514   2.465   1.802  14.962 -0.3576  0.2461  0.5974
  711TMC3     O10515   2.473   1.709  14.881 -0.4973 -0.0239  0.0990
  711TMC3     H10516   2.507   2.001  15.160 -1.7875 -1.6911  0.3918
  711TMC3    H110517   2.669   1.643  14.971 -0.1205 -0.7293  0.1996
  711TMC3    H210518   2.810   1.759  15.338 -0.3078 -1.9970 -0.3513
  711TMC3    C710519   2.863   1.605  15.147 -0.4017  0.1995 -0.4262
  711TMC3    C810520   2.646   1.979  15.383  0.0813  0.6041 -1.0948
  711TMC3    O110521   2.966   1.629  15.212  0.2803  0.3508  0.2453
  711TMC3    O210522   2.533   2.024  15.398  0.2598  0.2325 -0.5520
  712MPD2     C10523   3.593   2.835  13.466  0.4069 -0.0384  0.2873
  712MPD2    C110524   3.707   2.844  13.390  0.2959 -0.1691  0.3350
  712MPD2    C210525   3.796   2.951  13.396  0.2781 -0.4991 -0.5195
  712MPD2    C310526   3.769   3.045  13.498  0.9196 -0.1791 -0.4667
  712MPD2    C410527   3.652   3.041  13.567 -0.2427 -0.7513  0.6473
  712MPD2    C510528   3.555   2.946  13.544 -0.3123 -0.0691 -0.0148
  712MPD2     H10529   3.883   2.952  13.332  0.9594 -0.3539  0.3987
  712MPD2    H110530   3.628   3.123  13.635  1.6314 -0.4426  0.9261
  712MPD2    H210531   3.528   2.748  13.470  1.4468 -0.8320  0.0924
  712MPD2    H310532   3.459   2.956  13.593 -0.5193 -0.3756 -0.3577
  712MPD2     N10533   3.855   3.152  13.523 -0.0697  0.1461 -0.0482
  712MPD2    H510534   3.822   3.235  13.571  0.2507  0.1928  0.0885
  712MPD2    N110535   3.749   2.743  13.301 -0.4665  0.3682  0.7163
  712MPD2    H710536   3.806   2.779  13.226 -1.4448 -0.1990 -0.2991
  713TMC3    C110537   4.051   3.297  13.508 -0.3228  0.6736  0.0308
  713TMC3    C210538   4.183   3.283  13.532  0.2649 -0.3970 -0.0718
  713TMC3    C310539   4.233   3.393  13.595  0.4516  1.3774  0.3254
  713TMC3    C410540   3.977   3.414  13.517 -0.2135  1.2073 -0.1244
  713TMC3    C510541   4.043   3.518  13.569  0.0060  0.5754  0.0023
  713TMC3    C610542   4.172   3.507  13.624  0.7687  0.1000  0.1129
  713TMC3     C10543   3.983   3.168  13.476  0.1567  0.1981  0.3630
  713TMC3     O10544   4.054   3.083  13.422  0.2841  0.3446 -0.0925
  713TMC3     H10545   4.241   3.194  13.509 -1.4552 -1.2712 -1.0658
  713TMC3    H110546   3.869   3.414  13.504 -0.0273  0.9528 -1.7449
  713TMC3    H210547   4.210   3.590  13.681  0.0692  1.5184 -1.4941
  713TMC3    C710548   3.991   3.652  13.561 -0.2437  0.2137  0.1361
  713TMC3    C810549   4.372   3.393  13.636 -0.1765  0.1333  0.1815
  713TMC3    O110550   4.058   3.743  13.608  0.0026 -0.0791 -0.1399
  713TMC3    O210551   4.449   3.352  13.552  0.5168 -0.6539 -0.0855
  714MPD2     C10552   0.824   1.685   1.890 -0.0398 -0.0717 -0.1789
  714MPD2    C110553   0.867   1.590   1.802 -0.2941 -0.3584 -0.4706
  714MPD2    C210554   0.858   1.624   1.669 -0.2243 -0.2907 -0.4195
  714MPD2    C310555   0.822   1.746   1.621 -0.3282  0.8658  0.4179
  714MPD2    C410556   0.775   1.837   1.712 -0.9708  0.1525  0.6593
  714MPD2    C510557   0.780   1.804   1.845  0.1181  0.5966 -0.4002
  714MPD2     H10558   0.879   1.548   1.594  0.8595 -0.9864  0.5988
  714MPD2    H110559   0.757   1.940   1.683  0.7585  0.1480 -0.3987
  714MPD2    H210560   0.826   1.665   1.997  0.0626  0.9273  0.0021
  714MPD2    H310561   0.753   1.879   1.918 -0.0338  0.9561 -0.8217
  714MPD2     N10562   0.832   1.770   1.479 -0.0578 -0.5475 -0.1917
  714MPD2    H510563   0.876   1.705   1.415  0.2361 -0.7761  0.2424
  714MPD2    N110564   0.920   1.475   1.844 -0.3266 -0.1017 -0.2661
  714MPD2    H710565   0.929   1.453   1.943  2.2483  2.6305  0.0901
  715TMC3    C110566   1.052   1.285   1.829  0.4909 -0.5447 -0.5264
  715TMC3    C210567   1.070   1.162   1.772  0.0248 -0.4083 -0.3636
  715TMC3    C310568   1.131   1.060   1.839  0.5419 -0.3714 -0.1301
  715TMC3    C410569   1.115   1.309   1.950  0.4716  0.1574  0.0758
  715TMC3    C510570   1.173   1.205   2.019 -0.5062 -0.5537 -1.1765
  715TMC3    C610571   1.184   1.077   1.967 -0.2934  0.4637 -0.2147
  715TMC3     C10572   0.982   1.385   1.757  0.0864 -0.6326 -0.4624
  715TMC3     O10573   0.951   1.350   1.643  0.2449 -0.4042 -0.6155
  715TMC3     H10574   1.018   1.136   1.681  1.6769 -0.3291 -1.3163
  715TMC3    H110575   1.115   1.409   1.991 -3.5309 -0.6757  2.1474
  715TMC3    H210576   1.219   0.991   2.025 -0.0604  1.0266  0.4770
  715TMC3    C710577   1.294   1.232   2.082 -0.5554 -0.7551  0.5250
  715TMC3    C810578   1.232   0.998   1.761 -0.1348  0.1161  0.1014
  715TMC3    O110579   1.385   1.154   2.054 -0.1737  0.0264  0.4658
  715TMC3    O210580   1.206   1.002   1.642  0.4479  0.1450 -0.9086
  716MPD2     C10581   1.561   3.958  10.020  0.5284  0.5425 -0.4778
  716MPD2    C110582   1.477   4.039   9.958  0.9897 -0.3546  0.5213
  716MPD2    C210583   1.382   3.989   9.865 -0.8051  0.4652  0.0504
  716MPD2    C310584   1.374   3.855   9.841 -0.5091  0.1811 -0.6365
  716MPD2    C410585   1.465   3.771   9.908  0.8004 -0.5564  0.4470
  716MPD2    C510586   1.559   3.825   9.993 -0.4395  0.0846 -0.8083
  716MPD2     H10587   1.315   4.063   9.823 -0.4366  1.3671  1.0570
  716MPD2    H110588   1.462   3.664   9.893  1.2012 -0.5344  0.1925
  716MPD2    H210589   1.638   4.000  10.084 -0.5962  0.4212  0.9668
  716MPD2    H310590   1.639   3.764  10.033  0.0045  1.5907  0.6043
  716MPD2     N10591   1.275   3.812   9.752  0.4796 -0.2088  0.2204
  716MPD2    H510592   1.243   3.891   9.697  0.6308 -1.1498 -1.2151
  716MPD2    N110593   1.488   4.182   9.977 -0.0232  0.1648 -0.7739
  716MPD2    H710594   1.578   4.228   9.991 -0.0507 -0.3233  1.0930
  717TMC3    C110595   1.142   3.665   9.627 -0.5418  0.0507 -0.0445
  717TMC3    C210596   1.076   3.781   9.590  1.0855 -0.4425 -0.0070
  717TMC3    C310597   0.957   3.757   9.524 -0.3347  0.0611 -0.4609
  717TMC3    C410598   1.095   3.539   9.608  0.1650  0.3333 -0.3873
  717TMC3    C510599   0.976   3.527   9.543 -0.3829  0.0052  0.1096
  717TMC3    C610600   0.905   3.630   9.497  0.3942 -0.3550 -0.7356
  717TMC3     C10601   1.232   3.685   9.739 -0.4233  0.5972 -0.6697
  717TMC3     O10602   1.258   3.592   9.814 -0.5167  0.3258 -0.0112
  717TMC3     H10603   1.090   3.885   9.618 -0.1685 -0.5321  0.9799
  717TMC3    H110604   1.147   3.450   9.642  0.0979 -0.4669 -2.3448
  717TMC3    H210605   0.809   3.613   9.449 -0.9544  0.7996  1.5082
  717TMC3    C710606   0.928   3.389   9.523 -0.3260 -0.7783  0.4972
  717TMC3    C810607   0.873   3.878   9.513  0.0719 -0.4933 -0.0740
  717TMC3    O110608   1.007   3.300   9.511 -0.4350  0.3571  0.1626
  717TMC3    O210609   0.922   3.989   9.527 -0.3538 -0.2331 -0.0021
  718MPD2     C10610   0.884   3.284  12.963 -0.3730 -0.1304 -0.0323
  718MPD2    C110611   0.881   3.370  12.854 -1.4778 -0.8133 -0.1575
  718MPD2    C210612   0.786   3.351  12.755 -0.1118 -0.1928 -0.2286
  718MPD2    C310613   0.694   3.248  12.769 -0.0281  0.5410  0.4661
  718MPD2    C410614   0.699   3.165  12.872  0.0739 -0.1759 -0.0824
  718MPD2    C510615   0.785   3.187  12.969 -0.3755  0.3071  0.2685
  718MPD2     H10616   0.780   3.423  12.675 -1.2517 -0.9279 -0.8018
  718MPD2    H110617   0.635   3.080  12.890  0.3756 -0.3368  0.2203
  718MPD2    H210618   0.950   3.296  13.048  0.7183  2.5128 -1.2354
  718MPD2    H310619   0.797   3.127  13.059 -0.9342  0.5258  0.4849
  718MPD2     N10620   0.598   3.234  12.667 -0.3791  0.4671  0.2480
  718MPD2    H510621   0.608   3.296  12.588  0.3787 -1.2819 -1.0135
  718MPD2    N110622   0.980   3.464  12.850  0.1899  0.0005 -0.1167
  718MPD2    H710623   1.026   3.488  12.937  0.7809  1.3558 -0.8074
  719TMC3    C110624   1.053   3.667  12.779  0.2705  0.1895  0.2848
  719TMC3    C210625   0.950   3.750  12.813 -0.7449 -0.0026 -0.3792
  719TMC3    C310626   0.936   3.869  12.751 -0.0801  0.1301  0.0969
  719TMC3    C410627   1.152   3.713  12.699  0.4360  0.3480  0.2025
  719TMC3    C510628   1.138   3.842  12.653  0.4308  0.4861 -0.4782
  719TMC3    C610629   1.035   3.923  12.678  0.6876  1.1451  0.1385
  719TMC3     C10630   1.008   3.534  12.741  0.5187  0.3925  0.4967
  719TMC3     O10631   1.001   3.507  12.623  0.1976  0.0731 -0.2557
  719TMC3     H10632   0.881   3.712  12.887  0.1883 -1.0742 -0.0532
  719TMC3    H110633   1.238   3.649  12.681 -0.0757  0.2197 -1.7965
  719TMC3    H210634   1.022   4.020  12.632 -1.8804  1.9565  2.5520
  719TMC3    C710635   1.267   3.893  12.620 -0.3616 -0.3561 -0.3078
  719TMC3    C810636   0.799   3.864  12.688 -0.2868  0.2979 -0.1378
  719TMC3    O110637   1.350   3.816  12.579  0.1950 -0.0145  0.2248
  719TMC3    O210638   0.712   3.807  12.755  0.5808 -0.1564  0.7156
  720MPD2     C10639   4.131   4.439  14.060 -0.4461  0.2685 -0.0545
  720MPD2    C110640   4.183   4.559  14.005  0.6135  0.1445  0.1761
  720MPD2    C210641   4.304   4.608  14.045  0.4142 -0.0396  0.3732
  720MPD2    C310642   4.375   4.537  14.136 -0.3978 -0.0224  0.3609
  720MPD2    C410643   4.324   4.415  14.183 -0.2658 -0.0092  0.5487
  720MPD2    C510644   4.206   4.361  14.148 -0.0373 -0.7107 -0.4625
  720MPD2     H10645   4.337   4.706  14.013  0.2273  0.2587  1.0907
  720MPD2    H110646   4.379   4.354  14.254  0.8736  1.4550  0.9074
  720MPD2    H210647   4.040   4.390  14.029 -0.2658  0.5747 -1.0676
  720MPD2    H310648   4.171   4.261  14.168 -0.0108 -0.9472 -1.5729
  720MPD2     N10649   4.483   4.602  14.198  0.9899 -0.6882 -0.3403
  720MPD2    H510650   4.532   4.678  14.153 -0.6863  1.6151  1.7627
  720MPD2    N110651   4.100   4.652  13.928  0.1992  0.1189  0.2920
  720MPD2    H710652   4.138   0.021  13.908 -0.3271  0.9139  2.9339
  721TMC3    C110653   4.645   4.658  14.342  0.7600  0.0676 -0.2754
  721TMC3    C210654   4.666   4.675  14.477  0.2475  0.1507 -0.0957
  721TMC3    C310655   0.073   4.710  14.520  0.6429 -0.1824 -0.1170
  721TMC3    C410656   0.020   4.679  14.247 -0.3704 -0.1605 -0.2167
  721TMC3    C510657   0.147   4.712  14.292 -0.1097  0.2249  0.4344
  721TMC3    C610658   0.177   0.003  14.427 -0.6609 -0.7631  0.0102
  721TMC3     C10659   4.531   4.571  14.320 -0.3593  0.1779 -0.1964
  721TMC3     O10660   4.487   4.498  14.412 -0.1558 -0.5737  0.2408
  721TMC3     H10661   4.588   4.641  14.544  0.4065 -1.0936 -0.5491
  721TMC3    H110662   0.003   4.667  14.141  0.9461  1.8010 -0.6373
  721TMC3    H210663   0.280   0.026  14.452 -1.0550  0.2379  0.6863
  721TMC3    C710664   0.253   4.685  14.195 -0.1879  0.3064 -0.1894
  721TMC3    C810665   0.107   0.018  14.660  0.7056  1.1933  1.1976
  721TMC3    O110666   0.252   0.017  14.085 -0.7364 -0.8471 -0.1179
  721TMC3    O210667   0.229   0.016  14.686  0.1131  0.0210 -0.1755
  722MPD2     C10668   2.934   3.247  13.173 -1.1659 -0.1465 -0.3113
  722MPD2    C110669   2.855   3.358  13.201  0.3880  0.0165 -0.0689
  722MPD2    C210670   2.715   3.346  13.178  0.0255 -0.8192 -0.0444
  722MPD2    C310671   2.663   3.223  13.146 -0.3774 -0.6703  0.0836
  722MPD2    C410672   2.745   3.113  13.128 -0.3827 -0.4305  0.6843
  722MPD2    C510673   2.880   3.127  13.148  0.0612  0.4183  0.2446
  722MPD2     H10674   2.656   3.437  13.187 -1.4474 -1.6103 -1.9307
  722MPD2    H110675   2.701   3.015  13.112 -2.6935  0.9139 -1.2382
  722MPD2    H210676   3.042   3.246  13.183 -1.0109 -2.4653 -2.0307
  722MPD2    H310677   2.952   3.046  13.144 -0.1754  0.3876 -3.0936
  722MPD2     N10678   2.526   3.224  13.118 -0.1829 -0.5327 -0.1738
  722MPD2    H510679   2.469   3.307  13.110  0.0429 -0.3590  0.0197
  722MPD2    N110680   2.907   3.483  13.248 -0.0436 -1.0239  0.4818
  722MPD2    H710681   2.852   3.568  13.233 -0.7971 -1.2394  1.9539
  723TMC3    C110682   2.323   3.152  13.037 -0.3354  0.1324 -0.1854
  723TMC3    C210683   2.209   3.079  13.061  0.1983  0.6073 -0.2267
  723TMC3    C310684   2.088   3.128  13.017 -0.2325  0.2739  0.1713
  723TMC3    C410685   2.315   3.279  12.980  0.0533  0.5252  0.4570
  723TMC3    C510686   2.189   3.319  12.937 -0.4993  0.2642 -0.1326
  723TMC3    C610687   2.072   3.247  12.954  0.9248  0.4846  0.1737
  723TMC3     C10688   2.445   3.114  13.097  0.6581 -0.1631  0.3620
  723TMC3     O10689   2.480   2.999  13.100  0.5323 -0.3871 -0.2958
  723TMC3     H10690   2.214   2.985  13.116 -2.7190 -1.2100 -3.0716
  723TMC3    H110691   2.396   3.343  12.946  0.9270 -1.1613 -0.5999
  723TMC3    H210692   1.979   3.276  12.906  0.5989 -1.0316 -0.1045
  723TMC3    C710693   2.178   3.443  12.872 -0.1239 -0.8802  0.0149
  723TMC3    C810694   1.978   3.036  13.027  0.1257  0.9665 -0.2868
  723TMC3    O110695   2.083   3.448  12.787  0.0689 -0.1186 -0.3011
  723TMC3    O210696   1.863   3.082  13.022 -0.3400  0.5112 -0.4334
  724TMC3    C110697   3.239   1.700   9.806 -1.3325 -1.3656 -0.0349
  724TMC3    C210698   3.170   1.784   9.723 -0.6245  0.7353 -0.4810
  724TMC3    C310699   3.197   1.916   9.722  0.1344  0.3054  0.3278
  724TMC3    C410700   3.346   1.749   9.877 -0.6181 -0.1178 -0.4301
  724TMC3    C510701   3.361   1.888   9.887 -0.2514  0.2577  0.0591
  724TMC3    C610702   3.288   1.974   9.805  0.4124  0.6797  0.3893
  724TMC3     C10703   3.179   1.583   9.862  0.1337  0.1562 -0.4188
  724TMC3     O10704   3.234   1.529   9.953 -0.2149  0.1894 -0.0730
  724TMC3     H10705   3.076   1.754   9.679 -0.7956 -0.2237  0.5530
  724TMC3    H110706   3.408   1.684   9.939 -0.3942  1.2877  0.8099
  724TMC3    H210707   3.294   2.080   9.823  0.9350  0.9665 -1.4027
  724TMC3    C710708   3.451   1.948   9.989  0.9235 -0.0209 -1.0433
  724TMC3    C810709   3.125   1.991   9.613 -0.5565 -0.0635  0.6189
  724TMC3    O110710   3.492   2.064   9.973  0.5203 -0.1181  0.1499
  724TMC3    O210711   3.049   1.925   9.541 -0.4096 -0.1787 -0.0435
  725TMC3    C110712   4.511   0.280  13.033 -0.1816 -0.3833 -0.5312
  725TMC3    C210713   4.449   0.282  12.909 -0.3007 -0.0887  0.0894
  725TMC3    C310714   4.423   0.164  12.847  0.8866  0.6268  0.5551
  725TMC3    C410715   4.551   0.158  13.087 -0.4099  0.9141 -0.3089
  725TMC3    C510716   4.530   0.040  13.016  0.8333 -0.0476 -0.0344
  725TMC3    C610717   4.462   0.045  12.899 -0.9129  0.8396 -0.6792
  725TMC3     C10718   4.539   0.407  13.095 -0.0011  0.1927  0.1581
  725TMC3     O10719   4.533   0.502  13.016  0.7711  0.0793 -0.1955
  725TMC3     H10720   4.403   0.376  12.879 -3.2067 -2.1731 -2.0405
  725TMC3    H110721   4.613   0.146  13.176 -1.2591 -1.3467 -0.0195
  725TMC3    H210722   4.445   4.680  12.837 -0.8032 -1.5989  2.7637
  725TMC3    C710723   4.614   4.647  13.036  0.2487  0.4812 -0.2945
  725TMC3    C810724   4.356   0.169  12.720  0.0612  0.2054  0.3124
  725TMC3    O110725   4.618   4.566  12.945 -0.2364  0.4329  0.1841
  725TMC3    O210726   4.307   0.071  12.676  0.3159 -0.3887 -0.1662
  726MPD2     C10727   2.882   1.819  10.691 -0.3848 -0.3879  0.2617
  726MPD2    C110728   2.795   1.871  10.603  0.3641 -0.0177 -0.3205
  726MPD2    C210729   2.670   1.810  10.585  0.5251 -0.3210 -0.1630
  726MPD2    C310730   2.642   1.694  10.667 -0.2105  0.1746 -0.1618
  726MPD2    C410731   2.740   1.645  10.753 -0.2430  0.2623  0.8530
  726MPD2    C510732   2.866   1.702  10.763  0.9364  0.1461  0.4168
  726MPD2     H10733   2.599   1.853  10.514  0.8994 -0.6457 -0.7351
  726MPD2    H110734   2.704   1.570  10.822 -1.9638  0.9584  0.7253
  726MPD2    H210735   2.975   1.874  10.701 -0.7913  0.6281 -1.5809
  726MPD2    H310736   2.938   1.677  10.839  1.4630 -0.3824 -0.2592
  726MPD2     N10737   2.518   1.633  10.679 -0.7558  0.2818  0.2369
  726MPD2    H510738   2.503   1.549  10.733  0.0783  0.1635  0.2843
  726MPD2    N110739   2.821   1.980  10.519 -0.3499  0.7175 -0.2936
  726MPD2    H710740   2.749   2.005  10.453 -2.6857  2.0649  2.7835
  727TMC3    C110741   2.944   2.164  10.413 -0.2872  0.8284 -0.2867
  727TMC3    C210742   3.021   2.276  10.455 -0.1853  0.4862 -0.0461
  727TMC3    C310743   3.013   2.393  10.386  0.2406 -0.1709  0.5912
  727TMC3    C410744   2.843   2.183  10.325 -0.1256  0.1870  0.1421
  727TMC3    C510745   2.829   2.302  10.267 -0.2886 -0.1066 -0.1196
  727TMC3    C610746   2.913   2.407  10.291 -0.7095  0.0791 -0.7731
  727TMC3     C10747   2.945   2.051  10.507 -0.0100  0.1855 -0.3877
  727TMC3     O10748   3.049   2.030  10.566 -0.4389 -0.2124 -0.9190
  727TMC3     H10749   3.106   2.262  10.521  0.1510 -0.3783 -0.6635
  727TMC3    H110750   2.783   2.101  10.288  1.9641 -1.8383  1.2530
  727TMC3    H210751   2.917   2.499  10.235  2.4480  0.9306  0.8189
  727TMC3    C710752   2.725   2.317  10.164 -0.4778 -0.4492  0.4128
  727TMC3    C810753   3.091   2.505  10.438  0.0183  0.1111 -0.2253
  727TMC3    O110754   2.659   2.221  10.129 -0.5977  0.0308  0.3697
  727TMC3    O210755   3.149   2.484  10.540  0.0817  0.2958  0.4070
  728TMC3    C110756   1.734   0.635  15.177 -0.8624  0.0275 -0.1134
  728TMC3    C210757   1.853   0.585  15.141  0.0062 -0.2804 -0.2026
  728TMC3    C310758   1.881   0.599  15.009  0.3895 -0.2329  0.3271
  728TMC3    C410759   1.646   0.688  15.086 -0.0292 -0.1533  0.1813
  728TMC3    C510760   1.681   0.701  14.954 -0.2836  0.1026 -0.0913
  728TMC3    C610761   1.804   0.651  14.912  0.2156 -0.2450  1.1194
  728TMC3     C10762   1.724   0.636  15.321 -0.6633  0.5442  0.3378
  728TMC3     O10763   1.827   0.654  15.384  0.0823  0.2320  0.2793
  728TMC3     H10764   1.927   0.542  15.208  0.5849  2.6227  0.9942
  728TMC3    H110765   1.558   0.746  15.113  0.7406  0.8485  0.5602
  728TMC3    H210766   1.830   0.660  14.808  0.6931  0.4205  1.3004
  728TMC3    C710767   1.610   0.780  14.858 -0.0081  0.1301  0.4372
  728TMC3    C810768   2.023   0.605  14.981 -0.2028  0.5486  0.2097
  728TMC3    O110769   1.488   0.765  14.875  0.2688 -0.3016  0.1312
  728TMC3    O210770   2.094   0.572  15.073  0.0814 -0.6251 -0.1586
  729MPD2     C10771   3.745   1.893  16.780  0.0726  0.5153 -0.5601
  729MPD2    C110772   3.825   1.811  16.861 -0.5321  0.0875 -0.6601
  729MPD2    C210773   3.808   1.805  17.001  0.0504  0.0007 -0.3220
  729MPD2    C310774   3.712   1.887  17.053  0.3775  0.3142 -0.0103
  729MPD2    C410775   3.635   1.970  16.971  0.2001 -0.0323 -0.0335
  729MPD2    C510776   3.645   1.964  16.837  0.9700 -0.5043  0.2688
  729MPD2     H10777   3.877   1.744  17.058 -0.3495  0.4805  0.6898
  729MPD2    H110778   3.555   2.029  17.014 -0.0168 -0.6905  0.4691
  729MPD2    H210779   3.754   1.892  16.672  1.2356  1.3890 -0.4615
  729MPD2    H310780   3.584   2.027  16.774 -0.0208 -0.8503  0.8756
  729MPD2     N10781   3.698   1.900  17.196 -0.2451  0.0540 -0.3502
  729MPD2    H510782   3.662   1.990  17.227  1.2853  0.2737  0.8245
  729MPD2    N110783   3.932   1.741  16.794 -0.2343  0.1238  0.6069
  729MPD2    H710784   3.933   1.743  16.692  1.7307  2.0464  0.6540
  730TMC3    C110785   3.820   1.892  17.401 -0.7609  0.1856 -0.5058
  730TMC3    C210786   3.894   1.837  17.489 -0.2578  0.1501  0.2786
  730TMC3    C310787   3.974   1.910  17.574  0.2206 -0.0226 -0.0621
  730TMC3    C410788   3.793   2.027  17.420 -0.4726 -0.5448  0.0529
  730TMC3    C510789   3.888   2.102  17.490  0.2927 -0.5225 -0.0676
  730TMC3    C610790   3.979   2.046  17.578 -0.5786  0.7114 -0.1121
  730TMC3     C10791   3.772   1.822  17.284  0.7413  0.9534  0.4420
  730TMC3     O10792   3.812   1.706  17.277  0.4458  0.3717  0.0417
  730TMC3     H10793   3.899   1.729  17.478 -2.4880  0.0555  0.1486
  730TMC3    H110794   3.713   2.078  17.368  0.9298  0.9320 -0.6564
  730TMC3    H210795   4.033   2.106  17.650 -0.3171 -0.5732  0.7472
  730TMC3    C710796   3.933   2.211  17.416  0.0944 -0.5843 -0.4220
  730TMC3    C810797   4.083   1.837  17.639  0.3354 -0.2736  0.2038
  730TMC3    O110798   3.927   2.205  17.297 -0.1769 -0.6712  0.2934
  730TMC3    O210799   4.118   1.861   0.064  0.6087  0.1026  0.0771
  731MPD2     C10800   3.887   4.370  12.536 -0.3352  0.1790  0.8273
  731MPD2    C110801   3.984   4.273  12.527  0.6120  0.8502  0.0991
  731MPD2    C210802   4.005   4.186  12.632  0.0473  0.5638 -0.6074
  731MPD2    C310803   3.928   4.187  12.746  0.2577  0.1577  0.0066
  731MPD2    C410804   3.840   4.290  12.758  0.2208 -0.4764  0.0865
  731MPD2    C510805   3.837   4.383  12.660 -0.8161 -1.2061  0.2194
  731MPD2     H10806   4.081   4.109  12.624  1.3577  1.8573 -0.6099
  731MPD2    H110807   3.788   4.314  12.850 -0.2062 -0.8902 -0.0433
  731MPD2    H210808   3.867   4.443  12.458  2.8579 -1.2319 -1.3067
  731MPD2    H310809   3.768   4.464  12.682 -2.6973 -2.9322  0.7708
  731MPD2     N10810   3.945   4.080  12.842  0.0455  0.3179 -0.5484
  731MPD2    H510811   4.018   4.012  12.825  1.4635  2.0615 -1.3660
  731MPD2    N110812   4.066   4.271  12.410  0.4496 -0.2066 -0.1288
  731MPD2    H710813   4.045   4.348  12.347  0.7129  0.6389  0.8090
  732TMC3    C110814   4.225   4.192  12.253  0.0911  0.2271 -0.2994
  732TMC3    C210815   4.125   4.215  12.155  0.2830 -0.3746  0.4118
  732TMC3    C310816   4.147   4.148  12.038  0.6749  0.6253 -0.7470
  732TMC3    C410817   4.335   4.111  12.242  0.5981  0.8840 -0.1083
  732TMC3    C510818   4.352   4.056  12.121 -0.2795  0.2012  0.5890
  732TMC3    C610819   4.261   4.073  12.019 -0.8945 -0.3092  0.0531
  732TMC3     C10820   4.181   4.200  12.393 -0.1480  0.1677  0.3802
  732TMC3     O10821   4.234   4.115  12.461 -0.1020 -0.3246 -0.6473
  732TMC3     H10822   4.033   4.273  12.158 -0.1725 -1.0278 -0.8576
  732TMC3    H110823   4.403   4.093  12.324  2.3036 -1.1496 -1.9832
  732TMC3    H210824   4.270   4.009  11.932 -1.7389  1.5336 -1.3889
  732TMC3    C710825   4.485   4.010  12.080 -0.2101 -0.2690 -0.2326
  732TMC3    C810826   4.033   4.103  11.958  0.1391  0.0017  0.0019
  732TMC3    O110827   4.520   4.040  11.967 -0.8146  0.5815  0.0577
  732TMC3    O210828   4.056   4.064  11.847  0.0043 -0.1359  0.2688
  733TMC3    C110829   0.165   3.285  12.572  0.5802  0.4244  0.9067
  733TMC3    C210830   0.260   3.205  12.632  0.1085 -0.5405 -0.4578
  733TMC3    C310831   0.385   3.214  12.583 -0.4240  0.0053 -0.9065
  733TMC3    C410832   0.196   3.368  12.469 -0.1155  0.1947  0.2078
  733TMC3    C510833   0.321   3.380  12.430  0.0622 -0.0755  0.0829
  733TMC3    C610834   0.419   3.308  12.486 -0.4671  0.2740 -0.2386
  733TMC3     C10835   0.031   3.312  12.626 -0.7748 -0.5066  0.4713
  733TMC3     O10836   4.666   3.358  12.552 -0.1776 -0.0205 -0.3075
  733TMC3     H10837   0.232   3.136  12.711 -0.6490 -1.0693 -1.1875
  733TMC3    H110838   0.122   3.442  12.441 -1.5371 -1.2880  0.0562
  733TMC3    H210839   0.515   3.303  12.436 -1.1829  4.1821 -1.9749
  733TMC3    C710840   0.362   3.496  12.349 -0.0554  0.5194  0.3154
  733TMC3    C810841   0.481   3.166  12.673 -0.0997 -0.2931  0.4220
  733TMC3    O110842   0.323   3.512  12.236 -0.6702 -0.1991  0.1842
  733TMC3    O210843   0.461   3.069  12.743 -0.7813 -0.1857  0.0599
  734MPD2     C10844   2.288   0.939  12.398  0.1738 -0.3395  1.0080
  734MPD2    C110845   2.236   0.820  12.334 -0.1776 -0.3527 -0.1184
  734MPD2    C210846   2.294   0.782  12.211  0.0044 -0.3901 -0.2318
  734MPD2    C310847   2.392   0.855  12.145  0.0552  0.5666  0.0913
  734MPD2    C410848   2.430   0.974  12.205 -0.5799 -0.0319 -0.1216
  734MPD2    C510849   2.374   1.017  12.323 -0.0897 -0.0539  0.3871
  734MPD2     H10850   2.248   0.711  12.143  0.4226  0.3087 -1.2480
  734MPD2    H110851   2.493   1.045  12.152  0.2115 -0.5857  0.0721
  734MPD2    H210852   2.254   0.981  12.492 -1.9052  1.0012 -0.3312
  734MPD2    H310853   2.431   1.098  12.367 -0.4843  0.8992 -0.8574
  734MPD2     N10854   2.423   0.819  12.015 -1.0366  0.2218 -0.8440
  734MPD2    H510855   2.389   0.727  11.989 -0.1708  0.1169 -1.6047
  734MPD2    N110856   2.145   0.731  12.396  0.1212  0.4080 -0.1572
  734MPD2    H710857   2.123   0.744  12.494  0.0072 -0.1457 -0.1109
  735TMC3    C110858   2.010   0.535  12.396 -0.4264 -0.5037 -0.1310
  735TMC3    C210859   1.914   0.467  12.330 -0.0058  0.2011 -0.1056
  735TMC3    C310860   1.902   0.332  12.324  0.0578  0.8344  0.9993
  735TMC3    C410861   2.102   0.465  12.467  0.7246  0.5925 -0.6856
  735TMC3    C510862   2.082   0.329  12.468  0.3452 -0.2798  0.3042
  735TMC3    C610863   1.985   0.255  12.404  0.1776  0.0485 -0.6778
  735TMC3     C10864   2.066   0.645  12.317 -0.5727 -0.2127  0.5089
  735TMC3     O10865   2.057   0.621  12.198 -0.0873  0.5649 -1.0089
  735TMC3     H10866   1.831   0.516  12.282 -1.5831 -1.9515  0.4393
  735TMC3    H110867   2.187   0.515  12.511  2.4340 -1.7386 -1.3417
  735TMC3    H210868   1.978   0.148  12.392 -1.3523 -0.1395  1.8081
  735TMC3    C710869   2.204   0.260  12.491  0.2171 -0.4465 -0.0616
  735TMC3    C810870   1.899   0.272  12.188 -0.6764  0.3283 -0.0797
  735TMC3    O110871   2.313   0.317  12.483 -0.5359 -0.2694  0.0175
  735TMC3    O210872   1.860   0.156  12.182  0.0568 -0.2230 -0.5847
  736MPD2     C10873   2.232   4.660  12.644  0.6625 -0.4127 -0.1641
  736MPD2    C110874   2.281   0.039  12.570  0.0013 -0.2696  0.2241
  736MPD2    C210875   2.403   0.028  12.510  0.4890 -0.5552  0.3064
  736MPD2    C310876   2.485   4.640  12.533 -0.2040  0.7321  0.8835
  736MPD2    C410877   2.430   4.544  12.615 -0.2146  0.3073 -0.3067
  736MPD2    C510878   2.310   4.553  12.675 -0.0273 -0.7521 -0.4690
  736MPD2     H10879   2.433   0.109  12.445  0.0453  1.2706  2.3724
  736MPD2    H110880   2.498   4.472  12.659  0.5518  1.4925  0.4429
  736MPD2    H210881   2.134   4.659  12.688  0.9095 -0.2716  0.3894
  736MPD2    H310882   2.268   4.464  12.722  1.1701 -0.2373  1.5815
  736MPD2     N10883   2.618   4.629  12.474  0.2299  0.1111 -0.3064
  736MPD2    H510884   2.670   4.542  12.482 -0.1500 -0.1565 -0.7200
  736MPD2    N110885   2.178   0.132  12.539 -0.0604 -0.1237 -1.0899
  736MPD2    H710886   2.090   0.116  12.586  1.1288 -0.4377  1.0616
  737TMC3    C110887   2.814   4.683  12.363 -0.0788  0.4030  0.3638
  737TMC3    C210888   2.898   0.069  12.330 -0.0540  0.4620 -0.2065
  737TMC3    C310889   3.012   0.039  12.256  0.6883  0.1754  0.1031
  737TMC3    C410890   2.830   4.560  12.309  0.3367 -0.7272 -0.0279
  737TMC3    C510891   2.926   4.553  12.213  0.4730  0.1359 -0.5359
  737TMC3    C610892   3.017   4.646  12.187  0.4003 -0.2735 -0.7604
  737TMC3     C10893   2.678   4.721  12.396  0.3708  0.2638  0.7995
  737TMC3     O10894   2.637   0.105  12.355  0.0422  0.0063 -0.4027
  737TMC3     H10895   2.881   0.175  12.348 -0.4664 -0.0550  2.3471
  737TMC3    H110896   2.755   4.483  12.321 -0.4267  0.1015  0.5263
  737TMC3    H210897   3.091   4.635  12.108  1.2817 -1.6619  0.2768
  737TMC3    C710898   2.954   4.415  12.158  0.0300  0.1065 -0.0899
  737TMC3    C810899   3.080   0.150  12.186  0.2967  0.1789 -0.1584
  737TMC3    O110900   2.887   4.321  12.200 -0.2908 -0.1441  0.0542
  737TMC3    O210901   3.197   0.163  12.221 -0.0705  0.8712  0.2113
  738MPD2     C10902   3.146   3.817  15.504  0.0265  0.4647 -0.3302
  738MPD2    C110903   3.241   3.735  15.459  0.0377 -0.0359  0.0452
  738MPD2    C210904   3.362   3.781  15.409  0.8153 -0.3357  0.4616
  738MPD2    C310905   3.378   3.919  15.397 -0.7655 -0.8334  1.1133
  738MPD2    C410906   3.274   4.006  15.428 -0.2967  0.3873 -0.2012
  738MPD2    C510907   3.159   3.954  15.483 -0.2379  0.6989  0.7195
  738MPD2     H10908   3.440   3.710  15.384  0.1617 -0.7250 -0.4659
  738MPD2    H110909   3.286   4.111  15.404 -0.4012 -0.2894 -3.2031
  738MPD2    H210910   3.047   3.792  15.540  0.5213  0.4227  1.0114
  738MPD2    H310911   3.077   4.020  15.510 -0.9862  0.6289 -1.3780
  738MPD2     N10912   3.494   3.982  15.343 -0.3540 -0.2636 -0.3741
  738MPD2    H510913   3.491   4.081  15.321  1.5649  0.0996  1.0470
  738MPD2    N110914   3.215   3.602  15.447  0.1332 -0.0826  0.5159
  738MPD2    H710915   3.299   3.550  15.423 -1.7706 -1.2069 -3.7500
  739TMC3    C110916   3.696   3.987  15.230 -0.1433  0.1977 -0.2066
  739TMC3    C210917   3.628   4.012  15.106  0.2512 -0.1465  0.8628
  739TMC3    C310918   3.704   4.017  14.991 -0.2905  0.2581 -0.4162
  739TMC3    C410919   3.830   3.967  15.237  0.3358  0.2087  0.2445
  739TMC3    C510920   3.898   3.982  15.123 -0.3779  0.0889 -0.4440
  739TMC3    C610921   3.837   4.014  14.998  0.4092 -0.7653 -0.4774
  739TMC3     C10922   3.613   3.915  15.324 -0.2361 -0.4438 -0.0297
  739TMC3     O10923   3.657   3.815  15.376 -0.1003  0.5461  0.4143
  739TMC3     H10924   3.520   4.010  15.106  0.2532  0.1094  3.0235
  739TMC3    H110925   3.872   3.920  15.325 -0.1789 -0.6828  0.0121
  739TMC3    H210926   3.887   4.027  14.903  1.2415 -0.5038 -0.0022
  739TMC3    C710927   4.035   3.948  15.121 -0.2531  0.1810  0.7380
  739TMC3    C810928   3.627   4.017  14.868  0.0459 -0.0301  0.1573
  739TMC3    O110929   4.086   3.874  15.203 -0.0025 -0.1028 -0.2843
  739TMC3    O210930   3.511   4.056  14.883  0.1155 -0.0198  0.2147
  740TMC3    C110931   4.127   0.331  14.416  0.2784 -0.4923  0.0054
  740TMC3    C210932   4.165   0.254  14.525 -0.0872 -0.1962 -0.3349
  740TMC3    C310933   4.277   0.181  14.523  0.1403  0.4612 -0.1322
  740TMC3    C410934   4.216   0.347  14.310  0.4135  0.4050  0.1751
  740TMC3    C510935   4.332   0.281  14.315 -0.3616 -0.4877  0.1792
  740TMC3    C610936   4.361   0.187  14.414  1.0688  0.2947  0.3426
  740TMC3     C10937   4.008   0.409  14.422  0.4845  0.2769 -0.8412
  740TMC3     O10938   4.002   0.496  14.341  0.5932 -0.1931 -0.0729
  740TMC3     H10939   4.098   0.250  14.611 -1.9254 -0.3964 -1.7786
  740TMC3    H110940   4.192   0.411  14.225 -1.6663 -0.0350  0.4228
  740TMC3    H210941   4.441   0.114  14.420 -1.3903 -2.4256  0.0263
  740TMC3    C710942   4.408   0.250  14.199  0.3374  0.8212  0.5527
  740TMC3    C810943   4.332   0.109  14.634  0.0363 -0.5760 -0.4238
  740TMC3    O110944   4.503   0.175  14.213  0.2159 -0.0642  0.2065
  740TMC3    O210945   4.455   0.100  14.638  0.0697  0.1260 -0.6032
  741TMC3    C110946   3.641   4.408  14.743  0.0383 -0.3993  0.0572
  741TMC3    C210947   3.506   4.406  14.727  0.0231  0.0754  0.9042
  741TMC3    C310948   3.436   4.374  14.840 -0.2236  0.2185 -0.0495
  741TMC3    C410949   3.691   4.398  14.868 -0.7582 -0.4610  0.4805
  741TMC3    C510950   3.616   4.374  14.976  0.3276 -0.2000 -0.0057
  741TMC3    C610951   3.485   4.358  14.962  0.3896  0.2109  0.0119
  741TMC3     C10952   3.722   4.364  14.637  0.2650 -0.0789 -0.3201
  741TMC3     O10953   3.840   4.366  14.661 -0.1396  0.0803  0.4438
  741TMC3     H10954   3.453   4.425  14.635  1.8785  1.6517  0.1608
  741TMC3    H110955   3.798   4.396  14.888 -0.6293  0.6070 -0.0975
  741TMC3    H210956   3.414   4.345  15.043 -0.0029  1.3464 -0.1527
  741TMC3    C710957   3.658   4.436  15.098 -0.4417 -0.1340  0.0287
  741TMC3    C810958   3.301   4.346  14.810 -0.6483 -0.2735 -0.1569
  741TMC3    O110959   3.620   4.383  15.200  0.2079 -0.8811 -0.0880
  741TMC3    O210960   3.244   4.432  14.744  0.1160  0.1175 -0.0811
  742TMC3    C110961   3.194   2.955  15.121  0.9068 -0.1452 -0.6457
  742TMC3    C210962   3.098   2.943  15.022 -0.2173  0.4843  0.0119
  742TMC3    C310963   3.138   2.946  14.900 -1.0958 -0.1604  0.0942
  742TMC3    C410964   3.322   2.979  15.091 -0.0820  0.0397  0.2441
  742TMC3    C510965   3.355   2.974  14.960 -0.1581  0.2205 -0.6643
  742TMC3    C610966   3.268   2.949  14.862 -0.1482 -0.0896 -0.2937
  742TMC3     C10967   3.167   2.915  15.254  0.2154 -0.2425 -0.5106
  742TMC3     O10968   3.063   2.853  15.266  0.0654  0.3899 -0.1227
  742TMC3     H10969   3.001   2.909  15.056  0.0512 -0.5292 -0.2312
  742TMC3    H110970   3.398   2.966  15.167  0.6586 -0.5317 -0.5886
  742TMC3    H210971   3.290   2.957  14.756  2.0548  0.0323  0.1783
  742TMC3    C710972   3.496   2.951  14.935  0.8258 -0.1189  0.7853
  742TMC3    C810973   3.046   2.901  14.801  0.2422  0.5508  0.0094
  742TMC3    O110974   3.532   2.860  14.857  0.1037  0.0519  0.0114
  742TMC3    O210975   3.092   2.863  14.692  0.2155  0.3346 -0.2950
  743MPD2     C10976   1.959   4.606   1.825  0.3993  0.1082 -0.5067
  743MPD2    C110977   1.969   4.491   1.746  0.6369  0.5059 -0.2888
  743MPD2    C210978   2.093   4.437   1.723  0.4060  0.1643 -0.3464
  743MPD2    C310979   2.197   4.477   1.794 -0.0685 -0.5672  0.4018
  743MPD2    C410980   2.186   4.584   1.881 -0.6534 -0.8885 -0.3054
  743MPD2    C510981   2.067   4.647   1.901 -0.6060  0.1586 -0.6101
  743MPD2     H10982   2.118   4.362   1.650 -1.0354  0.6660 -1.3542
  743MPD2    H110983   2.275   4.610   1.938 -1.2260  1.1717 -0.3851
  743MPD2    H210984   1.863   4.656   1.824 -0.9191 -2.3940 -0.3252
  743MPD2    H310985   2.062   0.011   1.966  1.5888 -1.5601  1.8435
  743MPD2     N10986   2.320   4.420   1.756 -0.2816  0.3302 -0.3118
  743MPD2    H510987   2.310   4.354   1.679 -0.1612  0.6571 -0.6057
  743MPD2    N110988   1.844   4.445   1.688 -0.2640  0.7944  0.2947
  743MPD2    H710989   1.759   4.500   1.701  0.6869  2.3763 -0.2580
  744TMC3    C110990   1.704   4.292   1.576 -0.2229  0.4450 -0.3552
  744TMC3    C210991   1.594   4.376   1.584 -0.4271 -0.2452  0.1481
  744TMC3    C310992   1.479   4.327   1.525 -0.0107  0.0776  0.0164
  744TMC3    C410993   1.695   4.180   1.502 -0.2448 -0.1012 -0.0986
  744TMC3    C510994   1.585   4.148   1.426 -0.2842  0.4558  0.3125
  744TMC3    C610995   1.470   4.220   1.444  0.3659  0.7770  1.2326
  744TMC3     C10996   1.840   4.324   1.626 -0.1343  0.0896  0.0861
  744TMC3     O10997   1.918   4.228   1.627  0.4977 -0.3624 -0.1519
  744TMC3     H10998   1.603   4.480   1.612  1.0980 -0.6740  1.2528
  744TMC3    H110999   1.781   4.113   1.498  0.8887  1.3444 -0.1279
  744TMC3    H211000   1.377   4.193   1.396  1.0091  0.4749  0.1704
  744TMC3    C711001   1.585   4.049   1.326 -0.3783 -0.5016  0.1006
  744TMC3    C811002   1.349   4.388   1.555  0.2291 -0.4432 -0.9104
  744TMC3    O111003   1.482   4.025   1.266 -0.5422 -0.7770 -0.3597
  744TMC3    O211004   1.251   4.348   1.493  0.3702 -0.0404 -0.6595
  745TMC3    C111005   3.693   2.546  13.191  0.4251  0.6945  0.4097
  745TMC3    C211006   3.620   2.437  13.218  0.1569  0.4243  0.8067
  745TMC3    C311007   3.493   2.412  13.172 -0.2272  0.7140  0.0184
  745TMC3    C411008   3.637   2.633  13.102 -0.4193 -0.1750 -0.6300
  745TMC3    C511009   3.518   2.604  13.044  0.2159 -0.3098 -0.3055
  745TMC3    C611010   3.444   2.503  13.082  0.4860  0.1208 -0.6560
  745TMC3     C11011   3.720   2.613  13.314  0.0169  1.2750  0.3402
  745TMC3     O11012   3.689   2.553  13.414  0.5024 -0.2162 -0.5469
  745TMC3     H11013   3.684   2.369  13.272 -0.0646  0.0470  0.5957
  745TMC3    H111014   3.709   2.695  13.052 -2.7008  1.9400 -1.2838
  745TMC3    H211015   3.348   2.497  13.032  0.3020  1.4755 -0.4776
  745TMC3    C711016   3.462   2.696  12.946  0.3019  0.2726  0.8342
  745TMC3    C811017   3.399   2.381  13.277  0.5832  0.1158  0.3169
  745TMC3    O111018   3.361   2.661  12.882  0.0525  0.1654 -0.9293
  745TMC3    O211019   3.291   2.339  13.235  0.5048 -0.2711  0.1587
  746TMC3    C111020   1.332   4.395  11.134  0.7079 -0.6125  0.6786
  746TMC3    C211021   1.425   4.335  11.053  0.0429 -0.4030  0.2987
  746TMC3    C311022   1.387   4.234  10.968  0.6060  0.0514 -0.4546
  746TMC3    C411023   1.202   4.349  11.138  0.2294  0.5758 -0.3065
  746TMC3    C511024   1.175   4.237  11.064  0.0101 -0.1915  0.5070
  746TMC3    C611025   1.263   4.180  10.972 -0.3086  0.4640  0.7271
  746TMC3     C11026   1.343   4.543  11.159  0.1329 -0.6227 -0.1297
  746TMC3     O11027   1.256   4.607  11.221 -0.5458  0.3119  0.7255
  746TMC3     H11028   1.531   4.358  11.046 -0.4043  1.5639 -0.0410
  746TMC3    H111029   1.129   4.405  11.195  3.4291  3.2502  1.1723
  746TMC3    H211030   1.246   4.081  10.933  0.2161  0.2893  0.9465
  746TMC3    C711031   1.045   4.177  11.065  0.1884 -0.1075  0.3918
  746TMC3    C811032   1.469   4.216  10.854  0.1167  0.0191  0.1189
  746TMC3    O111033   1.032   4.077  10.991 -0.2896  0.1084 -0.2509
  746TMC3    O211034   1.456   4.111  10.792 -0.1671 -0.0027  0.7128
  747TMC3    C111035   3.288   4.333  11.198  0.4383 -0.7399 -0.0888
  747TMC3    C211036   3.245   4.259  11.306 -0.2265 -0.7565  0.2067
  747TMC3    C311037   3.307   4.278  11.426 -0.1483  0.1474  0.2391
  747TMC3    C411038   3.391   4.425  11.209 -0.6867  0.8459 -0.2798
  747TMC3    C511039   3.455   4.438  11.333 -0.2152 -0.4076  0.0629
  747TMC3    C611040   3.401   4.371  11.444  0.4821 -0.1381 -0.3113
  747TMC3     C11041   3.193   4.350  11.097 -0.3257  0.6758  0.2928
  747TMC3     O11042   3.074   4.330  11.130  0.5471 -0.4068 -0.2505
  747TMC3     H11043   3.167   4.185  11.296 -0.3476 -0.2953 -2.4232
  747TMC3    H111044   3.418   4.485  11.123 -0.0602  0.5997 -0.2585
  747TMC3    H211045   3.446   4.396  11.540 -1.6761  3.7046 -0.2770
  747TMC3    C711046   3.556   4.544  11.352  0.1567  0.3719 -0.2872
  747TMC3    C811047   3.249   4.212  11.539  0.0559 -0.4126 -0.8394
  747TMC3    O111048   3.561   4.591  11.464  0.2103  0.2738  0.0894
  747TMC3    O211049   3.199   4.100  11.522 -0.1952 -0.2857  0.0672
  748MPD2     C11050   0.279   0.080   1.966  0.6694  0.5144 -0.1035
  748MPD2    C111051   0.408   0.057   2.008  0.2057  0.3019  0.3545
  748MPD2    C211052   0.513   0.105   1.926  0.3620  0.1065  0.0657
  748MPD2    C311053   0.489   0.185   1.819  0.0246 -0.6018  0.0606
  748MPD2    C411054   0.366   0.229   1.799 -0.2354  0.1099  0.1551
  748MPD2    C511055   0.265   0.171   1.860  0.0528 -1.0455 -0.0209
  748MPD2     H11056   0.619   0.081   1.934  0.3593 -0.3018 -1.1640
  748MPD2    H111057   0.338   0.291   1.715  1.0073 -0.5801 -0.7640
  748MPD2    H211058   0.186   0.045   2.010  2.4967 -1.1494  2.3935
  748MPD2    H311059   0.170   0.206   1.822  1.5631  1.8873 -1.1102
  748MPD2     N11060   0.598   0.233   1.742 -0.2843 -0.1875 -0.3706
  748MPD2    H511061   0.686   0.210   1.786 -1.1374  0.5511  1.6823
  748MPD2    N111062   0.409   4.696   2.124 -0.0404  0.7010 -0.3182
  748MPD2    H711063   0.325   4.671   2.175  0.1097  1.8586  0.5132
  749TMC3    C111064   0.721   0.320   1.551 -0.2331  0.7812  0.8801
  749TMC3    C211065   0.840   0.323   1.623 -0.0539  0.3006  1.1743
  749TMC3    C311066   0.956   0.363   1.565  0.0387 -0.1916 -0.1530
  749TMC3    C411067   0.718   0.361   1.423  0.5588 -0.0654 -0.5136
  749TMC3    C511068   0.834   0.412   1.368  0.1468 -0.2498  0.0239
  749TMC3    C611069   0.955   0.416   1.435  0.0890  0.6242  0.0620
  749TMC3     C11070   0.597   0.312   1.623  0.2867  0.1603  0.0760
  749TMC3     O11071   0.501   0.354   1.562 -0.0833  0.5003  0.3923
  749TMC3     H11072   0.836   0.280   1.723  1.2041 -2.2722  0.1329
  749TMC3    H111073   0.623   0.355   1.371  0.5403  1.9831 -0.7372
  749TMC3    H211074   1.040   0.465   1.389 -0.6885  1.9152  0.0098
  749TMC3    C711075   0.831   0.482   1.248 -0.0905 -0.1977 -0.4901
  749TMC3    C811076   1.077   0.339   1.641  0.1454 -0.6002 -0.2663
  749TMC3    O111077   0.916   0.560   1.229 -0.1391  0.5444  0.0376
  749TMC3    O211078   1.066   0.340   1.767 -0.0334  0.1519  0.0440
  750MPD2     C11079   1.749   1.622  11.439  0.3018  0.1721  0.2061
  750MPD2    C111080   1.614   1.609  11.439  0.5626 -0.5661  0.1819
  750MPD2    C211081   1.559   1.511  11.356  0.0733  0.0695  0.2173
  750MPD2    C311082   1.637   1.414  11.305  0.1376  0.0851  0.2205
  750MPD2    C411083   1.775   1.420  11.324 -0.4790  0.2473  0.6973
  750MPD2    C511084   1.828   1.530  11.381  0.0240  0.5597  0.4968
  750MPD2     H11085   1.454   1.498  11.334 -0.3266  0.1440  2.0193
  750MPD2    H111086   1.838   1.344  11.278 -3.5505 -1.6357 -0.4399
  750MPD2    H211087   1.800   1.707  11.483  0.7306 -0.4930  0.9894
  750MPD2    H311088   1.935   1.540  11.393  0.3258 -0.2324 -1.5123
  750MPD2     N11089   1.588   1.302  11.236 -0.1890  1.1148  0.6490
  750MPD2    H511090   1.657   1.227  11.226 -2.3903 -1.0962  1.9733
  750MPD2    N111091   1.540   1.714  11.493  0.6906 -0.4810 -0.4453
  750MPD2    H711092   1.594   1.788  11.537 -3.1734  1.4171  1.1047
  751TMC3    C111093   1.449   1.130  11.158  0.3410  0.9488  0.3670
  751TMC3    C211094   1.333   1.061  11.185  0.1858 -0.0908  0.4727
  751TMC3    C311095   1.339   0.924  11.179 -0.4361 -0.0496  0.2245
  751TMC3    C411096   1.553   1.064  11.103  0.2671 -0.1837  0.2153
  751TMC3    C511097   1.554   0.930  11.094  0.0094  0.0709 -0.2796
  751TMC3    C611098   1.448   0.858  11.137 -0.0481  0.3695  0.0991
  751TMC3     C11099   1.458   1.271  11.198 -0.9213 -0.1552 -0.2933
  751TMC3     O11100   1.351   1.314  11.235 -1.2608 -0.4450  0.1376
  751TMC3     H11101   1.242   1.111  11.217  1.3388  1.4126  1.4061
  751TMC3    H111102   1.635   1.119  11.059 -0.1846 -0.0553 -0.4739
  751TMC3    H211103   1.454   0.750  11.150  0.4152  0.5338  1.3017
  751TMC3    C711104   1.659   0.871  11.010 -0.2800 -0.1900 -0.3633
  751TMC3    C811105   1.218   0.844  11.171 -0.1643  0.2327  0.6313
  751TMC3    O111106   1.757   0.936  10.978  0.0171 -0.3094 -0.5879
  751TMC3    O211107   1.219   0.733  11.117  0.2341 -0.3054 -0.2722
  752TMC3    C111108   4.524   1.083  17.496 -0.0484 -0.4887  0.8013
  752TMC3    C211109   4.574   0.994  17.581 -0.3199 -0.3571 -0.2557
  752TMC3    C311110   4.516   0.977   0.006 -0.4274 -0.1470 -0.3093
  752TMC3    C411111   4.412   1.153  17.531  0.6583 -0.0779 -0.3164
  752TMC3    C511112   4.364   1.141  17.656 -0.0947  0.5672 -0.5913
  752TMC3    C611113   4.401   1.045   0.045 -0.3334 -0.3044  0.4180
  752TMC3     C11114   4.583   1.088  17.366  1.3855  0.6284  0.1709
  752TMC3     O11115   4.679   1.015  17.349 -0.3375  0.1809  0.9266
  752TMC3     H11116   4.661   0.935  17.552  0.2942  0.5851 -0.3323
  752TMC3    H111117   4.376   1.239  17.476  0.4299 -0.5777 -0.9433
  752TMC3    H211118   4.324   1.014   0.115 -0.5126 -1.4581 -0.2861
  752TMC3    C711119   4.238   1.202  17.666  0.6726 -0.0669 -0.1217
  752TMC3    C811120   4.558   0.861   0.080 -0.4801  0.2713  0.0977
  752TMC3    O111121   4.181   1.233  17.557  0.0456 -0.1117  0.4157
  752TMC3    O211122   4.635   0.786   0.024  0.5098  0.2397  0.4860
  753TMC3    C111123   2.263   2.758  13.438  0.2689 -0.1080 -0.4200
  753TMC3    C211124   2.317   2.743  13.564 -0.2324 -0.0195  0.1192
  753TMC3    C311125   2.294   2.617  13.623 -0.2750  0.1876  0.2092
  753TMC3    C411126   2.200   2.659  13.366  0.5705 -0.0974  0.2430
  753TMC3    C511127   2.183   2.536  13.425 -0.5439 -0.2479 -0.1744
  753TMC3    C611128   2.221   2.517  13.559  0.6624 -0.0773 -0.0229
  753TMC3     C11129   2.214   2.893  13.408  0.4022 -0.1309 -0.5671
  753TMC3     O11130   2.094   2.901  13.386  0.2543  0.3456  0.2809
  753TMC3     H11131   2.372   2.822  13.615 -1.3039  2.4009 -2.4356
  753TMC3    H111132   2.147   2.687  13.275 -1.6707  3.3987  2.6399
  753TMC3    H211133   2.194   2.423  13.606 -0.1218 -0.4958 -1.2971
  753TMC3    C711134   2.101   2.430  13.367 -0.4862  0.2228 -0.1287
  753TMC3    C811135   2.280   2.602  13.764  0.1385 -0.0863 -0.4777
  753TMC3    O111136   2.135   2.322  13.414 -0.0558  0.5884  0.6416
  753TMC3    O211137   2.219   2.501  13.805 -0.0521  0.3979  0.5765
  754MPD2     C11138   0.744   1.343  13.055  0.3661  0.1173  0.4125
  754MPD2    C111139   0.693   1.231  13.115  0.2375 -0.7015 -0.7416
  754MPD2    C211140   0.558   1.218  13.127 -0.1161  0.0169 -0.0309
  754MPD2    C311141   0.477   1.314  13.076  0.2060  0.6786  0.4388
  754MPD2    C411142   0.526   1.430  13.020 -1.2406  0.0237  0.6488
  754MPD2    C511143   0.663   1.444  13.006  0.2437  0.9544  0.2349
  754MPD2     H11144   0.523   1.117  13.143  1.2301 -0.3303  0.6827
  754MPD2    H111145   0.450   1.497  12.983 -1.3591 -1.1575 -1.2231
  754MPD2    H211146   0.850   1.358  13.045 -0.2491  1.5453 -4.0983
  754MPD2    H311147   0.708   1.531  12.960 -1.0249  1.7339  0.4705
  754MPD2     N11148   0.332   1.293  13.077 -0.0585  0.0818 -0.1708
  754MPD2    H511149   0.282   1.348  13.008  0.4136  0.7670  0.0275
  754MPD2    N111150   0.784   1.135  13.161 -0.1674  0.1099 -0.2099
  754MPD2    H711151   0.882   1.144  13.135 -0.4812 -0.0140 -1.4613
  755MPD2     C11152   4.410   1.862  13.139 -0.0771 -0.6076 -0.5766
  755MPD2    C111153   4.503   1.830  13.236  0.5638 -0.2929  0.1034
  755MPD2    C211154   4.577   1.710  13.225  0.8528  0.4076 -0.4661
  755MPD2    C311155   4.538   1.616  13.121  0.5186 -0.0320 -0.1769
  755MPD2    C411156   4.452   1.663  13.019 -0.0529 -0.1514 -0.2171
  755MPD2    C511157   4.388   1.785  13.025 -0.4346  0.6565  0.1444
  755MPD2     H11158   4.648   1.674  13.300 -0.7604  4.8334  3.1982
  755MPD2    H111159   4.417   1.592  12.945  1.3354  0.0471 -1.0835
  755MPD2    H211160   4.360   1.958  13.133  0.5449 -0.2250  0.4257
  755MPD2    H311161   4.309   1.815  12.958 -0.3814  1.7507  0.5659
  755MPD2     N11162   4.591   1.487  13.125  0.1504  0.1234  0.0082
  755MPD2    H511163   4.658   1.457  13.195 -1.7228 -1.1964  1.2511
  755MPD2    N111164   4.528   1.924  13.341 -1.1577 -0.2673 -0.6615
  755MPD2    H711165   4.597   1.889  13.407 -1.9989  0.4316  0.5966
  756MPD2     C11166   1.401   2.319   9.855 -0.8052 -0.5894  0.2772
  756MPD2    C111167   1.326   2.259   9.952 -0.2583  0.0191  0.1346
  756MPD2    C211168   1.304   2.124   9.946  0.3957  0.1156  0.2088
  756MPD2    C311169   1.352   2.045   9.848 -0.1582 -0.3209  0.2665
  756MPD2    C411170   1.417   2.113   9.746 -0.4633  0.3518 -0.4170
  756MPD2    C511171   1.447   2.246   9.750  0.4694 -0.1632 -0.0965
  756MPD2     H11172   1.228   2.084  10.011 -0.4724 -0.1269 -0.9555
  756MPD2    H111173   1.470   2.060   9.669  0.7770  1.0952 -0.0715
  756MPD2    H211174   1.420   2.426   9.858  0.8746 -0.7661 -4.6632
  756MPD2    H311175   1.505   2.288   9.668 -0.4642 -1.2860 -1.3318
  756MPD2     N11176   1.346   1.906   9.863  0.3865  0.1188 -0.4995
  756MPD2    H511177   1.299   1.877   9.949  1.8162 -0.9712 -0.0956
  756MPD2    N111178   1.264   2.340  10.056 -0.3101  0.1034 -0.3373
  756MPD2    H711179   1.203   2.294  10.123 -1.2081  1.7033 -0.0708
  757MPD2     C11180   0.605   1.352   9.635  0.7259 -0.2194 -0.1689
  757MPD2    C111181   0.693   1.247   9.639 -0.1460 -0.7078 -0.1777
  757MPD2    C211182   0.819   1.265   9.696  0.1863  0.1398 -0.1357
  757MPD2    C311183   0.855   1.381   9.762 -0.9961  0.0218  0.4040
  757MPD2    C411184   0.759   1.485   9.765 -0.3460  0.0074 -0.6904
  757MPD2    C511185   0.643   1.466   9.698 -0.0044 -0.2209  0.5382
  757MPD2     H11186   0.892   1.185   9.688 -0.7988 -0.6171 -1.6623
  757MPD2    H111187   0.766   1.580   9.816  0.8433  0.0172 -0.8619
  757MPD2    H211188   0.506   1.343   9.593  0.7186  0.5516 -0.3192
  757MPD2    H311189   0.569   1.545   9.698 -1.3005 -1.4277 -1.0484
  757MPD2     N11190   0.995   1.406   9.791  0.1597 -0.0537  0.1161
  757MPD2    H511191   1.059   1.333   9.764 -1.7546 -1.4049 -0.8087
  757MPD2    N111192   0.644   1.118   9.593 -0.0118  1.2706  0.1156
  757MPD2    H711193   0.551   1.115   9.551  0.5144  0.0852 -0.9628
  758MPD2     C11194   0.887   1.199  16.321 -0.3944  0.8109 -0.5258
  758MPD2    C111195   0.995   1.168  16.401 -0.1453 -0.3332 -0.5663
  758MPD2    C211196   1.014   1.251  16.507  0.0524  0.8917 -0.2254
  758MPD2    C311197   0.925   1.352  16.534  0.2287  0.2565  0.0550
  758MPD2    C411198   0.823   1.384  16.453  0.3159 -0.4307  0.5802
  758MPD2    C511199   0.803   1.306  16.345 -0.3839  0.1743  0.5545
  758MPD2     H11200   1.097   1.240  16.576 -1.8495 -0.3360  1.8559
  758MPD2    H111201   0.761   1.472  16.470  1.6912  0.7564 -0.4485
  758MPD2    H211202   0.876   1.144  16.228  1.7530  0.4579 -0.5848
  758MPD2    H311203   0.722   1.334  16.279 -2.2632 -1.2571  2.2847
  758MPD2     N11204   0.932   1.422  16.655 -0.2116  1.1557 -0.0197
  758MPD2    H511205   0.855   1.475  16.696 -0.3050  0.5829  0.5476
  758MPD2    N111206   1.086   1.067  16.374  0.3571 -0.3426 -0.4918
  758MPD2    H711207   1.066   1.008  16.294  0.0797 -0.4868 -0.3159
  759MPD2     C11208   4.311   4.477  10.080 -0.6635  0.2255  0.4168
  759MPD2    C111209   4.192   4.466  10.010 -0.0010 -0.4212  0.5093
  759MPD2    C211210   4.187   4.534   9.887  0.6224  0.4914 -0.3178
  759MPD2    C311211   4.287   4.617   9.843 -0.2472  0.1740  0.0488
  759MPD2    C411212   4.402   4.624   9.920  0.2384  0.1180  0.0173
  759MPD2    C511213   4.414   4.554  10.037  0.5966 -0.1996 -0.2607
  759MPD2     H11214   4.097   4.525   9.827 -0.7746  3.4789  1.3070
  759MPD2    H111215   4.491   4.682   9.897  0.7632  0.1617  2.1478
  759MPD2    H211216   4.330   4.409  10.162  0.8208  3.1780  2.5195
  759MPD2    H311217   4.499   4.555  10.104  2.1464 -0.7180 -2.2685
  759MPD2     N11218   4.268   4.684   9.720  0.1019  0.3558  0.0472
  759MPD2    H511219   4.174   4.677   9.682  0.1386 -0.3024  0.0765
  759MPD2    N111220   4.073   4.401  10.052  0.1044  0.2475  0.4517
  759MPD2    H711221   4.003   4.390   9.980  1.2027 -0.0999 -0.5587
  760MPD2     C11222   4.033   1.355  11.754 -0.2205 -0.3108 -0.1098
  760MPD2    C111223   4.166   1.387  11.779  0.3592  0.0371 -0.9617
  760MPD2    C211224   4.246   1.281  11.817  0.1868  0.6609 -0.8163
  760MPD2    C311225   4.194   1.153  11.836  0.1156  0.5452  0.0846
  760MPD2    C411226   4.064   1.126  11.809  0.0968  1.0100  0.5399
  760MPD2    C511227   3.979   1.230  11.778 -0.1349  0.4786 -0.1997
  760MPD2     H11228   4.351   1.301  11.834  0.6806 -0.5152 -2.4574
  760MPD2    H111229   4.019   1.030  11.832 -0.7845  0.8269 -2.0069
  760MPD2    H211230   3.966   1.434  11.721 -2.6032 -1.4396  1.9926
  760MPD2    H311231   3.873   1.209  11.772  0.7699 -3.8545 -0.7758
  760MPD2     N11232   4.276   1.050  11.886  0.3315 -0.7051 -0.1535
  760MPD2    H511233   4.228   0.960  11.893  0.8181 -0.9160  0.4458
  760MPD2    N111234   4.218   1.512  11.760  0.2397 -0.2320  0.0773
  760MPD2    H711235   4.317   1.524  11.777  0.3161  0.2569 -0.6981
  761MPD2     C11236   0.735   0.703  11.217 -0.5857  0.0201  0.1039
  761MPD2    C111237   0.822   0.699  11.114 -0.2432  1.1350 -0.0277
  761MPD2    C211238   0.942   0.770  11.120 -0.0511 -0.9331 -0.2970
  761MPD2    C311239   0.978   0.851  11.223 -0.2088 -0.2739  0.3357
  761MPD2    C411240   0.875   0.873  11.318  0.1253 -0.3044  0.1318
  761MPD2    C511241   0.760   0.795  11.315  1.7569 -0.3078  0.3232
  761MPD2     H11242   1.006   0.758  11.033 -0.5180  2.9111 -1.1601
  761MPD2    H111243   0.899   0.935  11.404  1.6429 -0.8663  0.0939
  761MPD2    H211244   0.651   0.637  11.234 -1.9126  1.5587 -0.3877
  761MPD2    H311245   0.693   0.803  11.400  0.4932 -0.4319 -0.6758
  761MPD2     N11246   1.107   0.901  11.233 -0.4209 -0.4109  0.0301
  761MPD2    H511247   1.111   0.981  11.295 -0.0655 -1.1158  0.9196
  761MPD2    N111248   0.802   0.601  11.012 -0.3811 -0.0822 -0.3431
  761MPD2    H711249   0.729   0.534  11.034  0.7964 -2.0282 -2.4200
  762MPD2     C11250   1.256   0.695  10.683  0.3564 -0.2051 -0.0638
  762MPD2    C111251   1.222   0.575  10.616 -0.6441  0.4709 -0.4884
  762MPD2    C211252   1.325   0.516  10.545  0.0016  0.1037 -0.4578
  762MPD2    C311253   1.451   0.563  10.537  1.2827  0.5434  0.8717
  762MPD2    C411254   1.485   0.675  10.608 -1.0059 -0.1927  0.7319
  762MPD2    C511255   1.389   0.742  10.678  0.4429  0.6551  0.7651
  762MPD2     H11256   1.309   0.423  10.492 -0.4192  0.5115 -1.0444
  762MPD2    H111257   1.586   0.715  10.607 -0.2380 -2.1433  3.5812
  762MPD2    H211258   1.177   0.749  10.735  1.0747  1.5141 -0.7561
  762MPD2    H311259   1.429   0.822  10.739 -1.7485  3.0118 -0.8935
  762MPD2     N11260   1.549   0.481  10.480  0.0851 -0.1645 -0.4080
  762MPD2    H511261   1.523   0.394  10.435 -0.1683 -0.1545 -0.2790
  762MPD2    N111262   1.093   0.523  10.631  0.8235  0.0035 -0.8605
  762MPD2    H711263   1.027   0.591  10.668  2.0996  1.6205 -1.5522
  763MPD2     C11264   2.439   1.233  15.859 -0.1339 -0.3506  0.6811
  763MPD2    C111265   2.561   1.275  15.811  0.3321 -0.1140 -0.3559
  763MPD2    C211266   2.630   1.367  15.888  0.1517  0.1125  0.1342
  763MPD2    C311267   2.575   1.413  16.013 -0.0007  0.1472 -0.4081
  763MPD2    C411268   2.459   1.355  16.060 -0.3149  0.6966 -0.7054
  763MPD2    C511269   2.388   1.277  15.979  0.2978  0.0376 -0.3883
  763MPD2     H11270   2.718   1.413  15.843 -0.9178  1.3968 -0.6594
  763MPD2    H111271   2.410   1.387  16.151  2.1849 -0.3593  1.0310
  763MPD2    H211272   2.376   1.169  15.800 -2.1876  0.1594  2.3210
  763MPD2    H311273   2.289   1.237  15.994  0.6878 -1.0176 -0.5621
  763MPD2     N11274   2.649   1.505  16.088 -0.6487 -0.0040 -0.6245
  763MPD2    H511275   2.728   1.544  16.037 -1.3300  0.4817 -1.3135
  763MPD2    N111276   2.615   1.238  15.683 -0.4535 -0.5551 -0.2556
  763MPD2    H711277   2.711   1.265  15.661 -0.8087 -0.0668 -1.1847
  764MPD2     C11278   0.371   2.834  17.478 -0.8902 -0.7256 -0.1012
  764MPD2    C111279   0.431   2.728  17.411  0.4180  0.6804 -0.2882
  764MPD2    C211280   0.479   2.624  17.486  0.2938  0.0310 -0.4063
  764MPD2    C311281   0.488   2.630  17.622  0.0535 -0.4025  0.4606
  764MPD2    C411282   0.444   2.746  17.683 -0.5554 -0.2935  0.2681
  764MPD2    C511283   0.385   2.842  17.609  0.2972  0.5394 -0.2868
  764MPD2     H11284   0.514   2.528  17.450  3.5910  1.2834 -0.5903
  764MPD2    H111285   0.444   2.755   0.098 -0.4496  1.9031  0.0810
  764MPD2    H211286   0.317   2.910  17.424 -2.4597 -1.3995  0.5110
  764MPD2    H311287   0.353   2.931  17.663  1.8224  0.4152  0.8288
  764MPD2     N11288   0.532   2.516   0.002  0.7599 -0.4210 -0.4246
  764MPD2    H511289   0.565   2.436  17.641 -0.4142 -0.3838 -1.2023
  764MPD2    N111290   0.431   2.714  17.273  0.6278  0.0822 -0.0549
  764MPD2    H711291   0.490   2.640  17.236  0.5576  0.1245 -0.2517
  765MPD2     C11292   0.304   0.078  15.828  0.2438 -0.2076 -0.2309
  765MPD2    C111293   0.383   0.186  15.848 -0.8784  0.0358  0.4063
  765MPD2    C211294   0.515   0.183  15.822  0.5717  0.2295  0.1060
  765MPD2    C311295   0.579   0.064  15.774 -0.1935 -0.3498  0.2864
  765MPD2    C411296   0.500   4.673  15.771  0.4138 -0.4450 -0.6893
  765MPD2    C511297   0.362   4.682  15.791 -0.2219  0.4321 -0.6711
  765MPD2     H11298   0.578   0.270  15.839 -0.4467  0.6012  1.9660
  765MPD2    H111299   0.541   4.579  15.735 -0.1864 -0.8844 -0.2157
  765MPD2    H211300   0.196   0.089  15.830  0.0158 -2.2204 -1.4990
  765MPD2    H311301   0.303   4.594  15.766 -0.7517  0.9445 -1.2183
  765MPD2     N11302   0.714   0.058  15.747 -0.0868 -0.1391 -0.4538
  765MPD2    H511303   0.750   4.685  15.755 -2.6653 -0.9817  0.9088
  765MPD2    N111304   0.317   0.303  15.900  0.1805 -0.2402 -0.5408
  765MPD2    H711305   0.216   0.299  15.913  0.2624 -0.6517 -0.0246
  766MPD2     C11306   4.633   0.645  15.456 -0.1379  0.5047  0.2260
  766MPD2    C111307   0.040   0.600  15.493  0.0671 -0.6331  0.7818
  766MPD2    C211308   0.125   0.546  15.399  0.2700  0.1660  0.6092
  766MPD2    C311309   0.092   0.547  15.268 -0.3448  0.7155  0.3408
  766MPD2    C411310   4.684   0.589  15.231 -1.1549  0.2896  0.2672
  766MPD2    C511311   4.590   0.637  15.326 -0.5985 -0.0501 -0.4491
  766MPD2     H11312   0.224   0.511  15.425  1.9238  3.5792 -1.1087
  766MPD2    H111313   4.642   0.596  15.131 -0.5421 -1.4707 -0.1015
  766MPD2    H211314   4.553   0.687  15.516  0.2425  1.0418  0.3519
  766MPD2    H311315   4.489   0.663  15.297 -0.0594  1.5381 -0.9152
  766MPD2     N11316   0.182   0.503  15.169 -0.1679 -0.1546 -0.1500
  766MPD2    H511317   0.154   0.529  15.075  0.1414 -0.4171 -0.3169
  766MPD2    N111318   0.084   0.605  15.629  0.2227 -0.3268  0.2752
  766MPD2    H711319   0.175   0.569  15.653 -1.2656 -3.6703  0.8528
  767MPD2     C11320   4.528   0.792  15.011 -0.1368 -0.4738 -0.4805
  767MPD2    C111321   4.662   0.797  14.970 -0.4077 -0.5598  0.5802
  767MPD2    C211322   4.715   0.705  14.880 -0.1596 -0.4148  0.5203
  767MPD2    C311323   4.632   0.602  14.842  0.0327 -0.2574 -0.2724
  767MPD2    C411324   4.502   0.594  14.883  0.0627  0.3476 -0.0268
  767MPD2    C511325   4.448   0.690  14.966 -0.6130 -0.8592  0.1156
  767MPD2     H11326   0.093   0.723  14.844 -1.1884 -2.1578 -3.2429
  767MPD2    H111327   4.436   0.519  14.840  1.9962 -1.4825  0.2136
  767MPD2    H211328   4.481   0.858  15.082 -0.4668  1.7687 -2.7955
  767MPD2    H311329   4.342   0.692  14.990  0.0127 -2.0167  2.9622
  767MPD2     N11330   4.686   0.519  14.744  0.0206 -0.3470  0.7072
  767MPD2    H511331   0.062   0.532  14.725 -0.1409 -1.3456 -0.8502
  767MPD2    N111332   0.018   0.884  15.045 -0.5314  0.2462 -0.6409
  767MPD2    H711333   4.696   0.934  15.122  0.5991 -3.8135  2.6517
  768MPD2     C11334   1.012   3.755  10.598  0.7381  0.1198 -0.4067
  768MPD2    C111335   0.946   3.753  10.722 -0.1942 -0.0614  0.0915
  768MPD2    C211336   1.017   3.760  10.840  0.1916 -0.2029  0.0359
  768MPD2    C311337   1.151   3.774  10.850  0.3868 -0.4328 -0.6248
  768MPD2    C411338   1.219   3.800  10.729 -0.2663 -0.0976  1.0322
  768MPD2    C511339   1.148   3.788  10.605 -0.1603  0.0206  0.3544
  768MPD2     H11340   0.965   3.750  10.935  1.1009  0.0456  0.5561
  768MPD2    H111341   1.326   3.816  10.722 -0.2106 -0.6382  0.6390
  768MPD2    H211342   0.972   3.728  10.500 -2.9921  3.1473  0.2839
  768MPD2    H311343   1.207   3.803  10.515 -0.5044  0.6190  0.2272
  768MPD2     N11344   1.225   3.766  10.971  0.3805 -0.3729 -0.2405
  768MPD2    H511345   1.316   3.809  10.960  0.1417  0.8981  3.0187
  768MPD2    N111346   0.806   3.748  10.733  0.0346 -0.7170  0.3298
  768MPD2    H711347   0.772   3.742  10.829  2.8124 -1.9724  1.2430
  769MPD2     C11348   1.759   2.209  14.543 -0.1835 -0.0621 -0.0455
  769MPD2    C111349   1.727   2.095  14.617  0.3530 -0.0043 -0.2148
  769MPD2    C211350   1.731   2.101  14.753 -0.4326 -0.6585  0.3683
  769MPD2    C311351   1.751   2.221  14.818  0.0431 -0.0081 -0.4766
  769MPD2    C411352   1.768   2.334  14.739 -0.1607  0.1664 -0.0194
  769MPD2    C511353   1.773   2.322  14.605  0.5535 -0.0236  0.5743
  769MPD2     H11354   1.725   2.017  14.822 -1.0252  0.0170  1.1474
  769MPD2    H111355   1.771   2.435  14.778 -1.4660 -0.7327  2.4277
  769MPD2    H211356   1.769   2.205  14.436  0.4473  0.7347 -0.0199
  769MPD2    H311357   1.791   2.414  14.550  2.5312  0.4245  1.9618
  769MPD2     N11358   1.752   2.228  14.960  0.4580  0.2794  0.0333
  769MPD2    H511359   1.707   2.154  15.013  3.2359 -3.3624 -2.7100
  769MPD2    N111360   1.702   1.984  14.548 -0.0374  0.6178 -0.5965
  769MPD2    H711361   1.684   1.992  14.448 -0.5503  2.6572 -0.3336
  770MPD2     C11362   1.148   1.206  14.836  0.7133 -0.3182 -0.1503
  770MPD2    C111363   1.273   1.203  14.885  0.1188 -0.3870  0.5932
  770MPD2    C211364   1.373   1.279  14.818 -0.3930 -0.2054  0.7271
  770MPD2    C311365   1.342   1.343  14.702 -0.4057  0.0175 -0.2531
  770MPD2    C411366   1.218   1.332  14.641 -0.2402  0.1689 -0.0741
  770MPD2    C511367   1.117   1.263  14.713 -0.1321 -0.0135 -0.4548
  770MPD2     H11368   1.472   1.293  14.860  0.2052 -0.8859 -0.4507
  770MPD2    H111369   1.186   1.404  14.566 -3.9456  1.2598  2.5183
  770MPD2    H211370   1.063   1.170  14.894  0.1325 -0.8895 -1.3633
  770MPD2    H311371   1.016   1.264  14.675 -1.4753  0.7183  3.1240
  770MPD2     N11372   1.446   1.425  14.654  0.3568 -0.2528 -0.4185
  770MPD2    H511373   1.530   1.422  14.711 -0.5579 -1.1455  0.8724
  770MPD2    N111374   1.302   1.121  15.007  0.0166 -0.2749 -0.3028
  770MPD2    H711375   1.222   1.071  15.045  1.1234  0.0103  2.3561
  771MPD2     C11376   2.616   4.188  13.886 -0.1644 -1.0881 -0.6549
  771MPD2    C111377   2.678   4.293  13.831  0.0949 -0.3468  0.3391
  771MPD2    C211378   2.645   4.322  13.698 -0.7677 -0.0540 -0.0927
  771MPD2    C311379   2.570   4.236  13.623 -0.1821 -0.0518  0.6841
  771MPD2    C411380   2.501   4.129  13.681  0.5007 -0.8360 -0.5661
  771MPD2    C511381   2.521   4.108  13.814 -0.2723  0.1240  0.3242
  771MPD2     H11382   2.680   4.415  13.655 -0.1356 -0.5510 -0.6606
  771MPD2    H111383   2.448   4.057  13.620 -1.0811 -0.6686  0.6184
  771MPD2    H211384   2.627   4.159  13.990  0.3127  2.6529  0.3606
  771MPD2    H311385   2.489   4.015  13.860  1.0593 -0.4131  0.1691
  771MPD2     N11386   2.561   4.257  13.483 -0.3079 -0.2757  0.4301
  771MPD2    H511387   2.622   4.330  13.448  0.3165 -0.8261  0.3643
  771MPD2    N111388   2.762   4.380  13.905 -0.2822 -0.1118 -0.2483
  771MPD2    H711389   2.827   4.444  13.859 -1.1682  2.0341  1.4703
  772MPD2     C11390   2.535   0.286  14.383  0.1216 -1.5016  0.8834
  772MPD2    C111391   2.512   0.228  14.258 -0.1923 -0.2168  0.5550
  772MPD2    C211392   2.394   0.240  14.198 -0.8717  0.0905  0.5889
  772MPD2    C311393   2.301   0.327  14.242 -0.1512  0.5601 -0.4389
  772MPD2    C411394   2.322   0.385  14.369 -0.0517  0.5769 -0.1103
  772MPD2    C511395   2.434   0.361  14.442  0.3345 -0.4091  0.2952
  772MPD2     H11396   2.378   0.187  14.105  2.8087  1.2577 -0.7101
  772MPD2    H111397   2.253   0.459  14.409  0.2933  1.2617 -0.7831
  772MPD2    H211398   2.629   0.287  14.438 -0.0404  1.7336  1.1339
  772MPD2    H311399   2.440   0.406  14.540  0.7486  0.0394  0.0638
  772MPD2     N11400   2.171   0.342  14.188 -0.1362 -0.1424  0.1064
  772MPD2    H511401   2.102   0.404  14.229  0.0789  0.8054 -0.9730
  772MPD2    N111402   2.603   0.138  14.202  0.7908  0.2280  0.4307
  772MPD2    H711403   2.570   0.088  14.119 -0.5304  0.6030  0.7277
  773MPD2     C11404   1.476   1.190   0.102 -0.0650 -0.3625 -0.2135
  773MPD2    C111405   1.393   1.082   0.102  0.3216 -0.4597 -0.2544
  773MPD2    C211406   1.419   0.974   0.193 -0.6411  0.3685  0.3336
  773MPD2    C311407   1.531   0.973   0.273  1.0044  0.0149 -0.0839
  773MPD2    C411408   1.612   1.092   0.269 -0.0997 -0.7087  0.1346
  773MPD2    C511409   1.580   1.197   0.185 -0.0367 -0.0657 -0.1242
  773MPD2     H11410   1.350   0.891   0.197 -0.8631  0.5595  0.4949
  773MPD2    H111411   1.699   1.107   0.332  0.8704 -0.6424 -1.2400
  773MPD2    H211412   1.457   1.263   0.024  1.0527 -0.6081 -0.7096
  773MPD2    H311413   1.628   1.294   0.181  0.3495 -0.2107  1.1704
  773MPD2     N11414   1.565   0.863   0.354  0.0866 -0.7456  0.4061
  773MPD2    H511415   1.496   0.794   0.379 -0.7145  0.5283  1.6872
  773MPD2    N111416   1.275   1.076   0.023 -0.5852  0.5716  0.0252
  773MPD2    H711417   1.213   0.999   0.043  1.0252 -0.9335 -0.7754
  774MPD2     C11418   0.376   0.305  13.627 -0.6761  0.2721 -0.2249
  774MPD2    C111419   0.511   0.325  13.616 -0.7560  0.5820  0.6440
  774MPD2    C211420   0.551   0.455  13.601  0.1619  0.6012  0.2461
  774MPD2    C311421   0.454   0.556  13.591  0.5399  0.1443 -0.9170
  774MPD2    C411422   0.318   0.531  13.579 -0.0722 -0.0784  0.5806
  774MPD2    C511423   0.288   0.404  13.604  0.4541 -0.6822  0.0893
  774MPD2     H11424   0.656   0.481  13.596  0.2747  0.1605  0.3674
  774MPD2    H111425   0.242   0.605  13.558 -0.0039 -0.6911 -1.8661
  774MPD2    H211426   0.339   0.204  13.640 -0.0507  0.0399 -0.2665
  774MPD2    H311427   0.180   0.391  13.604  0.2393  1.0302  0.1344
  774MPD2     N11428   0.505   0.684  13.558 -0.2582  0.4917 -0.0575
  774MPD2    H511429   0.606   0.696  13.567 -0.5178  1.4940  1.5946
  774MPD2    N111430   0.601   0.215  13.617 -0.3291 -0.2570 -0.1886
  774MPD2    H711431   0.564   0.130  13.659  0.5606 -1.0775 -1.0450
  775MPD2     C11432   1.784   1.941  15.499  0.0452  0.3442  0.6343
  775MPD2    C111433   1.808   2.039  15.587 -0.5608 -0.0180 -0.0263
  775MPD2    C211434   1.928   2.110  15.579 -0.2971  0.0662  0.1506
  775MPD2    C311435   2.024   2.078  15.481  0.4585  1.1764  0.5221
  775MPD2    C411436   1.990   1.985  15.386  0.0993 -0.5693 -0.2879
  775MPD2    C511437   1.869   1.919  15.390  0.0939  0.1706 -0.1445
  775MPD2     H11438   1.950   2.187  15.652  1.7082  1.4913 -1.9850
  775MPD2    H111439   2.061   1.967  15.306 -1.7864  0.9708 -2.2953
  775MPD2    H211440   1.687   1.894  15.502 -0.1293  0.7618  1.3907
  775MPD2    H311441   1.835   1.846  15.317 -3.3220  2.6059 -0.9673
  775MPD2     N11442   2.160   2.139  15.480  0.1405  0.6275 -0.1827
  775MPD2    H511443   2.217   2.128  15.397  1.2644  2.0930  0.3892
  775MPD2    N111444   1.719   2.049  15.702 -0.2338 -0.1778 -0.3826
  775MPD2    H711445   1.646   1.980  15.710 -0.6633  0.3092 -0.1603
  776MPD2     C11446   1.289   2.317  11.273  0.1929  0.2895  0.3365
  776MPD2    C111447   1.364   2.316  11.383 -0.9308  0.4903 -0.1441
  776MPD2    C211448   1.441   2.430  11.403 -0.1613  0.3350 -0.0707
  776MPD2    C311449   1.444   2.551  11.334 -0.5631  0.0546 -0.3226
  776MPD2    C411450   1.352   2.551  11.232 -0.2216 -0.3293  0.5122
  776MPD2    C511451   1.288   2.436  11.200 -0.0582  0.1909 -0.6793
  776MPD2     H11452   1.503   2.428  11.492 -2.3471 -0.0770  1.4417
  776MPD2    H111453   1.336   2.647  11.184 -1.1694  0.2814  2.0352
  776MPD2    H211454   1.228   2.230  11.251  1.8981 -0.8664  0.2012
  776MPD2    H311455   1.221   2.445  11.116  0.5835  0.5082 -1.1615
  776MPD2     N11456   1.517   2.670  11.379 -0.0798  0.2008  0.1113
  776MPD2    H511457   1.515   2.751  11.318  0.9587 -1.2378 -1.8389
  776MPD2    N111458   1.380   2.201  11.456 -0.2801 -0.1534 -0.2441
  776MPD2    H711459   1.331   2.117  11.427 -2.6937  1.1478  0.0520
  777MPD2     C11460   1.531   4.696   0.639  0.7619 -0.3543 -0.0509
  777MPD2    C111461   1.616   4.624   0.715  0.2841  0.1662  0.0261
  777MPD2    C211462   1.637   4.494   0.698  0.0067  0.1503 -0.1238
  777MPD2    C311463   1.583   4.437   0.587 -0.2990 -0.1726 -0.1657
  777MPD2    C411464   1.515   4.517   0.491 -0.3644  0.1224  0.5005
  777MPD2    C511465   1.474   4.639   0.530 -0.2776  0.5478 -0.1375
  777MPD2     H11466   1.683   4.439   0.779 -1.6337 -2.9638 -1.3259
  777MPD2    H111467   1.466   4.464   0.410  0.6480  2.4630 -1.6501
  777MPD2    H211468   1.503   0.074   0.668 -2.0741 -1.3791  0.8504
  777MPD2    H311469   1.391   4.688   0.480  0.3074  0.5147 -1.1619
  777MPD2     N11470   1.598   4.301   0.586 -0.5011 -0.1933 -0.3894
  777MPD2    H511471   1.651   4.264   0.664  0.3624  2.2116  0.1597
  777MPD2    N111472   1.659   4.693   0.830  0.0905  0.3332  0.7355
  777MPD2    H711473   1.632   0.065   0.854 -0.2322  0.9140 -2.0256
  778MPD2     C11474   2.998   0.256  15.144 -0.2176  0.1020  1.0211
  778MPD2    C111475   3.000   0.141  15.071 -0.4870  0.8099  0.1524
  778MPD2    C211476   3.073   0.142  14.955 -0.1346  0.1178  1.4313
  778MPD2    C311477   3.132   0.256  14.909  0.2790  0.4766 -0.0797
  778MPD2    C411478   3.110   0.375  14.971  0.0505  0.4382  0.3226
  778MPD2    C511479   3.043   0.371  15.091  0.4487  0.8404  0.0885
  778MPD2     H11480   3.079   0.053  14.894 -0.7397 -0.2615  1.9336
  778MPD2    H111481   3.132   0.470  14.923  1.9601  0.3154  0.9867
  778MPD2    H211482   2.952   0.260  15.242  0.5554 -0.9394  1.4372
  778MPD2    H311483   3.015   0.466  15.135 -2.8111 -0.0636  0.0123
  778MPD2     N11484   3.215   0.247  14.789 -0.2947 -0.1617  0.0486
  778MPD2    H511485   3.230   0.158  14.744 -0.5767  0.0651 -0.4915
  778MPD2    N111486   2.922   0.026  15.104 -0.3131  0.6137 -0.3536
  778MPD2    H711487   2.919   4.676  15.033 -0.2169  0.0762  0.1865
  779MPD2     C11488   2.210   3.631  14.461 -0.1469 -1.3370 -0.2677
  779MPD2    C111489   2.342   3.629  14.495 -0.1830  0.9568  0.1574
  779MPD2    C211490   2.415   3.746  14.482 -0.2624  0.5935  0.2078
  779MPD2    C311491   2.369   3.874  14.439 -0.3505 -0.4125  0.5941
  779MPD2    C411492   2.241   3.868  14.401  0.1252  0.3836  0.4498
  779MPD2    C511493   2.166   3.752  14.414  0.0149  0.6920 -0.1598
  779MPD2     H11494   2.522   3.739  14.498 -0.1232 -0.4717 -1.2146
  779MPD2    H111495   2.188   3.958  14.372  0.9560  0.5349 -0.5612
  779MPD2    H211496   2.149   3.542  14.466 -1.0555 -0.9192 -3.9914
  779MPD2    H311497   2.063   3.760  14.383  0.5618 -1.9037 -2.5495
  779MPD2     N11498   2.451   3.989  14.439  0.1967 -0.7219 -0.2399
  779MPD2    H511499   2.546   3.975  14.470 -0.4596 -1.3687  1.5214
  779MPD2    N111500   2.412   3.510  14.534  0.5221 -0.5255  0.6700
  779MPD2    H711501   2.511   3.520  14.554  0.9539 -0.3641 -1.5131
  780MPD2     C11502   2.352   3.231   1.605 -0.2902 -0.2070 -0.0970
  780MPD2    C111503   2.227   3.239   1.547  0.3661  0.3565  0.5858
  780MPD2    C211504   2.213   3.317   1.435  0.5015  1.1206  0.7780
  780MPD2    C311505   2.324   3.384   1.377 -0.4597  0.2355 -0.5293
  780MPD2    C411506   2.449   3.372   1.440  0.2712  0.4555 -0.3647
  780MPD2    C511507   2.459   3.296   1.554 -0.1912 -0.2603  0.0011
  780MPD2     H11508   2.119   3.319   1.381  0.6333  1.5211  0.5673
  780MPD2    H111509   2.543   3.407   1.398  1.3119  1.0373  2.4420
  780MPD2    H211510   2.362   3.164   1.690 -1.9646  0.3253  0.5030
  780MPD2    H311511   2.551   3.281   1.610 -0.4212  1.0335  0.7257
  780MPD2     N11512   2.297   3.462   1.264 -0.3829  0.0317  0.7927
  780MPD2    H511513   2.207   3.449   1.219 -1.0984  0.6818  2.0581
  780MPD2    N111514   2.121   3.157   1.586  0.1412 -0.0093 -0.6000
  780MPD2    H711515   2.148   3.086   1.653  0.4211  0.7608  0.1104
  781MPD2     C11516   3.482   0.551  12.036  0.0545 -0.1250  1.2114
  781MPD2    C111517   3.579   0.487  12.110 -0.3737  0.3097 -0.2361
  781MPD2    C211518   3.698   0.445  12.052  0.8912  0.9953  0.5965
  781MPD2    C311519   3.715   0.458  11.918  0.0163  0.2577 -0.0081
  781MPD2    C411520   3.617   0.518  11.845 -0.8270 -0.4234  0.2915
  781MPD2    C511521   3.504   0.572  11.902 -0.4000  0.5517  0.7718
  781MPD2     H11522   3.765   0.377  12.103 -0.0018 -0.4419 -0.1534
  781MPD2    H111523   3.636   0.532  11.739  1.2382  0.2808  0.7586
  781MPD2    H211524   3.397   0.601  12.081  0.8110  3.6430 -1.5322
  781MPD2    H311525   3.435   0.625  11.838 -1.3056 -0.3903  0.9749
  781MPD2     N11526   3.830   0.418  11.846 -0.3158  0.0608  0.0456
  781MPD2    H511527   3.831   0.433  11.746  2.1780  1.8113  0.3351
  781MPD2    N111528   3.570   0.458  12.248  0.2136 -0.1247 -0.2743
  781MPD2    H711529   3.650   0.410  12.288  0.0700 -0.5216 -0.4569
  782MPD2     C11530   1.931   1.046  10.278 -0.1738 -0.3399  0.1133
  782MPD2    C111531   2.033   1.022  10.378 -0.6240  0.2578  0.1164
  782MPD2    C211532   2.063   1.120  10.478  0.1801 -0.1593 -0.5402
  782MPD2    C311533   1.979   1.230  10.485  0.1711  0.7329 -0.2422
  782MPD2    C411534   1.880   1.249  10.395  0.0210 -0.2344 -0.2101
  782MPD2    C511535   1.857   1.164  10.290  0.2497  0.2304 -0.3740
  782MPD2     H11536   2.142   1.105  10.551  0.1392 -0.0351 -0.4704
  782MPD2    H111537   1.824   1.340  10.408  1.4462  0.6049  0.0275
  782MPD2    H211538   1.902   0.972  10.204  0.2983  0.0657 -0.4721
  782MPD2    H311539   1.775   1.172  10.220  0.2836 -3.1052 -0.7948
  782MPD2     N11540   2.018   1.322  10.579  0.3809 -0.6746 -0.0535
  782MPD2    H511541   2.079   1.282  10.649 -0.0363 -1.7052 -0.2761
  782MPD2    N111542   2.109   0.904  10.378 -0.4908 -0.7945  0.1769
  782MPD2    H711543   2.069   0.839  10.312  2.1800 -2.3739  0.1125
  783MPD2     C11544   1.650   0.516  10.900 -0.0502  0.2821 -0.0185
  783MPD2    C111545   1.681   0.644  10.897  0.3985 -0.6800 -0.3685
  783MPD2    C211546   1.798   0.675  10.825  0.3368 -0.0593 -0.0335
  783MPD2    C311547   1.872   0.582  10.766 -0.0442 -0.5852 -0.5286
  783MPD2    C411548   1.833   0.449  10.772  0.2029  0.4282  0.7258
  783MPD2    C511549   1.723   0.415  10.838  0.2521  0.5017  0.2723
  783MPD2     H11550   1.830   0.778  10.823  0.2754 -0.0595 -1.4819
  783MPD2    H111551   1.883   0.365  10.724 -2.1453  0.2316 -1.4201
  783MPD2    H211552   1.566   0.490  10.963  0.1720 -0.8438 -0.2024
  783MPD2    H311553   1.701   0.308  10.836 -0.3969  0.6352  0.3154
  783MPD2     N11554   1.986   0.620  10.694  0.1298  0.4602 -0.6211
  783MPD2    H511555   2.015   0.717  10.685 -1.6413  1.1970  1.5744
  783MPD2    N111556   1.620   0.740  10.981 -1.0015 -0.3527 -0.1035
  783MPD2    H711557   1.534   0.699  11.016 -0.8257  0.3447  1.1812
  784MPD2     C11558   4.387   1.972   0.955 -0.0859 -0.1463 -0.6311
  784MPD2    C111559   4.354   1.928   1.079 -0.4829  0.7118  0.2522
  784MPD2    C211560   4.216   1.916   1.105 -0.5286 -0.5154 -0.1011
  784MPD2    C311561   4.117   1.943   1.017 -0.1579 -0.3462  0.7909
  784MPD2    C411562   4.157   1.984   0.898  0.2560 -0.1613 -0.4310
  784MPD2    C511563   4.286   1.993   0.862  0.4956  0.9068 -0.7027
  784MPD2     H11564   4.185   1.875   1.200 -1.4063  2.6104  0.9411
  784MPD2    H111565   4.101   2.005   0.807 -1.4881 -2.9585 -0.0000
  784MPD2    H211566   4.492   1.981   0.928 -0.3273  0.1798 -1.4758
  784MPD2    H311567   4.311   2.021   0.760  1.0652 -0.1846 -0.8603
  784MPD2     N11568   3.988   1.908   1.051 -0.7215 -0.7887  0.3470
  784MPD2    H511569   3.976   1.868   1.143 -0.3814 -0.2669  0.6125
  784MPD2    N111570   4.443   1.900   1.188  0.2156  0.3114  0.0973
  784MPD2    H711571   4.393   1.875   1.273 -0.0829 -0.4892 -0.3148
  785MPD2     C11572   4.382   4.167  10.753  0.8125 -0.0520  0.8533
  785MPD2    C111573   4.348   4.294  10.787  1.3074  0.5237  0.7567
  785MPD2    C211574   4.215   4.336  10.770 -0.1816  0.1542  0.9372
  785MPD2    C311575   4.119   4.247  10.722  0.5329  0.0072  1.0152
  785MPD2    C411576   4.151   4.120  10.685  0.1048 -0.1066  0.2722
  785MPD2    C511577   4.283   4.081  10.699 -1.0995 -0.0938 -0.2687
  785MPD2     H11578   4.178   4.431  10.807 -1.8500 -0.6406  1.3407
  785MPD2    H111579   4.087   4.041  10.647 -0.3412  1.0217 -1.3285
  785MPD2    H211580   4.480   4.121  10.762  0.2184 -1.4770  0.0840
  785MPD2    H311581   4.310   3.982  10.665  1.3057  1.3033 -2.3540
  785MPD2     N11582   3.990   4.299  10.709  0.5815 -0.3721  0.4379
  785MPD2    H511583   3.983   4.394  10.744 -0.6251 -0.9190  1.7094
  785MPD2    N111584   4.441   4.387  10.835 -0.0704 -0.2029  0.6764
  785MPD2    H711585   4.408   4.476  10.871  1.6173 -0.0822  1.9228
  786MPD2     C11586   2.575   2.900  14.641  0.1222 -0.4632 -0.1513
  786MPD2    C111587   2.674   2.817  14.595  0.2106  0.2873 -0.3396
  786MPD2    C211588   2.789   2.826  14.667 -0.2808 -0.1267 -0.1664
  786MPD2    C311589   2.805   2.917  14.770  0.6035  0.7654  0.5602
  786MPD2    C411590   2.702   2.992  14.818 -0.3788  0.4508 -0.5621
  786MPD2    C511591   2.589   2.983  14.748  0.5425 -0.1820 -0.5635
  786MPD2     H11592   2.873   2.761  14.647 -1.0658 -0.7391 -1.4559
  786MPD2    H111593   2.710   3.062  14.900 -1.1724 -1.2547  0.9929
  786MPD2    H211594   2.482   2.906  14.586  0.1141 -0.4328 -0.1349
  786MPD2    H311595   2.507   3.051  14.769  0.4918 -0.1565 -0.8490
  786MPD2     N11596   2.921   2.938  14.841 -0.0069 -0.0240  0.4590
  786MPD2    H511597   2.924   3.001  14.920 -1.0288  0.6908 -0.0543
  786MPD2    N111598   2.660   2.718  14.500 -0.6386 -0.0115  0.2770
  786MPD2    H711599   2.736   2.658  14.472  0.3014  0.5112  1.7228
  787MPD2     C11600   2.922   2.272  14.761 -0.0697  0.1957 -0.1198
  787MPD2    C111601   2.899   2.222  14.638 -0.2537  0.4864 -0.3047
  787MPD2    C211602   2.986   2.129  14.582  0.6395  0.1084 -0.3039
  787MPD2    C311603   3.096   2.086  14.658 -0.5778  0.1870  0.0821
  787MPD2    C411604   3.124   2.150  14.779 -1.0092 -0.1328 -0.3735
  787MPD2    C511605   3.030   2.233  14.830 -0.4078  0.4935 -0.1366
  787MPD2     H11606   2.968   2.080  14.487  1.5777  1.9069 -1.4167
  787MPD2    H111607   3.210   2.113  14.834  0.5168 -0.8096 -3.2177
  787MPD2    H211608   2.851   2.334  14.814 -1.0641 -0.0625 -1.1294
  787MPD2    H311609   3.039   2.269  14.932 -2.8729  1.8191 -0.3885
  787MPD2     N11610   3.194   2.006  14.594 -0.7302  0.1637 -0.2635
  787MPD2    H511611   3.170   1.957  14.509  0.4035 -0.7540 -0.0471
  787MPD2    N111612   2.796   2.281  14.563  0.5025 -0.1495  0.2050
  787MPD2    H711613   2.748   2.361  14.603  1.5001  0.0432  1.0117
  788MPD2     C11614   0.019   0.741   1.304 -1.2607 -0.4432  0.0991
  788MPD2    C111615   0.028   0.708   1.173  0.2399 -0.4414 -0.0319
  788MPD2    C211616   0.079   0.793   1.079 -0.0611  0.0445 -0.2740
  788MPD2    C311617   0.120   0.920   1.121  0.4110  0.3872  0.0618
  788MPD2    C411618   0.114   0.946   1.258  0.2335  0.4523 -0.2237
  788MPD2    C511619   0.072   0.856   1.351  0.7608  0.0879  0.3541
  788MPD2     H11620   0.078   0.760   0.976  0.6992  1.0994 -0.6176
  788MPD2    H111621   0.136   1.046   1.294 -1.9550  0.2988  1.5336
  788MPD2    H211622   0.007   0.666   1.381  0.5776 -1.7086 -0.8295
  788MPD2    H311623   0.076   0.880   1.457 -1.2111  0.5624  0.3279
  788MPD2     N11624   0.171   1.013   1.031  0.0391  0.4369  0.0304
  788MPD2    H511625   0.200   1.104   1.066  1.5879  0.1445 -0.4749
  788MPD2    N111626   4.722   0.576   1.126 -0.5479 -0.3194  0.1379
  788MPD2    H711627   0.013   0.563   1.027  1.3411 -2.5711  0.6953
  789MPD2     C11628   0.537   0.965  17.145 -0.5741 -0.3423  0.3185
  789MPD2    C111629   0.488   0.945  17.016 -0.1557  0.2658 -0.7932
  789MPD2    C211630   0.363   0.890  16.998  0.7691  0.2914  0.1458
  789MPD2    C311631   0.283   0.857  17.105 -1.1018  0.1644  0.3010
  789MPD2    C411632   0.334   0.881  17.238 -0.6312  0.1317 -0.1144
  789MPD2    C511633   0.462   0.932  17.258 -0.5837 -0.0427 -0.1999
  789MPD2     H11634   0.333   0.880  16.894 -0.7711  3.1377  0.3042
  789MPD2    H111635   0.272   0.854  17.323  0.6910  2.1314  1.4916
  789MPD2    H211636   0.634   1.010  17.161 -0.5789 -0.1690 -0.1648
  789MPD2    H311637   0.508   0.943  17.356 -1.7750  0.1903  0.3272
  789MPD2     N11638   0.158   0.800  17.088  0.5302 -0.7593 -0.2801
  789MPD2    H511639   0.112   0.784  17.177  0.4024 -3.2187 -0.7851
  789MPD2    N111640   0.558   0.977  16.904 -0.3950 -0.3921 -0.0161
  789MPD2    H711641   0.523   0.942  16.815  1.4669  0.1486 -0.9661
  790MPD2     C11642   1.423   2.905  13.012  0.7143  0.4067 -0.7839
  790MPD2    C111643   1.398   2.803  13.099  0.0904 -0.6979  1.2845
  790MPD2    C211644   1.327   2.694  13.059 -0.4347 -0.8426  0.2534
  790MPD2    C311645   1.268   2.693  12.933 -0.3290 -0.5198 -0.3759
  790MPD2    C411646   1.303   2.787  12.840 -0.6578 -0.0720 -0.6285
  790MPD2    C511647   1.397   2.888  12.878  0.1253 -0.1104  0.3146
  790MPD2     H11648   1.301   2.620  13.133  0.2164 -0.2105  1.1171
  790MPD2    H111649   1.267   2.785  12.738 -0.7482  0.1269 -0.6008
  790MPD2    H211650   1.482   2.991  13.041  2.4868 -0.4340 -1.9527
  790MPD2    H311651   1.415   2.972  12.812 -1.3371  0.0126  0.0544
  790MPD2     N11652   1.191   2.579  12.897  0.1159 -0.3932  0.1198
  790MPD2    H511653   1.180   2.508  12.969  1.0724 -1.2997 -0.6196
  790MPD2    N111654   1.443   2.815  13.229 -0.7931 -0.1046  0.1351
  790MPD2    H711655   1.472   2.908  13.254  0.8860  0.1735 -2.8599
  791MPD2     C11656   0.548   2.517  12.497  0.4868 -0.4102 -0.1892
  791MPD2    C111657   0.565   2.391  12.559 -0.3499 -0.3186 -0.1005
  791MPD2    C211658   0.479   2.285  12.540  0.2832  0.6367 -0.3963
  791MPD2    C311659   0.370   2.299  12.455  0.6689  0.0712  0.5329
  791MPD2    C411660   0.343   2.423  12.406 -0.3618 -0.3067  0.3672
  791MPD2    C511661   0.425   2.534  12.433  0.6434 -0.2010  0.2348
  791MPD2     H11662   0.507   2.194  12.593 -1.4002  0.8924  0.9004
  791MPD2    H111663   0.263   2.438  12.334  0.9660 -0.8314 -1.2126
  791MPD2    H211664   0.614   2.600  12.519  1.5533 -1.2193 -0.3342
  791MPD2    H311665   0.405   2.638  12.409  1.0491 -0.4424 -1.1269
  791MPD2     N11666   0.295   2.182  12.417 -0.3772 -0.5071  0.3719
  791MPD2    H511667   0.328   2.092  12.452  0.8812  0.2079  1.0361
  791MPD2    N111668   0.683   2.384  12.627  0.6475 -0.2512  0.8628
  791MPD2    H711669   0.750   2.459  12.617  0.9108 -0.9546 -2.5301
  792MPD2     C11670   1.857   1.919  11.172  0.3316 -0.3758 -0.4455
  792MPD2    C111671   1.755   2.011  11.159  0.1688  0.0974  0.0482
  792MPD2    C211672   1.627   1.963  11.152  0.2375  0.0942 -0.7211
  792MPD2    C311673   1.590   1.829  11.137 -0.4098 -0.4280 -0.1893
  792MPD2    C411674   1.701   1.739  11.140 -0.0249 -0.2841  0.1780
  792MPD2    C511675   1.831   1.788  11.152 -0.1645 -0.1409  0.0016
  792MPD2     H11676   1.545   2.034  11.157  1.6330  1.7115 -0.9556
  792MPD2    H111677   1.676   1.634  11.141 -0.7646 -0.1055  0.4489
  792MPD2    H211678   1.959   1.954  11.186 -0.2088  0.9823  0.1309
  792MPD2    H311679   1.914   1.718  11.142  0.0678 -0.0604  1.4133
  792MPD2     N11680   1.466   1.767  11.128 -0.2731  0.0493 -0.4790
  792MPD2    H511681   1.459   1.666  11.133 -1.7192  0.0043 -3.2729
  792MPD2    N111682   1.778   2.151  11.159  0.4266  0.4142  0.6215
  792MPD2    H711683   1.870   2.188  11.183  1.0825 -0.1445 -0.9543
  793MPD2     C11684   0.854   2.041  10.516  0.2480  0.7361 -0.4663
  793MPD2    C111685   0.960   2.097  10.585  0.6599 -0.4322 -0.8516
  793MPD2    C211686   0.986   2.044  10.708 -0.6146 -0.1145 -0.5755
  793MPD2    C311687   0.910   1.941  10.765  0.4090 -0.1834 -0.4113
  793MPD2    C411688   0.807   1.882  10.693 -0.0754  0.4396  0.6850
  793MPD2    C511689   0.783   1.933  10.567 -0.7765  0.0866  0.0406
  793MPD2     H11690   1.065   2.087  10.768 -0.7798 -0.2313 -0.2735
  793MPD2    H111691   0.735   1.806  10.722  2.1166 -1.1320  1.9507
  793MPD2    H211692   0.822   2.085  10.422 -0.8726 -1.4868 -1.1368
  793MPD2    H311693   0.709   1.880  10.508 -0.4383  1.1080 -1.2730
  793MPD2     N11694   0.962   1.881  10.883 -0.1455  0.7612  0.1908
  793MPD2    H511695   1.057   1.902  10.912  0.5004 -2.8789  0.7165
  793MPD2    N111696   1.045   2.205  10.544 -0.1959 -0.3900 -0.3287
  793MPD2    H711697   1.106   2.241  10.616  0.8411 -1.9782 -0.4187
  794MPD2     C11698   0.759   1.601  17.297  0.5723 -0.8355  0.8657
  794MPD2    C111699   0.891   1.560  17.286 -0.5212  0.2752 -0.3648
  794MPD2    C211700   0.973   1.641  17.210 -0.6758  0.7053 -0.1776
  794MPD2    C311701   0.921   1.756  17.147 -0.0652 -0.3187 -0.4274
  794MPD2    C411702   0.800   1.802  17.182 -0.2911 -0.8250 -0.3706
  794MPD2    C511703   0.716   1.724  17.258 -0.3665 -0.1785  0.1291
  794MPD2     H11704   1.075   1.606  17.212 -0.9781 -0.2518 -2.5097
  794MPD2    H111705   0.758   1.896  17.148  0.6773  0.2432  1.4404
  794MPD2    H211706   0.684   1.545  17.351 -0.5861 -0.7214 -0.6110
  794MPD2    H311707   0.614   1.746  17.289 -0.2549 -1.4043  1.3154
  794MPD2     N11708   0.995   1.828  17.046 -0.1431  0.6336 -0.2352
  794MPD2    H511709   0.939   1.895  16.994 -1.0975 -0.4451 -0.6021
  794MPD2    N111710   0.939   1.445  17.357  0.6520  0.1337 -0.5993
  794MPD2    H711711   1.038   1.429  17.366  0.7941  1.0492 -0.4685
  795MPD2     C11712   3.543   3.858  13.675 -0.0359 -0.5038 -0.2185
  795MPD2    C111713   3.531   3.790  13.551 -0.8642  0.3419  0.0973
  795MPD2    C211714   3.646   3.731  13.502  0.3067 -0.4808  0.5034
  795MPD2    C311715   3.765   3.740  13.569  0.3002 -0.7507 -0.0167
  795MPD2    C411716   3.780   3.817  13.686  0.1648  0.5712  0.3474
  795MPD2    C511717   3.665   3.877  13.735  0.1028 -0.2292  0.6267
  795MPD2     H11718   3.637   3.677  13.408  1.8397  1.1836 -0.5806
  795MPD2    H111719   3.867   3.832  13.750 -1.3237 -1.0457  2.7345
  795MPD2    H211720   3.458   3.895  13.731 -0.5855 -0.6762 -0.9486
  795MPD2    H311721   3.667   3.927  13.831 -0.6714  0.6861  0.1701
  795MPD2     N11722   3.865   3.660  13.516  0.8705  0.0565  0.2019
  795MPD2    H511723   3.849   3.584  13.450  0.9880  1.2005 -1.1493
  795MPD2    N111724   3.407   3.769  13.483 -0.1066  0.3425  0.5515
  795MPD2    H711725   3.401   3.711  13.400  0.1737  3.3986 -1.5836
  796MPD2     C11726   3.085   0.613  16.214  0.0979 -0.2162 -0.5669
  796MPD2    C111727   3.224   0.644  16.230 -0.3763 -0.6220  0.6367
  796MPD2    C211728   3.281   0.752  16.162 -0.5672 -0.1037  0.1071
  796MPD2    C311729   3.210   0.807  16.057 -0.3283  0.8476  0.9992
  796MPD2    C411730   3.081   0.756  16.031 -0.5590  0.3070  0.2792
  796MPD2    C511731   3.013   0.668  16.109  0.4118 -0.0904 -0.0172
  796MPD2     H11732   3.382   0.786  16.186 -0.6371  1.0623 -1.2223
  796MPD2    H111733   3.011   0.788  15.955 -0.2025  1.0477  0.2679
  796MPD2    H211734   3.030   0.545  16.278  1.0680  0.1783  0.7005
  796MPD2    H311735   2.914   0.631  16.088 -0.1695  0.2472  2.1786
  796MPD2     N11736   3.264   0.914  15.978  0.1314  0.0101 -0.5281
  796MPD2    H511737   3.355   0.956  15.998  0.2379 -0.1754 -0.6174
  796MPD2    N111738   3.289   0.577  16.339  0.0573  0.6375  0.4682
  796MPD2    H711739   3.245   0.493  16.375  1.2673  0.0957  0.6681
  797MPD2     C11740   4.079   4.575  17.403  0.0065  0.2298  0.3187
  797MPD2    C111741   4.071   4.619  17.531 -0.6916 -0.4950 -0.2035
  797MPD2    C211742   3.986   0.001  17.563  0.6850 -0.3740 -0.5154
  797MPD2    C311743   3.906   0.066  17.468 -0.1622 -0.0529 -0.2927
  797MPD2    C411744   3.913   0.008  17.341 -0.4428  0.6613 -0.4471
  797MPD2    C511745   3.998   4.635  17.309  0.6295 -0.1913 -0.0627
  797MPD2     H11746   3.991   0.033  17.666  3.3404 -2.6632  0.0932
  797MPD2    H111747   3.868   0.058  17.256 -1.6155 -0.2043 -0.3526
  797MPD2    H211748   4.146   4.493  17.385 -0.0112  0.3241 -0.1793
  797MPD2    H311749   4.003   4.607  17.204  0.0217  0.7301 -0.3419
  797MPD2     N11750   3.827   0.185  17.493  0.3713 -0.4956 -1.2650
  797MPD2    H511751   3.780   0.237  17.419 -0.2903 -1.1285 -1.2874
  797MPD2    N111752   4.157   4.590  17.638 -0.0747 -0.2609  0.5020
  797MPD2    H711753   4.135   4.626   0.038  0.2915  0.4531  0.3075
  798MPD2     C11754   4.121   0.514   0.321 -0.0775 -0.1783  0.0936
  798MPD2    C111755   4.040   0.409   0.279 -0.3344  0.3466  0.1165
  798MPD2    C211756   4.082   0.280   0.287  0.0357  0.5713 -0.1888
  798MPD2    C311757   4.219   0.263   0.318 -0.4792  0.9057  0.0344
  798MPD2    C411758   4.297   0.371   0.361  0.0069  0.6756  0.3658
  798MPD2    C511759   4.245   0.496   0.367  0.0723  0.8617  0.5504
  798MPD2     H11760   4.024   0.197   0.249  0.3688  0.3395 -0.1893
  798MPD2    H111761   4.399   0.351   0.392 -0.4652  0.2235  1.6574
  798MPD2    H211762   4.100   0.619   0.304 -0.5904 -0.0232  1.7247
  798MPD2    H311763   4.305   0.583   0.394  0.0311  0.7870  0.8804
  798MPD2     N11764   4.275   0.135   0.294 -0.6302  0.4539  0.7386
  798MPD2    H511765   4.207   0.063   0.271 -0.2571  0.4771 -0.4623
  798MPD2    N111766   3.908   0.429   0.222  0.4364  0.2045 -0.0576
  798MPD2    H711767   3.859   0.348   0.188 -0.0835  0.5409 -0.1151
  799MPD2     C11768   2.981   1.819  14.863  0.5144 -0.0565  0.6969
  799MPD2    C111769   3.028   1.726  14.778 -0.5356  0.2908  0.0053
  799MPD2    C211770   2.950   1.701  14.665  0.4896 -0.0470 -0.0875
  799MPD2    C311771   2.834   1.777  14.648 -0.3416  0.1192  0.0182
  799MPD2    C411772   2.790   1.878  14.737 -0.1757  0.4268  0.2373
  799MPD2    C511773   2.871   1.895  14.841  0.2331  0.6809  0.4862
  799MPD2     H11774   2.977   1.617  14.602  0.6055 -0.5306  0.6201
  799MPD2    H111775   2.704   1.940  14.714 -0.9056 -0.3977  0.7620
  799MPD2    H211776   3.027   1.837  14.959 -1.8984 -0.6170  1.9692
  799MPD2    H311777   2.846   1.974  14.911 -0.0498  1.0874 -0.0665
  799MPD2     N11778   2.758   1.765  14.528 -0.4041 -0.2892  0.1115
  799MPD2    H511779   2.702   1.843  14.497  1.6735  1.2565  0.2019
  799MPD2    N111780   3.141   1.647  14.803  0.5203 -0.2751 -0.1382
  799MPD2    H711781   3.178   1.583  14.734  0.0996 -0.8586  0.1800
  800MPD2     C11782   3.190   2.660  13.657 -0.4304  0.2140 -0.0045
  800MPD2    C111783   3.328   2.639  13.680  0.5929 -0.6815 -0.0169
  800MPD2    C211784   3.400   2.558  13.593  0.4045  0.3579 -0.0909
  800MPD2    C311785   3.346   2.490  13.491  0.9268  0.0008 -0.1976
  800MPD2    C411786   3.207   2.499  13.481 -0.3518  0.0643 -0.0533
  800MPD2    C511787   3.125   2.576  13.563 -0.1438 -0.0699  0.4152
  800MPD2     H11788   3.508   2.555  13.586  0.3041 -2.0131 -0.7977
  800MPD2    H111789   3.150   2.450  13.403 -1.5115  1.2004  0.0989
  800MPD2    H211790   3.135   2.731  13.720 -0.7294  1.9073 -2.1849
  800MPD2    H311791   3.032   2.605  13.514  0.3796  1.1437  0.1417
  800MPD2     N11792   3.435   2.442  13.395  0.4693 -0.2833  0.1607
  800MPD2    H511793   3.533   2.462  13.412  0.4844  0.8063 -1.1591
  800MPD2    N111794   3.393   2.727  13.771  0.3348 -0.1114  0.0672
  800MPD2    H711795   3.336   2.798  13.815 -2.4611 -0.6422 -2.7642
  801MPD2     C11796   3.403   3.462  13.837  0.2789 -0.1649  0.1405
  801MPD2    C111797   3.461   3.412  13.957 -0.3589  0.4220 -0.9115
  801MPD2    C211798   3.454   3.488  14.073  0.4497  0.6237 -0.0949
  801MPD2    C311799   3.385   3.613  14.075  0.7149  0.2482  0.2791
  801MPD2    C411800   3.334   3.662  13.958 -0.5683  0.0078 -0.5881
  801MPD2    C511801   3.352   3.587  13.842 -0.1931 -0.5770 -0.4611
  801MPD2     H11802   3.483   3.440  14.166  1.5418 -0.8293 -1.1867
  801MPD2    H111803   3.277   3.752  13.941 -1.7154 -1.1255 -2.8813
  801MPD2    H211804   3.401   3.414  13.740 -0.5918 -1.0962  0.6249
  801MPD2    H311805   3.308   3.620  13.749  1.6921 -0.5297 -1.3508
  801MPD2     N11806   3.357   3.690  14.190  0.3215 -0.0726 -0.1797
  801MPD2    H511807   3.298   3.772  14.179  0.4013  0.0608  0.4080
  801MPD2    N111808   3.519   3.288  13.968 -0.0350 -0.0556  0.0524
  801MPD2    H711809   3.577   3.270  14.050  1.2546  1.1230 -0.6071
  802MPD2     C11810   2.269   3.723  17.315  0.0412  0.0267  0.2286
  802MPD2    C111811   2.335   3.743  17.434  0.0403  0.3232  0.1250
  802MPD2    C211812   2.437   3.664  17.477 -0.6019  0.1060 -0.0094
  802MPD2    C311813   2.501   3.580  17.379  0.5344  0.5878 -0.3059
  802MPD2    C411814   2.451   3.578  17.251  0.2852  0.6572  0.3599
  802MPD2    C511815   2.333   3.641  17.228  0.1512  0.3075  0.3867
  802MPD2     H11816   2.480   3.659  17.577  0.5063  2.9292 -0.3542
  802MPD2    H111817   2.499   3.528  17.168  1.0822  1.9133  0.0609
  802MPD2    H211818   2.192   3.789  17.277 -0.1451 -1.5564 -2.1802
  802MPD2    H311819   2.302   3.648  17.124 -1.7677 -2.0349  0.7905
  802MPD2     N11820   2.618   3.512  17.417 -1.5312  0.0419 -0.3652
  802MPD2    H511821   2.653   3.526  17.511  0.5650  0.6054 -1.2345
  802MPD2    N111822   2.300   3.850  17.514 -0.1122  0.3210  0.1717
  802MPD2    H711823   2.360   3.863  17.595 -0.2373 -0.6597  0.4281
  803MPD2     C11824   4.002   2.642  11.639 -0.5171  0.0392  0.6124
  803MPD2    C111825   4.075   2.575  11.733  1.1603  0.5469 -0.5396
  803MPD2    C211826   4.021   2.464  11.787  0.6988  0.0083  0.0949
  803MPD2    C311827   3.895   2.418  11.743  0.6494  0.3075 -0.1696
  803MPD2    C411828   3.820   2.505  11.670  0.4539  0.1824  0.4877
  803MPD2    C511829   3.870   2.614  11.613 -0.0843 -0.6995 -0.0417
  803MPD2     H11830   4.081   2.410  11.860 -0.5033 -0.4638  0.7379
  803MPD2    H111831   3.722   2.481  11.629 -0.2242  1.3182  1.4413
  803MPD2    H211832   4.043   2.729  11.589 -4.7225  0.9514 -1.3359
  803MPD2    H311833   3.814   2.678  11.546  0.8555 -1.6483 -1.7002
  803MPD2     N11834   3.851   2.288  11.769 -0.0350  0.1577  0.1262
  803MPD2    H511835   3.751   2.278  11.761  0.1147 -1.3274  0.1132
  803MPD2    N111836   4.207   2.608  11.778  0.3815 -0.5367 -0.4038
  803MPD2    H711837   4.250   2.555  11.852  0.4347 -0.4239 -0.3541
  804MPD2     C11838   4.014   3.197  17.050 -0.0950  0.1480  1.0321
  804MPD2    C111839   3.948   3.178  17.169 -0.3124 -0.5112 -0.5462
  804MPD2    C211840   3.955   3.274  17.272 -0.0843 -0.0797  0.3956
  804MPD2    C311841   4.033   3.388  17.252  1.0551 -0.8411 -0.3022
  804MPD2    C411842   4.096   3.407  17.136 -0.5582  0.5740  0.3976
  804MPD2    C511843   4.077   3.316  17.034 -0.0284 -0.5338 -0.2476
  804MPD2     H11844   3.908   3.246  17.365  0.5188 -1.0483  0.4185
  804MPD2    H111845   4.163   3.491  17.118  1.9595 -1.0580  2.1451
  804MPD2    H211846   4.015   3.129  16.966 -1.9072 -0.7074  1.6935
  804MPD2    H311847   4.123   3.327  16.937  0.9000  0.6153  0.3242
  804MPD2     N11848   4.049   3.491  17.344  0.2499  0.0025 -0.2508
  804MPD2    H511849   4.084   3.578  17.303 -0.3322  0.0707 -0.6116
  804MPD2    N111850   3.868   3.066  17.197 -0.7991 -0.3701  0.0963
  804MPD2    H711851   3.828   3.071  17.290  1.2357 -1.4073  1.0071
  805MPD2     C11852   2.654   2.119  15.654  0.3684  0.1191 -0.6209
  805MPD2    C111853   2.765   2.054  15.590  0.4637 -0.0852  0.4173
  805MPD2    C211854   2.883   2.053  15.661  0.1807 -0.7110  0.5478
  805MPD2    C311855   2.904   2.121  15.782  0.2396  0.3296 -0.3962
  805MPD2    C411856   2.795   2.198  15.828  0.3072 -0.1636  0.5877
  805MPD2    C511857   2.675   2.196  15.762 -0.4518 -0.0561 -0.6071
  805MPD2     H11858   2.963   1.991  15.624 -1.2462 -2.0709 -0.2103
  805MPD2    H111859   2.806   2.263  15.914  0.5126 -1.3304  1.4305
  805MPD2    H211860   2.551   2.117  15.621  0.0371 -0.0176  0.4129
  805MPD2    H311861   2.594   2.246  15.813  0.6307  2.0095 -0.8943
  805MPD2     N11862   3.020   2.107  15.855  0.4281 -0.2722  0.6294
  805MPD2    H511863   3.090   2.051  15.807  1.1028  0.5288  0.6767
  805MPD2    N111864   2.759   1.993  15.463  0.0086 -0.2938 -0.0491
  805MPD2    H711865   2.847   1.954  15.431  0.9712 -0.3826  2.7128
  806MPD2     C11866   3.903   1.471   1.023  0.3151  0.3034 -0.6326
  806MPD2    C111867   3.999   1.542   0.954 -0.1251 -0.9600  0.8485
  806MPD2    C211868   3.980   1.603   0.837  0.5310  0.0620  0.0842
  806MPD2    C311869   3.851   1.619   0.794  0.5509  0.8412  0.4384
  806MPD2    C411870   3.747   1.565   0.864 -0.3941 -0.2130 -0.9664
  806MPD2    C511871   3.776   1.481   0.966  0.2946  0.4001 -0.3024
  806MPD2     H11872   4.054   1.669   0.793  0.0044  1.8967  1.9118
  806MPD2    H111873   3.643   1.569   0.833 -1.2679 -0.8162  1.8659
  806MPD2    H211874   3.920   1.403   1.106  2.0200  0.5135 -0.7963
  806MPD2    H311875   3.695   1.420   1.005  0.2350  1.6267  1.4654
  806MPD2     N11876   3.837   1.690   0.671 -0.0223  0.1626  0.4523
  806MPD2    H511877   3.925   1.729   0.638  0.2294  0.0093  0.9387
  806MPD2    N111878   4.126   1.532   1.011  0.1010 -0.7712  1.2879
  806MPD2    H711879   4.129   1.503   1.108 -1.3548 -1.6404  1.0674
  807MPD2     C11880   4.253   1.583   1.688 -0.0405  0.5071  0.3752
  807MPD2    C111881   4.190   1.518   1.581 -0.2986 -1.0894 -0.1893
  807MPD2    C211882   4.064   1.459   1.604  0.3767  1.0679 -0.3901
  807MPD2    C311883   4.009   1.454   1.728  0.1399  0.0258 -0.1072
  807MPD2    C411884   4.069   1.522   1.833 -0.1795  0.1984 -0.1021
  807MPD2    C511885   4.194   1.582   1.812  0.2016 -0.2055 -0.2270
  807MPD2     H11886   4.018   1.405   1.522  0.6648  0.2568 -0.0171
  807MPD2    H111887   4.020   1.522   1.930 -0.6024 -3.1449 -0.3338
  807MPD2    H211888   4.348   1.632   1.675 -1.1880  1.8161 -3.2703
  807MPD2    H311889   4.243   1.618   1.902 -0.4760  0.5701 -0.1665
  807MPD2     N11890   3.901   1.376   1.762  0.2865 -0.7413  0.3166
  807MPD2    H511891   3.875   1.381   1.860  2.4796  2.2024  0.7427
  807MPD2    N111892   4.253   1.511   1.451  0.1609  0.2613  0.2519
  807MPD2    H711893   4.195   1.479   1.374 -0.7243 -0.4082  1.1929
  808MPD2     C11894   3.197   3.325   9.025  0.0689  0.4549  0.0055
  808MPD2    C111895   3.279   3.332   9.134 -0.2969  0.3659  0.5394
  808MPD2    C211896   3.320   3.459   9.178 -0.6669  0.9903  0.1924
  808MPD2    C311897   3.287   3.571   9.103  0.0078 -1.0671  0.0269
  808MPD2    C411898   3.218   3.558   8.989  0.0294 -0.7840 -0.6218
  808MPD2    C511899   3.155   3.441   8.962 -0.6459 -0.2568  0.1237
  808MPD2     H11900   3.379   3.473   9.268  0.7733  0.2476 -0.6541
  808MPD2    H111901   3.191   3.637   8.920 -2.0431 -0.4888  0.5080
  808MPD2    H211902   3.152   3.233   8.990  0.9190 -0.4568  1.3144
  808MPD2    H311903   3.086   3.431   8.879 -1.4871 -0.2553  0.8215
  808MPD2     N11904   3.332   3.695   9.137  0.2964  0.3763  0.1422
  808MPD2    H511905   3.321   3.766   9.065 -0.2240 -0.8886 -1.0235
  808MPD2    N111906   3.286   3.225   9.220  0.3544 -0.2032  0.1399
  808MPD2    H711907   3.328   3.247   9.309  0.5640 -1.6553  0.4085
  809MPD2     C11908   3.940   4.408   8.888 -0.2513 -0.1107  0.2809
  809MPD2    C111909   3.967   4.289   8.956 -0.1352 -0.1870  0.2759
  809MPD2    C211910   3.858   4.222   9.017 -0.1294 -0.1753 -0.1197
  809MPD2    C311911   3.731   4.278   9.018  0.0456 -0.2168  0.4673
  809MPD2    C411912   3.710   4.397   8.952  0.3227 -0.0809 -1.2511
  809MPD2    C511913   3.816   4.456   8.881 -0.2929 -0.1548  0.5144
  809MPD2     H11914   3.889   4.128   9.060 -0.4286 -1.1819 -2.1265
  809MPD2    H111915   3.614   4.444   8.935  0.2066  0.4147  0.6997
  809MPD2    H211916   4.020   4.463   8.839 -0.6828 -0.8930 -1.2749
  809MPD2    H311917   3.792   4.548   8.830 -4.0075 -2.0595 -1.1113
  809MPD2     N11918   3.624   4.222   9.086  0.4107  0.1175 -0.2719
  809MPD2    H511919   3.533   4.267   9.079 -0.9667 -2.6667 -0.3704
  809MPD2    N111920   4.103   4.244   8.982  0.3026 -0.5614  0.4796
  809MPD2    H711921   4.114   4.146   9.004 -0.0832 -1.0736 -1.6471
  810MPD2     C11922   3.772   2.076  10.909  0.2458 -0.2153 -0.3727
  810MPD2    C111923   3.662   2.143  10.854  0.1668 -0.3447 -0.2766
  810MPD2    C211924   3.645   2.275  10.888 -0.8233  0.2805  0.3757
  810MPD2    C311925   3.732   2.346  10.965  0.3789  0.9516 -0.0562
  810MPD2    C411926   3.843   2.283  11.018 -0.8485  0.2877 -0.1034
  810MPD2    C511927   3.856   2.150  10.987  0.1080 -0.4628  0.2344
  810MPD2     H11928   3.558   2.327  10.848 -1.3526 -1.6778 -0.9815
  810MPD2    H111929   3.916   2.334  11.081 -2.0327 -0.1339  1.6094
  810MPD2    H211930   3.790   1.971  10.892 -0.3206 -0.1663 -1.3056
  810MPD2    H311931   3.940   2.096  11.029  0.6602 -0.7457 -1.2343
  810MPD2     N11932   3.729   2.490  10.983 -0.0499 -0.9944 -0.2400
  810MPD2    H511933   3.808   2.540  11.022 -1.1644  0.4241  0.2341
  810MPD2    N111934   3.581   2.079  10.761 -0.3968 -0.2153 -0.0960
  810MPD2    H711935   3.602   1.980  10.749 -1.0803 -0.5002  1.0457
  811MPD2     C11936   2.995   1.840  10.044  0.1431  0.4133 -0.0456
  811MPD2    C111937   3.070   1.942  10.095  0.3044  0.3192  0.2302
  811MPD2    C211938   3.054   2.069  10.047 -0.3947 -0.3463  0.1002
  811MPD2    C311939   2.958   2.092   9.952 -0.4254  0.1220 -0.3729
  811MPD2    C411940   2.867   1.997   9.911 -0.4819 -0.4417 -0.2170
  811MPD2    C511941   2.889   1.869   9.958  0.0715 -0.6217  0.0341
  811MPD2     H11942   3.109   2.157  10.077  2.8752 -1.9263 -1.3146
  811MPD2    H111943   2.802   2.017   9.826 -1.0440 -0.5424  0.1874
  811MPD2    H211944   2.997   1.743  10.093  0.1373  1.3610  1.7881
  811MPD2    H311945   2.835   1.786   9.914  0.9818 -0.5474 -1.1987
  811MPD2     N11946   2.970   2.224   9.902 -0.2728 -0.9587  0.4766
  811MPD2    H511947   3.046   2.287   9.924 -1.0600 -0.6243  2.1796
  811MPD2    N111948   3.160   1.915  10.200 -0.1185 -0.3317 -0.4735
  811MPD2    H711949   3.159   1.819  10.233  2.6053  0.0167  0.6369
  812MPD2     C11950   1.899   2.056  12.267  0.3203  0.5966  0.5962
  812MPD2    C111951   1.848   2.104  12.384  0.7404  0.2594 -0.7220
  812MPD2    C211952   1.800   2.020  12.481 -0.4344  0.4793  0.5213
  812MPD2    C311953   1.816   1.881  12.468  0.2275 -0.1767 -0.4404
  812MPD2    C411954   1.878   1.832  12.353  0.1732 -0.3737 -0.0939
  812MPD2    C511955   1.919   1.920  12.257 -0.4853  0.8161  0.2780
  812MPD2     H11956   1.744   2.055  12.568 -1.6310 -0.3238  0.0804
  812MPD2    H111957   1.886   1.724  12.344 -0.4123 -0.6160  2.2454
  812MPD2    H211958   1.918   2.112  12.176 -1.2315  0.5504  0.2496
  812MPD2    H311959   1.965   1.883  12.167 -0.6245  0.4123  0.3714
  812MPD2     N11960   1.782   1.795  12.575  0.0479 -0.5078 -0.3331
  812MPD2    H511961   1.734   1.841  12.651  2.8193  1.6099  0.1186
  812MPD2    N111962   1.828   2.243  12.389  0.4134  0.1797  0.4478
  812MPD2    H711963   1.870   2.298  12.315 -1.1207  1.7313  0.7240
  813MPD2     C11964   1.676   4.101  13.109  0.7757 -0.0844 -0.1872
  813MPD2    C111965   1.638   4.238  13.132  0.0885 -0.6814 -0.6875
  813MPD2    C211966   1.523   4.274  13.194 -0.4805  0.4376 -0.0375
  813MPD2    C311967   1.437   4.179  13.251 -0.1209  0.2577 -0.0701
  813MPD2    C411968   1.466   4.042  13.225 -0.0837 -0.3928 -0.0177
  813MPD2    C511969   1.585   4.009  13.158  0.1048  0.0336 -0.1823
  813MPD2     H11970   1.500   4.380  13.205 -4.4082 -0.8092  3.8490
  813MPD2    H111971   1.395   3.964  13.251  0.6935 -1.3135 -0.6197
  813MPD2    H211972   1.766   4.066  13.059  1.9562  3.0688 -0.2742
  813MPD2    H311973   1.611   3.904  13.151 -1.6052 -0.5275  2.2028
  813MPD2     N11974   1.335   4.223  13.335  0.7996 -0.5847 -0.3748
  813MPD2    H511975   1.348   4.321  13.358  2.4505 -0.8114 -0.2795
  813MPD2    N111976   1.719   4.345  13.092  0.4272  0.1684 -0.1264
  813MPD2    H711977   1.679   4.438  13.092  0.7355  0.3006 -0.7402
  814MPD2     C11978   1.590   0.690  12.317 -0.1059 -0.2073  0.2045
  814MPD2    C111979   1.679   0.701  12.213 -0.4912  0.3806  0.3973
  814MPD2    C211980   1.760   0.812  12.216  0.4255 -0.0002  0.0780
  814MPD2    C311981   1.764   0.895  12.327 -0.3772  0.2359  0.0405
  814MPD2    C411982   1.698   0.858  12.444 -0.3915  0.5653 -0.0463
  814MPD2    C511983   1.607   0.760  12.429  0.5642  0.4215 -0.0662
  814MPD2     H11984   1.825   0.834  12.133  0.0518 -0.4539 -0.3326
  814MPD2    H111985   1.698   0.917  12.535 -2.4414  1.9337 -0.9303
  814MPD2    H211986   1.514   0.612  12.316  0.7525 -1.0585  1.2661
  814MPD2    H311987   1.547   0.736  12.517 -1.5661  1.7525 -1.1486
  814MPD2     N11988   1.836   1.017  12.321 -0.2317 -0.4256 -0.3680
  814MPD2    H511989   1.848   1.082  12.398  0.8259 -0.4002 -0.5519
  814MPD2    N111990   1.688   0.627  12.098 -0.1522  0.0722  0.8613
  814MPD2    H711991   1.736   0.661  12.015  0.5481  0.0664  1.2654
  815MPD2     C11992   2.457   4.167  11.624 -0.1529 -0.1509  0.4204
  815MPD2    C111993   2.420   4.040  11.666 -0.3288 -0.0967 -0.1383
  815MPD2    C211994   2.332   4.031  11.770  0.2779 -0.1689 -0.0152
  815MPD2    C311995   2.271   4.137  11.829  0.0807 -0.0200  0.1435
  815MPD2    C411996   2.303   4.264  11.782  0.6654 -0.4850  0.2674
  815MPD2    C511997   2.394   4.278  11.680 -0.0398  1.1733  0.2448
  815MPD2     H11998   2.283   3.936  11.787  0.1227  0.0437  0.7165
  815MPD2    H111999   2.265   4.356  11.825 -2.2696 -1.5997  0.0847
  815MPD2    H212000   2.520   4.185  11.538 -1.4352  1.6187 -0.1494
  815MPD2    H312001   2.415   4.379  11.646 -2.6565  2.5853  2.8877
  815MPD2     N12002   2.185   4.100  11.932  0.1075  0.0121  0.3059
  815MPD2    H512003   2.162   4.001  11.941  2.0802 -0.3201  1.6754
  815MPD2    N112004   2.471   3.927  11.598 -0.3217 -0.2235 -0.4057
  815MPD2    H712005   2.538   3.955  11.527 -0.2810 -0.7195 -0.5604
  816MPD2     C12006   2.187   3.442   0.221 -0.6717  0.9797 -0.0503
  816MPD2    C112007   2.200   3.446   0.085  0.0355 -0.3780 -0.3519
  816MPD2    C212008   2.295   3.364   0.024 -0.0020 -0.2082  0.4180
  816MPD2    C312009   2.385   3.288   0.098  0.3085  0.0522  0.2132
  816MPD2    C412010   2.376   3.290   0.234  0.7404 -0.2776  0.0405
  816MPD2    C512011   2.279   3.371   0.296  0.1777  0.6765  0.2383
  816MPD2     H12012   2.294   3.357  17.609 -1.0858 -1.3570  0.5097
  816MPD2    H112013   2.442   3.226   0.292  1.8139  0.0704 -0.7956
  816MPD2    H212014   2.107   3.494   0.272  0.9273  1.2865  2.1507
  816MPD2    H312015   2.268   3.370   0.403  1.1790  0.5951  0.3451
  816MPD2     N12016   2.469   3.200   0.025  0.3908 -0.8103  0.0508
  816MPD2    H512017   2.463   3.206  17.617  1.8566  1.8829  0.1330
  816MPD2    N112018   2.106   3.521   0.014  0.1449 -1.1248  0.2223
  816MPD2    H712019   2.044   3.582   0.067 -2.3928 -1.4690 -2.3203
  817MPD2     C12020   1.779   4.520  10.163 -0.1334 -0.4172 -0.5060
  817MPD2    C112021   1.891   4.513  10.084 -0.3331  0.1254  0.2678
  817MPD2    C212022   1.951   4.635  10.053  0.4011  0.8742 -0.1460
  817MPD2    C312023   1.910   0.032  10.093  0.1029  0.1340  0.1455
  817MPD2    C412024   1.801   0.033  10.179  0.7900  0.0218 -0.1351
  817MPD2    C512025   1.734   4.640  10.208  0.7505 -0.2046  0.2912
  817MPD2     H12026   2.035   4.619   9.987 -1.9190 -0.2533 -2.8367
  817MPD2    H112027   1.756   0.119  10.227 -1.0239 -2.3843  2.4592
  817MPD2    H212028   1.727   4.433  10.198 -1.3886  0.4144 -0.3124
  817MPD2    H312029   1.648   4.640  10.274  1.4445  1.7044  1.2159
  817MPD2     N12030   1.972   0.153  10.047 -0.1082 -0.1817  0.5346
  817MPD2    H512031   2.052   0.146   9.984 -1.8116 -1.1693 -1.5548
  817MPD2    N112032   1.934   4.393  10.019  0.2587 -0.3889  0.0191
  817MPD2    H712033   2.021   4.399   9.967 -1.3342  0.3979 -2.5243
  818MPD2     C12034   0.938   4.355  10.207  0.3891 -0.0538 -0.3760
  818MPD2    C112035   0.806   4.316  10.193 -0.0042  0.0406  0.3367
  818MPD2    C212036   0.778   4.181  10.204 -0.0109  0.0192  0.0666
  818MPD2    C312037   0.869   4.089  10.238  0.4432 -0.2729 -0.6731
  818MPD2    C412038   0.994   4.135  10.266  0.3522 -0.1225  0.1379
  818MPD2    C512039   1.030   4.267  10.243 -0.6674 -0.2951  0.0679
  818MPD2     H12040   0.679   4.140  10.186 -0.3102  0.6631  0.2753
  818MPD2    H112041   1.069   4.068  10.307  0.4551  0.1960  0.4751
  818MPD2    H212042   0.973   4.457  10.195  0.0580 -0.0767 -1.5326
  818MPD2    H312043   1.134   4.294  10.241 -1.0025  1.0850  2.0305
  818MPD2     N12044   0.842   3.952  10.258 -0.6523  0.4670 -0.4589
  818MPD2    H512045   0.913   3.886  10.288 -0.5877  0.3232 -0.9233
  818MPD2    N112046   0.695   4.407  10.168 -0.2072  0.0475 -0.0816
  818MPD2    H712047   0.599   4.375  10.179  0.0375 -1.0369 -1.1255
  819MPD2     C12048   3.647   1.584  15.742 -0.0879 -0.2603 -0.1074
  819MPD2    C112049   3.693   1.455  15.728 -0.5892  0.4317  0.3379
  819MPD2    C212050   3.810   1.414  15.801  0.1821  0.2093  0.5956
  819MPD2    C312051   3.877   1.502  15.884  0.0417  0.1426 -0.3260
  819MPD2    C412052   3.829   1.635  15.885  0.6156  0.6989  0.2927
  819MPD2    C512053   3.715   1.672  15.819 -0.4536 -0.0355  0.1440
  819MPD2     H12054   3.848   1.313  15.794 -0.2179  0.3852 -4.3856
  819MPD2    H112055   3.879   1.711  15.944 -2.3989  1.1323  2.3276
  819MPD2    H212056   3.561   1.612  15.681 -0.2785 -2.1514 -0.6937
  819MPD2    H312057   3.680   1.773  15.834 -0.0596 -0.2676  2.6268
  819MPD2     N12058   3.992   1.465  15.965 -1.0305 -0.5873  0.5785
  819MPD2    H512059   4.049   1.542  16.000  1.5708 -1.6883 -1.2101
  819MPD2    N112060   3.626   1.375  15.632  0.4482  0.2964 -0.7858
  819MPD2    H712061   3.558   1.424  15.574  0.3880 -0.7280 -1.5868
  820MPD2     C12062   2.887   1.289  14.953 -0.3442 -0.2756 -0.2039
  820MPD2    C112063   2.917   1.383  15.049 -0.2031 -0.3491  0.7188
  820MPD2    C212064   3.023   1.346  15.136  0.0668  0.0077  0.3078
  820MPD2    C312065   3.104   1.231  15.109 -0.1776 -0.6826 -0.2203
  820MPD2    C412066   3.075   1.156  14.997 -0.5940 -0.4082  0.0588
  820MPD2    C512067   2.966   1.189  14.918  0.3558 -0.0050  0.4157
  820MPD2     H12068   3.048   1.411  15.218 -0.4236 -1.2251  1.4302
  820MPD2    H112069   3.133   1.073  14.958 -1.3027 -0.7620 -0.2452
  820MPD2    H212070   2.802   1.305  14.887  1.8888  1.5814 -2.5812
  820MPD2    H312071   2.945   1.135  14.827  2.0181  0.2638 -0.1235
  820MPD2     N12072   3.210   1.187  15.195 -0.1382 -0.1320 -0.3639
  820MPD2    H512073   3.262   1.107  15.160 -0.4489 -0.3579 -0.3103
  820MPD2    N112074   2.834   1.499  15.060 -0.2615 -0.1648  0.2106
  820MPD2    H712075   2.748   1.497  15.007 -0.1805  1.2143  0.0329
  821MPD2     C12076   3.423   2.923  12.762 -0.1565 -0.1055  0.3470
  821MPD2    C112077   3.518   2.926  12.871 -0.4904 -0.0804  0.3205
  821MPD2    C212078   3.610   3.030  12.884  0.6540 -0.1236  0.1350
  821MPD2    C312079   3.623   3.109  12.770  0.2527 -0.0103 -0.3855
  821MPD2    C412080   3.532   3.100  12.664 -0.1076  1.1092  0.5004
  821MPD2    C512081   3.424   3.020  12.667 -0.5422 -0.8049  0.6896
  821MPD2     H12082   3.684   3.033  12.963  1.2548 -3.4684 -0.2725
  821MPD2    H112083   3.538   3.176  12.588 -0.4373  1.8629  1.2236
  821MPD2    H212084   3.339   2.857  12.746 -1.2243  0.9437  1.6210
  821MPD2    H312085   3.349   3.028  12.589 -1.2774 -1.5404  1.3304
  821MPD2     N12086   3.716   3.214  12.762 -0.4127  0.1447 -0.2876
  821MPD2    H512087   3.713   3.250  12.668 -2.8042 -1.5126 -0.8357
  821MPD2    N112088   3.527   2.813  12.958  0.0757 -0.3251 -0.0953
  821MPD2    H712089   3.595   2.821  13.033  2.5985  2.0976 -2.5923
  822MPD2     C12090   4.354   2.836  15.653 -0.1061 -0.2843 -0.2459
  822MPD2    C112091   4.391   2.832  15.789  0.5093  0.8782 -0.1342
  822MPD2    C212092   4.343   2.940  15.864 -0.2970  0.1564  0.3391
  822MPD2    C312093   4.260   3.041  15.816  0.0837  0.9309 -0.3285
  822MPD2    C412094   4.233   3.034  15.687 -0.9136 -0.3696 -0.3401
  822MPD2    C512095   4.273   2.937  15.605 -0.0354  0.6298 -0.0689
  822MPD2     H12096   4.381   2.939  15.965  0.6633 -1.5402 -0.0310
  822MPD2    H112097   4.173   3.112  15.641  0.9043  1.4909  0.4292
  822MPD2    H212098   4.384   2.758  15.584 -1.6873  0.1939 -1.4440
  822MPD2    H312099   4.238   2.928  15.503  0.6995  2.4991 -0.4745
  822MPD2     N12100   4.205   3.145  15.896  0.4144 -0.8636 -0.2300
  822MPD2    H512101   4.196   3.130  15.996  4.3694 -0.4814  0.2008
  822MPD2    N112102   4.473   2.731  15.857 -0.2815  0.5539 -0.5072
  822MPD2    H712103   4.486   2.743  15.956 -0.0772  1.4518 -0.6419
  823MPD2     C12104   3.778   3.308  16.582  0.7180  0.0735 -0.4302
  823MPD2    C112105   3.879   3.255  16.502  0.8846  0.2488  0.6888
  823MPD2    C212106   3.957   3.151  16.550  0.0245 -0.1576  0.0042
  823MPD2    C312107   3.920   3.098  16.674 -0.1795 -0.4185 -0.7006
  823MPD2    C412108   3.818   3.138  16.753 -0.1464  0.8026  0.2640
  823MPD2    C512109   3.755   3.247  16.711  0.6259  0.2953 -0.1239
  823MPD2     H12110   4.049   3.125  16.499  0.5609  1.6430  0.0405
  823MPD2    H112111   3.803   3.087  16.847  0.0980  0.1574 -0.0443
  823MPD2    H212112   3.725   3.393  16.540  0.4397  0.7627  1.3246
  823MPD2    H312113   3.669   3.279  16.768  0.7333 -2.7172  1.7203
  823MPD2     N12114   3.988   2.980  16.723  0.6638  1.0171 -0.0738
  823MPD2    H512115   3.963   2.955  16.819  0.4241  2.3681  0.2198
  823MPD2    N112116   3.923   3.331  16.389  0.0705 -0.0096 -0.1980
  823MPD2    H712117   3.875   3.416  16.359 -0.1924 -0.1426 -0.1545
  824MPD2     C12118   4.577   1.881  15.930 -0.0625 -0.3844 -0.1514
  824MPD2    C112119   4.663   1.975  15.874 -0.7935 -0.3525 -0.5671
  824MPD2    C212120   0.053   1.926  15.801  0.1678 -0.5143  0.0598
  824MPD2    C312121   0.097   1.793  15.809 -0.2549  0.7157 -1.1711
  824MPD2    C412122   0.019   1.704  15.879 -0.0038 -0.1144 -0.4106
  824MPD2    C512123   4.628   1.751  15.941  0.0431 -0.3036 -0.6367
  824MPD2     H12124   0.114   1.999  15.749  0.5037 -0.3283  0.7123
  824MPD2    H112125   0.044   1.600  15.895  1.8824  0.3261 -0.5409
  824MPD2    H212126   4.491   1.902  15.992  0.5263 -0.4749  0.7096
  824MPD2    H312127   4.564   1.682  15.994  0.1198  1.3755  1.6285
  824MPD2     N12128   0.211   1.760  15.746 -0.4396 -0.3169  0.0030
  824MPD2    H512129   0.260   1.837  15.702  1.0547 -0.4982  1.3360
  824MPD2    N112130   4.645   2.112  15.893 -0.0653  0.2306  0.7259
  824MPD2    H712131   4.713   2.174  15.850 -0.9314 -0.6100 -1.8438
  825MPD2     C12132   0.865   1.804  15.188 -0.2445 -0.6001 -0.2037
  825MPD2    C112133   0.747   1.849  15.250  0.1695 -0.2352 -0.8856
  825MPD2    C212134   0.710   1.984  15.236  0.2738  0.4110 -0.4769
  825MPD2    C312135   0.785   2.065  15.145  0.8291  0.2761 -0.0215
  825MPD2    C412136   0.895   2.016  15.080 -0.8486  0.5794 -0.4100
  825MPD2    C512137   0.935   1.888  15.101  0.1349 -0.2651  0.6859
  825MPD2     H12138   0.628   2.026  15.293  0.5675  0.9604 -0.4520
  825MPD2    H112139   0.958   2.077  15.016 -1.2517 -0.1196 -1.4800
  825MPD2    H212140   0.889   1.700  15.207 -1.5333 -0.9232 -0.3570
  825MPD2    H312141   1.022   1.856  15.044 -1.6791 -1.7840 -1.2155
  825MPD2     N12142   0.742   2.189  15.105 -0.3522 -0.3427 -0.5939
  825MPD2    H512143   0.806   2.244  15.049 -0.3989 -0.3084 -0.6135
  825MPD2    N112144   0.660   1.759  15.323  0.1255 -0.1081  0.2905
  825MPD2    H712145   0.701   1.671  15.353  1.0037 -0.9961 -3.4971
  826MPD2     C12146   4.580   2.415  12.936 -0.5765 -0.0582  0.0039
  826MPD2    C112147   4.655   2.368  13.036  0.9703 -0.0775  0.9146
  826MPD2    C212148   4.687   2.449  13.140  0.6700  0.1216 -0.2321
  826MPD2    C312149   4.649   2.575  13.149  0.1770 -0.0816  0.4530
  826MPD2    C412150   4.582   2.628  13.039  0.2192  0.0542 -0.2932
  826MPD2    C512151   4.548   2.548  12.936 -0.0774 -0.2727 -0.1483
  826MPD2     H12152   0.019   2.402  13.221  1.1033  0.9651 -0.0333
  826MPD2    H112153   4.538   2.727  13.034  2.2365  0.8885 -1.3123
  826MPD2    H212154   4.550   2.353  12.852 -0.7887 -0.1514  0.1475
  826MPD2    H312155   4.496   2.598  12.854  0.2002  0.3143  0.0318
  826MPD2     N12156   4.657   2.649  13.269  0.2689  0.2889 -0.6876
  826MPD2    H512157   4.634   2.747  13.259 -1.3238 -0.2886 -2.6113
  826MPD2    N112158   4.673   2.230  13.029  0.7488 -0.7022  0.8077
  826MPD2    H712159   4.613   2.183  12.961  1.4620 -1.5918  0.8020
  827MPD2     C12160   0.958   3.117  10.373 -0.0069  0.2242  0.0124
  827MPD2    C112161   0.933   3.047  10.490  0.0243 -0.8501 -0.6143
  827MPD2    C212162   0.826   2.953  10.496 -0.4869 -0.0537  0.0101
  827MPD2    C312163   0.739   2.947  10.394 -0.3843 -0.2022 -0.6639
  827MPD2    C412164   0.752   3.019  10.285 -0.5743 -0.1129  0.1400
  827MPD2    C512165   0.862   3.104  10.272  0.3049 -0.4543 -0.1135
  827MPD2     H12166   0.819   2.890  10.584  1.5797 -0.8425 -0.3961
  827MPD2    H112167   0.669   3.018  10.215 -0.5629  3.3217  0.0619
  827MPD2    H212168   1.040   3.188  10.371  1.7162 -1.7947 -0.9127
  827MPD2    H312169   0.864   3.166  10.183 -2.7258  0.7513  0.6438
  827MPD2     N12170   0.623   2.865  10.420  0.3077 -0.1255 -0.1564
  827MPD2    H512171   0.599   2.833  10.513  1.4926  0.4893  0.3600
  827MPD2    N112172   1.022   3.063  10.600  0.3674  0.1901 -0.1350
  827MPD2    H712173   1.112   3.101  10.571 -0.6639  1.3140 -1.8519
  828MPD2     C12174   4.023   3.088  12.605  0.7147 -0.5017  0.6026
  828MPD2    C112175   4.063   3.128  12.483 -0.9043 -0.2717 -1.0750
  828MPD2    C212176   4.193   3.141  12.451  0.3930 -0.2988  0.5933
  828MPD2    C312177   4.293   3.094  12.532  0.0726 -0.0195 -0.1936
  828MPD2    C412178   4.255   3.064  12.660  0.7824 -0.9230 -0.1247
  828MPD2    C512179   4.120   3.057  12.699  0.0954  0.5018  0.0076
  828MPD2     H12180   4.217   3.189  12.357 -0.7911  0.2600  0.5779
  828MPD2    H112181   4.332   3.032  12.730  1.1844  0.0293 -0.1253
  828MPD2    H212182   3.919   3.077  12.633  0.3967  1.4926  0.1691
  828MPD2    H312183   4.088   3.028  12.799 -0.7819  2.1190  0.1924
  828MPD2     N12184   4.427   3.079  12.497 -0.0283 -0.3788  0.0653
  828MPD2    H512185   4.491   3.065  12.575  0.1627  1.4265  0.2335
  828MPD2    N112186   3.970   3.173  12.375 -0.0471 -0.2274  0.1841
  828MPD2    H712187   4.007   3.210  12.287 -0.0993  1.8162  1.0218
  829MPD2     C12188   4.068   3.475  11.589  0.0780  0.2192  0.0855
  829MPD2    C112189   3.944   3.415  11.564 -0.3593 -0.2753  0.3703
  829MPD2    C212190   3.877   3.372  11.679  0.2345 -0.4099  0.2402
  829MPD2    C312191   3.931   3.370  11.812  0.4828  0.4244  0.4190
  829MPD2    C412192   4.049   3.433  11.823 -0.1614 -0.3190 -0.3665
  829MPD2    C512193   4.122   3.477  11.714  0.3249  0.1431 -0.2511
  829MPD2     H12194   3.780   3.325  11.669  1.4207 -2.4863 -1.4635
  829MPD2    H112195   4.089   3.460  11.920 -1.7656 -1.8655  0.7260
  829MPD2    H212196   4.128   3.503  11.503  0.2417 -0.6508 -0.0838
  829MPD2    H312197   4.217   3.527  11.725 -0.1465  1.0776 -0.4416
  829MPD2     N12198   3.865   3.323  11.930  0.1160  0.2113 -0.4488
  829MPD2    H512199   3.916   3.336  12.017 -0.0604  0.0209 -0.3172
  829MPD2    N112200   3.902   3.401  11.429 -0.4614  0.0514  0.4737
  829MPD2    H712201   3.971   3.438  11.366 -0.7687  1.5786  1.0245
  830MPD2     C12202   4.687   1.133  15.789  0.3794  0.0613 -0.2130
  830MPD2    C112203   4.625   1.252  15.807 -0.8274  0.0618  0.1008
  830MPD2    C212204   4.653   1.348  15.713 -0.2140 -0.4205  0.0926
  830MPD2    C312205   0.001   1.325  15.597  0.4379 -0.4560  0.2571
  830MPD2    C412206   0.061   1.200  15.582  0.7765  0.0700  0.6514
  830MPD2    C512207   0.049   1.111  15.685 -0.1366 -0.0381 -0.3131
  830MPD2     H12208   4.620   1.450  15.728  2.8771  0.5183  0.4346
  830MPD2    H112209   0.124   1.176  15.497  1.4524 -1.7084  1.6612
  830MPD2    H212210   4.666   1.053  15.859  1.5557 -0.3180 -0.2877
  830MPD2    H312211   0.106   1.019  15.681 -3.5018 -2.1289  0.4762
  830MPD2     N12212   0.011   1.432  15.504  0.0180 -0.1362  0.6517
  830MPD2    H512213   4.684   1.519  15.520  1.5040  0.4502  2.1472
  830MPD2    N112214   4.541   1.267  15.923  0.4106 -0.0013 -1.0203
  830MPD2    H712215   4.531   1.177  15.967 -0.7483  0.7369  0.2014
  831MPD2     C12216   4.507   3.293  16.164 -0.6801  0.5796 -0.0145
  831MPD2    C112217   4.541   3.164  16.128  0.1294  0.6938 -0.3261
  831MPD2    C212218   4.450   3.064  16.165 -0.5072  0.4901  0.3176
  831MPD2    C312219   4.331   3.091  16.227 -0.8272  0.1318  0.1282
  831MPD2    C412220   4.311   3.217  16.278  0.0889  1.0454  0.2152
  831MPD2    C512221   4.406   3.315  16.254  0.0218 -0.7862 -0.2736
  831MPD2     H12222   4.468   2.959  16.148 -1.1493  0.1433  1.7857
  831MPD2    H112223   4.229   3.237  16.346 -1.8878  1.1005 -2.1814
  831MPD2    H212224   4.568   3.379  16.141 -2.6653  1.9164 -0.3591
  831MPD2    H312225   4.389   3.416  16.290 -0.2856 -1.5836  1.8505
  831MPD2     N12226   4.220   3.003  16.227  0.0520  0.4201  0.0412
  831MPD2    H512227   4.132   3.042  16.257  1.0916  1.4004  1.7965
  831MPD2    N112228   4.633   3.142  16.029 -0.0172  0.1687 -0.3243
  831MPD2    H712229   4.679   3.221  15.984  0.2633  0.0077 -0.3213
  832MPD2     C12230   2.726   3.918  17.303 -0.0272 -0.3745  0.2385
  832MPD2    C112231   2.809   4.026  17.313  0.2364  0.3769  0.3695
  832MPD2    C212232   2.754   4.145  17.267  0.2000 -0.4249  0.2650
  832MPD2    C312233   2.615   4.158  17.250  0.2358 -0.9056  0.1977
  832MPD2    C412234   2.536   4.051  17.262 -0.6114 -0.9282 -0.5607
  832MPD2    C512235   2.594   3.928  17.269  0.6833  0.0480 -0.4144
  832MPD2     H12236   2.813   4.234  17.250 -1.9020  0.2158 -3.8219
  832MPD2    H112237   2.431   4.057  17.239 -0.8328  1.5832  1.0579
  832MPD2    H212238   2.765   3.824  17.342  0.1631 -0.0865  0.7399
  832MPD2    H312239   2.534   3.838  17.263 -1.0695  1.3040 -1.6584
  832MPD2     N12240   2.554   4.287  17.209  0.0628 -0.0781 -0.4244
  832MPD2    H512241   2.455   4.270  17.193 -0.3561  1.3121  0.7259
  832MPD2    N112242   2.938   4.003  17.373  0.4734  0.4780 -0.7213
  832MPD2    H712243   2.970   3.912  17.405  0.6713  1.0402  0.6818
  833MPD2     C12244   0.495   0.813  12.903  0.0139  0.1119 -0.0179
  833MPD2    C112245   0.462   0.883  12.788  0.0929 -0.3015 -0.5212
  833MPD2    C212246   0.557   0.879  12.684 -0.5698 -0.4041  0.0916
  833MPD2    C312247   0.663   0.792  12.680 -0.2035 -0.1605  0.2225
  833MPD2    C412248   0.691   0.722  12.800 -0.5973  0.3811 -0.1037
  833MPD2    C512249   0.611   0.744  12.911  0.3487  0.6740  0.2217
  833MPD2     H12250   0.543   0.939  12.595  0.8466 -0.3014 -0.0549
  833MPD2    H112251   0.768   0.645  12.797  0.5331  1.5181 -0.4857
  833MPD2    H212252   0.428   0.809  12.988 -1.7358  0.2519 -1.3942
  833MPD2    H312253   0.635   0.684  12.999 -0.0422 -0.0622 -0.1720
  833MPD2     N12254   0.736   0.791  12.566 -0.4103 -0.3738 -0.3212
  833MPD2    H512255   0.722   0.867  12.500  1.3610 -2.2706 -2.9362
  833MPD2    N112256   0.346   0.967  12.774  0.3383 -1.0214  0.5926
  833MPD2    H712257   0.343   1.030  12.695 -0.2726  0.0217  1.4637
  834MPD2     C12258   0.407   0.249  11.844  0.1765  0.2150 -0.1104
  834MPD2    C112259   0.479   0.333  11.762 -0.7692 -0.0679 -0.1160
  834MPD2    C212260   0.580   0.409  11.816 -0.2529  0.0551  0.2267
  834MPD2    C312261   0.591   0.405  11.954  0.1731 -0.1890  0.5030
  834MPD2    C412262   0.497   0.344  12.041  0.2241  0.4457 -0.8318
  834MPD2    C512263   0.412   0.262  11.975 -0.2118 -0.1213 -1.1966
  834MPD2     H12264   0.655   0.457  11.754  2.1683 -3.1306  0.6490
  834MPD2    H112265   0.497   0.346  12.149 -2.1617 -0.9697 -0.7936
  834MPD2    H212266   0.330   0.188  11.797 -1.0671  0.3145  1.8182
  834MPD2    H312267   0.338   0.203  12.028  0.3700  0.3850  0.1886
  834MPD2     N12268   0.695   0.485  12.011  0.0872 -0.0218 -0.0680
  834MPD2    H512269   0.754   0.537  11.947  0.7108 -0.5961  0.0331
  834MPD2    N112270   0.438   0.324  11.628 -0.1060  0.2394  0.2396
  834MPD2    H712271   0.371   0.253  11.604  1.6241 -1.8669  1.6811
  835MPD2     C12272   4.510   3.344  10.609 -0.1738  0.5046 -0.1521
  835MPD2    C112273   4.380   3.385  10.648 -0.0182 -0.1547  0.2350
  835MPD2    C212274   4.375   3.477  10.746 -0.1474 -0.0437  0.4352
  835MPD2    C312275   4.480   3.535  10.805 -0.0058 -0.5075 -0.0891
  835MPD2    C412276   4.608   3.502  10.766  0.3821  1.1887 -0.4056
  835MPD2    C512277   4.622   3.407  10.659 -0.4389 -0.0019  0.1588
  835MPD2     H12278   4.275   3.503  10.778 -0.1402  1.2736 -0.6078
  835MPD2    H112279   4.699   3.541  10.811  0.2073  3.0411 -1.6908
  835MPD2    H212280   4.531   3.272  10.531  1.6161  1.2862 -0.3813
  835MPD2    H312281   4.717   3.390  10.609 -0.1431  0.8116  0.4454
  835MPD2     N12282   4.464   3.647  10.891 -0.5180 -0.4230  0.1178
  835MPD2    H512283   4.538   3.667  10.957 -0.4784  0.2056 -0.1142
  835MPD2    N112284   4.255   3.334  10.616 -0.2382 -0.2238 -0.3968
  835MPD2    H712285   4.171   3.380  10.651 -1.4007 -1.1047 -2.0050
  836MPD2     C12286   3.718   3.644  11.042  0.1704 -0.3614 -0.7930
  836MPD2    C112287   3.789   3.699  11.147 -0.3339 -0.1018  0.2320
  836MPD2    C212288   3.726   3.695  11.267 -0.1831 -0.4925 -0.7195
  836MPD2    C312289   3.598   3.638  11.284 -0.1023  0.2941  0.5760
  836MPD2    C412290   3.525   3.586  11.179 -0.1350 -0.5658 -0.0768
  836MPD2    C512291   3.592   3.600  11.056  0.4504  0.3651 -0.1977
  836MPD2     H12292   3.780   3.718  11.358 -0.5946 -0.6501 -0.4394
  836MPD2    H112293   3.423   3.555  11.196  0.1213 -1.4417 -0.1480
  836MPD2    H212294   3.767   3.660  10.947 -0.6366 -1.0045 -1.3101
  836MPD2    H312295   3.544   3.572  10.963 -0.1810 -0.2366  0.3046
  836MPD2     N12296   3.543   3.623  11.417  0.3216  0.1237 -0.0154
  836MPD2    H512297   3.461   3.564  11.418  0.9807 -0.8144 -0.5964
  836MPD2    N112298   3.921   3.738  11.127 -0.2001  0.6051 -0.1198
  836MPD2    H712299   3.959   3.710  11.037 -0.1594  0.0699  0.0654
  837MPD2     C12300   2.915   2.923  10.200 -0.1780 -0.1980 -0.3610
  837MPD2    C112301   2.940   2.953  10.070 -0.9655  0.1295  0.3466
  837MPD2    C212302   2.919   3.075  10.018 -0.5459  0.7193 -0.0770
  837MPD2    C312303   2.853   3.173  10.088 -0.6031 -0.9191  0.0681
  837MPD2    C412304   2.821   3.146  10.224 -0.9394 -0.1283 -0.2466
  837MPD2    C512305   2.847   3.022  10.273  0.0073  0.8477  0.4525
  837MPD2     H12306   2.930   3.095   9.912 -0.4746  1.2405  0.0302
  837MPD2    H112307   2.756   3.204  10.287  2.4304  2.2449  1.0675
  837MPD2    H212308   2.931   2.825  10.243  1.6441 -1.5739 -4.1568
  837MPD2    H312309   2.805   3.006  10.372  1.8134 -3.0251  0.5860
  837MPD2     N12310   2.809   3.278  10.008  0.3796  0.0113  0.0869
  837MPD2    H512311   2.830   3.274   9.909 -2.3690  0.5236 -0.4935
  837MPD2    N112312   2.969   2.857   9.976 -0.3382 -0.3102 -0.6779
  837MPD2    H712313   2.967   2.887   9.880 -2.4192  0.4135 -0.4049
  838MPD2     C12314   1.558   1.235  11.576 -0.4615 -0.2500  0.0570
  838MPD2    C112315   1.510   1.312  11.676 -0.1794  0.1159  0.3183
  838MPD2    C212316   1.393   1.267  11.733  0.2782 -0.3624  0.3464
  838MPD2    C312317   1.325   1.151  11.698 -0.3600  0.0693  0.3889
  838MPD2    C412318   1.389   1.077  11.595  0.4206 -0.2904  0.5124
  838MPD2    C512319   1.499   1.122  11.532  0.3278  0.2253  0.6175
  838MPD2     H12320   1.350   1.324  11.814 -1.1672 -2.5766  1.1419
  838MPD2    H112321   1.347   0.984  11.559  0.2033  0.6020 -1.5007
  838MPD2    H212322   1.650   1.259  11.524  0.1816 -0.3474  1.1574
  838MPD2    H312323   1.531   1.060  11.449  2.9884 -0.3859  2.1056
  838MPD2     N12324   1.208   1.114  11.763 -0.8697 -0.2624  0.0229
  838MPD2    H512325   1.175   1.181  11.832 -2.1481 -1.3144  0.4463
  838MPD2    N112326   1.576   1.425  11.726 -0.0856  0.2930 -0.4463
  838MPD2    H712327   1.523   1.490  11.783  0.9168 -0.7235  1.6285
  839MPD2     C12328   1.371   0.719  11.886  0.1475 -0.1673 -0.3860
  839MPD2    C112329   1.430   0.735  11.762 -0.2037 -0.0504  0.0721
  839MPD2    C212330   1.535   0.820  11.754  0.0922  0.8523  0.0235
  839MPD2    C312331   1.591   0.885  11.859  0.2853  0.8965 -0.0724
  839MPD2    C412332   1.525   0.871  11.978 -0.0760 -0.6506 -0.4789
  839MPD2    C512333   1.414   0.792  11.992 -0.4188 -0.4210 -0.5239
  839MPD2     H12334   1.571   0.846  11.655  0.6775  3.1055  0.8333
  839MPD2    H112335   1.552   0.925  12.068  2.3445 -3.1122  0.2731
  839MPD2    H212336   1.294   0.646  11.908 -1.5728  1.1715 -1.8732
  839MPD2    H312337   1.358   0.794  12.085 -2.3215 -2.5124 -1.6136
  839MPD2     N12338   1.696   0.978  11.852 -0.5653 -0.3076 -0.2544
  839MPD2    H512339   1.715   1.030  11.937 -2.4516  1.0393 -0.6496
  839MPD2    N112340   1.376   0.683  11.640  0.6411  0.2528 -0.0691
  839MPD2    H712341   1.431   0.703  11.557  1.4500  0.5833  0.5440
  840MPD2     C12342   1.624   3.195  10.454  0.2587 -0.1391  0.3778
  840MPD2    C112343   1.597   3.227  10.587 -0.3343  0.3206 -0.5055
  840MPD2    C212344   1.699   3.283  10.660 -0.5407  0.6570 -0.1927
  840MPD2    C312345   1.820   3.309  10.597 -0.1406  0.3721  0.1166
  840MPD2    C412346   1.840   3.274  10.465 -0.0197  0.0027  0.0482
  840MPD2    C512347   1.742   3.224  10.390  0.2062 -0.8215  0.3251
  840MPD2     H12348   1.692   3.310  10.765 -1.8600  2.2083 -0.6853
  840MPD2    H112349   1.936   3.296  10.419  0.3158 -1.9248 -0.1885
  840MPD2    H212350   1.550   3.146  10.392 -0.0753  1.7103 -0.6822
  840MPD2    H312351   1.758   3.191  10.288 -0.2332 -1.0793  0.3383
  840MPD2     N12352   1.929   3.371  10.665  0.7577  0.1659 -0.0490
  840MPD2    H512353   2.011   3.389  10.608  0.1028  0.2916 -0.9345
  840MPD2    N112354   1.480   3.180  10.646 -0.0417 -0.4800  0.4125
  840MPD2    H712355   1.409   3.139  10.586 -0.6812  1.7590 -0.3507
  841MPD2     C12356   1.696   3.446  14.261  0.2740  0.2223 -0.7067
  841MPD2    C112357   1.661   3.373  14.375 -0.8744  0.2754 -0.4603
  841MPD2    C212358   1.698   3.427  14.497 -0.2874  0.5401 -0.7470
  841MPD2    C312359   1.756   3.556  14.502  0.1953 -0.2957  0.1617
  841MPD2    C412360   1.791   3.621  14.382 -0.3390  0.1418 -0.4339
  841MPD2    C512361   1.758   3.565  14.267  0.2538  0.2012 -0.0938
  841MPD2     H12362   1.702   3.370  14.589 -2.6618 -0.9391 -1.5674
  841MPD2    H112363   1.839   3.718  14.377 -2.2749  1.1841  1.2344
  841MPD2    H212364   1.666   3.417  14.161  0.4335 -1.2990 -0.3135
  841MPD2    H312365   1.773   3.623  14.177  1.0391  0.4246  0.1751
  841MPD2     N12366   1.789   3.590  14.631 -0.0893  0.1740  0.0516
  841MPD2    H512367   1.767   3.520  14.701  1.9653 -1.0757 -0.5467
  841MPD2    N112368   1.609   3.240  14.372  0.3906 -0.0336 -0.0321
  841MPD2    H712369   1.615   3.196  14.463 -0.1981 -1.7620 -0.8276
  842MPD2     C12370   1.306   3.912  16.496  0.4376  0.1458 -0.4545
  842MPD2    C112371   1.351   4.042  16.523  0.4695 -0.0173  0.1343
  842MPD2    C212372   1.439   4.064  16.632 -0.2490 -0.1433 -0.5471
  842MPD2    C312373   1.488   3.961  16.701 -0.3553 -0.7517 -0.0447
  842MPD2    C412374   1.458   3.829  16.657  0.0101  0.0969  0.4303
  842MPD2    C512375   1.371   3.808  16.553  0.3130 -0.4059  0.2157
  842MPD2     H12376   1.441   4.168  16.665 -1.4966 -0.4662  0.5369
  842MPD2    H112377   1.489   3.735  16.701 -0.5068 -0.3412 -0.1479
  842MPD2    H212378   1.227   3.896  16.423  2.1896 -1.8619 -1.9124
  842MPD2    H312379   1.356   3.708  16.514  0.8564  0.4881 -2.3102
  842MPD2     N12380   1.562   3.984  16.818  0.1038 -0.4946  0.8579
  842MPD2    H512381   1.565   3.905  16.882  0.1727 -1.2652 -0.0983
  842MPD2    N112382   1.285   4.138  16.441 -0.0772 -0.7136  0.3101
  842MPD2    H712383   1.224   4.107  16.366 -2.3746  2.0542  1.0021
  843MPD2     C12384   3.414   0.379   0.357 -0.2378  0.2758 -0.5834
  843MPD2    C112385   3.517   0.289   0.383 -0.4417  0.2266 -0.7393
  843MPD2    C212386   3.628   0.337   0.441 -0.1474  0.6761  0.0119
  843MPD2    C312387   3.646   0.476   0.467 -0.4952  1.2659  0.6206
  843MPD2    C412388   3.544   0.559   0.438 -0.4868  0.0668 -0.5945
  843MPD2    C512389   3.428   0.514   0.386 -0.3280  0.3479  0.2236
  843MPD2     H12390   3.698   0.262   0.476 -0.3089  1.1476  1.3396
  843MPD2    H112391   3.550   0.662   0.469  0.9909 -0.5277  1.0700
  843MPD2    H212392   3.321   0.345   0.314 -0.4010  1.3888 -1.1104
  843MPD2    H312393   3.345   0.580   0.366  0.5871  0.8789 -1.7495
  843MPD2     N12394   3.758   0.528   0.531  0.0009  0.2780  0.2484
  843MPD2    H512395   3.767   0.629   0.537 -1.1596  0.3331  1.1996
  843MPD2    N112396   3.504   0.147   0.355 -0.2570 -0.0025 -0.5094
  843MPD2    H712397   3.404   0.127   0.349  0.1213 -1.9638 -0.2721
  844MPD2     C12398   2.434   3.839  16.915 -0.5355  0.1039  0.5863
  844MPD2    C112399   2.553   3.774  16.901  0.5292  0.3451 -0.4647
  844MPD2    C212400   2.671   3.842  16.903 -0.1583  0.4798  0.2897
  844MPD2    C312401   2.675   3.980  16.919 -0.9927  0.0380  0.1790
  844MPD2    C412402   2.558   4.050  16.932  0.5030  0.2346 -0.8120
  844MPD2    C512403   2.436   3.979  16.932  0.3011 -0.7622 -0.3871
  844MPD2     H12404   2.764   3.793  16.876  0.1893  2.3941 -2.0794
  844MPD2    H112405   2.550   4.159  16.933 -0.8385  0.1222  0.1763
  844MPD2    H212406   2.339   3.787  16.918 -1.3157  1.5802  1.5129
  844MPD2    H312407   2.346   4.034  16.956  0.4347 -1.6216  2.1191
  844MPD2     N12408   2.805   4.031  16.939 -0.1114  0.5219 -0.4165
  844MPD2    H512409   2.881   3.969  16.965 -1.1500 -1.6200 -2.5597
  844MPD2    N112410   2.565   3.642  16.863 -0.2725  0.0178  0.0507
  844MPD2    H712411   2.660   3.608  16.860 -0.6892 -1.0808 -1.0685
  845MPD2     C12412   3.058   0.138  17.423 -0.5366  0.0383  0.4663
  845MPD2    C112413   2.957   0.125  17.329 -0.1089  0.0646 -0.0265
  845MPD2    C212414   2.956   0.019  17.236 -0.6029 -0.8115 -0.3053
  845MPD2    C312415   3.056   4.643  17.239 -0.7031 -0.5474 -0.5292
  845MPD2    C412416   3.152   4.653  17.338  0.4811 -0.2826  0.6688
  845MPD2    C512417   3.151   0.038  17.428  0.1915  0.2344 -0.7164
  845MPD2     H12418   2.875   0.013  17.164 -0.0155 -1.1225 -0.9547
  845MPD2    H112419   3.234   4.585  17.349 -0.0935 -1.3146 -1.4112
  845MPD2    H212420   3.064   0.225  17.487 -1.3746 -0.8704  1.7864
  845MPD2    H312421   3.236   0.053  17.493  1.1243  1.3872 -2.1942
  845MPD2     N12422   3.058   4.536  17.149 -0.0532  0.1833  0.0714
  845MPD2    H512423   2.978   4.536  17.088 -0.9286  1.2910  1.2125
  845MPD2    N112424   2.854   0.221  17.335 -0.5920 -0.2234  0.0792
  845MPD2    H712425   2.851   0.286  17.412  0.6460  1.3341 -1.1968
  846MPD2     C12426   4.485   0.210  13.691  0.1037  0.6431  0.8228
  846MPD2    C112427   4.382   0.301  13.710 -0.0489  0.5722 -0.2162
  846MPD2    C212428   4.331   0.316  13.839 -0.1735  0.0898  0.0563
  846MPD2    C312429   4.387   0.252  13.948 -0.4817  1.0124 -0.2155
  846MPD2    C412430   4.491   0.170  13.920  0.4703  0.0289 -0.1637
  846MPD2    C512431   4.532   0.139  13.798  0.5707  0.0859 -0.1005
  846MPD2     H12432   4.247   0.382  13.859 -0.7594 -1.1572  1.7093
  846MPD2    H112433   4.536   0.113  14.000  0.4541 -1.2552 -1.0697
  846MPD2    H212434   4.530   0.183  13.596 -0.7387 -1.4469  1.0240
  846MPD2    H312435   4.601   0.057  13.785  0.7461  0.3916 -1.1354
  846MPD2     N12436   4.333   0.269  14.083 -0.7021 -0.5763  0.7729
  846MPD2    H512437   4.251   0.326  14.100 -1.3113 -1.4539  0.7678
  846MPD2    N112438   4.322   0.381  13.610 -0.2613  0.0363 -0.0317
  846MPD2    H712439   4.249   0.447  13.637  0.9361  2.0489 -1.7170
  847MPD2     C12440   4.524   1.456  13.956 -0.4133 -0.3811 -0.1531
  847MPD2    C112441   4.597   1.495  14.063 -0.1513  0.2778 -0.2685
  847MPD2    C212442   4.666   1.397  14.139 -0.2084 -0.4155 -0.0487
  847MPD2    C312443   4.663   1.264  14.105 -0.1813  0.0193 -0.5654
  847MPD2    C412444   4.570   1.228  14.007  0.2500 -0.7764  0.3307
  847MPD2    C512445   4.508   1.328  13.936 -0.5292 -1.0071  0.2614
  847MPD2     H12446   4.720   1.432  14.226 -0.4522 -1.5905  0.5698
  847MPD2    H112447   4.540   1.124  13.995  2.4272 -1.0116 -3.2008
  847MPD2    H212448   4.465   1.521  13.893 -1.7736  0.1889  1.6997
  847MPD2    H312449   4.432   1.295  13.866 -0.2167  0.2618 -0.6857
  847MPD2     N12450   4.719   1.167  14.184  0.8181  0.0847 -0.1369
  847MPD2    H512451   4.696   1.070  14.169 -2.7390  1.3322 -2.6058
  847MPD2    N112452   4.615   1.631  14.101  0.3077  0.0411 -0.1787
  847MPD2    H712453   4.681   1.649  14.175  2.5301  0.7835 -2.3278
  848MPD2     C12454   2.473   4.657  16.489 -0.4849 -0.1063  0.1074
  848MPD2    C112455   2.369   4.641  16.573 -0.5415 -0.4129 -0.4095
  848MPD2    C212456   2.252   4.719  16.567  0.0113 -0.3633  0.7036
  848MPD2    C312457   2.245   0.089  16.465 -0.0240 -0.9176  0.0065
  848MPD2    C412458   2.350   0.112  16.381 -0.7526  0.4233  0.3326
  848MPD2    C512459   2.461   0.029  16.393  0.5431  0.5039 -0.1135
  848MPD2     H12460   2.178   4.697  16.643 -1.1603  0.2569 -0.2615
  848MPD2    H112461   2.353   0.186  16.302  0.6190 -0.8711 -0.8386
  848MPD2    H212462   2.564   4.600  16.502 -0.1349  0.4270 -0.0164
  848MPD2    H312463   2.544   0.043  16.325 -0.8169 -0.5765 -1.9983
  848MPD2     N12464   2.130   0.169  16.448  0.0221 -0.0104  0.6472
  848MPD2    H512465   2.143   0.239  16.376  0.1209 -0.2178  0.4642
  848MPD2    N112466   2.378   4.555  16.682  0.1343  0.6838  0.8128
  848MPD2    H712467   2.294   4.547  16.740 -0.5645 -1.8245 -0.5424
  849MPD2     C12468   1.412   4.089  14.596 -0.6908 -0.1672  0.1164
  849MPD2    C112469   1.490   4.155  14.506 -0.1567 -0.2665  0.7304
  849MPD2    C212470   1.625   4.178  14.541  0.0741 -1.0050 -0.5000
  849MPD2    C312471   1.685   4.128  14.651 -0.2858 -0.0543 -0.3596
  849MPD2    C412472   1.607   4.061  14.736  0.7495  0.2614  0.2261
  849MPD2    C512473   1.473   4.043  14.712  0.2345 -0.0728  0.4727
  849MPD2     H12474   1.687   4.224  14.465 -2.3146  2.2428 -0.4786
  849MPD2    H112475   1.656   4.008  14.818  1.4101 -0.0333 -0.3576
  849MPD2    H212476   1.308   4.064  14.581 -0.8540  1.3458 -1.2663
  849MPD2    H312477   1.405   3.989  14.777  1.4479 -1.7824  0.3210
  849MPD2     N12478   1.823   4.144  14.667  0.3796  0.5206 -0.1426
  849MPD2    H512479   1.871   4.199  14.597  1.5546 -1.0914 -0.5817
  849MPD2    N112480   1.445   4.202  14.385 -0.6780 -0.1345  0.5055
  849MPD2    H712481   1.504   4.276  14.349  1.2496 -0.4019  3.1020
  850MPD2     C12482   4.100   1.975  14.647  0.2141  0.0277 -0.8360
  850MPD2    C112483   4.112   2.109  14.684 -0.8331 -0.3480  0.3996
  850MPD2    C212484   4.239   2.165  14.700  0.6023  0.0839 -0.5091
  850MPD2    C312485   4.349   2.081  14.686  0.3679 -0.1046  0.3186
  850MPD2    C412486   4.340   1.948  14.651 -0.0600 -0.2175 -0.2139
  850MPD2    C512487   4.212   1.898  14.623 -0.0898  0.4917 -0.0271
  850MPD2     H12488   4.253   2.268  14.729  4.7402 -0.1433 -1.7067
  850MPD2    H112489   4.428   1.886  14.641  0.3567  0.3556 -0.0901
  850MPD2    H212490   4.003   1.928  14.634 -0.1016  0.4687 -0.0328
  850MPD2    H312491   4.207   1.798  14.582 -0.4992  0.7170 -0.5268
  850MPD2     N12492   4.478   2.125  14.735  0.1283 -0.1161 -1.0195
  850MPD2    H512493   4.552   2.059  14.712  1.2629  0.1576  1.8209
  850MPD2    N112494   3.987   2.165  14.717  0.0113  0.2459 -0.6443
  850MPD2    H712495   3.920   2.115  14.659  1.1079  1.4629 -2.9578
  851MPD2     C12496   4.497   2.303  15.406  0.5576  0.2817  0.2444
  851MPD2    C112497   4.465   2.245  15.284 -0.0762 -0.3999  0.1269
  851MPD2    C212498   4.537   2.133  15.247 -0.2213 -0.1026  0.5264
  851MPD2    C312499   4.639   2.079  15.319 -0.3436  0.0111  0.5398
  851MPD2    C412500   4.663   2.139  15.442  0.3730  0.0852  0.1544
  851MPD2    C512501   4.600   2.253  15.483 -0.0033  0.5731  0.3606
  851MPD2     H12502   4.516   2.084  15.153 -1.4446  0.9051  0.2725
  851MPD2    H112503   0.017   2.094  15.504 -2.5504 -0.5040  3.3027
  851MPD2    H212504   4.450   2.391  15.448 -0.1394 -0.7974  1.7232
  851MPD2    H312505   4.625   2.305  15.574 -0.5232  0.8404  0.3529
  851MPD2     N12506   4.708   1.959  15.279  1.0137 -0.2617  0.4298
  851MPD2    H512507   4.685   1.918  15.189 -1.7866 -0.9261  1.4541
  851MPD2    N112508   4.350   2.296  15.223 -0.7141 -0.2779  0.1080
  851MPD2    H712509   4.311   2.385  15.253  3.6236  2.7092 -3.0544
  852MPD2     C12510   3.720   4.615  10.067 -0.2387  0.1867 -0.1451
  852MPD2    C112511   3.812   4.635  10.164  0.0151  0.1682  0.2175
  852MPD2    C212512   3.915   4.719  10.148 -1.0058 -0.0174  0.0877
  852MPD2    C312513   3.932   0.054  10.025  0.7730  0.3270  0.0296
  852MPD2    C412514   3.841   0.032   9.919 -0.4202 -0.3187 -0.6604
  852MPD2    C512515   3.731   4.682   9.946  0.9042  0.0606 -0.0441
  852MPD2     H12516   3.985   0.011  10.229  0.3142 -1.8837 -0.7310
  852MPD2    H112517   3.837   0.085   9.824  0.0323  1.4029  0.2655
  852MPD2    H212518   3.636   4.546  10.073 -0.8242  0.9144 -0.0101
  852MPD2    H312519   3.654   4.682   9.869  1.4517  0.8229 -0.5956
  852MPD2     N12520   4.040   0.138  10.018 -0.2627  0.4089 -0.4015
  852MPD2    H512521   4.112   0.138  10.090  0.3659 -0.0353 -1.0369
  852MPD2    N112522   3.815   4.578  10.290 -0.0417 -0.2290 -0.2886
  852MPD2    H712523   3.890   4.600  10.353  0.1188 -0.5449 -0.3677
  853MPD2     C12524   1.306   4.713  12.462 -0.3548 -0.2125  0.3796
  853MPD2    C112525   1.176   0.002  12.418  0.0086  1.0398  0.7584
  853MPD2    C212526   1.136   4.676  12.291 -0.6583  0.4320 -0.1752
  853MPD2    C312527   1.236   4.635  12.206 -0.5889 -0.6626 -0.3720
  853MPD2    C412528   1.366   4.637  12.246  0.0368 -0.7583 -0.5661
  853MPD2    C512529   1.395   4.670  12.373 -0.6775 -0.5353 -0.3608
  853MPD2     H12530   1.032   4.681  12.260 -0.8155 -0.6375  0.1710
  853MPD2    H112531   1.447   4.603  12.183  1.0455  0.0084  0.3078
  853MPD2    H212532   1.344   0.029  12.556  0.3046  1.5185 -0.5867
  853MPD2    H312533   1.501   4.679  12.393 -1.0421  1.8307  0.4942
  853MPD2     N12534   1.219   4.595  12.071  0.2646 -0.3479  0.0969
  853MPD2    H512535   1.308   4.585  12.023 -1.1801 -2.3773 -2.1149
  853MPD2    N112536   1.079   0.053  12.505 -0.2541  0.3007  0.3242
  853MPD2    H712537   1.110   0.083  12.597  0.2114  1.0582 -0.0808
  854MPD2     C12538   2.598   4.707  13.170 -0.7842  0.4854  0.0872
  854MPD2    C112539   2.699   4.722  13.082  0.2534 -0.0373 -0.0364
  854MPD2    C212540   2.823   4.656  13.105 -0.2728 -0.2492 -0.1824
  854MPD2    C312541   2.843   4.585  13.227  0.1264  0.2085 -0.1213
  854MPD2    C412542   2.745   4.597  13.324  0.5669  0.1099  0.5029
  854MPD2    C512543   2.617   4.647  13.289 -0.1502  1.4233  0.3746
  854MPD2     H12544   2.903   4.651  13.032  0.0932  3.7131 -0.0869
  854MPD2    H112545   2.746   4.546  13.420 -2.0687  1.6675  1.3677
  854MPD2    H212546   2.498   0.020  13.147 -1.0675  0.2849  1.0185
  854MPD2    H312547   2.534   4.643  13.358 -0.7782  0.1508 -0.4686
  854MPD2     N12548   2.947   4.500  13.249  0.1425  0.2951  0.4389
  854MPD2    H512549   2.938   4.462  13.343  0.9607 -1.3656 -0.1470
  854MPD2    N112550   2.665   0.075  12.972 -0.3010  0.2687  0.1476
  854MPD2    H712551   2.565   0.091  12.960 -0.2319 -0.4623 -1.3834
  855MPD2     C12552   3.420   4.457  14.041 -0.1754  0.5347  0.0462
  855MPD2    C112553   3.295   4.403  14.025  0.6003  0.0267 -0.1020
  855MPD2    C212554   3.252   4.367  13.896 -0.3599 -0.2514  0.6528
  855MPD2    C312555   3.348   4.360  13.793  0.4329  0.1772  0.1715
  855MPD2    C412556   3.476   4.400  13.818  0.4204 -1.0029  0.4151
  855MPD2    C512557   3.506   4.460  13.937 -0.4217  0.0993 -0.1016
  855MPD2     H12558   3.153   4.327  13.877 -0.8270  0.2238  2.0908
  855MPD2    H112559   3.547   4.424  13.740 -0.5733  2.2674  0.5147
  855MPD2    H212560   3.469   4.490  14.132  2.0413 -0.3021 -0.8413
  855MPD2    H312561   3.605   4.503  13.946 -0.0885 -0.9565  1.2424
  855MPD2     N12562   3.319   4.315  13.659  0.2774 -0.9263  0.1906
  855MPD2    H512563   3.400   4.291  13.602  1.3245  0.6407  0.9845
  855MPD2    N112564   3.216   4.389  14.142  0.3670 -0.1714  0.0740
  855MPD2    H712565   3.256   4.424  14.229  0.7334 -0.8751  0.1894
  856MPD2     C12566   0.360   0.557  13.938 -0.5125  1.0562  0.3092
  856MPD2    C112567   0.442   0.660  13.966  0.1033  0.2108 -0.1813
  856MPD2    C212568   0.397   0.787  13.941  0.5408 -0.3989 -0.6807
  856MPD2    C312569   0.268   0.816  13.893 -0.4279 -0.2898 -1.0190
  856MPD2    C412570   0.186   0.716  13.866 -0.1189  0.8622  0.2645
  856MPD2    C512571   0.233   0.588  13.892  0.2650 -0.0766  0.1196
  856MPD2     H12572   0.463   0.871  13.959  0.3530 -0.6115  1.0207
  856MPD2    H112573   0.087   0.730  13.825 -0.2068  0.4648  0.3397
  856MPD2    H212574   0.372   0.453  13.966  1.3735  1.4843  1.0664
  856MPD2    H312575   0.169   0.501  13.892  0.3416 -0.1346 -0.2935
  856MPD2     N12576   0.225   0.950  13.864  0.3716  0.3705 -0.4563
  856MPD2    H512577   0.144   0.960  13.803 -0.6481 -1.7697  0.5432
  856MPD2    N112578   0.562   0.655  14.041  0.0351  0.2999 -0.1302
  856MPD2    H712579   0.601   0.747  14.063 -2.7257  1.3032  0.5375
  857MPD2     C12580   1.759   2.593  12.878  0.7135 -0.2420 -0.0215
  857MPD2    C112581   1.897   2.582  12.860 -0.3576 -0.0695  0.9579
  857MPD2    C212582   1.979   2.688  12.892 -0.0148  0.6094 -0.7854
  857MPD2    C312583   1.927   2.803  12.947 -0.6710  0.1332 -0.9141
  857MPD2    C412584   1.791   2.809  12.976  0.5621 -0.3701  0.2904
  857MPD2    C512585   1.710   2.704  12.936  0.8032  0.8346  0.8699
  857MPD2     H12586   2.085   2.673  12.879 -0.2548 -0.7534 -1.1485
  857MPD2    H112587   1.741   2.894  13.022  1.8061 -0.9791  2.7799
  857MPD2    H212588   1.692   2.511  12.855  1.5957 -1.4359  1.6267
  857MPD2    H312589   1.603   2.709  12.951  0.6927 -0.3358  0.4299
  857MPD2     N12590   2.018   2.909  12.989  0.2195 -0.0286 -0.4777
  857MPD2    H512591   2.114   2.898  12.957 -0.0106 -0.2900 -1.0820
  857MPD2    N112592   1.946   2.459  12.809 -0.7015 -0.0222  0.2130
  857MPD2    H712593   1.885   2.379  12.813 -0.6744 -0.1235 -1.4240
  858MPD2     C12594   2.782   2.326  16.506  0.4312  0.8473 -0.7058
  858MPD2    C112595   2.748   2.196  16.552  0.3042 -0.7940  0.4134
  858MPD2    C212596   2.708   2.189  16.687  0.4095  0.1531 -0.6925
  858MPD2    C312597   2.730   2.299  16.771  0.1446  0.3781  0.0518
  858MPD2    C412598   2.767   2.425  16.721 -0.1248  0.2119  0.1116
  858MPD2    C512599   2.790   2.441  16.585  0.7975  0.0528 -0.7796
  858MPD2     H12600   2.658   2.101  16.725  1.2498 -0.3390 -0.7374
  858MPD2    H112601   2.796   2.506  16.787  0.7466  1.8566 -2.2635
  858MPD2    H212602   2.817   2.346  16.406  0.5361 -0.0747 -0.8530
  858MPD2    H312603   2.824   2.536  16.545 -0.1304  1.0398  0.7920
  858MPD2     N12604   2.713   2.294  16.913 -0.7137 -0.1235 -0.2042
  858MPD2    H512605   2.733   2.376  16.969 -1.1365  0.7818 -1.3896
  858MPD2    N112606   2.745   2.087  16.464  1.1431 -0.2121  0.4463
  858MPD2    H712607   2.773   2.103  16.367  0.3331 -1.0466  0.0686
  859MPD2     C12608   1.588   4.150  16.129 -0.1762  0.5516  0.8089
  859MPD2    C112609   1.551   4.154  15.999 -0.4061  0.2847  0.3255
  859MPD2    C212610   1.481   4.051  15.956 -0.6995  0.2054  0.4317
  859MPD2    C312611   1.436   3.941  16.033  0.3617  0.4320 -0.3195
  859MPD2    C412612   1.476   3.937  16.167  0.2362  0.0328  0.0480
  859MPD2    C512613   1.552   4.044  16.213 -0.2119 -0.5829 -0.1318
  859MPD2     H12614   1.431   4.060  15.860 -0.0891  1.3273  0.2101
  859MPD2    H112615   1.462   3.853  16.234 -0.4986  1.9683  2.3178
  859MPD2    H212616   1.656   4.227  16.164 -0.4729 -1.0645  4.8943
  859MPD2    H312617   1.570   4.042  16.320  1.1979 -0.9590 -0.3714
  859MPD2     N12618   1.361   3.826  15.989 -0.3543 -0.6304  0.0288
  859MPD2    H512619   1.317   3.767  16.059  0.2808  0.6611  1.5383
  859MPD2    N112620   1.598   4.258  15.912 -0.3121  0.0730  0.0917
  859MPD2    H712621   1.656   4.327  15.959  1.5856 -0.7858 -0.9608
  860MPD2     C12622   3.771   3.990  11.853 -0.1345 -0.2006  0.4705
  860MPD2    C112623   3.791   4.043  11.975 -0.1481  0.3486  0.6350
  860MPD2    C212624   3.680   4.051  12.056  0.2854 -0.1784  0.1973
  860MPD2    C312625   3.557   3.993  12.022  0.1205  0.3415 -0.2974
  860MPD2    C412626   3.543   3.937  11.898 -0.3066 -0.3854 -0.4999
  860MPD2    C512627   3.654   3.934  11.814  0.4019 -0.4280 -0.4379
  860MPD2     H12628   3.685   4.105  12.149  0.2500 -2.7834  1.7297
  860MPD2    H112629   3.449   3.899  11.859 -0.7240 -0.9575  1.0738
  860MPD2    H212630   3.853   3.986  11.782  0.0839 -2.6671  0.8654
  860MPD2    H312631   3.648   3.886  11.717 -0.1646  1.9320 -1.5764
  860MPD2     N12632   3.448   4.002  12.115 -0.6502  0.6185  0.3025
  860MPD2    H512633   3.476   4.048  12.201 -0.0867 -1.4973  1.2567
  860MPD2    N112634   3.916   4.090  12.025  0.1063 -0.0918 -0.1683
  860MPD2    H712635   3.914   4.131  12.118 -0.4706  1.3531 -0.8349
  861MPD2     C12636   2.252   2.412  11.161 -0.2706 -0.2126 -0.3936
  861MPD2    C112637   2.323   2.516  11.204  0.6999 -0.3233 -0.0329
  861MPD2    C212638   2.315   2.636  11.131 -0.4640 -0.6322 -0.1750
  861MPD2    C312639   2.228   2.655  11.028 -0.3987 -0.1399 -0.2075
  861MPD2    C412640   2.156   2.542  10.990  0.2689  0.2394 -0.1793
  861MPD2    C512641   2.163   2.426  11.058 -0.3496  0.0021 -0.8844
  861MPD2     H12642   2.372   2.723  11.159  0.3949 -1.3148  0.2199
  861MPD2    H112643   2.074   2.550  10.920  1.6340  0.0999 -1.7849
  861MPD2    H212644   2.261   2.317  11.213 -1.3223  0.8900  1.7656
  861MPD2    H312645   2.091   2.349  11.032  0.3358 -0.6387 -0.8536
  861MPD2     N12646   2.198   2.775  10.964  0.3771 -0.1806 -0.4829
  861MPD2    H512647   2.128   2.778  10.890  1.1949 -1.4383 -1.3042
  861MPD2    N112648   2.395   2.502  11.323  0.8261  0.3955 -0.0565
  861MPD2    H712649   2.391   2.413  11.372  0.4481  0.1390 -0.5501
  862MPD2     C12650   2.090   2.995  10.282 -0.4903 -0.3095 -0.2086
  862MPD2    C112651   2.173   2.931  10.375  0.0216  0.0238 -0.5952
  862MPD2    C212652   2.204   2.799  10.357 -0.0870  0.2130 -0.5456
  862MPD2    C312653   2.158   2.725  10.251  0.4269 -0.4106  0.6507
  862MPD2    C412654   2.066   2.785  10.163  0.8037 -0.2689  0.1011
  862MPD2    C512655   2.039   2.922  10.179 -0.6160  0.3642 -0.8122
  862MPD2     H12656   2.263   2.758  10.438 -1.1848 -1.2515 -0.4750
  862MPD2    H112657   2.011   2.736  10.083 -1.1014 -1.5454  2.1789
  862MPD2    H212658   2.066   3.100  10.288  0.9044 -0.0266  0.3358
  862MPD2    H312659   1.974   2.968  10.106 -1.0964 -1.0734 -1.2971
  862MPD2     N12660   2.191   2.589  10.235 -0.3449 -0.5103  0.0911
  862MPD2    H512661   2.140   2.534  10.166 -0.8061 -0.0969  0.0987
  862MPD2    N112662   2.224   2.977  10.502  0.5647 -0.1108 -0.3494
  862MPD2    H712663   2.262   2.904  10.560  1.0792 -0.3980 -1.0396
  863MPD2     C12664   0.984   0.849  17.159  0.3047 -0.7551  0.4124
  863MPD2    C112665   1.063   0.961  17.161  1.0003  0.5729  0.1258
  863MPD2    C212666   1.172   0.961  17.247  0.5655 -0.0543 -0.3780
  863MPD2    C312667   1.210   0.848  17.317  0.2615  0.1307 -0.8204
  863MPD2    C412668   1.129   0.738  17.311  0.5092 -0.0141  0.1774
  863MPD2    C512669   1.014   0.744  17.238 -0.0535  0.1571 -0.0403
  863MPD2     H12670   1.235   1.049  17.254  1.4966 -0.7527  0.0942
  863MPD2    H112671   1.148   0.647  17.366  0.8977 -1.2913 -2.0429
  863MPD2    H212672   0.896   0.851  17.096  0.7119 -1.7528 -0.1938
  863MPD2    H312673   0.951   0.656  17.241  0.7961 -0.4327  0.4750
  863MPD2     N12674   1.328   0.845  17.403  0.2523  0.6859  0.3207
  863MPD2    H512675   1.324   0.777  17.478  2.3669  0.9158  0.6509
  863MPD2    N112676   1.014   1.076  17.100  0.8177  0.3160 -0.2185
  863MPD2    H712677   0.922   1.087  17.058  1.4356 -3.2179 -2.4721
  864MPD2     C12678   1.859   2.456  17.080  0.4301  0.7243  0.0127
  864MPD2    C112679   1.937   2.377  17.002 -0.2907  0.6426  0.1420
  864MPD2    C212680   2.023   2.435  16.918  0.2024  0.8154 -0.6247
  864MPD2    C312681   2.021   2.571  16.894 -0.2871 -0.4182 -0.4635
  864MPD2    C412682   1.934   2.654  16.959  0.0226  0.0052  0.0705
  864MPD2    C512683   1.854   2.596  17.054  0.1332 -0.1295 -0.0390
  864MPD2     H12684   2.106   2.382  16.873  1.0405  0.3779  1.4405
  864MPD2    H112685   1.932   2.762  16.952  1.4053  0.1787  2.2339
  864MPD2    H212686   1.792   2.423  17.159  2.0808  0.7975  1.4316
  864MPD2    H312687   1.806   2.660  17.127  1.5397  0.8431  0.0272
  864MPD2     N12688   2.124   2.621  16.809  0.8644  0.1746 -0.0026
  864MPD2    H512689   2.186   2.554  16.763 -1.4813 -1.6972 -0.4258
  864MPD2    N112690   1.918   2.236  17.019 -0.2446  0.0188  0.6960
  864MPD2    H712691   1.841   2.220  17.082 -1.5986  1.1889 -0.6476
  865MPD2     C12692   1.602   2.721  16.150  0.4654 -0.0349  0.7523
  865MPD2    C112693   1.674   2.610  16.189 -0.7267  0.6501 -0.4691
  865MPD2    C212694   1.798   2.639  16.254  0.4713 -0.2102  0.0408
  865MPD2    C312695   1.839   2.765  16.284 -0.4444 -0.1577  0.4673
  865MPD2    C412696   1.757   2.873  16.260 -0.0737 -0.4009 -0.4621
  865MPD2    C512697   1.640   2.846  16.190  0.4420 -0.5592 -0.0558
  865MPD2     H12698   1.864   2.555  16.271 -1.3397 -1.3707  1.2916
  865MPD2    H112699   1.782   2.978  16.271  0.8907 -0.5813 -0.9274
  865MPD2    H212700   1.504   2.709  16.104  1.2440  2.5086 -1.6140
  865MPD2    H312701   1.582   2.933  16.163  1.4997  0.3452  0.5669
  865MPD2     N12702   1.970   2.791  16.333  0.3696  0.1054 -0.0249
  865MPD2    H512703   1.993   2.874  16.387  3.5219 -1.0533  0.3938
  865MPD2    N112704   1.627   2.476  16.157  0.3354 -0.2618 -0.7129
  865MPD2    H712705   1.535   2.466  16.115 -0.5166 -0.9934  1.3327
  866MPD2     C12706   3.194   2.898  11.676  0.5935 -1.2719 -0.0948
  866MPD2    C112707   3.227   2.916  11.547  0.2487 -0.2936  0.3314
  866MPD2    C212708   3.148   2.996  11.464 -0.4357 -0.0426  0.2716
  866MPD2    C312709   3.041   3.066  11.521  0.2595  0.2573  0.3708
  866MPD2    C412710   3.015   3.048  11.653 -0.9232  0.3630 -0.1316
  866MPD2    C512711   3.091   2.973  11.735 -0.3500 -0.7227 -0.0110
  866MPD2     H12712   3.173   3.004  11.359  0.0069  0.1237  0.3930
  866MPD2    H112713   2.924   3.089  11.695  0.2259  2.5915  0.1789
  866MPD2    H212714   3.259   2.837  11.738  1.1933 -0.6972 -0.1648
  866MPD2    H312715   3.060   2.952  11.837  1.5605  1.7503  1.0602
  866MPD2     N12716   2.951   3.150  11.455 -0.7383 -0.3447  0.4991
  866MPD2    H512717   2.878   3.196  11.509 -1.6586 -0.8830 -0.2849
  866MPD2    N112718   3.339   2.841  11.500  0.1782 -0.4459  0.2057
  866MPD2    H712719   3.370   2.755  11.543  2.4545 -0.0445 -0.6265
  867MPD2     C12720   1.144   2.464  17.029  0.0267 -0.0091 -1.0091
  867MPD2    C112721   1.063   2.408  16.930  0.0375 -0.3519  1.0670
  867MPD2    C212722   0.951   2.471  16.880 -0.1284  0.5677  0.3896
  867MPD2    C312723   0.910   2.581  16.953 -0.3925 -0.1966 -0.0026
  867MPD2    C412724   0.989   2.632  17.062  0.3869  0.2859 -0.7011
  867MPD2    C512725   1.106   2.573  17.097 -0.1507  0.4182 -0.5382
  867MPD2     H12726   0.892   2.428  16.800  1.4014 -0.2697 -0.2897
  867MPD2    H112727   0.962   2.721  17.117 -1.1939 -0.4883 -0.2110
  867MPD2    H212728   1.234   2.413  17.062  0.1616  1.1571  0.4331
  867MPD2    H312729   1.172   2.621  17.168  1.0189  1.0882 -2.0800
  867MPD2     N12730   0.783   2.643  16.949  0.5969 -0.3743 -0.0489
  867MPD2    H512731   0.769   2.717  17.017  4.3530  0.4305 -0.1446
  867MPD2    N112732   1.103   2.282  16.885 -0.4176 -0.0083 -0.4503
  867MPD2    H712733   1.187   2.249  16.932  1.8025  2.1099 -2.9700
  868MPD2     C12734   2.374   0.938  13.066  0.7211  0.3576  0.0992
  868MPD2    C112735   2.432   0.944  13.190  0.9999 -0.4098 -0.0917
  868MPD2    C212736   2.357   1.010  13.288  0.0226 -0.8289 -0.4406
  868MPD2    C312737   2.236   1.071  13.267 -0.3671 -0.6126  0.1579
  868MPD2    C412738   2.182   1.054  13.139  0.4228 -0.4610  0.9102
  868MPD2    C512739   2.251   0.991  13.039 -0.6392  0.1242 -0.4270
  868MPD2     H12740   2.389   1.013  13.391 -1.8868 -1.0633  0.1561
  868MPD2    H112741   2.084   1.095  13.116  0.5873 -0.1420  0.7780
  868MPD2    H212742   2.432   0.881  12.994  2.6039  2.0950  0.2114
  868MPD2    H312743   2.199   0.978  12.945 -0.6884  0.8353 -0.4926
  868MPD2     N12744   2.166   1.133  13.374  0.0230 -0.6023  0.3946
  868MPD2    H512745   2.198   1.108  13.468  0.4057 -0.9111  0.1815
  868MPD2    N112746   2.546   0.867  13.208  0.1160 -0.2492 -0.5609
  868MPD2    H712747   2.578   0.815  13.127 -0.2407 -1.0186 -0.1985
  869MPD2     C12748   4.114   3.937   1.664 -0.6393 -0.2715  0.3803
  869MPD2    C112749   3.973   3.923   1.675  0.2024  0.8633  0.3162
  869MPD2    C212750   3.889   4.012   1.615 -0.1234 -0.4021  0.3206
  869MPD2    C312751   3.939   4.115   1.533  0.0602 -0.0623 -0.4050
  869MPD2    C412752   4.073   4.133   1.518  0.2347 -0.6010  0.0744
  869MPD2    C512753   4.160   4.042   1.581 -0.0950 -0.0808  0.1120
  869MPD2     H12754   3.788   4.024   1.652 -0.6072 -1.9798 -0.4900
  869MPD2    H112755   4.117   4.222   1.474  0.0225  0.4454  1.9542
  869MPD2    H212756   4.187   3.868   1.705  0.8023  1.0695  0.0463
  869MPD2    H312757   4.268   4.047   1.574 -0.0326  0.3227  1.4266
  869MPD2     N12758   3.863   4.220   1.482 -0.3582 -0.5600  0.2546
  869MPD2    H512759   3.913   4.298   1.441 -2.9796  1.7591  1.4487
  869MPD2    N112760   3.936   3.835   1.781  0.3116  0.2714  0.1536
  869MPD2    H712761   4.011   3.773   1.811 -0.1872 -0.5769 -0.3785
  870MPD2     C12762   3.045   2.917   1.922  0.1532  0.0865 -0.0287
  870MPD2    C112763   3.071   2.829   1.823 -0.8898 -0.8425 -0.7502
  870MPD2    C212764   3.048   2.873   1.692 -0.0705  0.5357 -0.1701
  870MPD2    C312765   2.994   2.995   1.652 -0.4503  0.6606 -1.3901
  870MPD2    C412766   2.974   3.085   1.761 -0.4799  1.2864 -0.0819
  870MPD2    C512767   3.006   3.047   1.891 -0.2327  0.0455  0.4223
  870MPD2     H12768   3.065   2.801   1.613  0.9365 -0.7421  1.2133
  870MPD2    H112769   2.943   3.187   1.740 -0.4140  1.0828 -1.2087
  870MPD2    H212770   3.064   2.893   2.026 -0.8590  2.9735  0.8150
  870MPD2    H312771   3.000   3.127   1.964  1.2485  2.3195 -1.9004
  870MPD2     N12772   2.957   3.018   1.514 -0.1001  0.2413  0.0117
  870MPD2    H512773   2.976   2.941   1.449 -1.3700  0.6764 -0.8653
  870MPD2    N112774   3.110   2.697   1.860 -0.6932 -0.3899  0.8349
  870MPD2    H712775   3.131   2.677   1.957  0.2300 -2.3126  0.2320
  871MPD2     C12776   4.284   2.332  16.367  0.0888 -0.2886  0.6505
  871MPD2    C112777   4.278   2.319  16.509 -0.0581  0.6924  0.7998
  871MPD2    C212778   4.292   2.193  16.568  0.2793 -0.5110 -0.0328
  871MPD2    C312779   4.299   2.079  16.492 -0.5480  0.4244 -0.2904
  871MPD2    C412780   4.310   2.093  16.348 -0.2966 -0.1404  0.8693
  871MPD2    C512781   4.307   2.218  16.290 -1.2978  0.8437 -0.6204
  871MPD2     H12782   4.276   2.187  16.676  0.1087  1.5181  0.0686
  871MPD2    H112783   4.318   2.006  16.284 -0.2684  1.0077 -0.6747
  871MPD2    H212784   4.273   2.429  16.319 -1.4008 -0.7143  0.1234
  871MPD2    H312785   4.295   2.217  16.183  1.4865 -0.1384 -0.9100
  871MPD2     N12786   4.288   1.955  16.562  0.0338 -0.1255  0.7895
  871MPD2    H512787   4.262   1.960  16.660 -0.7547 -2.2867  0.6964
  871MPD2    N112788   4.267   2.437  16.583 -0.8460 -0.2564  0.0622
  871MPD2    H712789   4.269   2.520  16.525  4.2918 -0.1229  0.3729
  872MPD2     C12790   0.703   4.450  14.106  0.2684 -0.0231  0.0926
  872MPD2    C112791   0.645   4.556  14.041 -0.2339  0.2688  0.7188
  872MPD2    C212792   0.518   4.598  14.089  0.7339 -0.1042 -0.8186
  872MPD2    C312793   0.458   4.546  14.199  0.3179 -1.0153  0.8939
  872MPD2    C412794   0.519   4.445  14.270 -0.2659 -0.2094  0.1870
  872MPD2    C512795   0.639   4.395  14.217  0.0141 -0.4101  0.0243
  872MPD2     H12796   0.464   4.668  14.026  2.0825  1.1251 -0.6026
  872MPD2    H112797   0.478   4.404  14.361  0.7103  0.5483  0.9626
  872MPD2    H212798   0.788   4.394  14.068 -0.8081 -1.6247  0.0387
  872MPD2    H312799   0.687   4.317  14.275 -0.2388 -1.0241 -0.5815
  872MPD2     N12800   0.336   4.592  14.252 -0.5858 -0.0010  0.5465
  872MPD2    H512801   0.316   4.560  14.347  0.1414  1.4281  1.1765
  872MPD2    N112802   0.698   4.614  13.921 -0.1380 -1.5639  0.2569
  872MPD2    H712803   0.640   4.686  13.881 -0.7071 -2.1087  0.1154
  873MPD2     C12804   2.695   0.258   0.783  0.0573 -0.2137  0.6142
  873MPD2    C112805   2.574   0.203   0.815  0.1900 -0.5620 -0.5512
  873MPD2    C212806   2.560   0.065   0.795 -0.8192  0.3765  0.2218
  873MPD2    C312807   2.664   4.714   0.737  0.5383  0.1515 -0.0078
  873MPD2    C412808   2.777   0.054   0.695 -0.3781 -0.1110  0.0263
  873MPD2    C512809   2.795   0.189   0.723  0.1867  0.3087 -0.3456
  873MPD2     H12810   2.467   0.016   0.819 -0.9290  0.7336  0.5219
  873MPD2    H112811   2.856   4.714   0.656  1.9960  2.8288  0.1025
  873MPD2    H212812   2.713   0.362   0.807 -0.2110  0.1092 -0.6043
  873MPD2    H312813   2.890   0.239   0.709  0.5389 -0.6047 -1.2323
  873MPD2     N12814   2.645   4.579   0.710  0.4444 -0.2825 -0.0175
  873MPD2    H512815   2.718   4.537   0.653 -0.7094 -0.5481 -1.3047
  873MPD2    N112816   2.476   0.282   0.880 -0.3029 -0.6959  0.5778
  873MPD2    H712817   2.505   0.376   0.906 -0.1267 -0.3853 -0.7534
  874MPD2     C12818   1.283   0.271  16.084 -0.0919  0.0496 -0.0371
  874MPD2    C112819   1.356   0.167  16.140  0.0718  0.1030  0.0562
  874MPD2    C212820   1.480   0.192  16.200 -0.4310  0.0778 -0.3570
  874MPD2    C312821   1.539   0.313  16.191 -0.1088 -0.7663  0.0157
  874MPD2    C412822   1.471   0.406  16.121  0.0773 -0.6831 -0.6717
  874MPD2    C512823   1.344   0.396  16.071  0.9884 -0.2457  0.0712
  874MPD2     H12824   1.531   0.109  16.247 -0.4912  0.0405 -0.3583
  874MPD2    H112825   1.506   0.508  16.106  0.6691 -0.7554  0.2018
  874MPD2    H212826   1.195   0.254  16.023 -1.5476 -0.9810  2.3740
  874MPD2    H312827   1.281   0.472  16.026  0.1776 -1.1135 -0.2654
  874MPD2     N12828   1.662   0.332  16.253 -0.1869 -0.1415  0.4465
  874MPD2    H512829   1.709   0.260  16.307  1.6277  0.0085 -0.9293
  874MPD2    N112830   1.299   0.038  16.128  0.0771  0.0321 -0.6463
  874MPD2    H712831   1.205   0.029  16.091 -0.6549 -0.3771  1.3016
  875MPD2     C12832   3.079   3.304  14.643 -0.3745 -0.0579 -0.2391
  875MPD2    C112833   2.966   3.296  14.713  0.0341 -0.3881 -0.4073
  875MPD2    C212834   2.973   3.312  14.854 -0.0519  0.0463  0.7171
  875MPD2    C312835   3.090   3.318  14.919  0.0187  0.4303  0.0658
  875MPD2    C412836   3.201   3.354  14.848 -0.6172 -0.3335 -0.0055
  875MPD2    C512837   3.192   3.336  14.708 -0.1339 -0.7856 -0.4875
  875MPD2     H12838   2.886   3.291  14.915  1.8038 -1.9048  2.6846
  875MPD2    H112839   3.299   3.355  14.895 -0.9841  1.8698  0.7177
  875MPD2    H212840   3.090   3.297  14.535  1.4877  0.6842 -0.1038
  875MPD2    H312841   3.286   3.345  14.655  0.6082 -2.2959  0.5505
  875MPD2     N12842   3.102   3.305  15.057 -0.3165 -0.1937 -0.0429
  875MPD2    H512843   3.181   3.344  15.108 -0.9525  1.4301 -0.2732
  875MPD2    N112844   2.835   3.277  14.660  0.3211 -0.3798  0.4873
  875MPD2    H712845   2.755   3.276  14.724  0.2881  0.7606  0.4653
  876MPD2     C12846   1.835   4.244  16.410  0.4401 -0.2593  0.2299
  876MPD2    C112847   1.975   4.230  16.406  0.4846 -0.2509 -0.4083
  876MPD2    C212848   2.026   4.109  16.448  0.1198  0.5107  0.6016
  876MPD2    C312849   1.941   4.003  16.477 -0.3641 -0.3447 -0.6121
  876MPD2    C412850   1.804   4.030  16.495 -0.0766  0.1094  0.3261
  876MPD2    C512851   1.752   4.150  16.458  0.1690  0.1372  0.0778
  876MPD2     H12852   2.133   4.089  16.445  0.0749  0.5369 -1.1640
  876MPD2    H112853   1.730   3.959  16.530 -0.1238  0.5873  1.1960
  876MPD2    H212854   1.783   4.336  16.386 -0.1137 -0.8018 -0.6279
  876MPD2    H312855   1.648   4.174  16.474 -0.0153  0.9275 -2.4122
  876MPD2     N12856   2.005   3.880  16.496  0.7350  0.9322  0.3209
  876MPD2    H512857   2.105   3.879  16.482  0.8046 -0.1413  0.8951
  876MPD2    N112858   2.048   4.342  16.361 -0.0747  0.8542 -0.3502
  876MPD2    H712859   1.994   4.428  16.353 -1.4473 -0.1540 -1.8641
  877MPD2     C12860   1.721   0.090  16.013 -0.3877  0.8705 -0.5264
  877MPD2    C112861   1.849   0.130  15.978  0.2244  0.7427 -0.4884
  877MPD2    C212862   1.872   0.191  15.860 -0.1495  0.3911 -0.2899
  877MPD2    C312863   1.769   0.202  15.770 -0.4067  0.3939  0.2115
  877MPD2    C412864   1.642   0.154  15.801 -0.1112  0.2272 -0.1190
  877MPD2    C512865   1.616   0.106  15.924 -0.4428 -0.6451 -0.1888
  877MPD2     H12866   1.966   0.240  15.840 -1.1955  1.5444 -2.3591
  877MPD2    H112867   1.568   0.147  15.722 -2.6620 -1.4015  2.4628
  877MPD2    H212868   1.700   0.033  16.103 -0.3221  1.7240  0.0282
  877MPD2    H312869   1.518   0.077  15.959  0.2508 -0.4119  1.9369
  877MPD2     N12870   1.789   0.250  15.640 -0.7185 -0.1416 -0.2231
  877MPD2    H512871   1.722   0.221  15.569 -0.9341  1.5561 -0.7376
  877MPD2    N112872   1.968   0.086  16.048  0.2902 -0.1893 -0.1494
  877MPD2    H712873   2.055   0.130  16.021  1.2005 -0.1136  2.8872
  878MPD2     C12874   1.717   4.131  13.477 -0.1218  0.1272  0.4025
  878MPD2    C112875   1.701   4.265  13.500 -0.3121 -0.2673  0.4888
  878MPD2    C212876   1.616   4.305  13.597 -0.4230  0.9507  0.7905
  878MPD2    C312877   1.539   4.219  13.670  0.1601  0.1275  0.2408
  878MPD2    C412878   1.546   4.088  13.635  0.6028 -0.1130 -0.3549
  878MPD2    C512879   1.639   4.039  13.549  0.0569  0.6271 -0.0212
  878MPD2     H12880   1.618   4.407  13.632  0.1135 -0.2586  4.2851
  878MPD2    H112881   1.496   4.012  13.694 -0.2856 -0.1965 -1.2116
  878MPD2    H212882   1.787   4.092  13.403  0.8897  2.9111 -0.1052
  878MPD2    H312883   1.636   3.931  13.534  1.4682  0.7904 -1.4695
  878MPD2     N12884   1.464   4.266  13.781 -0.3170  0.5451  0.6752
  878MPD2    H512885   1.474   4.366  13.793  1.9730  0.5548 -1.5675
  878MPD2    N112886   1.780   4.347  13.421 -0.1388  0.0549 -0.2401
  878MPD2    H712887   1.837   4.300  13.351 -0.5945  1.1785 -1.3711
  879MPD2     C12888   2.237   1.056  17.396 -0.1222  0.1836  0.5264
  879MPD2    C112889   2.240   0.935  17.469 -0.0212  0.2855  0.0614
  879MPD2    C212890   2.145   0.834  17.449  0.4967  0.0829 -1.1128
  879MPD2    C312891   2.036   0.851  17.363  0.3121 -0.3077  0.1850
  879MPD2    C412892   2.043   0.963  17.287  0.1483  0.0329 -0.3142
  879MPD2    C512893   2.138   1.065  17.298 -0.3660  0.3543  0.9152
  879MPD2     H12894   2.158   0.743  17.506  1.4745  0.2780 -1.0275
  879MPD2    H112895   1.963   0.978  17.216  0.9877  0.6337 -1.1276
  879MPD2    H212896   2.308   1.135  17.416 -0.4621  0.4337  0.7154
  879MPD2    H312897   2.140   1.155  17.238 -1.5077  1.3636  2.3875
  879MPD2     N12898   1.934   0.760  17.337  0.4403  0.4469  0.3319
  879MPD2    H512899   1.866   0.787  17.266  2.0479 -1.6918 -2.0362
  879MPD2    N112900   2.345   0.927  17.560 -0.1052  0.0336  0.9723
  879MPD2    H712901   2.414   1.000  17.549 -0.4401  0.2117  0.1130
  880MPD2     C12902   3.074   2.145   0.693  0.9165 -0.3872  0.0686
  880MPD2    C112903   3.198   2.187   0.672  0.1746  0.6093  0.5064
  880MPD2    C212904   3.303   2.127   0.742  0.3084 -0.0469  0.1449
  880MPD2    C312905   3.280   2.029   0.838  0.2214  0.1163  0.2447
  880MPD2    C412906   3.154   1.986   0.854 -0.7260  0.0716 -0.1326
  880MPD2    C512907   3.052   2.043   0.783 -0.1931  0.3100 -0.5439
  880MPD2     H12908   3.406   2.157   0.722  0.5435 -0.4800  0.6932
  880MPD2    H112909   3.121   1.908   0.922 -1.4427 -0.6402 -1.3110
  880MPD2    H212910   2.990   2.194   0.643 -0.9395 -0.7113  2.8904
  880MPD2    H312911   2.950   2.017   0.806  0.0674 -0.7886 -0.6542
  880MPD2     N12912   3.394   1.952   0.888 -0.6991  0.3095  0.8674
  880MPD2    H512913   3.489   1.988   0.887 -0.3550 -0.6469 -0.4988
  880MPD2    N112914   3.221   2.296   0.589 -0.5930  0.0191  0.4165
  880MPD2    H712915   3.138   2.346   0.557 -0.6430  1.0491  2.1807
  881MPD2     C12916   3.943   2.917   0.054 -0.0157  0.4548 -0.0644
  881MPD2    C112917   3.866   2.816   0.003 -0.1757  0.0618  0.2855
  881MPD2    C212918   3.767   2.761   0.075 -0.6557 -0.7606  0.4367
  881MPD2    C312919   3.753   2.797   0.209  0.5343 -0.6379 -0.4655
  881MPD2    C412920   3.847   2.881   0.272  0.0529  0.2158 -0.2149
  881MPD2    C512921   3.936   2.945   0.189 -0.2354  0.0864  0.4539
  881MPD2     H12922   3.678   2.716   0.031  0.4586 -1.1916 -1.3660
  881MPD2    H112923   3.844   2.897   0.379  1.0653 -0.1305 -0.1298
  881MPD2    H212924   4.016   2.971  17.688 -3.0376  2.3129 -2.1440
  881MPD2    H312925   3.997   3.027   0.226 -0.0001 -1.2126  2.9196
  881MPD2     N12926   3.648   2.751   0.291 -1.0154 -0.4123  0.6197
  881MPD2    H512927   3.647   2.782   0.388 -1.5053 -0.2255  0.5579
  881MPD2    N112928   3.876   2.795  17.558  0.4925  0.2531  0.1802
  881MPD2    H712929   3.935   2.849  17.495  1.0268 -1.9303 -1.1895
  882MPD2     C12930   1.787   4.538  15.088 -0.0024 -0.5468 -0.4199
  882MPD2    C112931   1.716   4.654  15.090  0.2977  0.1630 -0.4164
  882MPD2    C212932   1.598   4.666  15.021 -0.1315 -0.2765  0.2833
  882MPD2    C312933   1.553   4.554  14.948 -0.0152  0.1520 -0.2165
  882MPD2    C412934   1.625   4.441  14.936  0.0368 -0.5434 -0.3937
  882MPD2    C512935   1.736   4.432  15.016  0.4184 -0.1699 -0.5898
  882MPD2     H12936   1.555   0.041  15.004  1.2935  0.2553 -0.3272
  882MPD2    H112937   1.596   4.354  14.878 -2.2787 -0.3500  0.4882
  882MPD2    H212938   1.883   4.522  15.136 -0.9580 -1.2366  1.2266
  882MPD2    H312939   1.800   4.345  15.005  1.2265  0.2193  1.1455
  882MPD2     N12940   1.436   4.579  14.865  0.1593  0.4580 -0.8136
  882MPD2    H512941   1.417   4.678  14.859  0.3921  0.5258 -0.3931
  882MPD2    N112942   1.778   0.046  15.149 -0.4575 -0.5969 -0.0498
  882MPD2    H712943   1.874   0.038  15.182 -0.2250 -0.1602 -0.6364
  883MPD2     C12944   3.863   0.185  16.547 -0.5408  0.2000 -0.0612
  883MPD2    C112945   3.921   0.296  16.495 -0.0363 -0.0559  0.2764
  883MPD2    C212946   4.044   0.337  16.542 -0.1549  0.5823 -0.7728
  883MPD2    C312947   4.100   0.282  16.656  0.1632  0.4260 -0.1232
  883MPD2    C412948   4.038   0.171  16.712  0.2494 -0.1477 -0.1083
  883MPD2    C512949   3.916   0.130  16.658 -0.5166 -0.8820 -0.5675
  883MPD2     H12950   4.103   0.416  16.496 -0.7002  1.8191  0.6683
  883MPD2    H112951   4.077   0.122  16.800  0.7876  0.2308 -0.1373
  883MPD2    H212952   3.764   0.153  16.520 -0.2551 -0.0931 -0.7631
  883MPD2    H312953   3.860   0.056  16.713  1.0767  0.3226  2.6922
  883MPD2     N12954   4.228   0.329  16.703  0.1118 -0.2789 -0.0424
  883MPD2    H512955   4.258   0.407  16.646 -1.3061 -1.7147 -2.7543
  883MPD2    N112956   3.872   0.366  16.383 -0.5317  0.1911  0.2573
  883MPD2    H712957   3.936   0.435  16.344 -2.2114  0.8949 -1.2097
  884MPD2     C12958   0.948   0.602  15.368  0.5869 -0.4367 -0.6848
  884MPD2    C112959   0.956   0.723  15.302 -0.7138 -0.6526  0.2554
  884MPD2    C212960   0.841   0.802  15.277  0.4094  0.0650  0.2787
  884MPD2    C312961   0.715   0.768  15.321 -0.9581  0.4527 -0.8859
  884MPD2    C412962   0.713   0.656  15.396 -0.2604  0.1964  0.4608
  884MPD2    C512963   0.825   0.571  15.412  0.1542 -0.1032  0.9398
  884MPD2     H12964   0.851   0.898  15.227  0.7908  0.6564  1.4765
  884MPD2    H112965   0.627   0.624  15.454 -0.8412 -0.0474 -0.5349
  884MPD2    H212966   1.030   0.539  15.399  0.1676  0.1528  1.6640
  884MPD2    H312967   0.814   0.486  15.479  2.5329  0.3040  1.8625
  884MPD2     N12968   0.607   0.860  15.302 -0.4934 -1.3998  0.4232
  884MPD2    H512969   0.616   0.934  15.232  0.5633 -2.1740 -0.2666
  884MPD2    N112970   1.076   0.784  15.266 -0.1447 -0.3056 -0.4835
  884MPD2    H712971   1.075   0.875  15.221  1.7675 -0.0128  0.0615
  885MPD2     C12972   3.715   1.236   0.678 -0.7009 -0.2688 -0.4590
  885MPD2    C112973   3.710   1.112   0.619 -0.7734  0.0821  0.4761
  885MPD2    C212974   3.698   1.105   0.482  0.2779 -0.4758 -0.1878
  885MPD2    C312975   3.680   1.216   0.401 -0.1371  0.6595  0.0795
  885MPD2    C412976   3.691   1.339   0.459  0.1923 -0.0089  0.0282
  885MPD2    C512977   3.706   1.348   0.597 -0.1478  0.4872  0.1551
  885MPD2     H12978   3.711   1.008   0.437  0.3818 -0.3962 -0.3277
  885MPD2    H112979   3.683   1.435   0.409 -1.6180 -0.3491 -0.3388
  885MPD2    H212980   3.716   1.252   0.785 -0.9840  2.5035 -0.8686
  885MPD2    H312981   3.707   1.446   0.644  0.4339 -1.1899  3.6774
  885MPD2     N12982   3.670   1.192   0.263 -0.4672 -0.1815  0.2029
  885MPD2    H512983   3.671   1.097   0.226  0.0517  0.5115 -1.5765
  885MPD2    N112984   3.716   1.010   0.713  0.1350 -0.0284  0.1226
  885MPD2    H712985   3.722   1.035   0.811 -2.4075 -0.9821  0.5233
  886MPD2     C12986   0.482   3.905  15.374 -0.4128  0.0950 -0.5429
  886MPD2    C112987   0.540   3.976  15.476  0.1574 -0.0951 -0.7194
  886MPD2    C212988   0.538   4.119  15.471 -1.1280  0.5832  0.2717
  886MPD2    C312989   0.474   4.188  15.368  0.3069 -0.9411  0.1736
  886MPD2    C412990   0.417   4.115  15.267 -0.1957  0.2688  0.4242
  886MPD2    C512991   0.417   3.978  15.278 -0.4827 -0.3580  0.1250
  886MPD2     H12992   0.589   4.169  15.553  1.3980  0.5441 -1.2686
  886MPD2    H112993   0.366   4.161  15.183 -1.6537 -1.9592  0.0762
  886MPD2    H212994   0.480   3.796  15.372 -1.3628  0.0578  1.5921
  886MPD2    H312995   0.379   3.930  15.189 -0.4468 -2.6000  1.3248
  886MPD2     N12996   0.466   4.329  15.358  0.3020  0.3153  0.4997
  886MPD2    H512997   0.450   4.359  15.263 -0.1610  0.2905  0.5687
  886MPD2    N112998   0.603   3.910  15.583 -0.7026 -0.1253  0.1327
  886MPD2    H712999   0.642   3.976  15.650 -1.5468  1.5042 -0.9786
  887MPD2     C13000   1.144   4.123  15.999 -0.7407 -0.1249  0.6869
  887MPD2    C113001   1.029   4.141  15.920 -0.8424  0.4213  0.2922
  887MPD2    C213002   1.021   4.262  15.850  0.5810  0.3598  0.1053
  887MPD2    C313003   1.124   4.360  15.852  0.3762  0.5028  0.5157
  887MPD2    C413004   1.233   4.338  15.940  0.3345  0.5751  0.3036
  887MPD2    C513005   1.237   4.217  16.007  0.4499 -0.3960 -0.8771
  887MPD2     H13006   0.932   4.273  15.789  0.6885 -1.4417 -0.3670
  887MPD2    H113007   1.320   4.400  15.960  0.1043  0.6063  1.1956
  887MPD2    H213008   1.165   4.030  16.052  1.5234 -0.1973 -0.3674
  887MPD2    H313009   1.312   4.191  16.081 -0.9036 -0.2818  0.5450
  887MPD2     N13010   1.095   4.490  15.795  0.3900 -0.3810 -0.5025
  887MPD2    H513011   1.008   4.498  15.745 -0.4842 -1.7979  0.7872
  887MPD2    N113012   0.940   4.036  15.891  0.1082 -0.2974  0.2530
  887MPD2    H713013   0.860   4.065  15.836 -0.9729 -0.7239  1.5673
  888MPD2     C13014   2.993   4.325  15.230  0.3212 -0.6560  0.2935
  888MPD2    C113015   3.031   4.380  15.351  1.1038 -0.3240 -0.1971
  888MPD2    C213016   3.123   4.482  15.353 -0.2075  0.2188 -0.1865
  888MPD2    C313017   3.173   4.530  15.231 -0.0124  0.5553 -0.1245
  888MPD2    C413018   3.146   4.469  15.108  0.5871  0.5508  0.0555
  888MPD2    C513019   3.057   4.368  15.114 -0.0415  0.0669  0.7246
  888MPD2     H13020   3.145   4.531  15.448 -1.3355  0.7097 -0.1805
  888MPD2    H113021   3.186   4.504  15.014  1.4054  2.8813  1.2703
  888MPD2    H213022   2.931   4.237  15.230 -0.8613  0.1731  0.3168
  888MPD2    H313023   3.049   4.308  15.025 -0.5555  2.3664 -0.7854
  888MPD2     N13024   3.254   4.645  15.235 -0.2614 -0.1617  0.4031
  888MPD2    H513025   3.235   4.705  15.315  0.9877 -0.3387  0.8345
  888MPD2    N113026   2.993   4.344  15.479 -0.1068  0.1535  0.8968
  888MPD2    H713027   3.038   4.382  15.562 -0.9947  0.2163  1.3491
  889MPD2     C13028   2.212   3.689  12.724 -0.0050  0.1900 -0.1059
  889MPD2    C113029   2.253   3.674  12.854  0.6154  0.4582 -0.0674
  889MPD2    C213030   2.324   3.779  12.910  0.7389 -0.1744  0.0419
  889MPD2    C313031   2.302   3.911  12.866 -0.0882  0.4053  0.1022
  889MPD2    C413032   2.233   3.934  12.747  0.4580  0.3510  0.6619
  889MPD2    C513033   2.194   3.821  12.677  0.5080  0.2526  0.1585
  889MPD2     H13034   2.364   3.753  13.007  0.6206 -0.0315  0.1277
  889MPD2    H113035   2.206   4.032  12.710 -1.0687 -0.2030  0.3143
  889MPD2    H213036   2.185   3.607  12.659  1.0106  0.3850 -0.7718
  889MPD2    H313037   2.158   3.838  12.576 -1.5719  1.4765  1.1171
  889MPD2     N13038   2.358   4.010  12.952  0.5771  0.0757  0.6537
  889MPD2    H513039   2.402   3.979  13.038  2.3280 -0.2401 -0.3537
  889MPD2    N113040   2.256   3.548  12.915  0.2853 -0.5592 -0.0424
  889MPD2    H713041   2.315   3.534  12.996  0.0347 -1.0455  0.0563
  890MPD2     C13042   1.553   1.117  14.484  0.2702 -0.0155  0.2703
  890MPD2    C113043   1.678   1.142  14.532  0.3294  0.6009  0.5613
  890MPD2    C213044   1.715   1.050  14.628 -0.1836 -0.0719  0.0274
  890MPD2    C313045   1.631   0.958  14.688 -0.5572  0.0093  0.3948
  890MPD2    C413046   1.508   0.933  14.633  0.6422  0.3384  0.2730
  890MPD2    C513047   1.471   1.013  14.526 -0.6600 -0.2661 -0.6839
  890MPD2     H13048   1.819   1.047  14.658 -1.1951 -1.8046  3.3241
  890MPD2    H113049   1.436   0.857  14.661  1.5162 -1.4442 -2.2824
  890MPD2    H213050   1.526   1.174  14.396 -2.3976 -1.5797  0.0573
  890MPD2    H313051   1.374   0.995  14.480 -0.1664  0.3971 -1.9787
  890MPD2     N13052   1.687   0.870  14.781  0.5808  0.2571  0.5198
  890MPD2    H513053   1.782   0.884  14.813  1.0584 -1.1511 -0.2914
  890MPD2    N113054   1.760   1.243  14.475 -0.3888 -0.5100  0.5047
  890MPD2    H713055   1.731   1.280  14.385  1.5896 -0.5944 -0.1623
  891MPD2     C13056   0.252   4.503  16.502  0.0444  0.6942  0.5130
  891MPD2    C113057   0.146   4.472  16.585  0.3097 -0.7958  0.1889
  891MPD2    C213058   0.170   4.374  16.677 -0.2652  0.0537 -0.1157
  891MPD2    C313059   0.292   4.305  16.676  0.0182  0.4048 -0.5917
  891MPD2    C413060   0.395   4.328  16.587  0.9326  0.8561  0.5768
  891MPD2    C513061   0.371   4.430  16.500 -0.5765  0.0768  0.6485
  891MPD2     H13062   0.100   4.324  16.744 -2.0790  0.2151 -1.8913
  891MPD2    H113063   0.493   4.282  16.578 -0.5618 -2.0121 -1.1127
  891MPD2    H213064   0.245   4.560  16.410 -1.6563 -1.9561 -1.0129
  891MPD2    H313065   0.448   4.445  16.425 -2.0581  0.9528 -0.6999
  891MPD2     N13066   0.299   4.199  16.764  0.2760  0.7374  1.2982
  891MPD2    H513067   0.208   4.181  16.805 -0.6021 -0.3443 -1.0807
  891MPD2    N113068   0.017   4.543  16.565 -0.3554  0.5494 -0.2255
  891MPD2    H713069   0.014   4.620  16.498 -1.4519  0.8009  0.1099
  892MPD2     C13070   1.047   0.531  14.993 -0.0881  0.4723  0.0877
  892MPD2    C113071   0.971   0.483  14.890 -0.5604  0.1676  0.1562
  892MPD2    C213072   1.026   0.399  14.791 -0.4509  0.0859 -0.1528
  892MPD2    C313073   1.146   0.334  14.822 -0.1171  0.3765  0.0429
  892MPD2    C413074   1.218   0.371  14.936  1.1055 -0.0985  0.0488
  892MPD2    C513075   1.173   0.483  15.017 -0.8846  0.0947 -0.7002
  892MPD2     H13076   0.972   0.361  14.705  0.0386  1.4914 -1.0942
  892MPD2    H113077   1.305   0.311  14.958  0.0987 -1.6223 -0.1118
  892MPD2    H213078   1.007   0.607  15.059 -0.4707 -0.0974  0.5068
  892MPD2    H313079   1.240   0.504  15.100 -0.1392 -3.1189 -0.5050
  892MPD2     N13080   1.194   0.220  14.749  0.4909 -0.2040 -0.4202
  892MPD2    H513081   1.280   0.178  14.781  0.4124 -2.4849 -3.1640
  892MPD2    N113082   0.832   0.500  14.881  0.1944  0.3764  0.6736
  892MPD2    H713083   0.788   0.484  14.791  3.1625 -0.2050 -0.6721
  893MPD2     C13084   2.297   3.857   1.405  0.4434 -0.2768 -0.0569
  893MPD2    C113085   2.364   3.852   1.526 -0.6225 -0.1046  0.1490
  893MPD2    C213086   2.306   3.922   1.631 -0.7875  0.3003  0.2029
  893MPD2    C313087   2.200   4.003   1.621  0.2369 -0.1906  0.5305
  893MPD2    C413088   2.143   4.007   1.495  0.4715  0.0295  0.4543
  893MPD2    C513089   2.184   3.927   1.392 -0.6079  0.2671  0.6054
  893MPD2     H13090   2.353   3.915   1.729  0.5653  0.1440 -0.4557
  893MPD2    H113091   2.059   4.073   1.479  1.3911  1.0152 -0.2796
  893MPD2    H213092   2.326   3.798   1.319  1.9878  0.7583 -0.2402
  893MPD2    H313093   2.117   3.936   1.307 -0.5319  1.3255  0.6569
  893MPD2     N13094   2.142   4.082   1.726  0.4249  0.1831  0.0994
  893MPD2    H513095   2.064   4.140   1.696  0.5608 -0.1165 -0.8423
  893MPD2    N113096   2.470   3.759   1.528  0.3047  0.4066 -0.4636
  893MPD2    H713097   2.497   3.710   1.443  0.0737 -0.0965 -0.2513
  894MPD2     C13098   0.665   1.250   0.819 -0.9515  0.4437 -0.0926
  894MPD2    C113099   0.685   1.242   0.956 -0.6683  0.2164 -0.3148
  894MPD2    C213100   0.738   1.355   1.014 -0.3620  0.6851  0.3846
  894MPD2    C313101   0.762   1.474   0.950  0.3298 -0.4611 -0.5230
  894MPD2    C413102   0.736   1.480   0.815 -0.1732  0.5099  0.3335
  894MPD2    C513103   0.683   1.371   0.753  0.2955 -0.0562 -0.2112
  894MPD2     H13104   0.748   1.348   1.122 -1.1071  0.8340  0.4603
  894MPD2    H113105   0.759   1.564   0.752 -1.0531  0.4807 -0.0261
  894MPD2    H213106   0.633   1.171   0.752  0.2965 -0.2470  0.1347
  894MPD2    H313107   0.676   1.371   0.645  1.5671  3.5899 -0.3118
  894MPD2     N13108   0.805   1.584   1.030 -0.1730  0.4744  0.1522
  894MPD2    H513109   0.840   1.560   1.122 -1.8173  1.1042  0.9367
  894MPD2    N113110   0.638   1.132   1.034  0.0767  0.0132 -0.1815
  894MPD2    H713111   0.665   1.140   1.132 -0.7813 -0.4913  0.0949
  895MPD2     C13112   0.399   4.278  13.676 -0.5475 -1.0359 -0.0087
  895MPD2    C113113   0.330   4.167  13.686 -0.3114  0.4888 -0.9804
  895MPD2    C213114   0.400   4.051  13.720  0.3542  0.9356 -0.1296
  895MPD2    C313115   0.535   4.054  13.752  0.2631  0.2451 -0.7829
  895MPD2    C413116   0.600   4.173  13.743  0.5597 -0.3988  0.1829
  895MPD2    C513117   0.531   4.287  13.715  0.1985 -0.2551 -0.6000
  895MPD2     H13118   0.344   3.966  13.754  1.8832  0.2998  0.8093
  895MPD2    H113119   0.702   4.197  13.771  0.5371  1.2355 -1.1187
  895MPD2    H213120   0.356   4.368  13.635 -3.0535 -0.9665  2.7304
  895MPD2    H313121   0.573   4.387  13.713 -2.6566  0.9702  1.6733
  895MPD2     N13122   0.611   3.939  13.787  0.5935  0.2036  0.2156
  895MPD2    H513123   0.708   3.966  13.795  1.1849 -2.0933  0.6872
  895MPD2    N113124   0.198   4.164  13.651  0.4794  0.0447  0.0844
  895MPD2    H713125   0.158   4.073  13.634 -1.6582  1.6091 -3.1667
  896MPD2     C13126   2.070   1.687   1.821  0.4451 -0.0662  0.9477
  896MPD2    C113127   2.081   1.617   1.699 -0.6402 -0.3091  0.2780
  896MPD2    C213128   1.998   1.510   1.682 -0.1072 -0.7342  1.0975
  896MPD2    C313129   1.892   1.487   1.772 -0.1104 -0.6675 -0.6989
  896MPD2    C413130   1.888   1.556   1.892  0.2012 -0.6600 -0.4463
  896MPD2    C513131   1.981   1.656   1.915 -0.1370  0.3547 -0.1766
  896MPD2     H13132   2.001   1.458   1.587  1.1681  0.1535  0.6578
  896MPD2    H113133   1.819   1.536   1.974 -1.2905 -1.6088 -1.9345
  896MPD2    H213134   2.150   1.757   1.841  0.5249  0.2170 -0.3466
  896MPD2    H313135   1.976   1.712   2.008 -1.3145 -0.7835  0.4463
  896MPD2     N13136   1.800   1.388   1.743 -0.1080 -0.3358  0.1969
  896MPD2    H513137   1.805   1.358   1.646  0.3214  0.6058 -0.0709
  896MPD2    N113138   2.178   1.664   1.606 -0.4760 -0.1744  0.3944
  896MPD2    H713139   2.246   1.726   1.650 -1.6578  1.2845  0.1734
  897MPD2     C13140   3.517   3.703  10.065 -0.1429 -0.3672  0.0670
  897MPD2    C113141   3.463   3.769  10.174  0.3061  0.1171 -0.1244
  897MPD2    C213142   3.407   3.694  10.275  0.1212 -0.2692 -0.5758
  897MPD2    C313143   3.393   3.556  10.250 -0.0519 -0.6451  1.1594
  897MPD2    C413144   3.451   3.488  10.141 -0.2521 -0.2723  0.5976
  897MPD2    C513145   3.515   3.567  10.051 -0.5866  0.3345 -0.2891
  897MPD2     H13146   3.328   3.733  10.338  1.7388  1.0724  0.5952
  897MPD2    H113147   3.447   3.382  10.117 -0.8308 -0.1385  0.0677
  897MPD2    H213148   3.558   3.766   9.987  0.1331 -1.0638 -0.3453
  897MPD2    H313149   3.554   3.529   9.958 -0.3150  2.8307 -1.1883
  897MPD2     N13150   3.290   3.490  10.325 -0.0569  0.2691  0.4562
  897MPD2    H513151   3.254   3.545  10.403 -0.4273 -0.0688  0.5251
  897MPD2    N113152   3.446   3.911  10.163 -0.0583 -0.4699 -0.0206
  897MPD2    H713153   3.474   3.953  10.075  0.3850  1.3541  0.9789
  898MPD2     C13154   0.478   4.106  17.493  0.2129 -0.6057  0.1611
  898MPD2    C113155   0.572   4.198  17.448 -0.0688  0.0503  0.3734
  898MPD2    C213156   0.529   4.318  17.397 -0.3082  0.2269 -0.5061
  898MPD2    C313157   0.401   4.361  17.405 -0.1608 -0.0591  0.5355
  898MPD2    C413158   0.305   4.272  17.455 -0.0619  0.7581  0.6013
  898MPD2    C513159   0.347   4.149  17.497 -0.5914  0.6030 -0.1304
  898MPD2     H13160   0.604   4.389  17.362  0.8172 -0.8073 -0.2186
  898MPD2    H113161   0.200   4.298  17.457  0.1704  2.0315 -3.3283
  898MPD2    H213162   0.486   4.008  17.539 -2.5731 -1.3435 -0.9396
  898MPD2    H313163   0.264   4.084  17.525 -0.3174  0.5907  0.6612
  898MPD2     N13164   0.367   4.497  17.370 -0.3154  0.1247 -0.4872
  898MPD2    H513165   0.439   4.563  17.342 -0.5578  0.3370 -0.6113
  898MPD2    N113166   0.706   4.156  17.449  0.2480 -0.0322 -0.2225
  898MPD2    H713167   0.778   4.224  17.425  0.6852  0.1145  1.4954
  899MPD2     C13168   1.786   0.454   0.312  0.6738  0.0527 -0.2900
  899MPD2    C113169   1.673   0.498   0.246 -0.0789 -0.2622 -0.0149
  899MPD2    C213170   1.545   0.444   0.279  0.1528 -0.5069 -0.5781
  899MPD2    C313171   1.539   0.352   0.377  0.8611 -0.2273 -0.1339
  899MPD2    C413172   1.656   0.310   0.439  0.6013  0.0623 -0.1066
  899MPD2    C513173   1.780   0.363   0.412 -0.8686  0.1498  0.4089
  899MPD2     H13174   1.458   0.488   0.231  0.1937 -0.2871 -0.4512
  899MPD2    H113175   1.659   0.238   0.519  1.8095 -0.2455 -0.4206
  899MPD2    H213176   1.878   0.504   0.287  0.2427  1.3945  0.7624
  899MPD2    H313177   1.875   0.325   0.447 -0.9778 -0.7575 -0.2871
  899MPD2     N13178   1.415   0.300   0.430 -0.2012  0.0887 -0.0990
  899MPD2    H513179   1.424   0.257   0.522 -1.8787  0.4823  0.2498
  899MPD2    N113180   1.692   0.594   0.147 -0.2229 -0.0361 -0.0933
  899MPD2    H713181   1.772   0.652   0.123  0.2116 -0.3518  0.6183
  900MPD2     C13182   1.119   2.311  12.383 -0.1054  1.4576  0.5523
  900MPD2    C113183   1.029   2.209  12.381 -0.0899  0.0279 -0.7119
  900MPD2    C213184   0.898   2.232  12.343 -0.2863 -0.4963 -0.4278
  900MPD2    C313185   0.863   2.353  12.293  0.1135 -0.3760 -0.8142
  900MPD2    C413186   0.950   2.457  12.304 -0.5438  0.3545  0.0677
  900MPD2    C513187   1.078   2.434  12.351  0.0260  0.7480  0.6917
  900MPD2     H13188   0.820   2.156  12.336  0.6840 -1.6746  1.5167
  900MPD2    H113189   0.928   2.559  12.274 -0.1661  0.2473 -0.5627
  900MPD2    H213190   1.226   2.308  12.402 -0.1835  1.7993  1.0433
  900MPD2    H313191   1.156   2.509  12.361  1.4361 -0.5986 -0.2591
  900MPD2     N13192   0.736   2.366  12.238  0.1799 -0.4001  0.4829
  900MPD2    H513193   0.684   2.279  12.224 -0.3235 -0.0138 -0.0600
  900MPD2    N113194   1.077   2.079  12.413  0.4344  0.2978 -0.5633
  900MPD2    H713195   1.177   2.063  12.424  0.3821 -1.7059 -2.9565
  901MPD2     C13196   0.893   1.052  12.768  0.3802  0.1830  0.7371
  901MPD2    C113197   1.023   1.066  12.750 -0.3078  0.7789  0.0405
  901MPD2    C213198   1.070   1.193  12.714  0.2038  0.6694 -0.8815
  901MPD2    C313199   0.985   1.303  12.700  0.3133 -0.1549 -0.5321
  901MPD2    C413200   0.858   1.291  12.728 -0.8415  0.3694  0.2527
  901MPD2    C513201   0.809   1.162  12.754 -0.8555 -0.0076 -0.0653
  901MPD2     H13202   1.173   1.218  12.695  0.4917 -0.5542 -0.9197
  901MPD2    H113203   0.782   1.367  12.716 -0.3919  0.6552 -0.7977
  901MPD2    H213204   0.846   0.956  12.786 -0.1772  0.8027  2.5365
  901MPD2    H313205   0.701   1.154  12.766 -1.0907  1.7087 -0.9437
  901MPD2     N13206   1.044   1.424  12.662  0.0945  0.7803 -0.2385
  901MPD2    H513207   1.145   1.424  12.661  0.1105 -0.6064  1.4523
  901MPD2    N113208   1.104   0.952  12.770  0.0512  0.1917  0.0889
  901MPD2    H713209   1.054   0.867  12.795 -0.3274  0.1397 -0.8757
  902MPD2     C13210   0.093   4.572  13.332 -0.3281 -0.6522 -0.3538
  902MPD2    C113211   0.045   4.552  13.210  0.2126 -0.3215 -0.2890
  902MPD2    C213212   0.095   4.445  13.132 -0.5228 -0.6402 -0.0733
  902MPD2    C313213   0.180   4.350  13.187  0.1666  0.5082  0.0807
  902MPD2    C413214   0.210   4.363  13.322  0.3186  0.6663 -0.2075
  902MPD2    C513215   0.178   4.477  13.389 -0.5763 -0.1941 -0.1053
  902MPD2     H13216   0.064   4.447  13.028  0.2410  0.4874 -0.2772
  902MPD2    H113217   0.262   4.291  13.384  0.6229  0.6834 -0.4460
  902MPD2    H213218   0.057   4.653  13.394  1.5472 -0.5038  0.5271
  902MPD2    H313219   0.206   4.495  13.492  1.4591  1.0104 -0.8767
  902MPD2     N13220   0.215   4.245  13.107 -0.0390 -0.4262  0.0150
  902MPD2    H513221   0.279   4.179  13.149 -2.8512 -2.0515  1.7784
  902MPD2    N113222   4.671   4.650  13.160  0.1136  0.2761 -0.7754
  902MPD2    H713223   4.655   0.006  13.222 -0.9422 -1.0560  0.6387
  903MPD2     C13224   0.242   3.957  12.240 -0.7267 -0.2173 -0.2990
  903MPD2    C113225   0.157   3.952  12.349  0.1237  0.5602 -0.7681
  903MPD2    C213226   0.021   3.957  12.320 -0.0675  0.2518 -0.2252
  903MPD2    C313227   4.688   3.967  12.196  0.1911 -0.3259 -0.6029
  903MPD2    C413228   0.055   3.990  12.093  0.2887  0.1541 -0.5218
  903MPD2    C513229   0.190   3.978  12.117 -0.8162 -0.6112 -0.6730
  903MPD2     H13230   4.675   3.961  12.403  1.6731  1.8644  1.1447
  903MPD2    H113231   0.030   4.012  11.990  0.8813  3.0735 -0.0499
  903MPD2    H213232   0.349   3.947  12.255 -1.0018  0.5727  2.1157
  903MPD2    H313233   0.262   3.990  12.037 -0.5582 -0.3128 -0.3971
  903MPD2     N13234   4.552   3.979  12.190  0.1544  0.6974  0.2270
  903MPD2    H513235   4.501   3.960  12.275 -1.3433 -2.2186 -1.2935
  903MPD2    N113236   0.220   3.949  12.472  0.0538  0.2279 -0.5527
  903MPD2    H713237   0.321   3.961  12.479  0.1369 -1.2409  0.7196
  904MPD2     C13238   4.606   3.824  13.927  0.1470 -0.3037 -0.7407
  904MPD2    C113239   4.580   3.746  14.031 -0.1095 -0.1255  0.0604
  904MPD2    C213240   4.685   3.701  14.106  0.1907 -0.0259  0.0266
  904MPD2    C313241   0.092   3.725  14.068  0.3014 -0.3857  0.1700
  904MPD2    C413242   0.115   3.809  13.961  0.3368 -0.0258 -0.6275
  904MPD2    C513243   0.006   3.867  13.894  0.4711 -0.3001 -0.1028
  904MPD2     H13244   4.653   3.653  14.198  0.5365 -2.0218 -0.8997
  904MPD2    H113245   0.210   3.834  13.916 -0.1409  1.6334 -0.7200
  904MPD2    H213246   4.527   3.857  13.859  0.2183 -0.0468 -0.6962
  904MPD2    H313247   0.021   3.931  13.808  1.5022 -1.7135 -0.9745
  904MPD2     N13248   0.207   3.670  14.137 -0.4171 -0.6411 -1.0129
  904MPD2    H513249   0.192   3.601  14.209 -0.0793 -0.2678 -0.5856
  904MPD2    N113250   4.451   3.711  14.064  0.2753 -0.0662  0.7589
  904MPD2    H713251   4.453   3.644  14.140  0.8395 -1.9000 -0.8625
  905MPD2     C13252   4.446   3.658  13.413  0.4058 -0.1729  0.3914
  905MPD2    C113253   4.499   3.767  13.481 -0.5381  0.0934 -0.0442
  905MPD2    C213254   4.638   3.788  13.479  0.2000 -0.0261 -0.2381
  905MPD2    C313255   0.001   3.695  13.417 -1.0088  1.0012  0.7506
  905MPD2    C413256   4.665   3.597  13.339  0.7245 -0.0246 -0.0612
  905MPD2    C513257   4.529   3.583  13.338 -0.1250 -0.0890 -0.3815
  905MPD2     H13258   4.686   3.856  13.548 -0.9430  0.8297 -0.2841
  905MPD2    H113259   0.003   3.537  13.272  0.0212 -0.0885 -0.6443
  905MPD2    H213260   4.339   3.643  13.410  0.2249  1.4770 -1.5471
  905MPD2    H313261   4.487   3.508  13.272  0.4212  0.9060 -1.8515
  905MPD2     N13262   0.139   3.684  13.424 -0.0583 -0.1259 -0.0224
  905MPD2    H513263   0.175   3.596  13.389 -1.7624 -0.1859 -1.6524
  905MPD2    N113264   4.404   3.843  13.557  0.0868 -0.1938 -0.1580
  905MPD2    H713265   4.309   3.815  13.534 -0.2018  0.4200  0.2832
  906MPD2     C13266   2.148   3.859  11.378 -0.6446 -0.4017 -0.0579
  906MPD2    C113267   2.092   3.740  11.337  0.4899 -0.8340 -0.0727
  906MPD2    C213268   2.039   3.658  11.435  0.7608  0.2730  0.6971
  906MPD2    C313269   2.020   3.702  11.564 -0.0907  0.1027 -0.0702
  906MPD2    C413270   2.075   3.823  11.607  0.4300 -0.3394 -0.1129
  906MPD2    C513271   2.137   3.901  11.509  0.6324  0.3314 -0.3926
  906MPD2     H13272   2.011   3.556  11.410  0.1524  0.5183  0.3715
  906MPD2    H113273   2.065   3.871  11.703  0.9869  0.5573 -0.5061
  906MPD2    H213274   2.203   3.935  11.324 -2.5377  0.8619 -0.2055
  906MPD2    H313275   2.184   3.997  11.530  1.6189 -0.5677  1.5654
  906MPD2     N13276   1.940   3.641  11.656 -0.2871 -0.3232 -0.5818
  906MPD2    H513277   1.898   3.690  11.734 -1.4290  0.1682 -1.5120
  906MPD2    N113278   2.085   3.689  11.206  0.7471 -0.7001 -0.6483
  906MPD2    H713279   2.050   3.594  11.195  0.1609 -0.8171  2.1656
  907MPD2     C13280   0.300   2.867  15.337 -0.1098 -1.3095  0.2545
  907MPD2    C113281   0.395   2.768  15.351 -0.4154  0.5063  0.7328
  907MPD2    C213282   0.480   2.769  15.459  0.2310  0.4177  0.0038
  907MPD2    C313283   0.474   2.879  15.540  0.8151  0.8055 -0.2781
  907MPD2    C413284   0.387   2.990  15.513  0.2637 -0.3757  0.1071
  907MPD2    C513285   0.296   2.981  15.412 -0.4021 -0.6874 -0.4291
  907MPD2     H13286   0.555   2.692  15.476  0.4727  0.4926 -0.7216
  907MPD2    H113287   0.395   3.083  15.567 -0.2403  0.6678 -1.6470
  907MPD2    H213288   0.223   2.867  15.260  3.5809  1.1570 -3.4175
  907MPD2    H313289   0.230   3.064  15.391  1.2740 -0.0655 -3.1897
  907MPD2     N13290   0.570   2.878  15.640 -0.3034 -0.6334 -0.1753
  907MPD2    H513291   0.630   2.796  15.642  1.3999  0.5616 -1.3847
  907MPD2    N113292   0.409   2.656  15.268 -0.5164  0.0956 -0.3959
  907MPD2    H713293   0.479   2.588  15.293 -1.0241  0.3372  1.6736
  908MPD2     C13294   2.971   4.134   9.478  0.2238 -0.1423 -0.1595
  908MPD2    C113295   3.030   4.018   9.521  0.2419 -0.2903  0.1004
  908MPD2    C213296   3.086   4.020   9.653 -0.0928  0.0024 -0.7544
  908MPD2    C313297   3.084   4.145   9.723  0.3580 -0.1265 -0.3408
  908MPD2    C413298   3.038   4.264   9.664  0.1524  0.6235 -0.2082
  908MPD2    C513299   2.973   4.254   9.548  0.2330 -0.4833  0.1792
  908MPD2     H13300   3.115   3.932   9.710 -0.6426 -0.3178 -0.9666
  908MPD2    H113301   3.041   4.357   9.719 -1.3849  0.0962  0.8030
  908MPD2    H213302   2.918   4.139   9.384 -1.7259 -0.7272  0.9190
  908MPD2    H313303   2.931   4.341   9.499  1.0340  0.6316  1.4984
  908MPD2     N13304   3.133   4.136   9.851  0.0995 -0.8546 -0.2678
  908MPD2    H513305   3.176   4.046   9.869 -1.8991 -1.8871 -0.6262
  908MPD2    N113306   3.040   3.899   9.445  0.3031 -1.2030  0.1439
  908MPD2    H713307   3.079   3.811   9.477  2.3269 -0.8133 -1.2216
  909MPD2     C13308   3.530   1.373  12.098  0.0658  0.1460 -0.0913
  909MPD2    C113309   3.461   1.439  11.996  0.8687 -0.3566 -0.3467
  909MPD2    C213310   3.342   1.494  12.023 -1.0197  0.2728  0.0241
  909MPD2    C313311   3.278   1.489  12.146 -0.6824  0.4830  0.1715
  909MPD2    C413312   3.350   1.427  12.250  0.7106  0.2280 -0.0380
  909MPD2    C513313   3.473   1.373  12.219 -0.5166  0.7821  0.2173
  909MPD2     H13314   3.283   1.546  11.948 -1.5691  0.1949  0.4050
  909MPD2    H113315   3.307   1.395  12.345 -0.1521  1.0028 -0.1706
  909MPD2    H213316   3.621   1.318  12.080  1.8616  3.4402 -1.1194
  909MPD2    H313317   3.533   1.319  12.291 -3.6463 -0.4733  1.8794
  909MPD2     N13318   3.148   1.554  12.153 -0.1123 -0.4527  0.5366
  909MPD2    H513319   3.105   1.579  12.065  0.2137 -0.1072  0.4804
  909MPD2    N113320   3.523   1.463  11.871  0.5223 -0.2661  0.0930
  909MPD2    H713321   3.471   1.528  11.813 -0.6357 -0.0482  1.3959
  910MPD2     C13322   0.089   3.508  16.111 -0.2039  0.0742  0.5619
  910MPD2    C113323   0.147   3.399  16.051  0.1939 -0.7969 -0.5236
  910MPD2    C213324   0.131   3.383  15.917 -0.5054 -0.3341 -0.3057
  910MPD2    C313325   0.056   3.474  15.843  0.6403  0.8531  0.0499
  910MPD2    C413326   0.007   3.588  15.904 -0.1395 -0.6116  0.4262
  910MPD2    C513327   0.022   3.606  16.042  0.2869  0.3025  0.3855
  910MPD2     H13328   0.184   3.299  15.873  0.1088 -0.1168  0.0107
  910MPD2    H113329   4.665   3.660  15.857 -0.2474 -2.0587 -1.6793
  910MPD2    H213330   0.091   3.523  16.218 -2.9006 -3.8632  1.1375
  910MPD2    H313331   4.707   3.690  16.098 -2.3858  1.9054 -3.7605
  910MPD2     N13332   0.029   3.466  15.708  0.0277 -0.0162 -0.6074
  910MPD2    H513333   4.690   3.542  15.681 -0.7988 -0.6643 -0.5425
  910MPD2    N113334   0.207   3.298  16.123 -0.2263  0.7843  0.6348
  910MPD2    H713335   0.236   3.213  16.075 -0.5601 -0.7866  3.2260
  911MPD2     C13336   3.111   3.764  16.610 -0.1195  0.2579  0.3974
  911MPD2    C113337   3.165   3.888  16.627  0.9632  0.1478  0.1380
  911MPD2    C213338   3.083   3.995  16.628 -0.3136  0.4962 -0.4015
  911MPD2    C313339   2.946   3.971  16.631  1.0037 -0.0770  0.2043
  911MPD2    C413340   2.890   3.848  16.610  0.2719  0.4812 -0.4276
  911MPD2    C513341   2.981   3.749  16.600 -0.3664 -0.1375 -0.1269
  911MPD2     H13342   3.124   4.094  16.645  0.1512  0.2444 -0.0637
  911MPD2    H113343   2.784   3.829  16.621  0.2489 -0.0708 -1.5968
  911MPD2    H213344   3.174   3.677  16.596 -0.7937 -0.3260  0.9700
  911MPD2    H313345   2.946   3.649  16.578 -2.7983  0.7512 -0.3464
  911MPD2     N13346   2.855   4.076  16.620  0.2708  0.1456 -0.2633
  911MPD2    H513347   2.761   4.047  16.596  0.3765 -0.2077 -0.2598
  911MPD2    N113348   3.304   3.892  16.633  0.2143  0.0358  0.1327
  911MPD2    H713349   3.350   3.804  16.612  2.2285  1.1371 -0.0254
  912MPD2     C13350   2.754   3.872  16.132  0.1784  0.5890 -0.1154
  912MPD2    C113351   2.685   3.910  16.245 -0.1532 -0.3731  0.0498
  912MPD2    C213352   2.644   3.810  16.336  0.1916  0.4782  0.0121
  912MPD2    C313353   2.678   3.679  16.306  0.3117 -0.0599  0.8871
  912MPD2    C413354   2.747   3.647  16.194 -0.0239  0.2810 -0.0113
  912MPD2    C513355   2.786   3.742  16.104  0.0431 -0.5664 -0.2806
  912MPD2     H13356   2.598   3.821  16.433  0.0920  1.7325 -0.1790
  912MPD2    H113357   2.779   3.547  16.167 -2.6961 -0.6752  0.4319
  912MPD2    H213358   2.783   3.941  16.053  2.7498 -1.5795 -1.0381
  912MPD2    H313359   2.821   3.714  16.005 -1.7607  1.3709 -1.4431
  912MPD2     N13360   2.647   3.585  16.410  0.0731 -0.6160  0.1815
  912MPD2    H513361   2.586   3.620  16.484  0.0712  1.8274 -0.9945
  912MPD2    N113362   2.667   4.044  16.273 -0.1749  0.5828  0.5522
  912MPD2    H713363   2.716   4.118  16.224 -0.3695 -0.2365 -0.8874
  913MPD2     C13364   3.139   0.331  10.017 -0.1888 -0.5386  0.6358
  913MPD2    C113365   3.216   0.369  10.123  0.2947  0.8394 -0.0045
  913MPD2    C213366   3.310   0.469  10.123 -0.1911  0.2865 -0.8440
  913MPD2    C313367   3.315   0.552  10.005  0.0173  0.1380 -1.0686
  913MPD2    C413368   3.245   0.511   9.898 -0.5388  0.0958 -0.7411
  913MPD2    C513369   3.154   0.411   9.902  1.2656 -0.3311 -0.1990
  913MPD2     H13370   3.364   0.496  10.213 -0.6522 -0.1023 -0.4499
  913MPD2    H113371   3.259   0.558   9.802  2.6144  2.4385  0.8652
  913MPD2    H213372   3.074   0.244  10.022 -0.6392 -0.2246  0.1877
  913MPD2    H313373   3.103   0.392   9.809 -0.2434 -2.8053  1.1480
  913MPD2     N13374   3.390   0.663   9.995 -0.0264  0.0928  0.4338
  913MPD2    H513375   3.389   0.712   9.906  1.5768 -0.2313  0.2524
  913MPD2    N113376   3.199   0.294  10.244  0.7046  0.3336  0.7142
  913MPD2    H713377   3.145   0.208  10.236 -0.9434  1.2736  1.7357
  914MPD2     C13378   1.131   0.505  12.098 -0.8106  0.3583 -0.1673
  914MPD2    C113379   1.134   0.634  12.136 -0.8110 -0.4544  0.1876
  914MPD2    C213380   1.193   0.650  12.257  0.2036  0.6183 -0.3382
  914MPD2    C313381   1.225   0.558  12.349 -0.2193  0.7135 -0.2583
  914MPD2    C413382   1.212   0.427  12.312  0.5334  0.3493  0.5564
  914MPD2    C513383   1.170   0.402  12.187 -0.1905  0.5069  0.0170
  914MPD2     H13384   1.210   0.752  12.289  1.7462 -0.0544  0.9728
  914MPD2    H113385   1.242   0.340  12.369  1.7538  2.3401  2.9691
  914MPD2    H213386   1.104   0.481  11.995 -0.6305  0.3611 -0.2140
  914MPD2    H313387   1.174   0.299  12.151  0.7424  1.1357 -1.6832
  914MPD2     N13388   1.264   0.598  12.477 -0.3421 -0.1166  1.0822
  914MPD2    H513389   1.246   0.697  12.492 -1.4998 -0.2949  0.8471
  914MPD2    N113390   1.077   0.737  12.050 -0.0879 -0.2240 -0.0218
  914MPD2    H713391   1.030   0.700  11.968 -0.0162 -2.6152  1.0108
  915MPD2     C13392   4.282   0.844  16.187 -0.1238 -0.1576 -0.0267
  915MPD2    C113393   4.172   0.879  16.111  0.5087 -0.1378  0.9456
  915MPD2    C213394   4.066   0.936  16.174  0.2543  0.2701 -0.0209
  915MPD2    C313395   4.050   0.944  16.310 -0.0135 -0.1524  0.1203
  915MPD2    C413396   4.157   0.904  16.383  0.3138 -0.4769  0.1929
  915MPD2    C513397   4.272   0.852  16.325 -0.0997  0.0799  0.2581
  915MPD2     H13398   3.975   0.953  16.117  0.2882 -0.5184 -0.2989
  915MPD2    H113399   4.159   0.904  16.492  1.4186 -0.3101  0.1707
  915MPD2    H213400   4.372   0.801  16.146  0.4007  0.5366  0.3797
  915MPD2    H313401   4.360   0.822  16.380 -0.1305  0.8433  0.7279
  915MPD2     N13402   3.940   1.012  16.366  0.0101 -0.1175 -0.2809
  915MPD2    H513403   3.872   1.054  16.304  0.2396 -0.8432 -1.0268
  915MPD2    N113404   4.182   0.872  15.969 -0.2481 -0.4906 -0.5434
  915MPD2    H713405   4.273   0.854  15.928 -0.3146  1.0994 -1.3976
  916MPD2     C13406   2.432   3.679  16.054  0.1191  0.3587 -0.2089
  916MPD2    C113407   2.381   3.562  16.104 -0.1911  0.6572  0.1837
  916MPD2    C213408   2.388   3.447  16.027  0.3557 -0.3903 -0.7793
  916MPD2    C313409   2.465   3.440  15.915 -0.1075  0.4781 -0.2164
  916MPD2    C413410   2.537   3.549  15.872  0.5408  0.1824  1.0380
  916MPD2    C513411   2.515   3.666  15.943  1.2204 -0.4338 -0.0856
  916MPD2     H13412   2.327   3.360  16.049 -0.7976  1.1145  2.0367
  916MPD2    H113413   2.609   3.547  15.791 -0.0460  1.2480  0.4990
  916MPD2    H213414   2.421   3.777  16.100 -3.0927 -0.9841  1.9394
  916MPD2    H313415   2.576   3.747  15.904 -0.6803  1.0680  0.1013
  916MPD2     N13416   2.453   3.336  15.828 -0.4336 -0.1480 -0.0308
  916MPD2    H513417   2.394   3.261  15.862 -1.7205  0.8344 -0.0915
  916MPD2    N113418   2.310   3.578  16.222  0.1053 -0.1867 -0.6890
  916MPD2    H713419   2.304   3.677  16.242  2.1224 -0.3901  0.9091
  917MPD2     C13420   2.556   1.285  11.270  0.0114  0.5139 -0.1273
  917MPD2    C113421   2.576   1.366  11.379 -0.4143 -0.5371 -0.3629
  917MPD2    C213422   2.640   1.484  11.354  0.2769  0.3924  0.1547
  917MPD2    C313423   2.683   1.530  11.228 -0.2265  0.0547  0.1167
  917MPD2    C413424   2.652   1.451  11.120 -0.2407  0.7594 -0.2812
  917MPD2    C513425   2.587   1.330  11.141 -0.5555  0.1093  0.1692
  917MPD2     H13426   2.644   1.554  11.437 -0.5096 -0.3644  0.8316
  917MPD2    H113427   2.649   1.489  11.018  2.1236  1.2716 -0.1614
  917MPD2    H213428   2.500   1.193  11.282  1.4345 -0.2815  0.4849
  917MPD2    H313429   2.562   1.267  11.057  1.2843 -0.3730 -0.0314
  917MPD2     N13430   2.734   1.657  11.203  0.6941  0.8892  0.1739
  917MPD2    H513431   2.737   1.693  11.109 -1.8202  1.7606  0.4271
  917MPD2    N113432   2.531   1.317  11.504  0.3120  0.0547 -0.8132
  917MPD2    H713433   2.474   1.233  11.502  2.6784 -1.5917  0.9274
  918MPD2     C13434   2.767   1.341  12.499 -0.7892  0.6669  0.1672
  918MPD2    C113435   2.844   1.299  12.393  0.3461 -0.4765  0.4253
  918MPD2    C213436   2.793   1.291  12.266  0.5116  0.1301 -0.3060
  918MPD2    C313437   2.662   1.327  12.252 -0.4306 -0.7524 -0.0994
  918MPD2    C413438   2.586   1.374  12.355  0.0402 -0.9075 -0.7547
  918MPD2    C513439   2.643   1.385  12.478  0.1590  0.7263  0.1635
  918MPD2     H13440   2.852   1.269  12.178 -0.5917  2.9963 -1.7895
  918MPD2    H113441   2.482   1.399  12.341  0.6432  1.2960 -1.3148
  918MPD2    H213442   2.810   1.334  12.599 -2.2395  0.8210  0.7939
  918MPD2    H313443   2.586   1.425  12.561  0.5145  0.3860  0.5643
  918MPD2     N13444   2.607   1.317  12.118  0.1216  0.0981  0.6858
  918MPD2    H513445   2.672   1.293  12.044 -1.9165 -0.5778 -0.8820
  918MPD2    N113446   2.972   1.242  12.424 -0.0508  0.3611  0.2249
  918MPD2    H713447   3.000   1.236  12.522 -0.0170  0.7254  0.2355
  919MPD2     C13448   3.131   0.371  11.985 -0.2215  0.4665  0.1717
  919MPD2    C113449   3.028   0.275  11.978  0.5035 -0.3082 -0.4819
  919MPD2    C213450   2.946   0.266  11.869  0.3102  0.9844  0.0677
  919MPD2    C313451   2.967   0.349  11.760 -0.4225  0.3088  0.8611
  919MPD2    C413452   3.053   0.456  11.777  0.0981  0.4514 -0.4897
  919MPD2    C513453   3.130   0.470  11.889 -0.7742  0.4806  1.1918
  919MPD2     H13454   2.882   0.178  11.869 -0.0950  1.2764  0.3346
  919MPD2    H113455   3.076   0.529  11.701 -1.3303 -0.4852 -1.8162
  919MPD2    H213456   3.197   0.378  12.070  0.1168  1.1529 -0.1412
  919MPD2    H313457   3.215   0.537  11.883 -0.5898  0.2662  1.4204
  919MPD2     N13458   2.898   0.338  11.636  0.7066 -0.7700  0.1709
  919MPD2    H513459   2.908   0.419  11.576 -0.6750 -0.4511  0.3630
  919MPD2    N113460   2.997   0.180  12.078 -0.0558  0.2547  0.1521
  919MPD2    H713461   2.908   0.131  12.078 -0.0075  0.1663  0.0933
  920MPD2     C13462   3.111   0.515  10.700  0.6417 -0.4125 -0.0906
  920MPD2    C113463   2.977   0.490  10.681  0.8770 -0.3652 -0.4054
  920MPD2    C213464   2.901   0.442  10.788  0.4205  0.0586  0.5643
  920MPD2    C313465   2.965   0.426  10.914 -0.0408 -0.2211 -0.4910
  920MPD2    C413466   3.107   0.440  10.925 -0.4858 -0.6744  0.1269
  920MPD2    C513467   3.178   0.497  10.824 -0.0393  0.5181  0.6384
  920MPD2     H13468   2.795   0.423  10.774  0.2297  1.1468  0.5356
  920MPD2    H113469   3.155   0.406  11.016  0.0230  1.9517  0.8608
  920MPD2    H213470   3.171   0.543  10.614 -1.7062  0.3565 -1.4841
  920MPD2    H313471   3.286   0.503  10.836 -0.2230 -0.5725  2.6670
  920MPD2     N13472   2.887   0.388  11.019 -0.4307  1.0314  0.2051
  920MPD2    H513473   2.793   0.363  10.992 -0.7673  0.5704  1.7617
  920MPD2    N113474   2.913   0.519  10.555  0.4896  0.9732 -0.1211
  920MPD2    H713475   2.812   0.513  10.559  0.7455 -3.2279 -0.0200
  921MPD2     C13476   4.107   4.414  17.021  0.0457  0.3582  0.1850
  921MPD2    C113477   4.081   4.424  16.883 -0.1474  0.6173  0.1719
  921MPD2    C213478   3.973   4.357  16.826  0.2186 -0.0550 -0.0228
  921MPD2    C313479   3.904   4.269  16.908 -0.7462 -0.7253  0.2534
  921MPD2    C413480   3.925   4.267  17.046  0.0548 -0.4324  0.1534
  921MPD2    C513481   4.027   4.335  17.094 -0.7492 -0.4734  0.0592
  921MPD2     H13482   3.946   4.360  16.721 -2.6084 -1.1625  0.6854
  921MPD2    H113483   3.860   4.221  17.120 -0.3085 -1.2604 -0.6849
  921MPD2    H213484   4.179   4.484  17.063  0.2694  0.1622  0.1270
  921MPD2    H313485   4.045   4.322  17.201 -1.2466 -0.7127  0.1134
  921MPD2     N13486   3.812   4.177  16.861  0.3571  0.2934  0.2012
  921MPD2    H513487   3.741   4.136  16.921  1.9941 -1.3676  0.9681
  921MPD2    N113488   4.170   4.507  16.812  0.1083 -0.2330  0.0650
  921MPD2    H713489   4.255   4.531  16.861 -1.6717  5.0427  0.5688
  922MPD2     C13490   4.471   1.516  17.628 -0.0939  0.5297 -0.5886
  922MPD2    C113491   4.454   1.561  17.501 -0.0903 -0.1824 -0.1847
  922MPD2    C213492   4.342   1.640  17.474 -0.3076 -0.1525 -0.5649
  922MPD2    C313493   4.248   1.672  17.578  0.1374  0.1875  0.4019
  922MPD2    C413494   4.269   1.615   0.011  0.2069  0.0966 -0.0312
  922MPD2    C513495   4.380   1.540   0.040 -0.5037 -0.0411  0.2763
  922MPD2     H13496   4.335   1.688  17.377  1.2709 -0.5165 -0.8577
  922MPD2    H113497   4.202   1.632   0.095 -0.9838 -3.3814 -0.2637
  922MPD2    H213498   4.560   1.464  17.661  0.6217  0.2670 -2.8891
  922MPD2    H313499   4.405   1.497   0.136 -0.9230  1.2222  0.9576
  922MPD2     N13500   4.144   1.758  17.551  0.3799  0.0091  0.2300
  922MPD2    H513501   4.132   1.769  17.451 -2.5131  2.1704  0.8159
  922MPD2    N113502   4.544   1.537  17.394 -0.5269  0.4806 -0.5345
  922MPD2    H713503   4.531   1.596  17.312 -0.9562  0.9980 -0.0852
  923MPD2     C13504   0.414   4.109   9.540  0.3629 -0.1139  0.3197
  923MPD2    C113505   0.532   4.157   9.487  0.2302 -0.0477  0.3358
  923MPD2    C213506   0.646   4.080   9.486 -0.1001  0.3929  0.1969
  923MPD2    C313507   0.634   3.950   9.538  0.2511 -0.8321 -0.3411
  923MPD2    C413508   0.511   3.903   9.592  0.1102 -0.0544 -0.7894
  923MPD2    C513509   0.403   3.980   9.587 -0.1847  0.7468  0.2172
  923MPD2     H13510   0.736   4.106   9.431  0.1489  2.9182  1.8089
  923MPD2    H113511   0.512   3.804   9.634 -0.1101  0.3389  0.1304
  923MPD2    H213512   0.320   4.164   9.542 -0.1616 -0.9549 -0.7919
  923MPD2    H313513   0.314   3.936   9.629 -0.2236  1.2441  0.6675
  923MPD2     N13514   0.737   3.850   9.523 -1.0315 -0.1431  0.3572
  923MPD2    H513515   0.717   3.752   9.542  0.2464 -0.7691 -1.4542
  923MPD2    N113516   0.529   4.296   9.450  0.3294 -0.0508  0.4501
  923MPD2    H713517   0.441   4.343   9.466 -1.3444 -3.6376  1.7380
  924MPD2     C13518   0.962   2.225  15.772 -0.0872 -0.1575 -0.3646
  924MPD2    C113519   0.964   2.280  15.897 -0.2589 -0.4962 -0.0787
  924MPD2    C213520   0.977   2.417  15.907  0.0303 -0.2120  0.1154
  924MPD2    C313521   0.993   2.496  15.797 -1.1228  0.1398 -0.1211
  924MPD2    C413522   0.998   2.436  15.673  0.3222 -0.4868 -0.4157
  924MPD2    C513523   0.978   2.305  15.662  0.2023  0.8072 -0.3591
  924MPD2     H13524   0.975   2.459  16.007  1.1823 -0.6819  0.3330
  924MPD2    H113525   1.022   2.493  15.583  0.4654  0.0148 -0.0612
  924MPD2    H213526   0.958   2.118  15.756 -0.3268 -0.1337 -0.4634
  924MPD2    H313527   0.978   2.249  15.569  0.7564 -3.5642  2.2828
  924MPD2     N13528   0.993   2.632  15.828  0.0125 -0.0900 -0.1263
  924MPD2    H513529   0.988   2.656  15.927 -1.5654  0.5380 -0.3583
  924MPD2    N113530   0.944   2.207  16.012  0.6184 -0.0387  0.0863
  924MPD2    H713531   0.923   2.108  16.001 -2.5205  0.6301  0.1951
  925MPD2     C13532   0.131   0.073  14.948  0.2674  0.1448 -0.2911
  925MPD2    C113533   0.018   0.100  14.870 -0.1930  0.2889 -1.2327
  925MPD2    C213534   4.637   0.171  14.933 -0.6821  0.2462  0.4582
  925MPD2    C313535   4.647   0.205  15.066  0.9908 -0.1968  0.2260
  925MPD2    C413536   0.041   0.186  15.136 -0.1335  0.1473  0.3550
  925MPD2    C513537   0.148   0.116  15.076  0.1072 -0.7159  0.0701
  925MPD2     H13538   4.547   0.198  14.879 -1.5045  0.5504  1.9945
  925MPD2    H113539   0.056   0.201  15.242  1.1938 -0.5114  0.2569
  925MPD2    H213540   0.213   0.015  14.907  1.4992  0.5705  1.5907
  925MPD2    H313541   0.232   0.094  15.141  1.7960 -1.0979 -2.2573
  925MPD2     N13542   4.533   0.241  15.139 -0.0189  0.2914  0.0649
  925MPD2    H513543   4.548   0.234  15.239  0.3591  0.6754  0.0360
  925MPD2    N113544   4.722   0.045  14.740  0.5427  0.6041 -0.4113
  925MPD2    H713545   4.626   0.030  14.711  0.6873 -0.2189 -0.4780
  926MPD2     C13546   3.194   2.914  13.326  0.4515 -0.1201  0.1024
  926MPD2    C113547   3.218   3.053  13.347  0.3335 -0.6592  0.0304
  926MPD2    C213548   3.266   3.131  13.243  0.7658 -0.1510 -0.0908
  926MPD2    C313549   3.289   3.074  13.113 -1.7851  0.7156 -0.4270
  926MPD2    C413550   3.256   2.940  13.094 -0.0420  0.3241 -0.0912
  926MPD2    C513551   3.213   2.864  13.197  0.2951 -0.3419  0.1173
  926MPD2     H13552   3.284   3.236  13.262 -0.0758 -0.0208 -0.0089
  926MPD2    H113553   3.261   2.888  12.999  2.2762 -0.8549  0.6753
  926MPD2    H213554   3.179   2.846  13.409  0.9530  2.3273  2.2119
  926MPD2    H313555   3.195   2.759  13.178 -0.9588 -0.1735  0.4202
  926MPD2     N13556   3.323   3.154  12.999 -0.6275  0.9184 -0.7207
  926MPD2    H513557   3.338   3.110  12.909  0.3869 -0.7094  0.2450
  926MPD2    N113558   3.165   3.124  13.460  0.4484  0.0234  0.3823
  926MPD2    H713559   3.173   3.225  13.452  0.7615 -0.1072 -1.0466
  927MPD2     C13560   3.275   1.187  17.489  0.1469  0.1395  0.1266
  927MPD2    C113561   3.285   1.129  17.615  0.1846  0.1121  0.8579
  927MPD2    C213562   3.326   0.993  17.626  0.0841 -0.1896  0.1057
  927MPD2    C313563   3.340   0.918  17.515 -0.6181 -0.0219 -0.2617
  927MPD2    C413564   3.329   0.976  17.386 -0.2922 -0.6788  0.2852
  927MPD2    C513565   3.302   1.107  17.378 -0.5200  0.3800  0.0754
  927MPD2     H13566   3.350   0.952   0.031  0.1609 -2.9146 -1.0640
  927MPD2    H113567   3.349   0.916  17.298  1.2230  1.3177 -0.7185
  927MPD2    H213568   3.241   1.288  17.474  1.5918  0.8445  1.6544
  927MPD2    H313569   3.311   1.157  17.282  3.2039 -2.2189 -0.9428
  927MPD2     N13570   3.390   0.789  17.512  0.5792  0.6417 -0.5013
  927MPD2    H513571   3.399   0.757  17.416  0.8480 -1.5193  0.2353
  927MPD2    N113572   3.251   1.204   0.033 -0.3325 -0.2620 -0.0068
  927MPD2    H713573   3.232   1.303   0.022 -0.9255 -0.1322  2.1165
  928MPD2     C13574   1.832   3.798   1.238 -0.6324 -0.2304  0.1166
  928MPD2    C113575   1.740   3.896   1.215 -0.0403  0.2845  0.1754
  928MPD2    C213576   1.702   3.927   1.089  0.6885 -0.3222  0.1675
  928MPD2    C313577   1.755   3.857   0.980  0.4378  0.8331  0.1394
  928MPD2    C413578   1.825   3.739   1.000  0.0833  0.4135 -0.1787
  928MPD2    C513579   1.863   3.714   1.130 -0.5604 -0.2209  0.4868
  928MPD2     H13580   1.624   3.999   1.066  0.7185 -0.5779 -0.7289
  928MPD2    H113581   1.848   3.670   0.920 -2.0050 -3.0796  2.2472
  928MPD2    H213582   1.877   3.780   1.335 -2.6236 -0.7308  0.9515
  928MPD2    H313583   1.921   3.624   1.146 -0.8347 -0.4551  0.1559
  928MPD2     N13584   1.715   3.890   0.850  0.6479 -0.5298  0.0704
  928MPD2    H513585   1.649   3.967   0.849  0.2794 -0.8432  0.1715
  928MPD2    N113586   1.699   3.967   1.328  0.7213 -0.3394 -0.0737
  928MPD2    H713587   1.760   3.959   1.408  0.7625  0.2144 -0.0503
  929MPD2     C13588   1.393   3.506  10.589 -0.2573  0.6451 -1.0960
  929MPD2    C113589   1.273   3.471  10.637 -0.9799  0.7393 -0.1445
  929MPD2    C213590   1.163   3.447  10.549  0.1886  0.2591  0.5433
  929MPD2    C313591   1.182   3.477  10.414  0.8778  0.6859 -0.7042
  929MPD2    C413592   1.308   3.509  10.367 -0.4245  0.3858 -0.7379
  929MPD2    C513593   1.409   3.520  10.458 -0.2610 -0.0478  0.3056
  929MPD2     H13594   1.064   3.443  10.594  0.4171  0.3264  1.0552
  929MPD2    H113595   1.330   3.537  10.265 -1.4599  1.4282 -0.6712
  929MPD2    H213596   1.486   3.513  10.644 -0.4220  4.5402 -1.2730
  929MPD2    H313597   1.509   3.544  10.423  0.4457  1.1605  3.1904
  929MPD2     N13598   1.070   3.488  10.317  0.0395  0.6876 -1.1086
  929MPD2    H513599   1.104   3.542  10.238 -0.2815  2.0594 -0.3021
  929MPD2    N113600   1.272   3.462  10.774  0.1497  0.1486 -0.5004
  929MPD2    H713601   1.345   3.505  10.829 -0.2191 -1.4715  1.2549
  930MPD2     C13602   2.952   1.092  14.392 -0.2815 -0.0034  0.2106
  930MPD2    C113603   2.959   1.176  14.282  0.4692  0.3272  0.1670
  930MPD2    C213604   2.927   1.120  14.161  0.1758 -0.1304  0.0128
  930MPD2    C313605   2.885   0.987  14.135  0.3482  0.0948 -0.4458
  930MPD2    C413606   2.881   0.902  14.243  1.0179  0.4391 -0.2304
  930MPD2    C513607   2.907   0.960  14.367  0.6592  0.0122  0.1172
  930MPD2     H13608   2.928   1.190  14.078  0.9013 -0.7508 -0.5076
  930MPD2    H113609   2.852   0.798  14.240  4.1551 -0.4986  1.7063
  930MPD2    H213610   2.965   1.119  14.496  1.5666 -1.9830  0.4998
  930MPD2    H313611   2.901   0.892  14.451 -1.0573  0.4424  0.3491
  930MPD2     N13612   2.852   0.932  14.012  0.2803 -0.1876  0.0278
  930MPD2    H513613   2.838   0.832  14.001  2.1606 -0.4069 -0.3405
  930MPD2    N113614   3.005   1.316  14.297 -0.9177 -0.1437  0.0425
  930MPD2    H713615   3.041   1.350  14.385 -0.5317 -0.2424 -0.0777
  931MPD2     C13616   3.360   1.427   0.945  0.3236 -0.1284  0.5556
  931MPD2    C113617   3.372   1.322   0.868  0.0664  0.0891 -0.5256
  931MPD2    C213618   3.362   1.199   0.930 -0.8628 -0.0544 -0.5200
  931MPD2    C313619   3.319   1.191   1.062 -0.1166 -0.3781  0.6078
  931MPD2    C413620   3.297   1.302   1.138 -0.2548  0.0298 -0.4847
  931MPD2    C513621   3.325   1.421   1.080 -0.0514 -0.1383 -0.5131
  931MPD2     H13622   3.367   1.108   0.871  1.3693  1.1245 -2.1511
  931MPD2    H113623   3.266   1.299   1.242 -1.8545  3.0422 -0.8770
  931MPD2    H213624   3.359   1.524   0.897  1.0863 -0.3244  0.1452
  931MPD2    H313625   3.306   1.511   1.139 -0.4800 -0.3486 -0.3363
  931MPD2     N13626   3.306   1.065   1.128 -0.6753  0.1082  0.2349
  931MPD2    H513627   3.246   1.065   1.209 -0.3302  0.6671  0.4814
  931MPD2    N113628   3.370   1.344   0.731  0.3232 -0.2499  0.1337
  931MPD2    H713629   3.359   1.443   0.710  0.0669  0.2984  2.9539
  932MPD2     C13630   0.351   4.402  11.425 -0.0642  0.0779  0.1610
  932MPD2    C113631   0.426   4.499  11.488 -0.0842  0.1474 -0.0960
  932MPD2    C213632   0.507   4.465  11.596  0.0029  0.4047 -0.0837
  932MPD2    C313633   0.519   4.327  11.633 -0.6224 -0.6200  0.6890
  932MPD2    C413634   0.440   4.234  11.571  0.0939  0.0207  0.3031
  932MPD2    C513635   0.359   4.274  11.465  0.4278  0.3883 -0.0351
  932MPD2     H13636   0.570   4.537  11.647  0.7620  0.9368 -1.7601
  932MPD2    H113637   0.437   4.132  11.608 -1.2135  0.0037  0.1257
  932MPD2    H213638   0.276   4.429  11.351  0.7164 -1.0114 -1.0444
  932MPD2    H313639   0.300   4.202  11.410 -1.1231  1.4637  0.2275
  932MPD2     N13640   0.621   4.286  11.722 -0.4956 -0.2676 -0.8633
  932MPD2    H513641   0.645   4.188  11.713 -0.3095 -0.3371  0.4133
  932MPD2    N113642   0.440   4.625  11.440 -0.1041  0.2691 -0.1428
  932MPD2    H713643   0.497   4.686  11.497 -0.6270 -0.9845  1.7099
  933MPD2     C13644   1.264   4.631   1.803  0.7226  0.4740 -0.0020
  933MPD2    C113645   1.258   4.573   1.682  0.5076 -0.1194  0.2645
  933MPD2    C213646   1.148   4.591   1.608 -0.2836 -0.5162 -0.7312
  933MPD2    C313647   1.036   4.660   1.653 -0.5848 -0.1142  1.0708
  933MPD2    C413648   1.039   4.707   1.781 -0.5518 -0.1276 -0.1271
  933MPD2    C513649   1.155   4.689   1.859  0.7817 -0.1368  1.0873
  933MPD2     H13650   1.146   4.547   1.509  0.0979  1.0294 -1.4253
  933MPD2    H113651   0.961   0.037   1.835 -0.4473  0.5711 -0.6698
  933MPD2    H213652   1.349   4.617   1.869 -0.3138  2.5054  1.7509
  933MPD2    H313653   1.169   0.004   1.960  1.1180  0.2609  0.8946
  933MPD2     N13654   0.920   4.646   1.575 -0.3173  0.0728  0.4176
  933MPD2    H513655   0.925   4.594   1.488 -2.6995  1.3205 -0.4653
  933MPD2    N113656   1.360   4.485   1.647  0.3542 -0.3025  0.3159
  933MPD2    H713657   1.449   4.482   1.695 -0.4337 -0.3551  1.7653
  934MPD2     C13658   1.588   1.532   2.373 -0.6385 -0.3630 -0.4606
  934MPD2    C113659   1.628   1.449   2.272  0.0650  0.2593  0.1633
  934MPD2    C213660   1.530   1.371   2.211 -0.8893  0.0290 -0.1438
  934MPD2    C313661   1.396   1.401   2.231 -0.3545 -0.0774  0.4448
  934MPD2    C413662   1.358   1.502   2.310 -0.4119  0.3498 -0.0360
  934MPD2    C513663   1.457   1.569   2.375  0.2251  0.4212 -0.3553
  934MPD2     H13664   1.547   1.292   2.139 -1.2241  0.8964 -1.1867
  934MPD2    H113665   1.252   1.521   2.325 -0.1021  0.2550  2.3172
  934MPD2    H213666   1.660   1.583   2.436 -1.7869  0.0820  0.4932
  934MPD2    H313667   1.417   1.638   2.448  0.1455  2.0160 -1.9286
  934MPD2     N13668   1.291   1.339   2.164 -0.5138  0.2883 -0.2249
  934MPD2    H513669   1.196   1.370   2.180 -0.4622 -0.6399  1.9334
  934MPD2    N113670   1.759   1.417   2.247 -0.2793 -0.0992 -0.1397
  934MPD2    H713671   1.767   1.335   2.188 -1.2970 -1.0013  0.9830
  935MPD2     C13672   1.713   0.850   1.648 -0.5079 -0.4648  0.7395
  935MPD2    C113673   1.603   0.860   1.568 -0.1026  0.4583 -0.0502
  935MPD2    C213674   1.484   0.897   1.629  0.4929 -0.1256 -0.0734
  935MPD2    C313675   1.472   0.920   1.766  0.4135  0.2137  0.1603
  935MPD2    C413676   1.584   0.914   1.838 -0.3691 -0.5522  0.1914
  935MPD2    C513677   1.701   0.873   1.779 -0.1347  0.2506 -0.0161
  935MPD2     H13678   1.397   0.893   1.565  1.4676 -0.4636 -1.3841
  935MPD2    H113679   1.584   0.934   1.945  1.9149  1.0895 -0.1188
  935MPD2    H213680   1.814   0.820   1.620 -1.1679 -1.5905 -0.4032
  935MPD2    H313681   1.794   0.856   1.833  1.2611  4.5628 -1.0861
  935MPD2     N13682   1.350   0.967   1.825  0.1653  0.0458 -0.0409
  935MPD2    H513683   1.345   0.990   1.924 -0.8386 -1.6967  0.3229
  935MPD2    N113684   1.607   0.843   1.431  0.1969 -0.2396 -0.6100
  935MPD2    H713685   1.521   0.859   1.379 -0.2659  1.6004  0.7186
  936MPD2     C13686   0.532   3.748  12.259  1.2686  0.4348 -0.8620
  936MPD2    C113687   0.525   3.690  12.386  0.4224 -0.1295  0.3507
  936MPD2    C213688   0.608   3.742  12.484  0.1110  0.0886 -0.1225
  936MPD2    C313689   0.696   3.844  12.463  0.0353 -1.0982  0.5835
  936MPD2    C413690   0.693   3.898  12.338  0.1549 -0.4078  0.3172
  936MPD2    C513691   0.613   3.856  12.239  0.2675 -1.0165 -0.4331
  936MPD2     H13692   0.601   3.687  12.577  2.6135 -0.2363 -0.1228
  936MPD2    H113693   0.750   3.984  12.304  0.5648 -0.0769  1.8275
  936MPD2    H213694   0.466   3.727  12.176  0.2787 -0.8972  0.2719
  936MPD2    H313695   0.618   3.909  12.145 -1.0599 -0.3083 -0.1054
  936MPD2     N13696   0.796   3.882  12.551 -0.0128 -0.4278  0.2376
  936MPD2    H513697   0.874   3.926  12.504 -0.4212  1.8509  1.6566
  936MPD2    N113698   0.442   3.578  12.422 -0.5226  0.8679 -0.3565
  936MPD2    H713699   0.442   3.552  12.520 -0.4475 -0.7563 -0.7811
  937MPD2     C13700   3.053   4.180  11.991 -0.4208  0.1492  0.6116
  937MPD2    C113701   3.101   4.311  11.976 -0.5941  0.4303  0.5101
  937MPD2    C213702   3.161   4.350  11.850  0.5965  0.1033 -0.4509
  937MPD2    C313703   3.192   4.249  11.766  0.3171 -0.2515 -0.5485
  937MPD2    C413704   3.168   4.118  11.798  0.3509  0.0265  0.5865
  937MPD2    C513705   3.089   4.085  11.905 -0.6639  0.2987  0.3876
  937MPD2     H13706   3.171   4.455  11.825  2.1910 -0.3420 -1.6502
  937MPD2    H113707   3.198   4.033  11.736 -0.7258  0.2515 -0.2538
  937MPD2    H213708   2.991   4.151  12.074  3.0512 -1.3707  2.6775
  937MPD2    H313709   3.054   3.983  11.919 -0.1806  0.0804  0.0303
  937MPD2     N13710   3.253   4.288  11.648  0.5308 -0.2952  0.3435
  937MPD2    H513711   3.271   4.387  11.635 -0.2020  0.0112  1.6846
  937MPD2    N113712   3.041   4.418  12.051  0.6924  0.6860  0.2642
  937MPD2    H713713   3.065   4.512  12.020 -0.0476  1.3803  1.8130
  938MPD2     C13714   0.646   0.628   0.786 -0.0832 -0.3790 -0.2853
  938MPD2    C113715   0.749   0.676   0.864  0.2883 -0.0678  0.4500
  938MPD2    C213716   0.791   0.615   0.980 -0.2813 -0.4172  0.1672
  938MPD2    C313717   0.719   0.506   1.027 -0.4520  0.1373 -0.4115
  938MPD2    C413718   0.625   0.452   0.945 -0.0983 -0.3823  0.6677
  938MPD2    C513719   0.588   0.511   0.827 -0.2016  0.7823 -0.3148
  938MPD2     H13720   0.868   0.665   1.037 -0.8661  2.3074 -1.4128
  938MPD2    H113721   0.560   0.370   0.974  1.4433 -2.4272 -1.6023
  938MPD2    H213722   0.623   0.662   0.686  2.9792 -1.0030 -1.2004
  938MPD2    H313723   0.513   0.457   0.769  1.5283 -1.5272 -0.3897
  938MPD2     N13724   0.736   0.450   1.158  0.1885 -0.5757  0.0453
  938MPD2    H513725   0.671   0.374   1.178  2.1568 -2.5899 -1.2016
  938MPD2    N113726   0.819   0.793   0.830 -0.1714  0.0625 -0.0508
  938MPD2    H713727   0.888   0.829   0.896 -0.1969  1.4415 -0.7813
  939MPD2     C13728   1.734   1.818   1.216 -0.5549 -0.0724 -0.5382
  939MPD2    C113729   1.865   1.859   1.246 -0.5215 -0.5942 -0.1175
  939MPD2    C213730   1.951   1.886   1.131  0.0825  0.0757  0.0775
  939MPD2    C313731   1.914   1.847   1.004 -0.5640  0.0921 -0.1322
  939MPD2    C413732   1.792   1.783   0.992  0.8262  0.2451  0.2710
  939MPD2    C513733   1.702   1.774   1.095 -0.5510  0.0532 -0.0501
  939MPD2     H13734   2.044   1.938   1.151 -1.5459  2.5380  1.1194
  939MPD2    H113735   1.755   1.755   0.894 -1.9683 -2.2886  2.0359
  939MPD2    H213736   1.653   1.821   1.288  0.1740 -2.5727  0.3939
  939MPD2    H313737   1.603   1.736   1.074 -0.2970 -0.7056  0.1553
  939MPD2     N13738   2.006   1.863   0.891  0.4879 -0.1347  0.2144
  939MPD2    H513739   2.083   1.929   0.895  1.0657 -0.9265  2.0999
  939MPD2    N113740   1.896   1.888   1.378 -0.6795  0.6850 -0.6707
  939MPD2    H713741   1.822   1.866   1.444  1.7724  0.5262  1.9950
  940MPD2     C13742   0.656   2.574  13.008 -0.4775  0.3056 -0.1878
  940MPD2    C113743   0.756   2.650  13.069 -0.0127  0.2217 -1.0321
  940MPD2    C213744   0.816   2.751  12.991  0.2118 -0.6825 -0.6230
  940MPD2    C313745   0.788   2.759  12.859 -0.2773 -0.6589 -0.0191
  940MPD2    C413746   0.689   2.688  12.804  0.2566  0.4880  0.5442
  940MPD2    C513747   0.625   2.589  12.876 -0.0122  0.5888  0.4308
  940MPD2     H13748   0.890   2.814  13.039 -0.8033 -0.0004  0.0506
  940MPD2    H113749   0.656   2.706  12.702  1.6845 -1.0148 -0.1827
  940MPD2    H213750   0.617   2.489  13.063 -1.0752  1.2185  0.7981
  940MPD2    H313751   0.547   2.536  12.823  0.3414  0.8646 -0.3588
  940MPD2     N13752   0.859   2.849  12.773 -0.3944 -0.7244 -0.2572
  940MPD2    H513753   0.826   2.863  12.678 -0.9692  0.1814  0.0717
  940MPD2    N113754   0.791   2.642  13.202 -0.2909 -0.4521 -0.1036
  940MPD2    H713755   0.847   2.717  13.242 -0.5280 -0.7190  0.7436
  941MPD2     C13756   0.737   2.472  10.376 -0.7329  0.1809 -0.1577
  941MPD2    C113757   0.777   2.489  10.245  0.2566  0.6428 -0.4418
  941MPD2    C213758   0.738   2.400  10.143  0.0378 -0.4383 -0.6063
  941MPD2    C313759   0.666   2.297  10.179  0.0121 -0.4415 -0.0063
  941MPD2    C413760   0.640   2.273  10.316 -0.0761 -0.8890 -0.2904
  941MPD2    C513761   0.665   2.362  10.413  0.2082 -0.4957 -0.3127
  941MPD2     H13762   0.767   2.419  10.041 -2.6399 -0.8104 -1.4428
  941MPD2    H113763   0.588   2.185  10.354 -1.0599 -0.1688  0.0231
  941MPD2    H213764   0.762   2.547  10.450  1.0206 -1.7554  1.1928
  941MPD2    H313765   0.626   2.347  10.513 -2.9547 -2.7483 -1.8935
  941MPD2     N13766   0.628   2.196  10.091 -0.1126  0.4720  0.0226
  941MPD2    H513767   0.588   2.116  10.139  0.0231  0.4424  0.0866
  941MPD2    N113768   0.867   2.596  10.210  0.6523 -0.2661  0.7191
  941MPD2    H713769   0.910   2.584  10.118  2.0903  1.2828  1.1900
  942MPD2     C13770   4.422   4.563   9.170  0.0036  0.0825  0.3087
  942MPD2    C113771   4.340   4.510   9.273  0.0281 -0.3035  0.1052
  942MPD2    C213772   4.397   4.459   9.385 -0.2854  0.0936  0.7461
  942MPD2    C313773   4.527   4.482   9.400  0.8013 -0.1980  0.2093
  942MPD2    C413774   4.608   4.534   9.302  0.6347 -0.3880 -0.4169
  942MPD2    C513775   4.559   4.568   9.181 -0.4167  0.0405  0.8875
  942MPD2     H13776   4.337   4.416   9.465  0.5311 -0.4528  1.0549
  942MPD2    H113777   4.714   4.529   9.322  0.4429 -1.4647  0.2982
  942MPD2    H213778   4.382   4.568   9.070  0.2809 -0.6248  0.1625
  942MPD2    H313779   4.614   4.593   9.091 -1.6544 -0.8984 -0.1424
  942MPD2     N13780   4.591   4.464   9.524  0.3267 -0.2027 -0.0138
  942MPD2    H513781   4.686   4.498   9.534 -0.5145  1.8579  1.0143
  942MPD2    N113782   4.201   4.496   9.264 -0.4900 -0.6248  0.6964
  942MPD2    H713783   4.149   4.454   9.341 -2.1305  1.6151  0.7880
  943MPD2     C13784   4.707   1.949  10.406  0.0046  0.4209 -0.1400
  943MPD2    C113785   4.588   1.888  10.382  0.4932  0.4787 -0.2096
  943MPD2    C213786   4.470   1.961  10.385 -0.1441  0.3221 -0.5516
  943MPD2    C313787   4.476   2.097  10.398  0.1417  0.7084  0.1404
  943MPD2    C413788   4.595   2.158  10.431  0.2277 -0.1977 -0.1952
  943MPD2    C513789   4.706   2.083  10.434 -0.2585  0.7261  0.0391
  943MPD2     H13790   4.370   1.923  10.370 -0.0626 -0.6127  1.2918
  943MPD2    H113791   4.598   2.261  10.463  0.5078  0.2241 -1.5843
  943MPD2    H213792   0.073   1.887  10.412 -1.1834 -1.2245  0.2312
  943MPD2    H313793   0.076   2.137  10.443  0.4160 -0.2570 -0.9718
  943MPD2     N13794   4.356   2.169  10.388  0.1654  0.3914 -0.4637
  943MPD2    H513795   4.272   2.112  10.378  0.8724 -0.6803 -0.3039
  943MPD2    N113796   4.598   1.753  10.360  0.3516 -0.1215  0.1037
  943MPD2    H713797   4.688   1.712  10.384  2.0154  2.0572 -2.3157
  944MPD2     C13798   4.415   0.782  11.104 -0.1547 -0.5986  0.0471
  944MPD2    C113799   4.291   0.769  11.042 -0.3490  0.6631  0.3831
  944MPD2    C213800   4.176   0.752  11.126 -0.1795  0.2453  0.7522
  944MPD2    C313801   4.184   0.756  11.261  0.9780  0.1648  0.6548
  944MPD2    C413802   4.306   0.782  11.324  0.1188 -0.2980  0.0792
  944MPD2    C513803   4.417   0.793  11.240 -0.4912 -0.3038  0.8404
  944MPD2     H13804   4.077   0.730  11.086  0.5696 -0.6635 -0.6103
  944MPD2    H113805   4.321   0.794  11.431 -0.7944  2.6650 -0.1211
  944MPD2    H213806   4.507   0.803  11.051 -0.1580  1.3343  0.8121
  944MPD2    H313807   4.514   0.797  11.287 -0.6574  0.7143  1.0963
  944MPD2     N13808   4.065   0.781  11.335  0.4394 -0.3486 -0.0571
  944MPD2    H513809   3.980   0.776  11.280  0.3538 -1.6990  0.2004
  944MPD2    N113810   4.288   0.765  10.897 -0.1051 -0.0350  0.6407
  944MPD2    H713811   4.376   0.746  10.851  0.0031  1.3797  0.2724
    1TCq1    O113812   1.322   2.349  13.357 -0.0255  0.4681 -0.0510
    1TCq1    C113813   1.205   2.388  13.414 -0.5869 -0.0276  0.4124
    1TCq1    O213814   1.100   2.411  13.356  0.5512 -0.4108 -0.5005
    1TCq1    C213815   1.252   2.485  13.518 -0.4113  0.2195 -0.3799
    1TCq1    C313816   1.196   2.612  13.510  0.1833  0.8280 -0.5948
    1TCq1    C413817   1.241   2.705  13.596 -0.2582 -0.9050 -0.3075
    1TCq1    C513818   1.327   2.673  13.695 -0.5268 -0.2018 -0.2950
    1TCq1    C613819   1.376   2.545  13.701 -0.8668 -0.5766 -0.3415
    1TCq1    C713820   1.342   2.443  13.609 -0.0925 -0.7510 -0.2817
    1TCq1    C813821   1.455   2.497  13.811 -0.0157 -0.0528  0.4922
    1TCq1    O413822   1.486   2.377  13.808 -0.3460  0.3358  0.3673
    1TCq1    C913823   1.190   2.843  13.581 -0.1427  0.2097 -0.4011
    1TCq1    O513824   1.225   2.926  13.671  0.2211 -0.6286  0.3518
    1TCq1    O613825   1.109   2.868  13.494 -0.3694  0.0388  0.1957
    1TCq1    H113826   1.404   2.377  13.403  0.3045 -0.3058 -0.1602
    1TCq1    H213827   1.122   2.636  13.435 -0.9876 -0.1393  0.2568
    1TCq1    H313828   1.344   2.751  13.769 -1.7691 -0.9153  0.7433
    1TCq1    H413829   1.373   2.340  13.617  2.1112  0.0188  1.2231
    2MPD2     C13830   1.687   2.582  14.261  0.0654  0.4250 -0.0996
    2MPD2    C113831   1.684   2.701  14.185  0.0433  0.7476  0.0137
    2MPD2    C213832   1.625   2.708  14.059  0.6780 -0.6029  0.2906
    2MPD2    C313833   1.571   2.591  14.010  0.0257  0.1098  0.0228
    2MPD2    C413834   1.576   2.477  14.083  0.1606  0.0164  0.4104
    2MPD2    C513835   1.633   2.468  14.211 -0.6636 -0.7325 -0.2880
    2MPD2     H13836   1.622   2.799  14.001 -0.4482 -0.7958  0.0370
    2MPD2    H113837   1.533   2.382  14.053 -0.1617 -0.2450  1.7050
    2MPD2    H213838   1.734   2.567  14.358  0.1709  1.3054 -0.0133
    2MPD2    H313839   1.650   2.377  14.266  0.1501 -0.4491 -0.0864
    2MPD2     N13840   1.511   2.601  13.885 -0.1872 -0.0489  0.1890
    2MPD2    H513841   1.488   2.697  13.860 -1.2326 -0.3005  0.1725
    2MPD2    N113842   1.769   2.800  14.234  0.6469  0.5582 -0.1506
    2MPD2    H713843   1.826   2.778  14.315  0.1086  1.3741  0.4399
    3TMC2    C113844   1.900   3.004  14.240  0.4240 -0.6308  0.3874
    3TMC2    C213845   1.894   3.037  14.371  0.3756  0.2542 -0.0833
    3TMC2    C313846   1.954   3.151  14.416 -0.1290  0.3843 -0.2564
    3TMC2    C413847   1.985   3.077  14.157  0.0982  0.4287 -0.2812
    3TMC2    C513848   2.046   3.190  14.203  0.0854  0.4078  0.0336
    3TMC2    C613849   2.037   3.234  14.338  0.2334 -0.3042  0.0916
    3TMC2     C13850   1.793   2.923  14.176  0.1161 -0.8005 -0.9444
    3TMC2     O13851   1.757   2.973  14.072  0.0008  0.3992 -0.3444
    3TMC2     H13852   1.820   2.985  14.431  0.9636 -0.4548  0.0201
    3TMC2    H113853   2.009   3.047  14.056  1.7913  1.5509 -0.2133
    3TMC2    H213854   2.083   3.327  14.369 -0.2105  0.9413 -2.9287
    3TMC2    C713855   2.140   3.273  14.127 -0.6164  0.0684 -0.1280
    3TMC2    C813856   1.926   3.189  14.553 -0.0913  0.4083 -0.8912
    3TMC2    O113857   2.162   3.389  14.154 -0.4083  0.0312  0.1439
    3TMC2    O213858   1.839   3.138  14.616 -0.1173 -0.1903  0.2107
    3TMC2    O513859   2.001   3.292  14.595  0.0529 -0.9359  0.7942
    3TMC2    H513860   2.082   3.312  14.544 -0.5802 -0.4607 -0.0241
    4MPD2     C13861   1.492   3.702  13.896 -0.4953 -0.0012  0.1936
    4MPD2    C113862   1.510   3.710  13.758  0.2597  0.2652 -0.0319
    4MPD2    C213863   1.637   3.733  13.706 -0.0527 -0.4575 -0.3491
    4MPD2    C313864   1.748   3.741  13.789  0.2105 -0.3564 -0.2437
    4MPD2    C413865   1.733   3.728  13.925 -0.6982  0.5316 -0.1635
    4MPD2    C513866   1.604   3.715  13.975 -0.0858 -0.8299  0.9502
    4MPD2     H13867   1.668   3.734  13.602 -0.1115  3.9020 -0.3395
    4MPD2    H113868   1.815   3.715  13.995  0.2860  0.5961 -1.3141
    4MPD2    H213869   1.396   3.694  13.945 -0.4663 -2.6480 -0.1842
    4MPD2    H313870   1.588   3.710  14.082 -0.3725  1.0774  1.0104
    4MPD2     N13871   1.870   3.757  13.717 -0.4998 -0.4692 -0.3296
    4MPD2    H513872   1.860   3.756  13.616  1.7035 -1.6169 -0.5507
    4MPD2    N113873   1.393   3.712  13.678  0.1145  0.7649  0.0022
    4MPD2    H713874   1.303   3.712  13.725 -0.3851 -0.2695 -0.9344
    5TCq2    C113875   1.992   3.766  13.780  0.4069  0.1512  0.0104
    5TCq2    O213876   2.024   3.723  13.890 -0.0807 -0.0064  0.2622
    5TCq2    C213877   2.101   3.785  13.689  0.1934 -0.3888  0.1482
    5TCq2    C313878   2.075   3.778  13.559 -0.2001 -0.3774 -0.0475
    5TCq2    C413879   2.180   3.767  13.468  0.0389 -0.3283  0.7757
    5TCq2    C513880   2.312   3.756  13.509 -0.2314 -0.4075  0.0672
    5TCq2    C613881   2.335   3.755  13.643 -0.1576  0.1564  0.7018
    5TCq2    C713882   2.228   3.768  13.738  0.0074 -0.0258 -0.0852
    5TCq2    C813883   2.421   3.642  13.679  0.5673  0.6480 -0.4840
    5TCq2    O413884   2.520   3.611  13.619 -0.2356 -0.3496 -0.2872
    5TCq2    C913885   2.151   3.730  13.337 -0.1465  0.1282  0.2237
    5TCq2    O513886   2.247   3.697  13.263  0.1609  0.4817 -0.6462
    5TCq2    O613887   2.033   3.704  13.320  0.0639  0.6414 -0.3142
    5TCq2    H213888   1.984   3.810  13.509 -1.0133 -2.1195  0.3105
    5TCq2    H313889   2.383   3.705  13.445 -2.4999 -2.4197 -0.8591
    5TCq2    H413890   2.254   3.784  13.842 -1.8101  1.3044  0.1588
    6MPD1     C13891   0.483   4.710  12.493  0.1444  0.3174 -0.8048
    6MPD1    C113892   0.417   0.001  12.614  0.0165  0.7655  0.0846
    6MPD1    C213893   0.456   4.644  12.714  0.6808  0.1042 -0.3709
    6MPD1    C313894   0.577   4.577  12.716 -0.8083  0.0253  0.0570
    6MPD1    C413895   0.653   4.570  12.602 -0.5625  0.0535  0.0426
    6MPD1    C513896   0.597   4.629  12.488 -0.0495 -0.1816 -0.8190
    6MPD1     H13897   0.389   4.629  12.797 -0.9493 -2.8863 -2.2000
    6MPD1    H113898   0.737   4.508  12.573 -0.4719 -0.2231  0.8875
    6MPD1    H213899   0.450   0.040  12.404 -0.8105 -0.2934 -0.8089
    6MPD1    H313900   0.650   4.636  12.394  0.5562  1.9648 -0.3033
    6MPD1     N13901   0.627   4.513  12.830  0.6545 -0.0344  0.2735
    6MPD1    H513902   0.712   4.458  12.828 -0.1741 -1.4070  2.2470
    6MPD1    N113903   0.286   0.056  12.623  0.0613  0.2177 -0.6109
    6MPD1    H613904   0.275   0.134  12.558 -0.9573 -0.1270 -0.8515
    6MPD1    H713905   0.254   0.082  12.717 -0.1345 -1.7267 -0.1448
    7MPD2     C13906   0.526   3.878  13.289 -0.7418 -1.0328 -0.3319
    7MPD2    C113907   0.615   3.946  13.371 -0.5611 -0.1950  0.1973
    7MPD2    C213908   0.701   3.872  13.453  0.0532  0.2829  0.2792
    7MPD2    C313909   0.702   3.732  13.439  0.6291  0.2519  0.8491
    7MPD2    C413910   0.604   3.665  13.363 -0.6736  0.2894  0.0575
    7MPD2    C513911   0.521   3.738  13.289  0.4882 -0.7098  0.8000
    7MPD2     H13912   0.766   3.926  13.522  0.7595 -0.5857  0.3079
    7MPD2    H113913   0.608   3.557  13.351  4.7558  0.4834  0.3020
    7MPD2    H213914   0.458   3.922  13.217 -0.4784  0.2099  0.1681
    7MPD2    H313915   0.450   3.681  13.231 -1.5723  1.6199  1.0212
    7MPD2     N13916   0.805   3.655  13.485  0.3149 -0.6181  0.0615
    7MPD2    H513917   0.789   3.557  13.468 -0.2097 -0.2045 -1.8599
    7MPD2    N113918   0.640   4.076  13.359  0.3303 -0.1954  0.1221
    7MPD2    H713919   0.724   4.102  13.410 -1.3687  2.7917  1.3885
    8TMC3    C113920   1.034   3.606  13.505  0.5029 -0.0203 -0.1787
    8TMC3    C213921   1.152   3.653  13.563  0.0751 -0.3045 -0.5148
    8TMC3    C313922   1.265   3.672  13.485 -0.0745 -0.2648 -0.1357
    8TMC3    C413923   1.039   3.565  13.376  0.1506  0.2278 -0.2726
    8TMC3    C513924   1.152   3.587  13.295 -0.4430  0.4377  0.0926
    8TMC3    C613925   1.268   3.641  13.351  0.0437  0.0086 -0.4350
    8TMC3     C13926   0.926   3.702  13.527  0.0697 -1.3466  0.0857
    8TMC3     O13927   0.962   3.815  13.563  0.2246  0.1844 -0.4741
    8TMC3     H13928   1.145   3.675  13.669  2.1745  1.0207 -0.6595
    8TMC3    H113929   0.943   3.550  13.328 -0.1647 -1.1674  0.7702
    8TMC3    H213930   1.360   3.642  13.294 -0.1956  0.8890 -0.8176
    8TMC3    C713931   1.116   3.636  13.165  1.0580 -0.6015 -0.1825
    8TMC3    C813932   1.396   3.698  13.543  0.3505 -0.3666 -0.0016
    8TMC3    O113933   1.006   3.628  13.110  0.1865  0.3107  0.6772
    8TMC3    O213934   1.492   3.708  13.466  0.0123  0.4187  0.2252
    9TMC3    C113935   0.634   4.417  13.044  0.0080  0.1806 -0.0039
    9TMC3    C213936   0.764   4.382  13.012 -0.5430 -0.2480  0.2866
    9TMC3    C313937   0.830   4.297  13.097 -0.0686  0.2816  0.4094
    9TMC3    C413938   0.572   4.371  13.164 -0.5546  0.0053  0.2049
    9TMC3    C513939   0.639   4.271  13.241  0.0700  0.9874  0.0363
    9TMC3    C613940   0.771   4.242  13.209  0.1583 -0.6823 -0.4090
    9TMC3     C13941   0.560   4.499  12.948 -0.0653  0.1875 -0.0245
    9TMC3     O13942   0.456   4.553  12.987 -0.7971 -0.6620 -0.8886
    9TMC3     H13943   0.819   4.416  12.925  1.0681 -3.9609 -0.1346
    9TMC3    H113944   0.470   4.390  13.196 -1.6976 -2.0951 -2.2012
    9TMC3    H213945   0.821   4.164  13.266  0.5387  1.1944  1.8119
    9TMC3    C713946   0.562   4.157  13.289 -0.3455 -0.0959 -0.0467
    9TMC3    C813947   0.957   4.248  13.042 -0.1114 -0.3864 -0.3860
    9TMC3    O113948   0.441   4.149  13.261  0.1294  0.4898  0.0863
    9TMC3    O213949   1.011   4.309  12.953  0.1336  0.2389 -0.2953
   10MPD2     C13950   1.317   3.888  12.999 -0.3294  0.1239  0.5228
   10MPD2    C113951   1.205   3.829  13.052 -0.3024  0.0391  0.7695
   10MPD2    C213952   1.091   3.906  13.075 -0.2387 -0.4977 -0.2104
   10MPD2    C313953   1.098   4.043  13.048 -0.1986  0.6260  0.0854
   10MPD2    C413954   1.210   4.095  12.978 -0.7959 -0.4369 -0.4244
   10MPD2    C513955   1.320   4.017  12.955  0.1890 -0.0789 -0.1082
   10MPD2     H13956   1.004   3.863  13.124 -0.4004  0.1707  0.0921
   10MPD2    H113957   1.223   4.201  12.962  0.4283 -0.4227  0.6490
   10MPD2    H213958   1.410   3.832  12.997 -1.6856 -2.1667  1.0770
   10MPD2    H313959   1.420   4.050  12.928 -0.5009  1.2910 -0.9728
   10MPD2     N13960   0.984   4.125  13.081  0.0267 -0.0852 -0.1276
   10MPD2    H513961   0.913   4.080  13.137 -0.6781 -0.4534 -1.3114
   10MPD2    N113962   1.218   3.699  13.103 -0.0124  0.3742 -0.0133
   10MPD2    H713963   1.314   3.669  13.115  0.1317  0.9512  0.3144
   11MPD2     C13964   2.390   3.178  13.877  0.1699  0.8066  0.3699
   11MPD2    C113965   2.307   3.258  13.949 -0.5433  0.9435 -0.3720
   11MPD2    C213966   2.303   3.393  13.910  0.8152  0.3932  0.1181
   11MPD2    C313967   2.385   3.443  13.812  0.3907 -0.0949  0.4389
   11MPD2    C413968   2.484   3.359  13.756 -0.0387  0.3061  0.0816
   11MPD2    C513969   2.477   3.226  13.780 -0.0623  0.6632 -0.6186
   11MPD2     H13970   2.231   3.456  13.962  1.9479  1.7220  0.0816
   11MPD2    H113971   2.555   3.400  13.685  0.9437  0.1783  0.9947
   11MPD2    H213972   2.382   3.071  13.892 -1.4020  1.1515  1.9389
   11MPD2    H313973   2.537   3.156  13.723  1.3571  0.7995  0.6880
   11MPD2     N13974   2.350   3.568  13.766  0.0125 -0.3719 -0.4009
   11MPD2    H513975   2.259   3.606  13.792  1.2147  3.1380 -1.2370
   11MPD2    N113976   2.219   3.200  14.037 -0.3038 -0.0103 -0.1110
   11MPD2    H713977   2.208   3.099  14.030 -0.1372  0.0949 -1.9300
    1MPD1     C13978   4.093   3.910  17.306  0.0208 -0.3390  0.0614
    1MPD1    C113979   4.137   3.940  17.180  1.0564 -0.6098  0.2066
    1MPD1    C213980   4.229   4.037  17.158 -0.5667  0.8755  0.1962
    1MPD1    C313981   4.263   4.122  17.262  1.1657 -0.2600 -0.5805
    1MPD1    C413982   4.206   4.099  17.387  0.3140  0.0233  0.1598
    1MPD1    C513983   4.128   3.992  17.405  0.8969 -0.0138 -0.5125
    1MPD1     H13984   4.264   4.056  17.058 -2.1049 -0.0558 -0.5252
    1MPD1    H113985   4.223   4.163  17.472 -1.2769  0.7149 -0.0486
    1MPD1    H213986   4.021   3.831  17.323 -1.6305  1.0030 -0.8200
    1MPD1    H313987   4.092   3.973  17.505  0.4617  1.3022 -0.4232
    1MPD1     N13988   4.364   4.221  17.256  0.6966 -0.1961 -0.6859
    1MPD1    H513989   4.372   4.275  17.342  1.7694 -0.8372 -0.3939
    1MPD1    N113990   4.109   3.846  17.078  0.5544 -0.3082 -0.3148
    1MPD1    H613991   4.105   3.886  16.985 -0.0781 -1.6358 -0.8556
    1MPD1    H713992   4.018   3.802  17.088  1.2310 -1.4288  0.9708
    2MPD1     C13993   4.264   0.355  17.592  0.2151  0.1016 -0.3281
    2MPD1    C113994   4.370   0.302  17.662  0.2153  0.6253 -0.3731
    2MPD1    C213995   4.431   0.191  17.612  0.0764 -0.2210 -0.1591
    2MPD1    C313996   4.390   0.128  17.497 -0.3107  0.0700 -0.5464
    2MPD1    C413997   4.265   0.173  17.440  0.2707  1.0669  0.4504
    2MPD1    C513998   4.203   0.286  17.488  0.1694 -0.1403  0.1184
    2MPD1     H13999   4.519   0.160  17.667 -0.7227 -1.7785  0.2306
    2MPD1    H114000   4.233   0.127  17.347  3.1155 -1.0387  0.4784
    2MPD1    H214001   4.221   0.451  17.620 -1.8385 -1.0817  0.5238
    2MPD1    H314002   4.110   0.322  17.445  0.0183 -1.0827 -0.3504
    2MPD1     N14003   4.467   0.022  17.442 -0.3912  0.0049 -0.0148
    2MPD1    H514004   4.533   4.699  17.504  0.3428  0.0282 -0.7859
    2MPD1    N114005   4.439   0.377   0.069  0.4573  0.0541 -0.1167
    2MPD1    H614006   4.373   0.420   0.133  1.7945  0.6149  0.9000
    2MPD1    H714007   4.497   0.325   0.135 -1.1332 -2.2230 -0.5225
    3TMC3    C114008   4.534   4.576  17.294 -0.7850 -0.3449 -0.1214
    3TMC3    C214009   4.638   4.607  17.206  0.0385 -0.1977  0.0224
    3TMC3    C314010   4.662   4.518  17.107 -0.4841 -0.2692 -0.4599
    3TMC3    C414011   4.458   4.468  17.264 -0.2067  0.2524 -0.5023
    3TMC3    C514012   4.498   4.383  17.166  0.7138 -0.1747  0.0161
    3TMC3    C614013   4.606   4.401  17.096  0.2791  0.8926 -0.4593
    3TMC3     C14014   4.447   4.691  17.317 -0.0638  0.2038 -0.2523
    3TMC3     O14015   4.372   4.713  17.223 -0.0947  0.4509  0.5718
    3TMC3     H14016   4.684   4.705  17.204  0.4911 -0.3596  2.7611
    3TMC3    H114017   4.359   4.466  17.309  0.6757 -1.6800  1.3780
    3TMC3    H214018   4.622   4.342  17.007 -2.5127 -0.0696 -0.3243
    3TMC3    C714019   4.434   4.253  17.142 -0.1810 -0.6109  0.6425
    3TMC3    C814020   0.049   4.554  17.022  0.1958  0.4772  0.1487
    3TMC3    O114021   4.433   4.209  17.025 -0.2000  0.5398  0.3413
    3TMC3    O214022   0.055   4.672  16.986 -0.1312  0.3970 -0.1628
    4MPD1     C14023   0.544   4.478  16.914  0.5320  1.2212  0.0747
    4MPD1    C114024   0.511   4.407  17.028  0.7296  0.1612 -0.3945
    4MPD1    C214025   0.374   4.396  17.053 -0.1246 -0.0784  0.4151
    4MPD1    C314026   0.279   4.474  16.992 -0.1593  0.2039 -0.3332
    4MPD1    C414027   0.325   4.562  16.894 -0.1750  0.0782 -0.4665
    4MPD1    C514028   0.455   4.555  16.851 -0.3495 -0.0949 -0.2877
    4MPD1     H14029   0.334   4.314  17.112  0.0417 -1.6410 -1.6289
    4MPD1    H114030   0.259   4.630  16.841  0.0103 -0.2350 -1.0951
    4MPD1    H214031   0.640   4.459  16.868 -0.1164 -0.7149 -0.4707
    4MPD1    H314032   0.475   4.613  16.761  0.8661 -0.7524 -0.4380
    4MPD1     N14033   0.146   4.454  17.026 -0.0062  0.1095 -0.0637
    4MPD1    H514034   0.138   4.376  17.092 -2.1048  0.4587  0.0988
    4MPD1    N114035   0.603   4.319  17.084 -0.0276 -0.0985 -0.3832
    4MPD1    H614036   0.697   4.357  17.083  0.0583 -0.3112 -0.3304
    4MPD1    H714037   0.584   4.310  17.183 -0.4595 -0.2509 -0.4795
    1TCq1    O114038   0.728   1.933  11.923  0.3225 -0.6744 -0.1974
    1TCq1    C114039   0.771   2.023  12.015 -0.1885 -0.3789  0.1674
    1TCq1    O214040   0.747   2.024  12.134 -0.5146  0.4083  0.2235
    1TCq1    C214041   0.832   2.131  11.933  0.0050 -0.1814  0.6233
    1TCq1    C314042   0.753   2.184  11.836 -0.6433  0.0961 -0.6260
    1TCq1    C414043   0.783   2.316  11.795  0.2661  0.1330 -0.8016
    1TCq1    C514044   0.897   2.379  11.841 -0.0654 -0.0764  0.6191
    1TCq1    C614045   0.966   2.322  11.939  0.3280 -0.1137 -1.2749
    1TCq1    C714046   0.932   2.197  11.984  0.1970 -0.0412 -0.3867
    1TCq1    C814047   1.076   2.393  11.990 -1.0427  0.3568 -0.7685
    1TCq1    O414048   1.068   2.516  11.987 -0.1372 -0.3322 -0.2455
    1TCq1    C914049   0.725   2.366  11.673  1.0037  1.0548  0.4799
    1TCq1    O514050   0.640   2.287  11.626  0.0172 -0.4253 -0.2529
    1TCq1    O614051   0.778   2.464  11.614  0.2025  0.4144 -0.6125
    1TCq1    H114052   0.766   1.953  11.835 -0.7333  0.0960 -0.4725
    1TCq1    H214053   0.664   2.129  11.807  0.0729 -1.6219  0.4486
    1TCq1    H314054   0.925   2.478  11.806 -1.8813  0.5988  1.0826
    1TCq1    H414055   0.993   2.138  12.052  2.8118  0.7180 -2.0832
    2MPD1     C14056   1.525   2.381  12.229  0.6211 -0.2331  0.1379
    2MPD1    C114057   1.501   2.255  12.176  0.4433 -0.3809  0.2136
    2MPD1    C214058   1.394   2.241  12.093  0.4638  0.2083  0.4769
    2MPD1    C314059   1.301   2.344  12.081 -0.2418  0.4315 -0.2918
    2MPD1    C414060   1.323   2.468  12.140 -0.7328  0.2310 -0.1793
    2MPD1    C514061   1.433   2.482  12.224  0.3595  0.5205  0.0109
    2MPD1     H14062   1.388   2.148  12.038  2.0438  0.0096  0.6256
    2MPD1    H114063   1.254   2.551  12.136  1.3385  1.9181 -0.6428
    2MPD1    H214064   1.615   2.398  12.287  1.5965 -0.9730 -1.1751
    2MPD1    H314065   1.466   2.580  12.257  2.1880 -0.4335  1.0396
    2MPD1     N14066   1.185   2.310  12.004  0.7514  0.3643  0.6266
    2MPD1    H514067   1.177   2.210  11.993 -2.5283  0.8242 -0.8909
    2MPD1    N114068   1.601   2.154  12.168 -0.0061 -0.4437 -0.9385
    2MPD1    H614069   1.554   2.064  12.164  1.0143 -0.9611 -1.2449
    2MPD1    H714070   1.665   2.156  12.247  0.1105 -0.2981 -1.0361
    1TCq1    O114071   0.519   1.579   1.944 -0.1365 -0.0913 -0.0043
    1TCq1    C114072   0.514   1.526   1.819 -0.1168 -0.0296 -0.3511
    1TCq1    O214073   0.564   1.421   1.782  0.2815  0.5893  0.2302
    1TCq1    C214074   0.472   1.635   1.729  0.3876  0.2869 -0.5179
    1TCq1    C314075   0.397   1.741   1.776  0.3380  0.7218  0.4386
    1TCq1    C414076   0.341   1.838   1.694  0.0990  0.2652 -0.3850
    1TCq1    C514077   0.367   1.823   1.560  0.6432 -0.0404 -0.1971
    1TCq1    C614078   0.457   1.732   1.516 -0.0388  0.0101  0.3127
    1TCq1    C714079   0.510   1.634   1.597 -0.0633  0.6877  0.1922
    1TCq1    C814080   0.491   1.729   1.370 -0.5306 -0.5009  0.1348
    1TCq1    O414081   0.578   1.654   1.326 -0.7106 -0.1867 -0.4118
    1TCq1    C914082   0.226   1.907   1.734 -0.1239  0.3834  0.0216
    1TCq1    O514083   0.191   1.999   1.658 -0.1096  0.0236 -0.2929
    1TCq1    O614084   0.159   1.856   1.823 -0.3428 -0.1484  0.3692
    1TCq1    H114085   0.507   1.676   1.936  1.4149  0.1230  0.2341
    1TCq1    H214086   0.342   1.717   1.866 -1.9766  0.1494 -1.1211
    1TCq1    H314087   0.315   1.893   1.496 -0.5721  0.8182  1.7362
    1TCq1    H414088   0.579   1.556   1.569  0.8619  1.3728  0.5539
    2MPD1     C14089   0.372   1.875   0.882  0.0227  0.1494  0.2994
    2MPD1    C114090   0.277   1.928   0.968  0.0324  0.3247 -0.2648
    2MPD1    C214091   0.297   1.911   1.109 -0.0331  0.0363 -0.3573
    2MPD1    C314092   0.387   1.821   1.154  0.5986  0.1448  0.0701
    2MPD1    C414093   0.478   1.764   1.069  0.3808 -0.0713  0.1723
    2MPD1    C514094   0.464   1.791   0.936  0.2626  0.6714 -0.4663
    2MPD1     H14095   0.237   1.971   1.176  0.0817  0.5717 -0.7346
    2MPD1    H114096   0.565   1.707   1.100  0.9154  1.2479  1.1439
    2MPD1    H214097   0.374   1.883   0.774 -0.0166  0.7401  0.3428
    2MPD1    H314098   0.543   1.764   0.868 -0.2994 -0.4554 -0.6750
    2MPD1     N14099   0.404   1.814   1.297  0.0353 -0.3290  0.2695
    2MPD1    H514100   0.329   1.858   1.349 -3.8282 -4.1900 -2.0142
    2MPD1    N114101   0.182   2.020   0.919 -0.0438  0.0832  0.3519
    2MPD1    H614102   0.160   2.000   0.822 -0.4746  3.9920 -0.3748
    2MPD1    H714103   0.095   2.005   0.970  0.2883 -0.6027  0.7148
    1MPD1     C14104   1.833   4.289  12.738 -0.2959 -0.4556  0.3596
    1MPD1    C114105   1.960   4.237  12.732 -0.0799 -0.1718 -0.5705
    1MPD1    C214106   2.028   4.273  12.620 -0.1659 -0.4571  0.0260
    1MPD1    C314107   1.980   4.380  12.544  0.1832 -0.0231 -0.9305
    1MPD1    C414108   1.858   4.440  12.568  0.2153  0.4404 -0.0904
    1MPD1    C514109   1.778   4.384  12.656  0.7377 -0.3733  0.2896
    1MPD1     H14110   2.123   4.226  12.597 -0.3944 -0.0946 -1.6399
    1MPD1    H114111   1.810   4.507  12.497 -1.7994 -0.7383  0.1696
    1MPD1    H214112   1.757   4.251  12.805  1.2268 -2.1708  1.0994
    1MPD1    H314113   1.681   4.424  12.682  1.2608  0.1294  1.5018
    1MPD1     N14114   2.064   4.409  12.435  0.2615  0.0984 -0.3014
    1MPD1    H514115   2.128   4.335  12.409 -0.1671 -0.4864  0.2844
    1MPD1    N114116   1.989   4.121  12.808  0.5088 -0.0442 -0.1572
    1MPD1    H614117   2.089   4.104  12.809  0.5338  0.4455  3.8903
    1MPD1    H714118   1.953   4.138  12.902  0.7510 -2.2107  0.3450
    2MPD1     C14119   1.658   0.056  11.596 -0.0441 -0.6111  0.0263
    2MPD1    C114120   1.610   0.030  11.472 -0.2690  0.0118 -0.3854
    2MPD1    C214121   1.664   4.636  11.417  0.3800  0.1005  0.0734
    2MPD1    C314122   1.763   4.557  11.466 -1.2223  0.5876 -0.1393
    2MPD1    C414123   1.820   4.601  11.580  0.0715  0.1969  0.2436
    2MPD1    C514124   1.761   4.701  11.646 -0.1318  0.0876  0.6348
    2MPD1     H14125   1.609   4.600  11.330  0.0569 -1.2142  0.8175
    2MPD1    H114126   1.899   4.548  11.632  0.8663  1.6959  0.5638
    2MPD1    H214127   1.620   0.135  11.661 -3.7888 -1.4915 -1.0706
    2MPD1    H314128   1.804   0.004  11.743  1.0752  2.2076 -0.4607
    2MPD1     N14129   1.818   4.445  11.407 -0.1653  0.1675 -0.1077
    2MPD1    H514130   1.897   4.406  11.458  1.5018  2.8965 -0.6407
    2MPD1    N114131   1.493   0.088  11.423 -0.6479 -0.4161 -0.0262
    2MPD1    H614132   1.454   0.168  11.473  0.8195  1.1599 -1.4139
    2MPD1    H714133   1.501   0.102  11.323 -0.0135  1.3593  0.2646
    3MPD1     C14134   1.887   3.696  10.577  0.0044  0.0741  0.2822
    3MPD1    C114135   1.984   3.794  10.567  0.4228  0.9893  0.2577
    3MPD1    C214136   1.989   3.893  10.656 -0.1654  0.0401  0.0036
    3MPD1    C314137   1.904   3.898  10.766  0.2886 -0.0080 -0.0792
    3MPD1    C414138   1.805   3.801  10.776 -0.6082 -0.0093 -0.2045
    3MPD1    C514139   1.789   3.712  10.674 -0.1005  0.2111  0.5389
    3MPD1     H14140   2.066   3.968  10.648  0.6171 -0.8854 -1.1550
    3MPD1    H114141   1.729   3.796  10.854 -0.5044 -1.1643 -0.1741
    3MPD1    H214142   1.894   3.606  10.517 -0.0135 -0.3822  0.9588
    3MPD1    H314143   1.719   3.631  10.694  0.5254 -0.3175  0.5669
    3MPD1     N14144   1.927   3.999  10.861  0.1055  0.2216 -0.2586
    3MPD1    H514145   1.995   4.072  10.842  0.4074 -0.7982 -2.9767
    3MPD1    N114146   2.069   3.783  10.453 -0.7941  0.2616 -0.0329
    3MPD1    H614147   2.166   3.814  10.460 -1.7369  3.7140 -1.8698
    3MPD1    H714148   2.070   3.684  10.432  0.1854  0.0389  1.0784
    4MPD2     C14149   2.235   4.644  11.653 -0.2221  0.3587  0.0635
    4MPD2    C114150   2.339   4.664  11.748  0.6799 -0.1987 -0.6342
    4MPD2    C214151   2.470   4.651  11.704 -0.1880  0.0961 -0.4709
    4MPD2    C314152   2.499   4.621  11.576  0.3460  0.1419  0.0779
    4MPD2    C414153   2.398   4.598  11.489  0.0017  0.6659 -0.6540
    4MPD2    C514154   2.266   4.615  11.521 -0.4232 -0.1364  0.0973
    4MPD2     H14155   2.554   4.642  11.772 -1.6570 -0.3762  1.3131
    4MPD2    H114156   2.423   4.559  11.391 -3.0291 -2.5772 -0.1516
    4MPD2    H214157   2.130   4.636  11.679 -0.2609 -0.2590 -0.2824
    4MPD2    H314158   2.191   4.588  11.448 -0.9262 -1.5221  1.1413
    4MPD2     N14159   2.636   4.615  11.543  0.6486 -0.7622 -0.1430
    4MPD2    H514160   2.697   4.648  11.617  1.4598 -1.4609 -0.5024
    4MPD2    N114161   2.317   4.680  11.885  0.1449  0.7143 -0.6595
    4MPD2    H714162   2.393   4.704  11.947 -0.1534  0.1820 -0.0939
    5TMC3    C114163   2.215   4.694  12.094 -0.2763  0.0639  0.2251
    5TMC3    C214164   2.124   4.620  12.153  0.1896 -0.4002  0.3803
    5TMC3    C314165   2.153   4.528  12.250 -1.3122 -0.1038 -0.4324
    5TMC3    C414166   2.345   4.675  12.136  0.1537  0.3082  0.7970
    5TMC3    C514167   2.383   4.571  12.213 -0.1341 -0.0413  0.3906
    5TMC3    C614168   2.284   4.506  12.284 -0.1432  0.1660  0.4756
    5TMC3     C14169   2.198   4.669  11.952  0.1232  0.0944  0.0543
    5TMC3     O14170   2.086   4.636  11.909  0.2037  0.2738 -0.5934
    5TMC3     H14171   2.020   4.610  12.123  0.5326 -0.2435 -0.8533
    5TMC3    H114172   2.427   0.008  12.092  0.8678  0.1753  1.9509
    5TMC3    H214173   2.314   4.443  12.367  1.1690  0.8696  0.5435
    5TMC3    C714174   2.505   4.504  12.177 -0.4410  0.0824 -0.1379
    5TMC3    C814175   2.054   4.523  12.349  0.6799  0.2718 -0.2468
    5TMC3    O114176   2.595   4.571  12.132  0.2691  0.2149  0.2590
    5TMC3    O214177   1.984   4.622  12.356  0.4569  0.2398  0.3155
    6TMC3    C114178   1.861   4.277  11.241 -0.7320  0.6366  0.0084
    6TMC3    C214179   1.819   4.188  11.145  0.0005  0.2461  0.9445
    6TMC3    C314180   1.894   4.127  11.052 -0.4209  0.3365 -0.2666
    6TMC3    C414181   1.995   4.292  11.239 -0.7545 -0.0033 -0.3611
    6TMC3    C514182   2.079   4.228  11.157 -0.6096  0.1164 -1.0495
    6TMC3    C614183   2.030   4.154  11.051  0.4597  0.3459  1.1348
    6TMC3     C14184   1.772   4.389  11.284  0.7295  0.2005 -0.2608
    6TMC3     O14185   1.680   4.419  11.209  0.0986  0.3650 -0.1178
    6TMC3     H14186   1.712   4.183  11.128 -0.0568  0.0190  1.3799
    6TMC3    H114187   2.035   4.350  11.321  0.6127  0.4466 -1.3522
    6TMC3    H214188   2.106   4.109  10.987 -0.3378  1.3225 -0.4940
    6TMC3    C714189   2.225   4.238  11.178 -0.2641 -1.2630  0.3558
    6TMC3    C814190   1.848   4.025  10.969  0.2688 -0.6047 -0.0948
    6TMC3    O114191   2.281   4.343  11.218  0.4659  0.1086  0.2185
    6TMC3    O214192   1.754   3.965  11.012 -0.4261 -0.5276  0.6286
    7MPD2     C14193   2.694   4.108  11.887  0.8857 -0.1563 -0.1932
    7MPD2    C114194   2.725   4.245  11.893  0.3284 -0.4878 -0.3939
    7MPD2    C214195   2.668   4.328  11.988 -0.6964  0.8119 -0.0050
    7MPD2    C314196   2.565   4.282  12.071  0.3045  0.5156  0.4175
    7MPD2    C414197   2.526   4.148  12.059 -0.4416 -0.2831  0.2459
    7MPD2    C514198   2.595   4.071  11.972  0.3961 -0.3060 -0.2957
    7MPD2     H14199   2.684   4.435  11.982  1.3103  0.5918  1.5478
    7MPD2    H114200   2.434   4.099  12.089 -1.0304  0.3689 -0.5067
    7MPD2    H214201   2.733   4.043  11.809 -1.1419 -2.0127  0.3516
    7MPD2    H314202   2.573   3.966  11.958  0.3978 -0.5570  1.5722
    7MPD2     N14203   2.483   4.366  12.152  0.2533 -0.3104 -0.1102
    7MPD2    H514204   2.401   4.324  12.195 -0.1587 -3.2569 -3.8349
    7MPD2    N114205   2.803   4.290  11.782  0.1162 -0.5221 -0.1163
    7MPD2    H714206   2.803   4.219  11.710 -1.0558  1.5034 -2.0924
    8TMC3    C114207   2.905   4.428  11.625 -0.0617  0.3403  0.4453
    8TMC3    C214208   2.930   4.314  11.546 -0.6009  0.2711  0.4169
    8TMC3    C314209   2.921   4.327  11.414  0.0851  0.7442 -0.5468
    8TMC3    C414210   2.881   4.549  11.571 -0.2832  0.3471  0.1276
    8TMC3    C514211   2.838   4.546  11.441  0.7988 -0.0910  0.7915
    8TMC3    C614212   2.882   4.447  11.360 -0.8181  0.0944 -0.0435
    8TMC3     C14213   2.838   4.418  11.756 -0.3042 -0.2582 -0.4734
    8TMC3     O14214   2.798   4.513  11.813 -0.0972 -0.5653 -0.0184
    8TMC3     H14215   2.951   4.219  11.595 -0.4608 -0.5578 -1.2548
    8TMC3    H114216   2.858   4.631  11.639 -1.6624  0.3696 -0.3769
    8TMC3    H214217   2.876   4.458  11.252  0.4460  0.5441 -0.0598
    8TMC3    C714218   2.693   4.569  11.425 -0.1664  0.0772 -0.2401
    8TMC3    C814219   2.865   4.218  11.338 -0.8182 -0.3046  0.1785
    8TMC3    O114220   2.633   4.521  11.331 -0.0446  0.1256 -0.3235
    8TMC3    O214221   2.915   4.107  11.353 -0.0726 -0.0610 -0.1996
    9MPD2     C14222   2.703   4.042  11.172  0.2602  0.2884 -0.0024
    9MPD2    C114223   2.655   4.157  11.225 -0.1877 -0.0370 -0.2464
    9MPD2    C214224   2.523   4.182  11.220 -0.3282 -0.7889  0.3674
    9MPD2    C314225   2.430   4.099  11.168  0.8204 -0.6205  0.3267
    9MPD2    C414226   2.486   3.983  11.109  0.6467 -0.7368  0.5488
    9MPD2    C514227   2.620   3.954  11.109  0.4748 -1.5293 -0.1123
    9MPD2     H14228   2.489   4.271  11.271 -1.0010 -0.9867  0.2639
    9MPD2    H114229   2.427   3.938  11.029  3.1293 -1.8228 -0.6927
    9MPD2    H214230   2.806   4.010  11.171 -1.0212 -3.9547  1.7989
    9MPD2    H314231   2.663   3.884  11.038  0.1346 -1.7389 -0.1071
    9MPD2     N14232   2.289   4.120  11.157 -0.5230 -0.1779 -0.1718
    9MPD2    H514233   2.237   4.036  11.137  0.2013 -0.8791  0.8961
    9MPD2    N114234   2.739   4.251  11.289 -0.0588 -0.6203  0.1085
    9MPD2    H714235   2.709   4.347  11.302  2.4725 -0.0252  1.7194
    1MPD1     C14236   0.625   2.335   0.848 -0.3133 -0.1316  0.1336
    1MPD1    C114237   0.506   2.268   0.859  0.6693  0.2803 -0.0250
    1MPD1    C214238   0.388   2.320   0.797  0.5885 -0.4442  0.0506
    1MPD1    C314239   0.399   2.431   0.717 -0.3828 -0.0035 -0.2558
    1MPD1    C414240   0.517   2.492   0.703 -0.4198  0.5735 -0.0574
    1MPD1    C514241   0.625   2.444   0.770 -0.5041 -0.1602  0.1499
    1MPD1     H14242   0.301   2.258   0.812  0.3640 -0.8058 -2.8526
    1MPD1    H114243   0.524   2.579   0.640 -1.6634  1.6705  1.3099
    1MPD1    H214244   0.713   2.313   0.907  0.9664 -1.8196 -2.4272
    1MPD1    H314245   0.718   2.499   0.757  0.6750 -2.3344 -0.8828
    1MPD1     N14246   0.285   2.486   0.650  0.0380 -0.0184  0.5645
    1MPD1    H514247   0.305   2.567   0.592  0.4321 -1.4682 -1.3529
    1MPD1    N114248   0.496   2.166   0.957 -0.1096 -0.0716  0.4744
    1MPD1    H614249   0.413   2.110   0.942  0.7220 -1.4866  1.1261
    1MPD1    H714250   0.578   2.105   0.951 -0.6752 -0.7448 -0.4767
    2MPD1     C14251   4.397   2.186  17.669 -0.0021  0.5300 -0.1306
    2MPD1    C114252   4.400   2.126   0.103  0.3243  0.1832 -0.2678
    2MPD1    C214253   4.432   2.203   0.214  0.2923  0.1681 -0.5360
    2MPD1    C314254   4.478   2.334   0.190 -0.2127 -0.0665 -0.6615
    2MPD1    C414255   4.489   2.386   0.064  0.2584  0.4858  0.6816
    2MPD1    C514256   4.433   2.318  17.657 -0.2611  0.2800 -0.6584
    2MPD1     H14257   4.430   2.159   0.314  0.8148 -0.3421 -0.7486
    2MPD1    H114258   4.534   2.480   0.034 -1.2801  0.0404 -3.0179
    2MPD1    H214259   4.373   2.129  17.580 -1.4638  0.6661  0.1779
    2MPD1    H314260   4.432   2.363  17.559 -0.7674 -0.0048 -0.7829
    2MPD1     N14261   4.522   2.409   0.300  0.1869  0.2136  0.1081
    2MPD1    H514262   4.515   2.363   0.390 -0.1099  1.1304  0.5418
    2MPD1    N114263   4.382   1.985   0.115 -0.3794 -0.7892  0.3848
    2MPD1    H614264   4.302   1.948   0.065 -0.5914 -2.4373  1.9130
    2MPD1    H714265   4.360   1.967   0.213  0.2004 -0.7371  0.5277
    3TCq2    C114266   4.543   2.542   0.301 -1.2768  0.5870  0.0012
    3TCq2    O214267   4.522   2.619   0.209  0.1996  0.0383 -0.1132
    3TCq2    C214268   4.613   2.593   0.425 -0.3977 -0.7623 -0.3385
    3TCq2    C314269   4.651   2.728   0.431  0.2350 -0.0412  0.2567
    3TCq2    C414270   0.021   2.771   0.523  0.1065  0.1753  0.5543
    3TCq2    C514271   0.086   2.676   0.602  0.4242 -0.6549  0.6083
    3TCq2    C614272   0.064   2.540   0.581 -0.2344 -0.0786  0.3054
    3TCq2    C714273   4.679   2.496   0.503 -0.2978 -0.2245 -0.5741
    3TCq2    C814274   0.152   2.439   0.641  0.2248  0.2030 -0.8134
    3TCq2    O414275   0.096   2.340   0.684 -0.1241 -0.2700  0.7366
    3TCq2    C914276   0.075   2.905   0.533  0.5244  0.2633  0.0755
    3TCq2    O514277   0.169   2.932   0.610  0.0106  0.3489 -0.3418
    3TCq2    O614278   0.025   2.988   0.450  0.2865 -0.0356  0.2065
    3TCq2    H214279   4.602   2.792   0.359 -1.3768  0.3410  1.6831
    3TCq2    H314280   0.155   2.717   0.675  1.2473 -1.7474  0.4332
    3TCq2    H414281   4.683   2.389   0.485 -0.2273 -0.0893 -1.3885
    1TCq1    O114282   3.746   1.861  12.341 -0.5541  0.5719 -0.4482
    1TCq1    C114283   3.813   1.745  12.329 -0.2502  0.5399 -0.2691
    1TCq1    O214284   3.756   1.634  12.335 -0.1120 -0.2558  0.2456
    1TCq1    C214285   3.953   1.769  12.367 -0.1527 -0.8101 -0.3609
    1TCq1    C314286   4.012   1.680  12.447  0.3711 -0.2207 -0.4649
    1TCq1    C414287   4.136   1.693  12.488  0.7811 -0.3985 -0.3601
    1TCq1    C514288   4.206   1.799  12.444  0.7501 -0.4885 -0.2517
    1TCq1    C614289   4.142   1.902  12.379  0.2199  0.0850 -0.1496
    1TCq1    C714290   4.011   1.887  12.332  0.1368  0.1820 -0.0256
    1TCq1    C814291   4.201   2.034  12.366  0.3870 -0.5812 -0.1726
    1TCq1    O414292   4.141   2.114  12.294  0.5911 -0.4210  0.1632
    1TCq1    C914293   4.182   1.594  12.584  0.2120 -0.7394  0.0336
    1TCq1    O514294   4.099   1.513  12.635 -0.5513  0.3804 -0.0442
    1TCq1    O614295   4.295   1.616  12.624 -0.0053 -0.8544  0.3929
    1TCq1    H114296   3.807   1.934  12.364 -0.2684  0.1455  0.1396
    1TCq1    H214297   3.954   1.589  12.462  0.0793 -0.1269 -1.0221
    1TCq1    H314298   4.309   1.799  12.477 -0.1690  0.0266  2.5879
    1TCq1    H414299   3.967   1.956  12.260  1.1199 -0.0617 -0.8588
    2MPD2     C14300   4.368   2.268  12.383 -0.0844 -0.4440 -0.0319
    2MPD2    C114301   4.392   2.155  12.462  0.8276 -0.6420  0.4170
    2MPD2    C214302   4.493   2.161  12.559 -0.6415  0.7131  0.2034
    2MPD2    C314303   4.583   2.268  12.556  0.0457 -0.0849 -0.6940
    2MPD2    C414304   4.556   2.377  12.468 -0.1769  0.1555  0.0078
    2MPD2    C514305   4.445   2.381  12.397 -0.6336  0.3773 -0.6939
    2MPD2     H14306   4.513   2.074  12.621 -0.8120  1.0390  0.7145
    2MPD2    H114307   4.619   2.465  12.463 -0.1191  0.0851 -0.5398
    2MPD2    H214308   4.299   2.275  12.300  0.1955  0.8267 -0.1604
    2MPD2    H314309   4.433   2.460  12.323 -5.1682 -0.2509 -0.6125
    2MPD2     N14310   4.700   2.252  12.630 -0.3658  0.4702  0.4829
    2MPD2    H514311   4.700   2.167  12.685  1.0253  1.1253  1.5049
    2MPD2    N114312   4.307   2.041  12.452  0.0016  0.5146 -0.3158
    2MPD2    H714313   4.333   1.964  12.513  1.2365 -0.0599 -1.5831
    3TCq1    O114314   0.310   2.412  13.170  0.1998 -0.2444  0.0170
    3TCq1    C114315   0.301   2.484  13.054 -0.0440 -0.5274  0.3011
    3TCq1    O214316   0.311   2.607  13.028  0.3876  0.2481 -0.2364
    3TCq1    C214317   0.285   2.385  12.943 -0.6828 -0.8842  0.8307
    3TCq1    C314318   0.323   2.255  12.970 -0.2580 -0.9230 -0.4872
    3TCq1    C414319   0.291   2.162  12.876 -0.0504 -0.5130 -0.4466
    3TCq1    C514320   0.220   2.189  12.763 -0.2864  0.1045  0.2002
    3TCq1    C614321   0.164   2.316  12.756  0.4664 -0.1053  0.7935
    3TCq1    C714322   0.204   2.421  12.836  0.1020 -0.2634  0.1350
    3TCq1    C814323   0.074   2.345  12.644  0.5830  0.2070  0.2353
    3TCq1    O414324   0.077   2.461  12.601 -0.4129  0.1606 -0.4666
    3TCq1    C914325   0.342   2.032  12.888  0.0981 -0.2466  0.3526
    3TCq1    O514326   0.425   2.018  12.980  0.8363 -0.0168  0.0445
    3TCq1    O614327   0.307   1.934  12.815 -0.2132  0.3112  0.0242
    3TCq1    H114328   0.260   2.330  13.150 -1.1881  0.5321  0.3093
    3TCq1    H214329   0.387   2.227  13.053  1.9343  1.5337 -1.3477
    3TCq1    H314330   0.201   2.108  12.693  0.3084  0.8729 -0.8703
    3TCq1    H414331   0.189   2.524  12.806  0.0013 -0.4523 -0.4753
    1MPD2     C14332   4.521   3.381  14.948  0.0538  0.2380  0.1765
    1MPD2    C114333   4.423   3.298  14.894  0.0130 -0.5888  0.0197
    1MPD2    C214334   4.465   3.187  14.824  1.0346  0.0328  0.2667
    1MPD2    C314335   4.596   3.152  14.807 -0.6152 -0.0349 -0.2029
    1MPD2    C414336   4.689   3.236  14.858  0.3461  0.1501  0.5288
    1MPD2    C514337   4.659   3.351  14.930 -0.7226  0.0456 -0.2106
    1MPD2     H14338   4.391   3.118  14.783  1.6509 -2.5388  3.5046
    1MPD2    H114339   0.070   3.216  14.836  0.2608 -0.2923  0.5175
    1MPD2    H214340   4.489   3.473  14.997  1.8421  1.2640 -0.5961
    1MPD2    H314341   0.008   3.423  14.966 -0.7900  0.7601 -1.4943
    1MPD2     N14342   4.644   3.039  14.729  0.3907  0.0826 -1.0813
    1MPD2    H514343   0.021   3.020  14.731  0.0025 -1.7158  0.8534
    1MPD2    N114344   4.286   3.331  14.915  0.7396  0.7750  0.9206
    1MPD2    H714345   4.266   3.425  14.947  0.1066  0.5399  1.2098
    2TMC3    C114346   4.056   3.314  14.870 -0.4405 -0.3180  0.0026
    2TMC3    C214347   3.956   3.221  14.871  0.0149 -0.5635 -0.5431
    2TMC3    C314348   3.881   3.215  14.759  0.2351  0.1548 -0.2130
    2TMC3    C414349   4.065   3.410  14.771 -0.0900 -0.3629  0.0792
    2TMC3    C514350   3.984   3.409  14.665 -0.7013 -0.3373  0.1039
    2TMC3    C614351   3.885   3.312  14.663  0.3153 -0.4040  0.5256
    2TMC3     C14352   4.181   3.245  14.889 -0.8415 -0.0777 -0.5565
    2TMC3     O14353   4.182   3.126  14.862  0.3035 -0.1678 -0.1651
    2TMC3     H14354   3.958   3.147  14.949 -1.0808  0.0834  0.1110
    2TMC3    H114355   4.146   3.483  14.779  0.7699 -1.6227  2.8746
    2TMC3    H214356   3.841   3.277  14.570 -0.0340  0.7863  0.2493
    2TMC3    C714357   3.995   3.494  14.553  0.3746  0.1759  0.1194
    2TMC3    C814358   3.863   3.080  14.702 -0.1165 -0.0660 -0.5527
    2TMC3    O114359   3.903   3.497  14.472  0.0570 -0.1247 -0.1262
    2TMC3    O214360   3.772   3.055  14.625  0.0642 -0.9033 -0.1972
    3TCq1    O114361   0.054   4.416  14.638  0.0570  0.3393 -0.0781
    3TCq1    C114362   0.090   4.362  14.520 -0.7594  0.2143 -0.0209
    3TCq1    O214363   0.198   4.385  14.465 -0.1060 -0.2909  0.7413
    3TCq1    C214364   0.036   4.226  14.520  0.1227  0.9766  0.3116
    3TCq1    C314365   0.094   4.143  14.612  0.6775 -0.3181  0.0104
    3TCq1    C414366   0.026   4.023  14.649  0.4405 -0.2651 -0.0669
    3TCq1    C514367   4.644   3.978  14.573 -0.1981  0.3263 -0.3954
    3TCq1    C614368   4.585   4.069  14.483  0.6294 -0.1581  0.3005
    3TCq1    C714369   4.651   4.190  14.447 -0.9177 -0.2802 -0.3318
    3TCq1    C814370   4.455   4.039  14.417 -0.3838  0.4289 -0.2665
    3TCq1    O414371   4.409   4.121  14.339  0.5455 -0.4023 -0.1527
    3TCq1    C914372   0.102   3.947  14.750  0.1256 -0.2917  0.2486
    3TCq1    O514373   0.058   3.837  14.796  0.2243 -0.1830 -0.0342
    3TCq1    O614374   0.206   3.997  14.796 -0.4075 -0.3529 -0.5811
    3TCq1    H114375   4.697   4.378  14.682  0.1320 -0.1944 -0.4074
    3TCq1    H214376   0.176   4.177  14.674  1.5465 -2.5153  0.0705
    3TCq1    H314377   4.608   3.878  14.594 -0.9928  0.5540 -0.6526
    3TCq1    H414378   4.598   4.261  14.386 -1.5402 -1.0024 -0.6342
    4MPD2     C14379   4.207   3.893  14.316  0.5127 -0.3199 -0.3797
    4MPD2    C114380   4.289   3.850  14.421  0.5128  0.2844  0.6362
    4MPD2    C214381   4.261   3.731  14.482  0.5537  0.8273  0.1784
    4MPD2    C314382   4.148   3.658  14.460  0.5582  0.5836 -0.2350
    4MPD2    C414383   4.078   3.698  14.345 -0.6183  0.0982 -0.0916
    4MPD2    C514384   4.100   3.812  14.276  0.2947 -0.6540  0.1307
    4MPD2     H14385   4.322   3.697  14.565  0.0253 -0.3508  0.0877
    4MPD2    H114386   3.996   3.637  14.311  0.4184 -1.7389  0.6929
    4MPD2    H214387   4.226   3.987  14.267  0.5159 -0.4972 -0.7217
    4MPD2    H314388   4.033   3.846  14.198 -0.0677  0.4589  0.9287
    4MPD2     N14389   4.118   3.560  14.550  0.8304  0.1948  0.6020
    4MPD2    H514390   4.189   3.529  14.615 -1.6193 -2.9676  1.7531
    4MPD2    N114391   4.406   3.918  14.460 -0.0850 -0.4223 -0.4657
    4MPD2    H714392   4.466   3.868  14.526 -0.1249 -1.5367 -1.2625
    5TMC2    C114393   4.519   2.646  14.516 -0.3935  0.0053 -0.1381
    5TMC2    C214394   4.595   2.556  14.590  0.2100  0.4375  0.0411
    5TMC2    C314395   4.684   2.624  14.678  0.3454  0.4730 -0.0304
    5TMC2    C414396   4.539   2.780  14.509 -0.0699  0.0641 -0.5994
    5TMC2    C514397   4.630   2.840  14.600  0.0892 -0.9847  0.3982
    5TMC2    C614398   4.705   2.757  14.681 -1.1520  0.6738 -0.7203
    5TMC2     C14399   4.378   2.612  14.519  0.0655  0.1845  0.6679
    5TMC2     O14400   4.343   2.497  14.513 -0.3471  0.1463 -0.4530
    5TMC2     H14401   4.562   2.456  14.615  1.7643  0.3358  1.6525
    5TMC2    H114402   4.476   2.844  14.449  1.1716  1.9078  0.0871
    5TMC2    H214403   0.036   2.805  14.761 -1.9236 -0.3360  0.4013
    5TMC2    C714404   4.559   2.947  14.667 -0.3257 -0.1821 -0.2686
    5TMC2    C814405   0.039   2.549  14.776 -0.4669 -0.7033  0.1201
    5TMC2    O114406   4.440   2.954  14.642  0.2026  0.0113  0.1421
    5TMC2    O214407   0.084   2.599  14.876  0.5082 -0.0337 -0.1337
    5TMC2    O514408   0.110   2.455  14.711 -0.0867  0.0494 -0.1834
    5TMC2    H514409   0.076   2.429  14.623 -0.4745 -0.0769  0.0073
    6MPD2     C14410   3.906   2.801  14.612 -0.3619 -0.7861 -0.1503
    6MPD2    C114411   4.001   2.888  14.666  0.3807  0.1886  0.6323
    6MPD2    C214412   4.133   2.864  14.660  0.5837 -0.6465  0.2271
    6MPD2    C314413   4.173   2.743  14.600 -0.1491 -0.0013 -0.4420
    6MPD2    C414414   4.081   2.653  14.551  0.2742 -0.1142  0.1984
    6MPD2    C514415   3.948   2.680  14.557 -0.5753  0.4139 -0.2720
    6MPD2     H14416   4.193   2.946  14.698  1.3210  0.1151 -2.5423
    6MPD2    H114417   4.101   2.548  14.532 -0.2393  0.1303 -1.7097
    6MPD2    H214418   3.801   2.824  14.623 -0.1476 -0.2399  0.7589
    6MPD2    H314419   3.875   2.609  14.520 -0.6009  0.0427  0.4815
    6MPD2     N14420   4.312   2.719  14.585  0.4266 -0.0343 -0.4543
    6MPD2    H514421   4.364   2.801  14.612  3.2379 -1.9448 -0.0835
    6MPD2    N114422   3.973   3.005  14.733 -0.5152  0.6057  0.4646
    6MPD2    H714423   4.048   3.042  14.791 -0.0294 -0.4236  0.5094
  945NH3     N114424   2.092   1.793  11.495  0.0677 -0.4896  0.1271
  945NH3     H214425   2.066   1.778  11.592 -0.5472  1.5435  0.2774
  945NH3     H314426   2.000   1.793  11.452  0.5826 -1.3746 -0.9808
  945NH3     H414427   2.134   1.711  11.452  1.4116  0.5393 -0.5115
  946SOD     NA14428   2.013   2.788  15.308 -0.2448  0.0649  0.2760
  947SOD     NA14429   0.029   2.713  15.059  0.1159  0.1305 -0.2752
  948SOD     NA14430   2.212   3.143  16.223  0.3565  0.5222 -0.1697
  949SOD     NA14431   3.242   1.221  11.783  0.1876 -0.5966  0.4662
  950SOD     NA14432   2.274   0.877   2.105 -0.6772  0.1046  0.3321
  951SOD     NA14433   4.616   0.505  17.361 -0.4036  0.6333 -0.0380
  952SOD     NA14434   1.182   3.175   9.515  0.2981 -0.0324 -0.4969
  953SOD     NA14435   2.898   0.479   0.377  0.3767 -0.4881  0.0529
  954SOD     NA14436   1.201   0.133  13.978  0.1743 -0.3426  0.4199
  955SOD     NA14437   1.013   2.225  14.630 -0.5549  0.2034  0.1076
  956SOD     NA14438   4.070   2.757  11.149  0.3109  0.0206 -0.4368
  957SOD     NA14439   0.013   1.805   0.539 -0.0940 -0.2879 -0.0492
  958SOD     NA14440   0.461   3.159  11.277  0.5474 -0.4523  0.1237
  959SOD     NA14441   2.799   1.907  12.912  0.2455  0.1267  0.6768
  960SOD     NA14442   1.619   3.132  13.942 -0.5477  0.1813  0.0531
  961SOD     NA14443   3.145   2.441  11.202  0.0985 -0.0035 -0.2363
  962SOD     NA14444   1.737   3.200  11.005  0.6479 -0.1925 -0.2029
  963SOD     NA14445   0.110   4.418   3.847  0.7809  0.1128  0.0389
  964SOD     NA14446   1.094   4.579   2.379  0.0527  0.0139 -0.1161
  965SOD     NA14447   4.266   1.792  11.261 -0.2140  0.4544 -0.0316
  966SOD     NA14448   4.599   3.511  14.574  0.1058 -0.2347  0.0729
  967SOD     NA14449   1.726   2.473   1.613 -0.2184  0.1331 -0.0609
  968SOD     NA14450   3.436   2.487  10.217 -0.4958 -0.0847 -0.4583
  969SOD     NA14451   4.528   2.737   2.333 -0.4255 -0.1602 -0.0985
  970SOD     NA14452   0.287   2.744  11.960 -0.1436  0.0328 -0.3665
  971SOD     NA14453   0.675   1.950  12.574 -0.3413 -0.2836 -0.4560
  972SOD     NA14454   4.208   2.800  10.145  0.2606 -0.0805 -0.2465
  973SOD     NA14455   3.004   0.240  16.052 -0.3903 -0.7678 -0.1590
  974SOD     NA14456   2.805   1.710  16.685 -0.1106  0.1509 -0.5282
  975SOD     NA14457   1.825   3.599  16.068  0.1873  0.2531 -0.2416
  976SOD     NA14458   3.757   3.663   0.737  0.1622 -0.3523 -0.1047
  977SOD     NA14459   1.024   1.864  13.260  0.2303 -0.0167 -0.5973
  978SOD     NA14460   4.316   2.833   9.474  0.0927  0.4906 -0.2760
  979SOD     NA14461   4.254   1.338  12.880 -0.2299 -0.0132 -0.3227
  980SOD     NA14462   4.567   1.033  10.733  0.3018  0.0565  0.1040
  981SOD     NA14463   1.623   3.473   5.549 -0.2175 -0.1040  0.3645
  982SOD     NA14464   0.612   4.269   8.591 -0.0346 -0.1310  0.0329
  983SOD     NA14465   2.199   0.995   1.803 -0.4675  0.0301 -0.0186
  984SOD     NA14466   0.046   1.019  10.517 -0.7950  0.2075  0.2840
  985SOD     NA14467   0.358   4.145   1.383 -0.0597 -0.0571 -0.0616
  986SOD     NA14468   3.153   2.282   7.642 -0.2275  0.3167 -0.4529
  987SOD     NA14469   4.528   1.216   8.687 -0.0258  0.1085 -0.2998
  988SOD     NA14470   0.099   1.214  10.767 -0.0395  0.6977  0.0667
  989SOD     NA14471   0.904   1.684  11.620  0.0445  0.4359 -0.3384
  990SOD     NA14472   4.380   0.834   9.936 -0.3295  0.3756 -0.2446
  991SOD     NA14473   0.220   3.778  14.925 -0.2432  0.4938 -0.0446
  992SOD     NA14474   0.430   2.292  11.601 -0.4591  0.3459 -0.2855
  993SOD     NA14475   4.374   3.199   2.294  0.1671  0.2119  0.0200
  994SOD     NA14476   0.252   2.657  11.620  0.2084  0.5981  0.2355
  995SOD     NA14477   1.777   3.780  12.690  0.1347 -0.2835 -0.3178
  996SOD     NA14478   0.100   3.030   0.256 -0.5548  0.0805  0.0303
  997SOD     NA14479   1.700   1.116  16.773 -0.0268  0.0045 -0.3230
  998SOD     NA14480   1.428   1.927  14.806 -0.1581  0.3925  0.3919
  999SOD     NA14481   2.144   0.983   1.150 -0.3830  0.0838 -0.2259
 1000SOD     NA14482   1.053   3.134   1.131  0.0214 -0.3665  0.2632
 1001SOD     NA14483   2.306   3.962   2.356  0.2965  0.3870  0.0960
 1002SOD     NA14484   1.275   3.114  13.589  0.1984 -0.5469 -0.6453
 1003SOD     NA14485   1.868   3.145  13.732 -0.0019 -0.3677 -0.1922
 1004SOD     NA14486   4.516   0.749  12.930  0.3787 -0.0182  0.0356
 1005SOD     NA14487   2.321   1.017  13.791 -0.1032  0.0805  0.0156
 1006SOD     NA14488   3.775   0.483   9.474 -0.0209 -0.5001  0.1357
 1007SOD     NA14489   2.960   4.169   7.573  0.2326  0.1247 -0.1209
 1008SOD     NA14490   0.653   2.397  11.414  0.0020 -0.7143 -0.0643
 1009SOD     NA14491   4.573   0.050  16.135 -0.7161 -0.4472  0.0234
 1010SOD     NA14492   4.193   3.432   2.279 -0.2848 -0.3588  0.5528
 1011SOD     NA14493   0.524   2.855  11.709  0.2003 -0.6334  0.5038
 1012SOL     OW14494   1.381   0.144  12.017 -0.8468  0.3986  0.5790
 1012SOL    HW114495   1.468   0.141  12.057  0.4272  0.1590 -2.2526
 1012SOL    HW214496   1.335   0.068  12.053 -1.5296  1.3562  1.7517
 1013SOL     OW14497   0.537   0.149  16.803  0.5929 -0.5540  0.0391
 1013SOL    HW114498   0.532   0.160  16.898 -0.3135  0.9919 -0.1777
 1013SOL    HW214499   0.632   0.147  16.789  0.7902  0.5433  1.1840
 1014SOL     OW14500   1.238   3.505   6.268  0.1701 -0.4818  0.3396
 1014SOL    HW114501   1.267   3.582   6.220 -2.3237  0.0499 -0.3114
 1014SOL    HW214502   1.201   3.457   6.194 -1.6624  0.3306  0.7269
 1015SOL     OW14503   3.078   2.806  12.042 -0.0932 -0.1813  0.3372
 1015SOL    HW114504   2.985   2.789  12.054 -0.1266  0.2056  0.6190
 1015SOL    HW214505   3.085   2.882  12.100 -0.0739 -0.3692  0.5792
 1016SOL     OW14506   1.863   3.175   9.935 -0.1535  0.1102  0.4372
 1016SOL    HW114507   1.899   3.114   9.870 -1.7085 -1.4107  1.0150
 1016SOL    HW214508   1.781   3.147   9.975 -0.5982  0.6563 -0.0877
 1017SOL     OW14509   2.488   0.313   9.384 -0.6528 -0.0617  0.1886
 1017SOL    HW114510   2.574   0.354   9.377  0.2472 -1.6285  1.9251
 1017SOL    HW214511   2.514   0.223   9.405 -1.8071 -0.4444  0.0180
 1018SOL     OW14512   2.404   1.528  14.199  0.2816  0.6479 -0.5975
 1018SOL    HW114513   2.476   1.495  14.146  0.8044  1.0556 -0.1425
 1018SOL    HW214514   2.388   1.615  14.164 -0.1358  1.0038  0.4904
 1019SOL     OW14515   2.598   4.004   4.765 -0.2287 -0.0053  0.0691
 1019SOL    HW114516   2.576   3.940   4.698  0.0169 -0.9889  0.9271
 1019SOL    HW214517   2.575   4.085   4.720 -1.9184 -0.3560  0.3222
 1020SOL     OW14518   2.766   2.341  11.450  0.0308  0.6168  0.3219
 1020SOL    HW114519   2.852   2.315  11.416  0.9106  2.2260  1.3202
 1020SOL    HW214520   2.788   2.375  11.537 -1.7113  0.2192  0.9160
 1021SOL     OW14521   2.617   3.706   2.074  0.2369  0.0327 -0.5909
 1021SOL    HW114522   2.613   3.797   2.044 -2.9650  0.0551 -0.1050
 1021SOL    HW214523   2.682   3.732   2.139  0.4056 -0.4810 -0.5516
 1022SOL     OW14524   0.771   0.217   4.621  0.1471  0.1033 -0.3128
 1022SOL    HW114525   0.763   0.122   4.620  0.8340  0.0414 -0.0161
 1022SOL    HW214526   0.705   0.236   4.687 -0.5237 -2.9788 -0.1041
 1023SOL     OW14527   0.153   2.336   9.504  1.0213  0.6592  0.2796
 1023SOL    HW114528   0.171   2.391   9.429 -0.2301  0.7712  0.0632
 1023SOL    HW214529   0.161   2.252   9.460 -1.7412  1.3553 -1.5442
 1024SOL     OW14530   2.849   2.978  16.146  0.4257 -0.2897 -0.6820
 1024SOL    HW114531   2.879   3.036  16.076  0.3468 -0.3478 -0.7637
 1024SOL    HW214532   2.770   3.028  16.165  3.0781  2.7232  2.3587
 1025SOL     OW14533   3.623   2.901  10.184  0.3332 -0.1998 -0.0318
 1025SOL    HW114534   3.643   2.994  10.176  0.4611 -0.0450  2.1136
 1025SOL    HW214535   3.632   2.891  10.278  0.9262 -0.9404 -0.1646
 1026SOL     OW14536   0.749   3.939  13.077 -0.1510 -0.0599 -0.2157
 1026SOL    HW114537   0.699   3.988  13.011 -1.5719 -1.5557 -0.2497
 1026SOL    HW214538   0.692   3.865  13.097  0.4292 -0.4984 -0.1636
 1027SOL     OW14539   0.310   2.457  16.624  0.1514  0.0869 -0.0704
 1027SOL    HW114540   0.307   2.552  16.629 -0.8851 -0.0774  2.4148
 1027SOL    HW214541   0.238   2.439  16.563 -0.5266 -0.1391  0.7976
 1028SOL     OW14542   1.001   0.692   8.323  0.1974 -0.4555  0.0947
 1028SOL    HW114543   1.086   0.704   8.365 -0.2418  0.4286  0.7356
 1028SOL    HW214544   0.956   0.643   8.392 -1.3645  0.2963 -0.3855
 1029SOL     OW14545   1.349   3.918   7.147 -0.3908 -0.3678  0.3113
 1029SOL    HW114546   1.370   3.923   7.240 -0.0388 -2.0853  0.3221
 1029SOL    HW214547   1.324   3.825   7.147 -2.7005  0.2467  0.1014
 1030SOL     OW14548   0.366   2.675   0.427 -0.5966  0.0232  0.3291
 1030SOL    HW114549   0.437   2.643   0.372 -1.1308 -1.0460  0.2524
 1030SOL    HW214550   0.301   2.608   0.404 -1.8123  0.4978  2.3499
 1031SOL     OW14551   0.942   2.622   2.165 -0.6869 -0.2404 -0.5476
 1031SOL    HW114552   0.868   2.677   2.140 -0.5309  0.4464  0.5087
 1031SOL    HW214553   0.913   2.531   2.156 -1.9858  0.2038 -0.8725
 1032SOL     OW14554   0.041   3.527   1.641 -0.5385  0.8454 -0.8778
 1032SOL    HW114555   0.046   3.525   1.545  2.4047  0.2242 -0.7270
 1032SOL    HW214556   0.042   3.620   1.662 -1.1844  1.0665 -1.8187
 1033SOL     OW14557   4.155   1.582  10.587  0.2042  0.5583 -0.1719
 1033SOL    HW114558   4.243   1.571  10.621  0.2925  0.5298 -0.4070
 1033SOL    HW214559   4.099   1.541  10.653  0.1105  0.8530 -0.0679
 1034SOL     OW14560   3.098   3.688   6.419 -0.6242 -0.0326  0.5702
 1034SOL    HW114561   3.038   3.614   6.431 -1.5411  0.6133 -0.0194
 1034SOL    HW214562   3.071   3.751   6.485 -0.4875 -0.4790  1.0504
 1035SOL     OW14563   1.258   0.288   2.310  0.0131 -0.6412  0.0280
 1035SOL    HW114564   1.340   0.296   2.261  1.0165  1.6870  2.0572
 1035SOL    HW214565   1.198   0.305   2.238 -1.3298 -0.0682  1.2899
 1036SOL     OW14566   4.633   0.370  12.282  0.2688 -0.3762 -0.3450
 1036SOL    HW114567   4.671   0.389  12.196  1.7567 -0.3894  0.3201
 1036SOL    HW214568   4.664   0.280  12.293  1.7602  0.0804 -0.8493
 1037SOL     OW14569   4.570   0.932   9.869  0.1948 -0.3791 -0.0197
 1037SOL    HW114570   4.645   0.885   9.834  0.0319  1.2660 -2.6281
 1037SOL    HW214571   4.609   1.014   9.901  2.7265 -1.3773 -0.5600
 1038SOL     OW14572   0.089   1.915   6.737  0.2360  0.4015  0.5435
 1038SOL    HW114573   0.163   1.953   6.690 -0.2409  0.9279  0.2236
 1038SOL    HW214574   0.020   1.956   6.685  0.1973 -2.3988 -1.6072
 1039SOL     OW14575   2.395   0.084   5.035  0.9865 -0.2068  0.3424
 1039SOL    HW114576   2.361   0.133   5.109 -0.0299  1.8017 -1.4627
 1039SOL    HW214577   2.318   0.035   5.008  0.3132  1.0426 -0.0081
 1040SOL     OW14578   3.237   1.758   3.758  0.4839  0.2965 -1.0522
 1040SOL    HW114579   3.324   1.793   3.737  1.1439 -0.5844  0.2715
 1040SOL    HW214580   3.210   1.703   3.684  0.4703 -1.7589  0.4912
 1041SOL     OW14581   2.419   2.278   8.829  0.5505  0.3903  0.2776
 1041SOL    HW114582   2.500   2.226   8.837  0.7217  0.4769 -0.9237
 1041SOL    HW214583   2.454   2.362   8.859  1.0819  0.4649 -0.5342
 1042SOL     OW14584   1.154   0.046  16.696 -0.4845  0.3041 -0.4384
 1042SOL    HW114585   1.239   0.005  16.711  0.6866  2.9274 -0.0700
 1042SOL    HW214586   1.100   4.699  16.657  0.9130 -1.4892  0.8423
 1043SOL     OW14587   1.258   2.323   2.507  0.5053 -0.0762  0.1718
 1043SOL    HW114588   1.268   2.246   2.564 -1.1211 -1.0782 -0.9156
 1043SOL    HW214589   1.344   2.366   2.516  0.8171 -0.4184 -1.1851
 1044SOL     OW14590   2.528   0.749   9.218 -0.5147 -0.1326 -0.0300
 1044SOL    HW114591   2.532   0.801   9.138  2.1979 -0.4250 -0.0960
 1044SOL    HW214592   2.593   0.683   9.196  0.5930  0.1324  2.4019
 1045SOL     OW14593   2.946   2.499   8.342 -0.2559 -0.2517 -0.6663
 1045SOL    HW114594   2.984   2.574   8.297 -2.7531  0.7035 -1.2096
 1045SOL    HW214595   2.864   2.538   8.374  2.6714  1.8218  4.3307
 1046SOL     OW14596   2.136   4.457   7.649  0.1880  0.3925  0.5043
 1046SOL    HW114597   2.231   4.462   7.643  0.0216  2.5488 -0.4531
 1046SOL    HW214598   2.127   4.367   7.619 -0.5438  0.1892  1.3272
 1047SOL     OW14599   0.753   1.748   8.730  0.1800 -0.6149  1.0001
 1047SOL    HW114600   0.748   1.783   8.819  0.0873  0.6890  0.4739
 1047SOL    HW214601   0.845   1.760   8.709 -0.1277  1.9036  1.0719
 1048SOL     OW14602   1.009   2.298  17.381  0.4042  0.4083 -0.8110
 1048SOL    HW114603   0.996   2.392  17.394 -0.1736  0.1958  0.1299
 1048SOL    HW214604   0.970   2.277  17.296  0.9571  0.0133 -0.9728
 1049SOL     OW14605   3.333   1.209   1.493 -0.4047  0.5033 -0.2901
 1049SOL    HW114606   3.307   1.117   1.492 -1.5837  0.8250  0.7889
 1049SOL    HW214607   3.247   1.249   1.485 -0.2775  0.9674  0.7162
 1050SOL     OW14608   0.743   2.987  14.632 -0.3610 -0.4661  0.4485
 1050SOL    HW114609   0.783   2.907  14.667  0.1292 -1.2880 -1.9675
 1050SOL    HW214610   0.705   2.949  14.553  0.4563 -2.9295  1.2332
 1051SOL     OW14611   2.585   3.198   4.164 -0.2536 -0.6172  0.3924
 1051SOL    HW114612   2.628   3.117   4.137 -2.4602 -1.6016 -0.2292
 1051SOL    HW214613   2.530   3.206   4.086 -0.0426 -0.9818  0.2063
 1052SOL     OW14614   1.465   1.105   9.015 -0.1687  0.1970 -0.6346
 1052SOL    HW114615   1.558   1.127   9.016 -0.1068 -0.0565 -0.7507
 1052SOL    HW214616   1.474   1.019   8.974  0.7964 -1.1075  2.3074
 1053SOL     OW14617   2.765   3.478   3.384 -0.0377  0.0972  0.1114
 1053SOL    HW114618   2.824   3.458   3.312  2.0460 -0.8608  2.0810
 1053SOL    HW214619   2.820   3.536   3.437 -0.8565 -0.3677  1.4840
 1054SOL     OW14620   0.273   3.164   0.634 -0.7870 -0.4500 -0.5820
 1054SOL    HW114621   0.254   3.174   0.540 -1.1324  2.0609 -0.2619
 1054SOL    HW214622   0.231   3.082   0.660 -1.9903 -0.2907 -1.9682
 1055SOL     OW14623   2.531   1.642   4.110 -0.2948 -0.0053  0.2436
 1055SOL    HW114624   2.614   1.641   4.062 -0.5177  0.8068 -0.1617
 1055SOL    HW214625   2.461   1.608   4.053 -1.6774 -0.3613  2.1608
 1056SOL     OW14626   4.160   0.514   3.894 -0.1281 -0.1115  0.0382
 1056SOL    HW114627   4.234   0.507   3.954  0.2961 -0.7409 -0.5580
 1056SOL    HW214628   4.091   0.527   3.959  0.5294 -1.0403  0.9131
 1057SOL     OW14629   2.010   0.001   3.738  0.0287 -0.1611  0.4493
 1057SOL    HW114630   2.086   0.055   3.712 -0.7559 -0.4187 -2.3378
 1057SOL    HW214631   1.940   0.066   3.731  0.2608  0.2260  1.6909
 1058SOL     OW14632   3.776   3.094   5.497 -0.6623  0.0218 -0.0519
 1058SOL    HW114633   3.765   3.161   5.565  2.0787 -2.1387  2.5509
 1058SOL    HW214634   3.690   3.085   5.457 -0.4499  1.2354 -0.7707
 1059SOL     OW14635   4.511   1.428   4.555  0.1311  0.4021  0.0779
 1059SOL    HW114636   4.558   1.486   4.615  1.2356 -0.3106 -0.0971
 1059SOL    HW214637   4.579   1.395   4.495  1.8919  0.4037  2.0804
 1060SOL     OW14638   4.215   4.016   7.386  0.7933  0.6093  0.3385
 1060SOL    HW114639   4.264   3.975   7.457 -0.9783 -0.7803  0.7506
 1060SOL    HW214640   4.215   3.943   7.324  1.6519 -1.3476  2.6445
 1061SOL     OW14641   2.699   1.454   8.215 -0.0760 -0.4193  0.0444
 1061SOL    HW114642   2.737   1.517   8.275 -1.2159  1.5405 -1.2900
 1061SOL    HW214643   2.695   1.380   8.276  1.1751 -1.4268 -1.0841
 1062SOL     OW14644   2.473   1.162   2.273 -0.5377  0.1541  0.2312
 1062SOL    HW114645   2.520   1.166   2.190 -0.0209  1.4027  0.5908
 1062SOL    HW214646   2.467   1.066   2.276  1.7409  0.0284  1.2177
 1063SOL     OW14647   3.747   2.763   5.815 -0.4418  0.1475 -0.5508
 1063SOL    HW114648   3.755   2.853   5.847 -2.7751  0.1086  0.1285
 1063SOL    HW214649   3.736   2.717   5.898 -0.4146 -1.5012 -1.4468
 1064SOL     OW14650   1.744   2.635   6.192 -0.6338  0.1375  0.4537
 1064SOL    HW114651   1.747   2.643   6.288  0.2537  2.4104  0.2314
 1064SOL    HW214652   1.836   2.623   6.169 -0.6446  1.1832 -0.1172
 1065SOL     OW14653   2.933   2.685   6.237 -0.2942  0.1105  0.9769
 1065SOL    HW114654   2.849   2.693   6.192 -0.4641  1.7212  1.5767
 1065SOL    HW214655   2.990   2.727   6.173  0.3459 -0.0372  1.4540
 1066SOL     OW14656   2.347   1.506   3.926 -0.3950 -0.5235 -0.3064
 1066SOL    HW114657   2.387   1.497   3.839  1.2776  0.0669  0.4309
 1066SOL    HW214658   2.255   1.485   3.906  0.1308 -1.2405 -2.0197
 1067SOL     OW14659   3.350   0.152   5.087  0.2155 -0.5382 -0.2571
 1067SOL    HW114660   3.281   0.140   5.021  1.8008  1.4729 -2.2909
 1067SOL    HW214661   3.346   0.066   5.129 -0.0495  2.0389  4.9957
 1068SOL     OW14662   3.691   4.006  13.405 -0.1633  0.1534  0.0571
 1068SOL    HW114663   3.678   3.943  13.476 -1.8827  1.9246  1.3103
 1068SOL    HW214664   3.632   3.973  13.337 -2.5592  1.1251  1.6614
 1069SOL     OW14665   1.469   2.498  17.004  0.1002 -0.1451 -0.0247
 1069SOL    HW114666   1.500   2.417  17.045  1.8253  1.6703  2.2753
 1069SOL    HW214667   1.537   2.517  16.940  0.5638  2.1106  1.1377
 1070SOL     OW14668   1.276   3.553  17.062 -0.4198 -0.1049  0.7328
 1070SOL    HW114669   1.240   3.610  16.993 -0.1871 -0.8913 -0.0363
 1070SOL    HW214670   1.275   3.610  17.139 -1.4271  0.0216  0.6291
 1071SOL     OW14671   3.465   4.140  10.579 -0.0269  0.2164 -0.2145
 1071SOL    HW114672   3.434   4.064  10.530 -0.3556  0.3221 -0.1699
 1071SOL    HW214673   3.436   4.113  10.666 -0.6208 -3.5889 -1.6165
 1072SOL     OW14674   2.145   3.788  16.792  0.1451 -0.4402 -0.1562
 1072SOL    HW114675   2.090   3.730  16.846  0.6011  0.3317  1.1343
 1072SOL    HW214676   2.138   3.872  16.837  2.4045 -1.1593  1.5281
 1073SOL     OW14677   4.351   1.394   5.672 -0.3978  0.9792 -0.1161
 1073SOL    HW114678   4.379   1.312   5.632 -0.8041 -0.0330  1.6809
 1073SOL    HW214679   4.283   1.422   5.611  1.1774  1.3580 -1.6969
 1074SOL     OW14680   3.813   4.551   8.440  0.6423  0.0473 -0.4593
 1074SOL    HW114681   3.760   4.484   8.397  0.5005  0.0397 -0.2718
 1074SOL    HW214682   3.767   4.634   8.429 -0.2296 -0.6341 -1.9137
 1075SOL     OW14683   2.816   1.264   7.806  0.0562  0.4277 -0.1304
 1075SOL    HW114684   2.751   1.195   7.817  0.2178  0.6657  2.4129
 1075SOL    HW214685   2.831   1.260   7.712 -0.0809 -0.0724 -0.1274
 1076SOL     OW14686   3.418   3.105   9.714 -0.6117 -0.4750 -0.0404
 1076SOL    HW114687   3.372   3.143   9.639  0.3582  0.0919 -0.3477
 1076SOL    HW214688   3.362   3.133   9.787 -0.2425  1.2355 -0.4075
 1077SOL     OW14689   0.278   0.501  17.107  0.0007  0.4324  0.2891
 1077SOL    HW114690   0.216   0.435  17.140  1.4022 -1.1263 -0.1799
 1077SOL    HW214691   0.297   0.556  17.183 -0.7530 -0.4402  1.1107
 1078SOL     OW14692   4.077   4.684   7.827  0.0256  0.3108 -0.0263
 1078SOL    HW114693   4.106   0.022   7.758 -3.1254  1.1232 -0.6431
 1078SOL    HW214694   4.082   4.596   7.789  0.6080  1.2240 -2.0707
 1079SOL     OW14695   0.233   4.055   9.206  0.7234  0.0239 -0.0745
 1079SOL    HW114696   0.305   4.064   9.143 -0.1233 -1.9799 -1.3390
 1079SOL    HW214697   0.251   3.970   9.247 -1.6360 -0.6694 -0.4835
 1080SOL     OW14698   1.888   3.610  12.231  0.1861 -0.9051 -0.1355
 1080SOL    HW114699   1.959   3.590  12.170  0.3779  0.1497 -0.2476
 1080SOL    HW214700   1.836   3.534  12.203  1.1850 -1.3084 -0.8956
 1081SOL     OW14701   1.027   2.577  17.467  0.5997  0.1296 -0.4056
 1081SOL    HW114702   0.968   2.652  17.467  0.3611 -0.0641 -0.7765
 1081SOL    HW214703   1.108   2.619  17.438  0.3462 -0.0007 -1.2832
 1082SOL     OW14704   3.538   4.530   2.816 -0.1056  0.0445 -0.3430
 1082SOL    HW114705   3.609   4.525   2.753 -0.3427 -1.9627 -0.4663
 1082SOL    HW214706   3.504   4.616   2.793 -0.5884  0.2774  1.2010
 1083SOL     OW14707   2.769   3.450   0.241 -0.2055  0.7352  0.7598
 1083SOL    HW114708   2.759   3.534   0.285  1.4916  0.7097  1.1934
 1083SOL    HW214709   2.734   3.394   0.310 -0.3259 -0.3754 -0.1890
 1084SOL     OW14710   3.080   1.945   8.992  0.1045 -0.2019  0.9714
 1084SOL    HW114711   3.164   1.992   8.994  1.3386 -2.2978 -1.3900
 1084SOL    HW214712   3.025   1.992   9.054  0.7126 -1.0295  2.1508
 1085SOL     OW14713   1.674   2.062   3.034  0.3303 -0.6818 -0.6562
 1085SOL    HW114714   1.591   2.105   3.056  1.1166  1.3144 -1.5944
 1085SOL    HW214715   1.663   1.969   3.053 -0.7120 -0.7271 -1.4811
 1086SOL     OW14716   3.809   2.611   3.542 -0.3976 -0.4504  0.7113
 1086SOL    HW114717   3.802   2.577   3.631 -0.2330  1.8166  1.5853
 1086SOL    HW214718   3.784   2.533   3.492 -0.9341  1.6723 -2.3590
 1087SOL     OW14719   0.832   4.061   0.616 -0.0881  0.2549 -0.5197
 1087SOL    HW114720   0.782   3.982   0.633 -0.1803  0.6116  0.8326
 1087SOL    HW214721   0.891   4.035   0.545 -0.9864  0.3802 -1.3065
 1088SOL     OW14722   0.684   0.004  17.394 -0.2738  0.2542  0.8697
 1088SOL    HW114723   0.747   0.006  17.466  1.0338 -0.6490 -0.2698
 1088SOL    HW214724   0.616   0.057  17.437 -1.1564  1.5021 -2.1126
 1089SOL     OW14725   2.149   1.119   4.218  0.4534  0.1373 -0.2798
 1089SOL    HW114726   2.218   1.167   4.173  1.2622 -2.9645 -2.3623
 1089SOL    HW214727   2.079   1.109   4.154 -0.1933 -3.3262  0.9508
 1090SOL     OW14728   4.427   0.190   8.389  0.1838  0.1073 -0.0239
 1090SOL    HW114729   4.417   0.113   8.333  1.6470 -1.0822  1.3819
 1090SOL    HW214730   4.402   0.151   8.472 -0.0504  0.1416 -0.0783
 1091SOL     OW14731   2.899   2.075   8.772 -0.4312 -0.1316 -0.7222
 1091SOL    HW114732   2.942   2.025   8.842  0.3403  3.6906  1.5648
 1091SOL    HW214733   2.907   2.008   8.704 -0.9622  0.5666 -1.4682
 1092SOL     OW14734   3.384   3.965  14.120  0.0219  0.4228  0.1855
 1092SOL    HW114735   3.441   4.039  14.098 -0.5519  1.1906  1.2804
 1092SOL    HW214736   3.328   3.958  14.044  0.4921 -0.7530 -0.0586
 1093SOL     OW14737   0.452   2.235   6.369 -0.3793 -0.3197 -0.2425
 1093SOL    HW114738   0.500   2.155   6.346 -0.2809 -0.0695 -0.9251
 1093SOL    HW214739   0.524   2.295   6.389  0.3115 -0.6233 -1.8052
 1094SOL     OW14740   4.349   0.552   7.761 -0.3575  0.3515  0.3111
 1094SOL    HW114741   4.408   0.616   7.722 -0.5561  1.2075  1.4428
 1094SOL    HW214742   4.385   0.470   7.727 -0.1136  0.7460 -0.3882
 1095SOL     OW14743   2.753   2.288   1.760  0.3145 -0.0793 -0.2146
 1095SOL    HW114744   2.668   2.294   1.803  0.4841 -1.6583  0.3508
 1095SOL    HW214745   2.736   2.307   1.668 -1.1881 -1.3177 -0.1951
 1096SOL     OW14746   1.090   3.855   9.250  0.1247  0.5195 -0.7272
 1096SOL    HW114747   0.997   3.831   9.241  0.2966  0.1500 -1.5558
 1096SOL    HW214748   1.121   3.808   9.173  3.2992  2.6147 -0.7060
 1097SOL     OW14749   2.843   0.310   2.891 -0.1040 -0.3828  0.1852
 1097SOL    HW114750   2.773   0.293   2.829  0.5462  0.1602 -0.6980
 1097SOL    HW214751   2.890   0.390   2.867 -1.5620  0.6355  0.7003
 1098SOL     OW14752   2.159   0.001   1.532 -0.1317  0.8106  0.1267
 1098SOL    HW114753   2.120   0.083   1.501 -1.5430 -0.0985 -0.5116
 1098SOL    HW214754   2.185   0.017   1.623 -1.9234  3.4871  0.1842
 1099SOL     OW14755   4.112   3.515   2.768  0.4228  0.1765  0.1169
 1099SOL    HW114756   4.039   3.569   2.738  1.5286  0.6501 -1.7208
 1099SOL    HW214757   4.094   3.421   2.774  0.1267  0.0559 -2.4977
 1100SOL     OW14758   1.882   2.079  16.400  0.7231  0.9497 -0.3713
 1100SOL    HW114759   1.916   2.083  16.311  0.7202 -2.8700 -0.5585
 1100SOL    HW214760   1.943   2.142  16.439 -1.4401  2.3875  0.6806
 1101SOL     OW14761   0.310   3.293   1.396 -0.2523 -0.1595 -0.4488
 1101SOL    HW114762   0.380   3.256   1.343 -1.7535 -1.9652 -1.1762
 1101SOL    HW214763   0.352   3.290   1.482  0.0459 -1.1236 -0.6280
 1102SOL     OW14764   0.286   3.092   8.854  0.3132  0.5281 -0.9454
 1102SOL    HW114765   0.199   3.133   8.854  0.8483  1.6570 -0.5981
 1102SOL    HW214766   0.273   3.003   8.820  1.8105  0.1162 -0.4394
 1103SOL     OW14767   2.884   2.910  14.184  0.4538 -0.5719  0.4167
 1103SOL    HW114768   2.935   2.986  14.156 -2.9418  1.8364  0.7978
 1103SOL    HW214769   2.887   2.924  14.278 -1.6842  0.3978  0.3549
 1104SOL     OW14770   4.516   0.801  11.613  0.2671 -0.5726  0.5765
 1104SOL    HW114771   4.455   0.759  11.674 -0.7660 -2.6489 -1.8632
 1104SOL    HW214772   4.449   0.854  11.570  0.2358 -1.5417 -0.5798
 1105SOL     OW14773   4.553   4.410   6.346  0.3126 -0.1022  0.2781
 1105SOL    HW114774   4.501   4.478   6.389  0.4017 -0.1582  0.4757
 1105SOL    HW214775   4.530   4.417   6.254 -0.0961 -2.0691  0.2369
 1106SOL     OW14776   3.245   3.505   4.944 -0.3609 -0.2088 -0.2565
 1106SOL    HW114777   3.306   3.494   5.017 -2.4061  3.9625  2.0905
 1106SOL    HW214778   3.275   3.436   4.885 -2.4167  0.1629 -1.7478
 1107SOL     OW14779   2.703   2.592   8.425  0.4820  0.0531  0.3412
 1107SOL    HW114780   2.630   2.609   8.366 -0.4713 -0.3635  1.3977
 1107SOL    HW214781   2.673   2.626   8.509  2.5126  0.1107  1.0303
 1108SOL     OW14782   4.579   2.810   5.420  0.0124  0.2678  0.3505
 1108SOL    HW114783   4.607   2.737   5.365  0.8966  0.0418  1.0984
 1108SOL    HW214784   4.665   2.852   5.428 -0.1471  0.8606 -1.0338
 1109SOL     OW14785   3.308   2.610  15.760 -0.6231  0.5682 -0.2236
 1109SOL    HW114786   3.353   2.601  15.675 -0.8748 -2.2278 -0.0768
 1109SOL    HW214787   3.233   2.659  15.728 -0.6715  1.7522  1.7296
 1110SOL     OW14788   1.143   1.944  17.422 -0.1636 -0.0154 -0.0433
 1110SOL    HW114789   1.169   1.853  17.414  0.5103  0.3526 -2.1767
 1110SOL    HW214790   1.048   1.944  17.430 -0.3239 -0.3159 -1.9614
 1111SOL     OW14791   4.355   2.913   7.785 -0.1591 -0.5365  0.4726
 1111SOL    HW114792   4.436   2.950   7.748 -1.4482  1.1347 -0.6942
 1111SOL    HW214793   4.309   2.991   7.817 -0.1704 -0.8997  1.3473
 1112SOL     OW14794   1.434   0.184   5.418  0.2662 -0.1290  0.1477
 1112SOL    HW114795   1.490   0.143   5.351  0.5427  0.6922 -0.1206
 1112SOL    HW214796   1.421   0.111   5.479 -0.7988 -1.2529 -1.4314
 1113SOL     OW14797   2.681   2.227   7.056 -0.7904  0.6729  0.2130
 1113SOL    HW114798   2.654   2.149   7.104  0.7506 -0.1276 -0.1916
 1113SOL    HW214799   2.664   2.295   7.120  0.3404  0.1535  1.0688
 1114SOL     OW14800   0.485   4.507   5.608  0.1485  0.2139 -0.2782
 1114SOL    HW114801   0.466   4.575   5.673  2.3437 -0.5151  1.1235
 1114SOL    HW214802   0.398   4.467   5.602  0.1677 -0.0784  1.2821
 1115SOL     OW14803   3.573   1.961  12.549 -0.6375  0.0342 -0.0618
 1115SOL    HW114804   3.656   1.932  12.586 -0.3369 -0.4437 -1.1097
 1115SOL    HW214805   3.604   1.998  12.467 -1.0195 -2.3015 -1.2660
 1116SOL     OW14806   0.963   0.336   6.919  0.0433  0.9476 -0.2698
 1116SOL    HW114807   0.918   0.354   6.836 -1.0506  0.7103  0.2688
 1116SOL    HW214808   0.901   0.275   6.959  0.9486 -1.6694 -2.8589
 1117SOL     OW14809   3.884   1.052   2.017  0.1563  0.1894 -0.4820
 1117SOL    HW114810   3.797   1.012   2.010  0.7433 -1.1295 -0.2448
 1117SOL    HW214811   3.867   1.145   2.032 -1.0744 -0.3014  1.1554
 1118SOL     OW14812   4.540   0.656  10.824  0.6083 -0.1852 -0.5185
 1118SOL    HW114813   4.592   0.734  10.845 -0.5434  0.5328 -0.3176
 1118SOL    HW214814   4.571   0.633  10.736  0.4174 -0.9465 -0.3863
 1119SOL     OW14815   0.825   1.441  15.118  0.2347 -0.5984  0.2077
 1119SOL    HW114816   0.884   1.444  15.193  0.3574 -1.8970  0.1598
 1119SOL    HW214817   0.741   1.432  15.163  0.4532  0.6160  0.8587
 1120SOL     OW14818   3.020   2.088  15.130 -0.6909 -0.0853 -0.6795
 1120SOL    HW114819   3.115   2.095  15.122 -0.5329 -1.5292  0.0021
 1120SOL    HW214820   3.020   1.993  15.129 -0.2705 -0.1300  2.4621
 1121SOL     OW14821   3.038   2.605   4.949  0.7238 -0.4589 -0.6257
 1121SOL    HW114822   2.952   2.588   4.911  0.4160 -0.7205  0.2035
 1121SOL    HW214823   3.080   2.661   4.883  2.7302 -1.2265  0.0117
 1122SOL     OW14824   2.784   4.546   7.392  0.9260  0.1807  0.1670
 1122SOL    HW114825   2.706   4.580   7.436 -0.3530  0.4636 -2.3343
 1122SOL    HW214826   2.768   4.580   7.304  0.6647 -2.0081 -0.6363
 1123SOL     OW14827   1.377   0.672   8.112  0.0134 -0.1740  0.1997
 1123SOL    HW114828   1.394   0.697   8.203  0.9447 -0.1218  0.0169
 1123SOL    HW214829   1.389   0.754   8.065 -0.7623 -0.5511 -0.6588
 1124SOL     OW14830   0.011   1.291   8.769 -0.7339 -0.0286  0.5509
 1124SOL    HW114831   0.082   1.228   8.784 -0.2136  0.7100  1.1973
 1124SOL    HW214832   0.068   1.363   8.745 -0.7314  0.7201  2.8047
 1125SOL     OW14833   0.835   2.210   7.023  0.5339 -0.5977  0.1887
 1125SOL    HW114834   0.803   2.299   7.036 -2.6319 -1.3903 -2.3245
 1125SOL    HW214835   0.903   2.212   7.090  1.0910 -3.0459 -0.3034
 1126SOL     OW14836   2.925   2.456  11.145 -0.0214 -0.1996 -0.0470
 1126SOL    HW114837   2.885   2.475  11.230  0.0497 -1.5366  0.2877
 1126SOL    HW214838   2.868   2.506  11.087  2.4218  1.8625 -0.6551
 1127SOL     OW14839   0.741   3.077   3.961  0.1903 -0.6914  0.4741
 1127SOL    HW114840   0.787   3.104   4.041 -1.9397  0.5649  1.2723
 1127SOL    HW214841   0.669   3.028   4.000 -2.0088  1.0479 -1.4045
 1128SOL     OW14842   3.120   3.168   4.850 -0.1414 -0.2939  0.3800
 1128SOL    HW114843   3.141   3.187   4.758 -2.1231 -2.3421 -0.4925
 1128SOL    HW214844   3.189   3.216   4.897  2.4482 -4.8890  1.3304
 1129SOL     OW14845   0.615   3.878   5.293 -0.2165  0.5555 -0.3031
 1129SOL    HW114846   0.544   3.873   5.357 -1.7613  3.0917 -1.8405
 1129SOL    HW214847   0.578   3.919   5.215  0.6735  0.1183 -0.9617
 1130SOL     OW14848   1.872   2.476   8.916  0.1740 -0.5271  0.2156
 1130SOL    HW114849   1.777   2.464   8.917  0.3120 -1.7125 -0.5638
 1130SOL    HW214850   1.887   2.560   8.959  2.5453 -1.1756  0.6549
 1131SOL     OW14851   1.019   4.297   1.421  0.1672  0.0980  0.8011
 1131SOL    HW114852   1.104   4.305   1.463 -0.6135  1.3351  2.1540
 1131SOL    HW214853   1.027   4.213   1.376 -0.1546  1.5450 -1.9587
 1132SOL     OW14854   3.370   1.104  11.921 -0.2812 -0.5172 -0.1621
 1132SOL    HW114855   3.378   1.116  12.016  0.0793 -3.2888  0.1610
 1132SOL    HW214856   3.458   1.068  11.907  2.1480  5.9044 -1.3958
 1133SOL     OW14857   1.868   4.043   2.302 -0.3350 -0.6306  0.0016
 1133SOL    HW114858   1.775   4.048   2.281 -0.7111 -0.5795  1.7180
 1133SOL    HW214859   1.891   3.970   2.243 -0.4436 -0.8081  0.1814
 1134SOL     OW14860   3.886   1.147   6.803  0.2023 -0.8012 -0.0556
 1134SOL    HW114861   3.897   1.052   6.808  1.9896 -0.5644  0.4296
 1134SOL    HW214862   3.960   1.179   6.853 -0.3345 -1.8421  1.3890
 1135SOL     OW14863   3.464   1.322   3.625  0.5814  0.6638 -0.3239
 1135SOL    HW114864   3.427   1.234   3.628 -3.2311  2.3393  2.2016
 1135SOL    HW214865   3.387   1.367   3.589  0.6972  1.9798  1.1051
 1136SOL     OW14866   3.391   0.236   4.530  0.5512 -0.0948  0.0634
 1136SOL    HW114867   3.427   0.170   4.471  1.5565  0.8875 -0.4419
 1136SOL    HW214868   3.468   0.273   4.574  0.4869 -1.0588  0.9905
 1137SOL     OW14869   0.562   1.083   5.778 -0.5375  0.5409 -0.0435
 1137SOL    HW114870   0.475   1.114   5.805 -0.7122 -0.9624  1.1646
 1137SOL    HW214871   0.601   1.086   5.866  0.6596  3.0805 -0.6911
 1138SOL     OW14872   1.790   2.402   4.084 -0.0406  0.1203  0.1009
 1138SOL    HW114873   1.730   2.356   4.144  0.7549 -0.1727  0.6753
 1138SOL    HW214874   1.874   2.355   4.089  0.4895  1.1685  1.0470
 1139SOL     OW14875   3.051   1.758   5.700  0.0214 -0.1074 -0.0974
 1139SOL    HW114876   3.096   1.806   5.769 -1.2011  0.6204  0.2053
 1139SOL    HW214877   2.962   1.751   5.736 -0.4061 -0.4585 -1.2155
 1140SOL     OW14878   1.952   1.765   5.519  0.5103 -0.1835  0.0601
 1140SOL    HW114879   1.980   1.693   5.463 -1.2719 -0.8451  0.0259
 1140SOL    HW214880   1.959   1.839   5.459  1.7926 -0.1970  0.2024
 1141SOL     OW14881   2.395   1.003   3.508  0.1812  0.1817  0.4366
 1141SOL    HW114882   2.441   1.084   3.489  1.5655 -1.1972 -2.0325
 1141SOL    HW214883   2.306   1.038   3.507  0.2325  0.2872 -1.1164
 1142SOL     OW14884   2.279   3.840   3.101  0.3737 -0.8738 -0.2021
 1142SOL    HW114885   2.196   3.886   3.109  0.9513 -0.0758  1.3061
 1142SOL    HW214886   2.320   3.883   3.026 -1.5220  0.4861 -0.4320
 1143SOL     OW14887   3.771   0.317  10.141 -0.1159 -0.6852 -0.5052
 1143SOL    HW114888   3.854   0.355  10.171 -0.9600 -0.0876  1.0457
 1143SOL    HW214889   3.785   0.222  10.150 -0.7912 -0.8532 -1.1858
 1144SOL     OW14890   0.900   3.981  11.496 -0.3448  0.4260  0.1002
 1144SOL    HW114891   0.913   4.025  11.412 -1.8399  0.6974  0.0143
 1144SOL    HW214892   0.954   4.035  11.555  1.2708 -0.6292 -0.4327
 1145SOL     OW14893   1.043   2.682   9.355  0.3602 -0.1809 -0.0545
 1145SOL    HW114894   1.024   2.732   9.435 -2.3652  0.1645 -0.9138
 1145SOL    HW214895   1.080   2.754   9.303  0.8773 -0.6444 -0.3220
 1146SOL     OW14896   0.124   3.892   5.339 -0.5047 -0.2290 -0.3364
 1146SOL    HW114897   0.053   3.864   5.396  0.1954 -2.0373 -0.3723
 1146SOL    HW214898   0.169   3.956   5.394 -0.2481 -2.1657  1.6869
 1147SOL     OW14899   1.950   0.933  14.876  0.1383 -0.3712 -0.2660
 1147SOL    HW114900   2.038   0.937  14.840  0.2196 -1.6726 -0.2045
 1147SOL    HW214901   1.962   0.965  14.965  0.5501 -1.7055  0.1501
 1148SOL     OW14902   4.156   4.260   3.871 -0.1852  0.3370 -0.0720
 1148SOL    HW114903   4.226   4.209   3.829  0.5685  1.5438 -0.2624
 1148SOL    HW214904   4.194   4.347   3.865 -2.1438  1.2474  0.4653
 1149SOL     OW14905   2.226   2.212   4.708 -0.0028  0.3091 -0.5656
 1149SOL    HW114906   2.172   2.289   4.687 -2.5542 -0.8246  1.8880
 1149SOL    HW214907   2.158   2.146   4.713 -0.8177  1.0214 -1.9693
 1150SOL     OW14908   0.232   2.109   4.199 -0.0963  0.1045 -0.2067
 1150SOL    HW114909   0.236   2.016   4.177  0.4336 -0.4046  2.0436
 1150SOL    HW214910   0.215   2.109   4.293  1.1385  0.1824  0.0218
 1151SOL     OW14911   1.160   3.353  12.199  0.3408 -0.1805 -0.1975
 1151SOL    HW114912   1.142   3.406  12.121  2.8343  0.3567 -0.4083
 1151SOL    HW214913   1.203   3.419  12.254  0.9564 -2.2015  1.7607
 1152SOL     OW14914   0.104   0.840   4.039  0.2586  0.3855 -0.4805
 1152SOL    HW114915   0.158   0.803   4.108  0.5860 -1.8963 -1.9466
 1152SOL    HW214916   0.030   0.780   4.046  0.4144  0.1002 -1.2468
 1153SOL     OW14917   4.672   0.481  11.750  0.0273  0.4635  0.0421
 1153SOL    HW114918   0.026   0.451  11.701  1.2217  0.7883  1.7414
 1153SOL    HW214919   4.627   0.536  11.685 -3.8903 -3.3896 -0.4823
 1154SOL     OW14920   4.226   1.753   7.152 -0.2097  0.3532 -0.2688
 1154SOL    HW114921   4.269   1.697   7.088  1.6457  0.5534  0.8127
 1154SOL    HW214922   4.196   1.687   7.214  1.0988 -1.7177 -1.8418
 1155SOL     OW14923   0.618   2.082   2.496 -0.1237 -0.4158 -0.1306
 1155SOL    HW114924   0.677   2.109   2.566  1.9399  0.5059 -2.2463
 1155SOL    HW214925   0.660   2.121   2.419 -1.4949  1.3411  0.0013
 1156SOL     OW14926   0.856   2.706   3.208 -0.1407  0.3257 -0.6398
 1156SOL    HW114927   0.763   2.684   3.209  0.2823 -1.3711  0.5206
 1156SOL    HW214928   0.885   2.686   3.119 -0.1511 -0.6183 -0.4241
 1157SOL     OW14929   1.675   3.623  11.132  0.8515 -0.2869  0.5915
 1157SOL    HW114930   1.752   3.567  11.144  1.6807  1.2671  2.5119
 1157SOL    HW214931   1.610   3.561  11.165  0.9553 -0.7272 -0.0100
 1158SOL     OW14932   2.175   2.440   7.511  0.2225 -0.0054 -0.2333
 1158SOL    HW114933   2.111   2.398   7.568 -0.2120 -1.6252 -1.9230
 1158SOL    HW214934   2.193   2.524   7.553 -0.0757 -0.3231  0.5315
 1159SOL     OW14935   0.125   4.142   0.482  0.5030  0.5285  0.1181
 1159SOL    HW114936   0.197   4.196   0.449  0.5947  0.9162  0.9315
 1159SOL    HW214937   0.093   4.094   0.406  0.9994 -0.6779  0.6811
 1160SOL     OW14938   3.968   3.220   6.274 -0.0920 -0.1996 -0.2935
 1160SOL    HW114939   4.064   3.218   6.272 -0.1050 -2.0663  0.8892
 1160SOL    HW214940   3.949   3.128   6.293  0.1964  0.0013  0.9732
 1161SOL     OW14941   3.040   3.726   3.700  0.1936  0.1274  0.2913
 1161SOL    HW114942   3.133   3.707   3.694  0.3903  1.8701 -2.3220
 1161SOL    HW214943   3.046   3.814   3.735 -1.9997  0.2069  0.4602
 1162SOL     OW14944   1.890   3.263   3.765 -0.2827  0.4872  0.1818
 1162SOL    HW114945   1.834   3.340   3.777 -0.7278  0.0037  1.2241
 1162SOL    HW214946   1.866   3.251   3.673 -1.6120  3.3643  0.1451
 1163SOL     OW14947   0.761   1.780   4.527 -0.0956  0.2682 -0.1410
 1163SOL    HW114948   0.689   1.766   4.589  1.5677 -2.4541  1.1488
 1163SOL    HW214949   0.827   1.790   4.595 -1.3417 -0.3352  1.1500
 1164SOL     OW14950   0.815   1.803   3.288  0.0817  0.1830 -0.1373
 1164SOL    HW114951   0.766   1.823   3.368  1.5110  2.4529  0.1608
 1164SOL    HW214952   0.804   1.708   3.278 -0.0033  0.1701  0.0760
 1165SOL     OW14953   4.412   3.587   6.188 -0.1727  0.2001  0.0987
 1165SOL    HW114954   4.414   3.680   6.211 -0.5954 -0.4282  2.6188
 1165SOL    HW214955   4.327   3.581   6.145 -0.6931  1.8253  0.8840
 1166SOL     OW14956   3.631   4.331   4.266  0.6366  0.8667 -0.1933
 1166SOL    HW114957   3.558   4.330   4.328  0.8746  1.7754  0.1039
 1166SOL    HW214958   3.687   4.374   4.330  1.6839  0.0028 -0.5170
 1167SOL     OW14959   4.440   4.459   6.088 -0.4953 -0.0310 -0.0314
 1167SOL    HW114960   4.358   4.492   6.051  1.2886  1.4294 -2.7094
 1167SOL    HW214961   4.455   4.540   6.135 -0.6487  0.1036 -0.2124
 1168SOL     OW14962   3.987   2.623   6.547  0.4740  0.1100  0.1426
 1168SOL    HW114963   4.019   2.547   6.498  1.2806 -0.1560  1.0741
 1168SOL    HW214964   4.066   2.678   6.546  0.2836  0.4140  1.4745
 1169SOL     OW14965   2.966   1.611   9.198 -0.1716  0.2303  0.5313
 1169SOL    HW114966   2.886   1.601   9.249 -0.0671  1.9415  1.0324
 1169SOL    HW214967   3.007   1.687   9.239  1.1397  0.1260 -0.5760
 1170SOL     OW14968   4.392   4.206   8.215 -0.2778  0.1683 -0.0462
 1170SOL    HW114969   4.310   4.180   8.257  0.3774  0.2008  1.2253
 1170SOL    HW214970   4.407   4.124   8.166  1.2582 -0.5917  1.7063
 1171SOL     OW14971   0.824   0.499   5.935  0.4955  0.1387  0.0323
 1171SOL    HW114972   0.749   0.524   5.880 -0.7730 -0.2193  1.5940
 1171SOL    HW214973   0.899   0.503   5.876  1.8415 -0.1080  1.7115
 1172SOL     OW14974   2.140   1.179   7.805 -0.1488  0.1207  0.4454
 1172SOL    HW114975   2.057   1.213   7.838  0.0907 -0.6105  1.8027
 1172SOL    HW214976   2.134   1.086   7.826  3.1735 -0.1966  0.0418
 1173SOL     OW14977   2.822   0.777   5.056  0.0416 -0.1054  0.1642
 1173SOL    HW114978   2.740   0.807   5.016  0.5406  0.8746 -0.1270
 1173SOL    HW214979   2.859   0.862   5.032  1.1557  0.3676  3.5449
 1174SOL     OW14980   2.196   1.843   7.704  0.3929 -0.1711  1.1018
 1174SOL    HW114981   2.284   1.867   7.734  1.2036  0.0036 -1.4243
 1174SOL    HW214982   2.162   1.790   7.776  0.5014 -0.7852  0.6964
 1175SOL     OW14983   3.556   2.575   9.871  0.1108 -0.2602 -0.6938
 1175SOL    HW114984   3.626   2.512   9.884  0.3495  0.5823  2.1676
 1175SOL    HW214985   3.531   2.608   9.957  1.8052  1.8335 -1.0154
 1176SOL     OW14986   2.789   0.848   6.104  0.4143  0.3340  0.6652
 1176SOL    HW114987   2.757   0.781   6.043 -1.5994 -0.5140  2.6487
 1176SOL    HW214988   2.771   0.809   6.190 -2.7184 -0.8913 -0.5318
 1177SOL     OW14989   1.427   3.880   5.741  0.3072  0.4579  0.2686
 1177SOL    HW114990   1.411   3.970   5.711 -0.6802  0.7951  1.8351
 1177SOL    HW214991   1.469   3.909   5.822  0.5264 -0.8561  0.6208
 1178SOL     OW14992   0.673   1.095   6.019  0.4384  0.8060 -0.2077
 1178SOL    HW114993   0.612   1.084   6.093  1.2683 -0.8476  0.2260
 1178SOL    HW214994   0.695   1.188   6.029 -0.2256  1.0224 -0.7552
 1179SOL     OW14995   3.960   3.442   9.376  0.0051  0.4862 -0.0674
 1179SOL    HW114996   3.967   3.460   9.470 -0.7259  0.2388  0.0322
 1179SOL    HW214997   3.973   3.347   9.377  0.5005  0.5342 -1.5858
 1180SOL     OW14998   1.152   1.171   9.673  1.0880  0.3562  0.1995
 1180SOL    HW114999   1.216   1.104   9.699 -0.2839 -0.6365  1.0144
 1180SOL    HW215000   1.134   1.149   9.581 -1.1623 -2.4458  1.3236
 1181SOL     OW15001   4.638   3.911   5.660  0.1519 -0.0002 -0.0784
 1181SOL    HW115002   4.545   3.892   5.649  0.4900 -0.7260 -1.6889
 1181SOL    HW215003   4.664   3.821   5.682 -1.8021 -0.1802  1.4371
 1182SOL     OW15004   3.357   3.108   3.525  0.4607 -0.0686 -0.5067
 1182SOL    HW115005   3.277   3.056   3.532 -0.6301  1.5211 -1.2266
 1182SOL    HW215006   3.408   3.068   3.455 -1.1665  0.0562 -1.7439
 1183SOL     OW15007   2.359   0.508   6.631 -0.0893  0.4336  0.3941
 1183SOL    HW115008   2.331   0.512   6.723 -1.8657 -0.6017 -0.0920
 1183SOL    HW215009   2.447   0.472   6.638  0.3308  1.0445 -1.9882
 1184SOL     OW15010   2.532   2.528   8.945 -0.2578  0.5442  0.0813
 1184SOL    HW115011   2.551   2.612   8.987 -2.3374  1.3759 -0.6586
 1184SOL    HW215012   2.590   2.466   8.989 -0.6109 -0.1027 -0.3645
 1185SOL     OW15013   1.114   3.223   0.517  0.2882 -0.3596  0.1805
 1185SOL    HW115014   1.033   3.195   0.474  1.1457 -4.0098  0.9629
 1185SOL    HW215015   1.162   3.258   0.442  1.8488 -0.5324  1.1107
 1186SOL     OW15016   2.145   2.584   4.823  0.4573  0.3489  0.3462
 1186SOL    HW115017   2.078   2.540   4.772 -0.7902 -0.9614  3.0783
 1186SOL    HW215018   2.153   2.665   4.774 -2.2755  0.1726 -0.4068
 1187SOL     OW15019   4.228   3.181   7.888  0.2973 -0.0146 -0.4664
 1187SOL    HW115020   4.225   3.268   7.849  1.5708 -0.1766 -0.9369
 1187SOL    HW215021   4.144   3.172   7.933  0.8285  2.2058  0.9389
 1188SOL     OW15022   1.982   3.485  13.978  0.1795  0.5444 -0.0003
 1188SOL    HW115023   2.019   3.458  14.062 -0.0485  0.6805  0.1437
 1188SOL    HW215024   2.029   3.563  13.949  3.3209 -0.6906  1.6970
 1189SOL     OW15025   1.381   2.759   2.816  0.5838  0.6895  0.2462
 1189SOL    HW115026   1.423   2.812   2.749  0.7100  0.3041  0.0154
 1189SOL    HW215027   1.370   2.826   2.883  0.2813  1.4848 -0.5966
 1190SOL     OW15028   0.980   3.870   4.646  0.8404  0.1301  0.2155
 1190SOL    HW115029   0.979   3.964   4.667  0.0937 -0.0131  0.8457
 1190SOL    HW215030   1.072   3.849   4.636  1.0580  0.1909  2.0648
 1191SOL     OW15031   0.794   0.181   8.799  0.4246 -1.0643  0.2764
 1191SOL    HW115032   0.708   0.143   8.819  1.2225 -1.9243  2.0910
 1191SOL    HW215033   0.807   0.230   8.880  1.1999  1.1811 -1.2153
 1192SOL     OW15034   4.382   2.224   1.287 -0.1358 -0.0076 -0.0409
 1192SOL    HW115035   4.469   2.199   1.257  0.2042 -0.8197  1.6275
 1192SOL    HW215036   4.406   2.299   1.342 -0.0852 -0.8178  1.0315
 1193SOL     OW15037   0.786   1.361   2.106 -0.2097  0.3967  0.4986
 1193SOL    HW115038   0.823   1.284   2.149 -1.9152 -2.2033 -2.6871
 1193SOL    HW215039   0.763   1.419   2.179 -0.5894  1.2393 -0.2926
 1194SOL     OW15040   4.133   3.488   1.918  0.3866  0.3002 -0.3536
 1194SOL    HW115041   4.141   3.542   1.996  1.8730  0.3013 -0.5089
 1194SOL    HW215042   4.152   3.400   1.949  0.5648 -0.4842 -2.6412
 1195SOL     OW15043   1.535   2.074  13.615 -0.3081 -0.7807  0.5143
 1195SOL    HW115044   1.497   2.095  13.700  1.8147  1.4662  0.8977
 1195SOL    HW215045   1.628   2.076  13.637 -0.3483  1.1879  0.5053
 1196SOL     OW15046   4.707   1.211   8.063 -0.7128 -0.1674 -0.2075
 1196SOL    HW115047   4.669   1.123   8.051  1.6763 -0.8276 -3.0609
 1196SOL    HW215048   0.076   1.189   8.045 -0.7543  0.2869 -0.9974
 1197SOL     OW15049   0.966   3.973   2.216 -0.1216 -0.0812 -0.2042
 1197SOL    HW115050   0.891   3.977   2.157 -1.2384 -0.2297  1.1930
 1197SOL    HW215051   0.922   3.930   2.290 -3.1554 -0.8781 -2.4613
 1198SOL     OW15052   4.542   2.757   1.475 -0.2851  0.4987  0.3699
 1198SOL    HW115053   4.638   2.755   1.471 -0.2960 -1.4088  1.1333
 1198SOL    HW215054   4.528   2.699   1.550  1.5427 -1.6646 -0.9721
 1199SOL     OW15055   0.587   4.445  14.597  0.4019 -0.1466 -0.3032
 1199SOL    HW115056   0.506   4.458  14.646  0.0500  2.6620 -1.6353
 1199SOL    HW215057   0.641   4.398  14.661  1.6478  0.2706 -1.0318
 1200SOL     OW15058   0.081   4.238  11.300  0.0674  0.4434 -0.0174
 1200SOL    HW115059   0.009   4.178  11.279  0.3575 -0.3235  1.2074
 1200SOL    HW215060   0.043   4.269  11.382  2.1185 -0.7731  1.3566
 1201SOL     OW15061   4.677   2.087   8.733  0.3834  0.2637  0.2570
 1201SOL    HW115062   4.650   2.028   8.663  2.5746 -0.7633  0.3000
 1201SOL    HW215063   4.603   2.061   8.788  1.6802 -2.1902  0.8101
 1202SOL     OW15064   2.852   4.195   6.683 -0.5864 -0.2806  0.2400
 1202SOL    HW115065   2.885   4.270   6.732  0.8270 -1.6254  1.3481
 1202SOL    HW215066   2.932   4.145   6.663 -1.0590 -0.3491 -1.4794
 1203SOL     OW15067   2.424   1.484   5.298 -0.3607  0.1227 -0.2127
 1203SOL    HW115068   2.493   1.490   5.231  0.9319 -1.7570  0.9561
 1203SOL    HW215069   2.382   1.569   5.281 -0.5695 -0.3526 -2.0669
 1204SOL     OW15070   2.663   3.510   0.009 -0.2735  0.3381 -0.7444
 1204SOL    HW115071   2.729   3.486   0.075 -0.8527 -2.5655 -1.2302
 1204SOL    HW215072   2.591   3.550   0.058 -1.1219  0.4422 -2.0868
 1205SOL     OW15073   2.920   2.799  11.218  0.2774 -0.1261 -0.3760
 1205SOL    HW115074   2.829   2.812  11.191  0.9402  1.2515 -1.9370
 1205SOL    HW215075   2.959   2.886  11.216 -0.5341  0.2823  1.4375
 1206SOL     OW15076   2.088   3.201  13.703  0.0924 -0.0710  0.2419
 1206SOL    HW115077   2.093   3.295  13.716 -3.1347  0.2208 -0.5844
 1206SOL    HW215078   2.154   3.184  13.636  1.1099  2.9593  0.4898
 1207SOL     OW15079   0.157   4.426   6.001  0.1932 -0.3441 -0.4258
 1207SOL    HW115080   0.247   4.433   6.032 -0.0513 -2.6894  0.7477
 1207SOL    HW215081   0.186   4.411   5.911  0.4666 -0.8323 -0.2551
 1208SOL     OW15082   1.225   4.048   4.453 -0.0337 -0.8439  0.5501
 1208SOL    HW115083   1.138   4.016   4.430  0.1479 -0.3137 -0.9039
 1208SOL    HW215084   1.201   4.138   4.475  0.5624 -0.5175 -0.1509
 1209SOL     OW15085   0.534   2.490   8.585 -0.0421 -0.0683 -0.9628
 1209SOL    HW115086   0.547   2.410   8.636  3.2284  0.0477 -1.5761
 1209SOL    HW215087   0.481   2.547   8.641  2.8407 -0.0175  1.7491
 1210SOL     OW15088   4.303   1.469  15.394  0.0997  0.0538 -0.4133
 1210SOL    HW115089   4.358   1.502  15.465 -1.8710  1.1161  0.6105
 1210SOL    HW215090   4.221   1.511  15.420 -0.3336 -1.4539  0.6584
 1211SOL     OW15091   0.689   0.030   6.655  0.6193 -0.1664  0.0260
 1211SOL    HW115092   0.705   0.049   6.747  2.2919  2.3207 -0.7700
 1211SOL    HW215093   0.772   0.058   6.615  1.9695  0.4888  3.3148
 1212SOL     OW15094   3.343   1.110   3.869 -0.5646  0.1820  0.4367
 1212SOL    HW115095   3.326   1.026   3.913  0.1094 -0.5341 -0.6699
 1212SOL    HW215096   3.340   1.085   3.777  0.8255  1.8617 -0.0584
 1213SOL     OW15097   4.711   1.109   9.455 -0.3792 -0.1420 -1.0027
 1213SOL    HW115098   4.640   1.062   9.498 -0.0230 -0.7056 -1.0359
 1213SOL    HW215099   0.043   1.121   9.533 -0.9471 -1.4606 -0.4118
 1214SOL     OW15100   3.001   2.093  13.282 -0.0926  0.2525 -0.1431
 1214SOL    HW115101   3.036   2.096  13.371  1.6786 -0.9415 -0.7840
 1214SOL    HW215102   3.024   2.181  13.252  0.3237  0.2144  0.0598
 1215SOL     OW15103   1.389   2.776   8.814 -0.0907 -0.0508  0.0184
 1215SOL    HW115104   1.430   2.692   8.836  0.6094  0.8874  2.3352
 1215SOL    HW215105   1.445   2.827   8.756  0.9683 -0.4594  0.6895
 1216SOL     OW15106   3.397   4.488   3.357 -0.6743 -0.1824  0.5117
 1216SOL    HW115107   3.418   4.575   3.322  0.1992 -1.1999 -1.4896
 1216SOL    HW215108   3.325   4.467   3.297 -1.8864 -0.1669  1.9609
 1217SOL     OW15109   3.339   2.053   9.001  0.2192  0.0727  0.2756
 1217SOL    HW115110   3.387   2.074   9.081 -0.3901 -0.0714  0.6775
 1217SOL    HW215111   3.343   2.131   8.946 -1.5104 -0.7178 -0.9743
 1218SOL     OW15112   1.790   0.868   4.411 -0.1144  0.0145  0.4226
 1218SOL    HW115113   1.700   0.835   4.409 -0.0566 -0.3055  3.5324
 1218SOL    HW215114   1.811   0.848   4.502  1.1281  1.8925  0.5555
 1219SOL     OW15115   3.730   2.098   4.752 -0.1400 -0.4741 -0.4901
 1219SOL    HW115116   3.788   2.142   4.691  0.0052 -0.0231 -0.0297
 1219SOL    HW215117   3.714   2.159   4.825 -0.2905  0.1914 -1.0808
 1220SOL     OW15118   1.397   4.333   9.620  0.6307  0.2592  0.7232
 1220SOL    HW115119   1.330   4.265   9.609 -0.4365  1.3737  0.4024
 1220SOL    HW215120   1.349   4.391   9.679 -3.0236  0.2118 -2.2555
 1221SOL     OW15121   0.756   2.338   9.283 -0.6751 -0.4344 -0.5835
 1221SOL    HW115122   0.785   2.356   9.193 -2.6939 -0.3007 -1.2109
 1221SOL    HW215123   0.761   2.422   9.328  1.7810 -0.2892 -1.1255
 1222SOL     OW15124   0.519   1.064  11.216  0.1088  1.1083  0.2350
 1222SOL    HW115125   0.498   1.051  11.309 -2.2212 -0.5899 -0.5110
 1222SOL    HW215126   0.586   1.132  11.215  2.3924 -1.1703 -1.6490
 1223SOL     OW15127   4.210   1.233   6.475 -0.2731 -0.3103  0.7249
 1223SOL    HW115128   4.231   1.211   6.384 -3.0858 -1.3111  0.3043
 1223SOL    HW215129   4.213   1.149   6.522 -1.1627 -1.2910 -0.9263
 1224SOL     OW15130   3.242   4.175   4.558 -0.1474  0.3854 -0.4357
 1224SOL    HW115131   3.206   4.116   4.491  1.3593 -1.4330  0.3659
 1224SOL    HW215132   3.164   4.192   4.611  0.3357 -0.9118  0.6663
 1225SOL     OW15133   2.599   2.125   4.007  0.3888 -0.1984  0.1903
 1225SOL    HW115134   2.603   2.090   4.096 -0.0242 -2.2674 -0.5961
 1225SOL    HW215135   2.532   2.192   4.019  0.2066 -0.2672 -0.4103
 1226SOL     OW15136   2.400   3.109  16.109  0.5345  0.5447 -0.6386
 1226SOL    HW115137   2.495   3.106  16.126  0.4399 -0.6160 -0.3153
 1226SOL    HW215138   2.380   3.029  16.061 -0.7201  2.5428 -3.4447
 1227SOL     OW15139   0.126   0.637   5.663 -0.2716  0.3065 -0.1775
 1227SOL    HW115140   0.160   0.550   5.687  0.8852  0.6955 -0.3711
 1227SOL    HW215141   0.114   0.629   5.569 -2.3758  1.5414 -0.0118
 1228SOL     OW15142   4.635   4.229   1.330  0.2909 -0.6447 -0.4494
 1228SOL    HW115143   4.651   4.322   1.341 -0.3468 -0.5890  0.0221
 1228SOL    HW215144   4.551   4.220   1.374  1.0821  1.1455  1.4482
 1229SOL     OW15145   0.057   3.247   8.850  0.7205  0.5992  0.2996
 1229SOL    HW115146   4.697   3.223   8.808  1.6140  1.3090 -1.9074
 1229SOL    HW215147   0.071   3.328   8.799 -0.0167  2.1843  2.6311
 1230SOL     OW15148   2.847   2.835  13.413  0.1248 -0.2599  0.0608
 1230SOL    HW115149   2.913   2.794  13.358  1.4591 -0.5529  1.8836
 1230SOL    HW215150   2.911   2.888  13.460 -0.5224 -1.7325  2.6257
 1231SOL     OW15151   1.633   2.292   6.486 -0.4517  0.0575  0.3867
 1231SOL    HW115152   1.651   2.386   6.481  1.3995 -0.3706 -1.0008
 1231SOL    HW215153   1.582   2.279   6.406  1.3772 -2.3422 -0.3896
 1232SOL     OW15154   0.984   2.176  10.032  0.0656  0.0359 -0.7586
 1232SOL    HW115155   0.971   2.203  10.122  0.7371  0.4968 -0.8011
 1232SOL    HW215156   0.985   2.080  10.040  2.0878  0.1184 -0.0895
 1233SOL     OW15157   2.214   3.886   5.340 -0.4785 -0.1520  0.2156
 1233SOL    HW115158   2.198   3.901   5.247  2.0003  1.3740  0.0519
 1233SOL    HW215159   2.238   3.973   5.371 -1.7962 -0.1479  1.2574
 1234SOL     OW15160   2.790   2.368   0.619  0.7080  0.0615 -0.0450
 1234SOL    HW115161   2.831   2.365   0.532  1.4015 -1.8574  0.3595
 1234SOL    HW215162   2.698   2.387   0.604  0.2187 -2.5068 -0.3181
 1235SOL     OW15163   1.103   1.380  15.842 -0.2833  0.2001 -0.5682
 1235SOL    HW115164   1.198   1.381  15.852 -0.4507  1.9894  0.8034
 1235SOL    HW215165   1.090   1.296  15.797 -0.6866  1.0299 -1.9984
 1236SOL     OW15166   3.712   0.970  15.834  0.1101 -0.3599  0.2090
 1236SOL    HW115167   3.720   1.044  15.773  0.9587  0.5401  1.4187
 1236SOL    HW215168   3.806   0.963  15.849  0.1279  0.2502  0.4115
 1237SOL     OW15169   0.593   2.173   7.602  0.7327 -0.6892  0.3564
 1237SOL    HW115170   0.620   2.111   7.670 -1.3539 -2.6377 -0.6001
 1237SOL    HW215171   0.648   2.144   7.530  2.1787  2.4779  0.1734
 1238SOL     OW15172   1.243   2.734   0.592 -0.1163  0.4350  0.5840
 1238SOL    HW115173   1.185   2.764   0.662  0.1676  0.7847  0.6652
 1238SOL    HW215174   1.265   2.813   0.543 -0.0042  0.1847  0.2309
 1239SOL     OW15175   3.372   2.720   6.651 -0.6689 -0.3696  0.3267
 1239SOL    HW115176   3.276   2.716   6.648 -0.6349  1.0384 -2.4241
 1239SOL    HW215177   3.401   2.629   6.657  0.3244  0.0107  1.3375
 1240SOL     OW15178   0.833   1.423   7.692  0.6075  0.5511  0.2845
 1240SOL    HW115179   0.742   1.419   7.662  0.9296  0.5149 -0.6995
 1240SOL    HW215180   0.882   1.460   7.619 -2.7705 -0.1147 -2.3112
 1241SOL     OW15181   4.498   0.431   2.540 -0.0178  0.0968 -0.2487
 1241SOL    HW115182   4.522   0.361   2.601 -4.7516  0.6766  2.2333
 1241SOL    HW215183   4.471   0.380   2.463 -1.2700 -0.2291  0.4102
 1242SOL     OW15184   1.768   2.698  14.668 -0.2544  0.9208 -0.3790
 1242SOL    HW115185   1.829   2.723  14.598  1.5372 -1.0299  0.4660
 1242SOL    HW215186   1.705   2.768  14.650 -2.9061 -1.2751  0.3685
 1243SOL     OW15187   0.237   0.368   6.767  0.7239  0.1863  0.3637
 1243SOL    HW115188   0.302   0.341   6.703  1.7851  0.5706  1.2675
 1243SOL    HW215189   0.172   0.298   6.761  0.8906 -0.1071  1.8302
 1244SOL     OW15190   4.300   3.109   3.236 -0.2150  0.4232 -0.1224
 1244SOL    HW115191   4.392   3.092   3.260 -0.9319 -3.0003  0.2055
 1244SOL    HW215192   4.253   3.078   3.313 -0.3570 -0.6800 -0.6477
 1245SOL     OW15193   0.956   3.829  15.466 -0.1740  0.5970 -0.3651
 1245SOL    HW115194   0.980   3.872  15.384 -0.2149  0.1536 -0.6140
 1245SOL    HW215195   0.938   3.903  15.524  0.4867 -0.2416  0.9280
 1246SOL     OW15196   1.444   3.643   3.441 -0.4927  0.4962  0.8413
 1246SOL    HW115197   1.437   3.702   3.516  0.0350  1.8646 -0.1650
 1246SOL    HW215198   1.380   3.576   3.464 -0.6934  0.8487  1.3123
 1247SOL     OW15199   1.344   1.397   6.592  0.1182 -0.4357 -0.1270
 1247SOL    HW115200   1.248   1.404   6.584  0.1310  0.4015  0.4462
 1247SOL    HW215201   1.365   1.434   6.506 -1.4885  0.3576 -0.1827
 1248SOL     OW15202   3.675   3.815  17.100  0.3814  0.5456 -0.3407
 1248SOL    HW115203   3.595   3.829  17.050 -0.5779 -0.8219  0.7999
 1248SOL    HW215204   3.720   3.749  17.047  0.8210  0.8737 -0.3778
 1249SOL     OW15205   0.148   3.164   3.589 -0.2164 -0.1632  0.4722
 1249SOL    HW115206   0.214   3.204   3.532 -0.0647 -0.9862  0.0553
 1249SOL    HW215207   0.074   3.205   3.545 -0.2062 -0.2257  0.3953
 1250SOL     OW15208   0.957   1.502   7.473  0.4272 -0.0578  0.1822
 1250SOL    HW115209   0.998   1.444   7.409  1.6543 -0.0525  0.9625
 1250SOL    HW215210   0.973   1.584   7.427  1.6600 -0.2241  0.3004
 1251SOL     OW15211   0.851   1.440   8.440 -0.3824  0.0387 -0.8360
 1251SOL    HW115212   0.889   1.475   8.520 -2.8316 -1.1164  0.8221
 1251SOL    HW215213   0.899   1.359   8.424 -0.2107 -0.0056 -0.0740
 1252SOL     OW15214   2.672   0.745  12.697  0.1908 -0.5030  0.1530
 1252SOL    HW115215   2.643   0.835  12.715  0.9010 -0.1862 -0.3151
 1252SOL    HW215216   2.759   0.771  12.727 -0.2214 -1.4147  2.1302
 1253SOL     OW15217   0.941   2.009   3.714 -0.5155 -0.0757  0.0400
 1253SOL    HW115218   0.961   2.098   3.687 -2.3110  0.3752  0.2195
 1253SOL    HW215219   0.883   2.027   3.787  1.3461 -0.1622  1.5439
 1254SOL     OW15220   1.314   2.681   6.399 -0.1278 -0.3527 -0.2213
 1254SOL    HW115221   1.246   2.702   6.463 -0.4378  1.6860 -1.2253
 1254SOL    HW215222   1.386   2.728   6.442 -0.7001 -0.2401  0.6039
 1255SOL     OW15223   2.876   0.712  16.751  0.1459  0.0559 -0.0306
 1255SOL    HW115224   2.891   0.720  16.656  1.5925  2.2109  0.3751
 1255SOL    HW215225   2.868   0.617  16.759  0.7179 -0.1071 -1.3852
 1256SOL     OW15226   2.003   0.996  15.134  0.1399  0.3392 -0.4540
 1256SOL    HW115227   2.025   0.938  15.207  0.0010  0.1941 -0.5262
 1256SOL    HW215228   2.085   1.041  15.118 -0.9652  2.6060  0.3013
 1257SOL     OW15229   1.086   0.009   7.704  0.0353  0.6077 -0.2700
 1257SOL    HW115230   1.116   4.720   7.794 -3.1408 -1.5820  0.4946
 1257SOL    HW215231   1.032   4.653   7.693  1.2889 -0.4036  0.7816
 1258SOL     OW15232   3.804   2.278   4.551  0.4099 -0.2441  0.0704
 1258SOL    HW115233   3.741   2.330   4.601 -0.3325 -0.4998 -0.5943
 1258SOL    HW215234   3.823   2.331   4.474  0.1429 -1.8412 -1.0855
 1259SOL     OW15235   2.272   2.782   1.151  0.2599 -0.3017 -0.2289
 1259SOL    HW115236   2.356   2.749   1.182  0.7643  0.4707 -0.7574
 1259SOL    HW215237   2.303   2.829   1.074 -2.9346 -0.0712 -1.3606
 1260SOL     OW15238   0.811   0.315  13.879  0.0533  0.4772  0.3683
 1260SOL    HW115239   0.737   0.262  13.909 -0.5039  1.8544  1.3963
 1260SOL    HW215240   0.765   0.392  13.846 -0.1149 -0.2497 -1.1062
 1261SOL     OW15241   0.064   2.397  14.434 -0.6758 -0.1098  0.1744
 1261SOL    HW115242   0.059   2.439  14.348  1.1099  2.2784  1.2158
 1261SOL    HW215243   4.706   2.347  14.431 -1.7387  1.6801 -1.0044
 1262SOL     OW15244   3.009   1.315  13.872 -0.2936 -0.0788  0.1532
 1262SOL    HW115245   2.965   1.365  13.941  1.9540 -0.3939  1.8063
 1262SOL    HW215246   2.956   1.236  13.880  0.5289 -0.5412  0.9041
 1263SOL     OW15247   2.835   4.027   9.018 -0.1730 -0.3196 -0.1196
 1263SOL    HW115248   2.856   4.033   9.111  0.8233  1.3837 -0.4456
 1263SOL    HW215249   2.851   4.118   8.995 -1.6310  0.0436  0.3107
 1264SOL     OW15250   2.168   1.752   6.816  0.2460  0.0579 -0.5740
 1264SOL    HW115251   2.211   1.668   6.804  0.4329 -0.1846  1.7750
 1264SOL    HW215252   2.076   1.733   6.801  0.1301 -1.1684  1.7385
 1265SOL     OW15253   2.477   1.693  14.605 -0.1117 -0.0746 -0.2652
 1265SOL    HW115254   2.508   1.693  14.696  0.3940  0.6579 -0.4386
 1265SOL    HW215255   2.495   1.784  14.582  3.2649 -0.8405 -0.6556
 1266SOL     OW15256   3.837   3.490   8.089  0.2021 -0.0021 -0.2517
 1266SOL    HW115257   3.778   3.423   8.057 -0.1059 -0.3622  1.0740
 1266SOL    HW215258   3.881   3.445   8.161  0.8684  0.6147 -0.2604
 1267SOL     OW15259   4.001   2.075  17.068  0.8909 -0.1924  0.3494
 1267SOL    HW115260   3.918   2.094  17.025  2.0061 -1.4734 -2.3255
 1267SOL    HW215261   3.983   2.116  17.153  1.9359 -0.6099  0.7673
 1268SOL     OW15262   2.081   0.981   6.235 -0.4066  0.4090  0.3141
 1268SOL    HW115263   2.119   1.069   6.230  0.2740  0.0416 -0.9611
 1268SOL    HW215264   2.035   0.981   6.319  0.7335 -0.6478  0.9273
 1269SOL     OW15265   0.195   0.710   8.614 -0.1173 -0.1787  0.4309
 1269SOL    HW115266   0.287   0.715   8.589 -0.5667  0.4466 -1.1592
 1269SOL    HW215267   0.177   0.800   8.640  2.1620  0.3316  0.2570
 1270SOL     OW15268   0.626   1.822   4.768 -0.2889  0.1899 -0.5851
 1270SOL    HW115269   0.638   1.857   4.856  0.8391 -2.4231  0.2882
 1270SOL    HW215270   0.530   1.817   4.763 -0.4175 -0.4151  2.3468
 1271SOL     OW15271   0.777   3.453  14.608  0.0076  0.2208 -0.2284
 1271SOL    HW115272   0.773   3.369  14.654  0.6266 -0.1352 -0.8147
 1271SOL    HW215273   0.830   3.432  14.531 -0.0059  3.4148 -1.0820
 1272SOL     OW15274   2.892   4.411   0.822 -0.1253  0.0436  0.4288
 1272SOL    HW115275   2.854   4.352   0.887  1.3575 -1.6321 -0.2322
 1272SOL    HW215276   2.944   4.458   0.888 -0.1663  0.4970  0.1358
 1273SOL     OW15277   2.239   2.106   5.317  0.0348 -0.5779 -1.3652
 1273SOL    HW115278   2.185   2.108   5.396 -0.2843  0.9222 -1.6268
 1273SOL    HW215279   2.181   2.149   5.255 -0.8826 -0.7735 -0.6430
 1274SOL     OW15280   3.352   2.878  14.540 -0.1843 -0.2516  0.0513
 1274SOL    HW115281   3.271   2.847  14.580  1.6969 -2.5031  2.0604
 1274SOL    HW215282   3.382   2.807  14.483  1.8669  0.3487  0.3775
 1275SOL     OW15283   1.408   0.005  14.306 -0.0147 -0.0836  0.2705
 1275SOL    HW115284   1.428   0.024  14.398  1.0391  1.4358 -0.2872
 1275SOL    HW215285   1.470   0.062  14.262 -3.2256  2.7569 -0.5947
 1276SOL     OW15286   2.129   0.354   4.968 -0.3613  0.2817 -0.3602
 1276SOL    HW115287   2.175   0.426   4.925 -0.7048 -0.0254 -1.2369
 1276SOL    HW215288   2.166   0.362   5.056  0.9074  0.4204 -0.9053
 1277SOL     OW15289   1.739   2.489   2.432  0.1164 -0.0666 -0.4248
 1277SOL    HW115290   1.737   2.577   2.470  2.2505  0.9143 -2.5508
 1277SOL    HW215291   1.730   2.519   2.341  0.2666  1.1940 -0.0220
 1278SOL     OW15292   2.449   2.521   7.366 -0.2399  0.0275  0.3941
 1278SOL    HW115293   2.452   2.615   7.384  1.0742  0.0652 -0.0425
 1278SOL    HW215294   2.377   2.499   7.425 -0.5070  0.2836  0.1673
 1279SOL     OW15295   4.196   3.388   2.507 -0.0698  0.6523  0.0033
 1279SOL    HW115296   4.185   3.390   2.602 -0.3332  1.3762 -0.0390
 1279SOL    HW215297   4.285   3.419   2.492  0.1608  1.3628  2.8164
 1280SOL     OW15298   0.247   1.597  16.065 -0.7331  0.4013  0.4496
 1280SOL    HW115299   0.276   1.609  15.974 -1.4663  0.3383  0.2050
 1280SOL    HW215300   0.175   1.659  16.076  1.0931  2.7196 -0.7556
 1281SOL     OW15301   1.831   2.765   4.794  1.0312  0.2171 -0.2773
 1281SOL    HW115302   1.782   2.847   4.802  1.3543  0.2405  1.4048
 1281SOL    HW215303   1.754   2.710   4.812  0.4878  0.1702 -2.7247
 1282SOL     OW15304   2.073   3.619   5.147 -0.0644  0.3981 -0.1257
 1282SOL    HW115305   2.134   3.637   5.075  2.0737 -0.6007  1.4414
 1282SOL    HW215306   2.118   3.543   5.184  0.3252 -0.0260 -1.4359
 1283SOL     OW15307   1.247   3.778  17.318 -0.1076 -0.1648 -0.4604
 1283SOL    HW115308   1.333   3.817  17.306  0.2647 -1.0702 -0.7391
 1283SOL    HW215309   1.209   3.811  17.237 -2.6643  1.4321  1.3854
 1284SOL     OW15310   2.761   2.051   4.249  0.1066  1.1182 -0.0881
 1284SOL    HW115311   2.684   1.996   4.263  0.3723  0.8498  0.3252
 1284SOL    HW215312   2.790   1.989   4.182 -0.1773  1.1110 -0.2063
 1285SOL     OW15313   3.809   4.107   0.281  0.2485  0.3408  0.7545
 1285SOL    HW115314   3.743   4.155   0.232  1.5274  1.8441  0.5019
 1285SOL    HW215315   3.838   4.180   0.336 -0.0956  0.7805  0.3505
 1286SOL     OW15316   3.920   2.800   7.472 -0.6912  0.4590  0.4014
 1286SOL    HW115317   3.840   2.805   7.418 -0.2214  1.8259 -0.1775
 1286SOL    HW215318   3.929   2.706   7.483  1.0561  0.6730  0.7288
 1287SOL     OW15319   1.718   0.984   3.665  0.2855 -0.4979  0.2150
 1287SOL    HW115320   1.682   1.024   3.586  3.0951  1.1599 -0.2379
 1287SOL    HW215321   1.739   0.897   3.633  1.5309 -0.1225 -0.0169
 1288SOL     OW15322   2.616   1.685   5.710  0.1339 -0.1876  0.0602
 1288SOL    HW115323   2.618   1.747   5.638 -2.3393 -1.1247 -0.8140
 1288SOL    HW215324   2.668   1.740   5.768  1.1411  2.0726 -2.9960
 1289SOL     OW15325   3.751   4.577   2.656  0.3215 -0.1191  0.5230
 1289SOL    HW115326   3.829   4.623   2.687 -0.4173  2.2889 -1.1863
 1289SOL    HW215327   3.753   4.610   2.566  0.8798 -3.5065 -0.7083
 1290SOL     OW15328   4.402   2.191   5.549 -0.2029  0.1598  0.0719
 1290SOL    HW115329   4.359   2.107   5.537  0.5612 -0.2393  0.1613
 1290SOL    HW215330   4.334   2.246   5.589 -1.4885 -0.6722 -0.9547
 1291SOL     OW15331   3.466   0.366   2.670 -0.6681  0.0163 -0.1962
 1291SOL    HW115332   3.387   0.329   2.632 -0.8300 -0.1746  0.3198
 1291SOL    HW215333   3.478   0.445   2.617 -0.7966 -1.5731 -2.5770
 1292SOL     OW15334   1.716   1.899  13.290 -0.3531  0.1261  0.7106
 1292SOL    HW115335   1.629   1.865  13.311 -0.3297  0.8816  1.9851
 1292SOL    HW215336   1.744   1.815  13.253 -0.3261  0.9752 -1.2219
 1293SOL     OW15337   4.533   4.028   4.570 -0.1336  0.3474 -0.4956
 1293SOL    HW115338   4.529   4.060   4.660 -0.7181  0.6128 -0.6159
 1293SOL    HW215339   4.606   4.081   4.539  2.2047 -2.9874 -0.7087
 1294SOL     OW15340   3.072   0.055  11.651  0.2393 -0.4091 -0.6685
 1294SOL    HW115341   3.119   0.133  11.620 -0.4515  1.3126  2.5808
 1294SOL    HW215342   2.987   0.081  11.686 -1.0885 -2.8082 -2.1477
 1295SOL     OW15343   0.231   3.025   1.928 -0.2866 -0.3736 -0.3717
 1295SOL    HW115344   0.303   3.057   1.983  0.4117 -1.3930 -0.7092
 1295SOL    HW215345   0.283   3.044   1.850 -0.3355  0.2039 -0.2646
 1296SOL     OW15346   0.637   0.981  11.579  0.1918  0.0780 -0.0025
 1296SOL    HW115347   0.678   1.064  11.556 -0.5613  1.0637  2.1682
 1296SOL    HW215348   0.548   1.002  11.549  0.3426 -0.9521 -1.1663
 1297SOL     OW15349   3.331   2.746   3.205  0.5902 -0.3448  0.8925
 1297SOL    HW115350   3.391   2.819   3.189 -0.3936  0.4191  0.6015
 1297SOL    HW215351   3.308   2.756   3.297  2.3319 -0.2504  1.3086
 1298SOL     OW15352   2.868   2.649   2.212  0.1655 -0.0736 -0.2222
 1298SOL    HW115353   2.806   2.600   2.266  0.4306  0.1815  0.3143
 1298SOL    HW215354   2.852   2.605   2.129 -1.3942 -1.0963  0.6199
 1299SOL     OW15355   3.629   3.250  14.212 -0.5006  0.4244 -0.3584
 1299SOL    HW115356   3.697   3.307  14.248  0.9465 -1.8209  0.4593
 1299SOL    HW215357   3.644   3.170  14.263  2.7786 -0.6972 -3.0444
 1300SOL     OW15358   1.843   0.748   2.048  0.2516  0.2021 -0.0995
 1300SOL    HW115359   1.881   0.836   2.049  0.4419  0.0924  1.4145
 1300SOL    HW215360   1.919   0.690   2.036  0.0936 -0.1938  0.7770
 1301SOL     OW15361   1.790   1.820   6.776  0.1161 -0.3003  0.5544
 1301SOL    HW115362   1.855   1.788   6.713  0.0897  1.3881 -0.3186
 1301SOL    HW215363   1.759   1.894   6.724  1.0714 -0.2863 -0.0126
 1302SOL     OW15364   2.475   0.478  15.837 -0.3386 -0.2020 -0.3088
 1302SOL    HW115365   2.514   0.541  15.776 -0.1684 -0.7837 -0.7984
 1302SOL    HW215366   2.380   0.487  15.828 -0.5324  1.2573  2.9852
 1303SOL     OW15367   0.072   3.469   7.537  0.0929 -0.0573 -0.2230
 1303SOL    HW115368   0.078   3.537   7.470 -2.1071 -0.4437 -0.8064
 1303SOL    HW215369   0.136   3.518   7.589 -0.3389  0.7297 -0.4339
 1304SOL     OW15370   3.088   2.289   8.047  0.3572 -0.0531 -0.3522
 1304SOL    HW115371   3.152   2.321   8.111 -1.3666 -0.9381  1.7824
 1304SOL    HW215372   3.137   2.237   7.983  3.1946 -0.3235  2.0098
 1305SOL     OW15373   3.739   0.939   4.269 -0.2851 -0.2915  0.2036
 1305SOL    HW115374   3.733   1.032   4.248 -0.0075 -1.0137 -3.1423
 1305SOL    HW215375   3.651   0.913   4.244 -1.5519  2.8642  1.3984
 1306SOL     OW15376   1.871   0.895  13.283 -0.3033  0.2508 -0.5055
 1306SOL    HW115377   1.819   0.947  13.345  0.1551 -0.0528  0.1329
 1306SOL    HW215378   1.941   0.867  13.342 -0.5729 -1.7639 -1.1504
 1307SOL     OW15379   2.283   2.345   9.063  0.2685  0.5094 -0.0237
 1307SOL    HW115380   2.230   2.268   9.082 -0.9988  1.5808  0.8397
 1307SOL    HW215381   2.324   2.316   8.981  2.4289 -1.6068  1.8440
 1308SOL     OW15382   3.763   1.171  15.048 -0.2789 -0.7531 -0.1526
 1308SOL    HW115383   3.751   1.117  14.969  0.4580  1.4056 -1.7366
 1308SOL    HW215384   3.854   1.157  15.075 -0.1548 -0.3204 -0.3533
 1309SOL     OW15385   4.287   3.403   9.505  0.5752  0.2021  0.2693
 1309SOL    HW115386   4.231   3.392   9.582  0.2451 -2.4906 -0.3423
 1309SOL    HW215387   4.299   3.497   9.514  2.1615 -0.1460  1.8914
 1310SOL     OW15388   1.976   0.385   6.851 -0.2696  0.6872 -0.3682
 1310SOL    HW115389   2.067   0.399   6.827 -0.5061  1.0951 -1.0459
 1310SOL    HW215390   1.941   0.367   6.763  0.2554  0.3251 -0.5002
 1311SOL     OW15391   3.984   1.470   4.600  0.0217 -0.1398  0.4052
 1311SOL    HW115392   3.934   1.532   4.654  2.4139  0.5169  1.9149
 1311SOL    HW215393   4.066   1.520   4.588 -0.8692  1.2000 -0.1820
 1312SOL     OW15394   3.113   0.641   2.275 -0.1696 -0.2229  0.0136
 1312SOL    HW115395   3.084   0.660   2.185 -0.6175 -0.8773  0.0209
 1312SOL    HW215396   3.170   0.718   2.280 -1.2213  0.6940 -1.7700
 1313SOL     OW15397   2.510   1.544   6.379  0.2460 -0.2103  0.1368
 1313SOL    HW115398   2.594   1.582   6.403  0.6777 -1.7654  1.1488
 1313SOL    HW215399   2.517   1.547   6.284  0.4518  3.0124  0.2601
 1314SOL     OW15400   4.646   2.998   7.447  0.1464  0.5005 -0.1731
 1314SOL    HW115401   4.635   2.908   7.478 -0.5694  0.6448 -0.0120
 1314SOL    HW215402   4.568   3.001   7.393  0.6798 -0.7845 -1.0127
 1315SOL     OW15403   2.269   2.205  13.832  0.1621 -0.2129 -0.2732
 1315SOL    HW115404   2.234   2.292  13.851 -1.7721 -0.9734 -0.4327
 1315SOL    HW215405   2.347   2.231  13.783 -0.2117 -0.3807 -0.9521
 1316SOL     OW15406   4.428   0.066  15.642 -0.3403 -0.6126 -0.6142
 1316SOL    HW115407   4.522   0.058  15.652 -0.8688 -1.6888  3.5872
 1316SOL    HW215408   4.413   4.707  15.595 -1.2828  0.0388 -1.4432
 1317SOL     OW15409   2.581   1.669   7.965  0.0386  0.5621  0.2670
 1317SOL    HW115410   2.578   1.642   7.874 -0.8590  2.1031 -0.1747
 1317SOL    HW215411   2.654   1.612   7.986 -0.7291 -0.3379  0.4825
 1318SOL     OW15412   2.437   3.597   5.823 -0.2011  0.4731 -0.1873
 1318SOL    HW115413   2.496   3.659   5.781  0.6618 -0.4204 -0.2784
 1318SOL    HW215414   2.394   3.557   5.748  1.9876 -0.9307 -0.6809
 1319SOL     OW15415   1.562   3.720  12.722 -0.4824 -0.3189 -0.4710
 1319SOL    HW115416   1.493   3.762  12.671 -0.9142  2.2444  2.2420
 1319SOL    HW215417   1.512   3.661  12.779  1.5948 -0.1989  1.4827
 1320SOL     OW15418   2.830   2.738   6.480 -0.0568 -0.4609  0.4565
 1320SOL    HW115419   2.837   2.830   6.458  0.3875 -0.8956 -1.1866
 1320SOL    HW215420   2.893   2.704   6.416  0.4507  1.3692  0.0010
 1321SOL     OW15421   3.053   1.795  15.799  0.5373 -0.3265  0.0814
 1321SOL    HW115422   3.053   1.776  15.893  0.0019  2.3758  0.6196
 1321SOL    HW215423   2.960   1.796  15.779  0.4724 -3.4854  0.2439
 1322SOL     OW15424   0.083   2.457   8.659  0.1652 -0.0798  0.0363
 1322SOL    HW115425   0.111   2.460   8.567  1.2013  0.8885  0.3734
 1322SOL    HW215426   0.078   2.552   8.673  0.7465 -0.0477  0.0583
 1323SOL     OW15427   3.558   1.479   3.834  0.5455  0.1388  0.6977
 1323SOL    HW115428   3.515   1.419   3.774  1.5577 -0.5376  0.6596
 1323SOL    HW215429   3.530   1.442   3.918 -0.4958  2.3656  1.3564
 1324SOL     OW15430   2.472   3.316  10.526  0.0928  0.0497  0.2224
 1324SOL    HW115431   2.565   3.333  10.516 -0.3780  1.0140 -2.4717
 1324SOL    HW215432   2.444   3.404  10.549  1.0101  0.2228  0.6457
 1325SOL     OW15433   3.574   3.172  16.257  0.3179 -0.4719  0.4191
 1325SOL    HW115434   3.597   3.082  16.233  1.7062  0.1994 -0.7833
 1325SOL    HW215435   3.549   3.157  16.348 -0.2934 -1.9429  0.0180
 1326SOL     OW15436   0.159   1.506   8.726  0.6417  0.1448  0.1668
 1326SOL    HW115437   0.229   1.480   8.666  0.1254 -0.0628 -0.3502
 1326SOL    HW215438   0.144   1.594   8.689 -1.7483 -0.2020  0.3119
 1327SOL     OW15439   0.749   3.049   6.544  0.0893  0.1635  0.3389
 1327SOL    HW115440   0.755   3.143   6.526  1.0614  0.2940  1.3117
 1327SOL    HW215441   0.688   3.017   6.478 -0.7774 -0.8167  1.6187
 1328SOL     OW15442   3.464   0.068   5.514  0.2881  0.8999 -0.0082
 1328SOL    HW115443   3.394   0.122   5.478  0.3145  1.9254  1.4840
 1328SOL    HW215444   3.412   4.716   5.545  1.0955 -0.4908 -1.9525
 1329SOL     OW15445   0.472   3.431   7.792  0.1165  0.1662  0.1546
 1329SOL    HW115446   0.461   3.345   7.832 -0.0912  0.0745 -0.0969
 1329SOL    HW215447   0.535   3.398   7.727  0.0793  0.2020  0.1005
 1330SOL     OW15448   0.288   3.551  10.450 -0.0777  0.3618 -0.1881
 1330SOL    HW115449   0.218   3.494  10.417  0.1269 -0.9426  1.5951
 1330SOL    HW215450   0.275   3.626  10.393 -1.4173  2.0214  2.3214
 1331SOL     OW15451   3.524   4.570   3.594  0.1106 -0.1452  0.5121
 1331SOL    HW115452   3.473   4.541   3.519 -0.7974 -0.8374  1.3996
 1331SOL    HW215453   3.614   4.559   3.563  0.5543  2.5349  0.8796
 1332SOL     OW15454   2.230   1.887   6.026 -0.0744  0.1439 -0.3453
 1332SOL    HW115455   2.252   1.886   6.119 -0.7944 -2.0874 -0.2007
 1332SOL    HW215456   2.136   1.902   6.013 -0.0278  0.1572 -0.6646
 1333SOL     OW15457   1.177   3.693   4.104  1.0824  0.9223 -0.2386
 1333SOL    HW115458   1.224   3.688   4.188 -1.7572  0.2066  1.2878
 1333SOL    HW215459   1.213   3.619   4.056 -2.4028 -1.4850  0.8942
 1334SOL     OW15460   1.409   0.382   9.747  0.1374  0.2050  0.4711
 1334SOL    HW115461   1.395   0.315   9.680 -1.3479  0.2706  0.7204
 1334SOL    HW215462   1.322   0.387   9.787 -0.5886 -1.1305 -0.9322
 1335SOL     OW15463   4.012   4.217   6.634 -0.3736  0.4062 -0.1951
 1335SOL    HW115464   3.963   4.298   6.618  3.0181  2.2248 -1.4245
 1335SOL    HW215465   3.945   4.153   6.658 -0.1256 -0.0786 -0.8053
 1336SOL     OW15466   3.169   0.233  16.208  0.7028  0.5823 -0.2956
 1336SOL    HW115467   3.141   0.269  16.292 -0.3283 -0.8186 -0.0345
 1336SOL    HW215468   3.233   0.165  16.232 -1.8906 -2.1956 -1.2627
 1337SOL     OW15469   4.159   1.433   5.441  0.6168 -0.0654 -0.1112
 1337SOL    HW115470   4.222   1.488   5.396  1.7511 -1.1861  0.0914
 1337SOL    HW215471   4.081   1.461   5.394  1.2284  1.5366 -0.1684
 1338SOL     OW15472   0.624   1.030  15.046  0.0185 -0.2268  0.5259
 1338SOL    HW115473   0.691   1.057  14.983  1.7544 -0.9699  2.0689
 1338SOL    HW215474   0.646   1.079  15.125 -1.2540  1.1554  0.0354
 1339SOL     OW15475   2.282   3.178   5.105  0.2512  0.0264  0.0212
 1339SOL    HW115476   2.285   3.108   5.169 -2.3355  0.7912  0.9795
 1339SOL    HW215477   2.301   3.256   5.156  1.2733  0.4686 -1.0301
 1340SOL     OW15478   2.726   4.556   7.105  0.2458 -0.5117  0.3474
 1340SOL    HW115479   2.652   4.590   7.155  1.0547  2.2967 -0.3724
 1340SOL    HW215480   2.681   4.562   7.020 -1.3793  0.1219  1.2552
 1341SOL     OW15481   1.954   0.969   4.655  0.0233  0.0488  0.1933
 1341SOL    HW115482   1.896   1.027   4.704  0.1786  0.3581  0.0154
 1341SOL    HW215483   2.001   1.032   4.600  1.8866 -0.5856  1.0809
 1342SOL     OW15484   4.290   4.408  11.876  0.2019  0.3193  0.2165
 1342SOL    HW115485   4.350   4.431  11.948  0.6821  0.0803 -0.1102
 1342SOL    HW215486   4.217   4.469  11.888 -1.0622 -0.5928 -3.1406
 1343SOL     OW15487   2.218   3.219  15.195 -0.4287 -0.0132 -0.8847
 1343SOL    HW115488   2.286   3.196  15.132  0.4373 -1.5712  0.6251
 1343SOL    HW215489   2.201   3.313  15.191  0.4850  0.1886  0.2940
 1344SOL     OW15490   0.722   0.920   3.942  0.2965  0.5306 -0.0303
 1344SOL    HW115491   0.757   0.984   4.004 -0.6404 -0.7232  1.8229
 1344SOL    HW215492   0.786   0.928   3.871  0.5879 -2.8274 -0.1740
 1345SOL     OW15493   2.069   1.848   8.027  0.1843  0.6456  0.3214
 1345SOL    HW115494   2.004   1.782   8.048 -0.3385  1.5213  1.4265
 1345SOL    HW215495   2.150   1.799   8.012 -0.1587  0.1040  0.2543
 1346SOL     OW15496   1.446   2.969  13.880  0.1957  0.3453 -0.3942
 1346SOL    HW115497   1.400   2.959  13.797  0.6432 -0.7672 -0.5036
 1346SOL    HW215498   1.365   2.945  13.926 -0.0481  1.9405  0.0050
 1347SOL     OW15499   1.632   3.260   4.491  0.5256 -0.4576  0.6725
 1347SOL    HW115500   1.606   3.201   4.421 -0.5202  0.5321  0.2189
 1347SOL    HW215501   1.554   3.262   4.547  0.2313 -0.2235  0.2542
 1348SOL     OW15502   4.001   3.169   9.381 -0.2787  0.2579  0.4830
 1348SOL    HW115503   3.947   3.091   9.377 -1.2514  0.9507  0.2220
 1348SOL    HW215504   4.043   3.166   9.467  0.2894  1.2750  0.2439
 1349SOL     OW15505   3.853   0.692   9.434 -0.0818 -0.2338 -0.0398
 1349SOL    HW115506   3.942   0.707   9.465  0.2809 -0.4721 -0.9731
 1349SOL    HW215507   3.816   0.778   9.412 -0.0308 -0.0565  0.5677
 1350SOL     OW15508   1.246   2.874   3.238 -0.6006  0.6566 -0.6169
 1350SOL    HW115509   1.160   2.884   3.279  0.2415  1.7632  0.8551
 1350SOL    HW215510   1.236   2.781   3.217 -1.2519  1.0329 -2.0248
 1351SOL     OW15511   3.244   2.700  14.081  0.2118 -0.0416 -0.1945
 1351SOL    HW115512   3.244   2.796  14.085  0.9315 -0.0008 -1.2890
 1351SOL    HW215513   3.188   2.674  14.154 -0.9215  2.2176 -0.2557
 1352SOL     OW15514   1.472   2.483  11.847 -0.0607 -0.4081 -0.0976
 1352SOL    HW115515   1.383   2.512  11.825  0.1293  1.7548  1.8717
 1352SOL    HW215516   1.458   2.409  11.789 -0.4077  1.4364 -2.3629
 1353SOL     OW15517   4.104   0.921  15.119  0.6491 -0.2832 -0.7475
 1353SOL    HW115518   4.079   0.829  15.114 -1.2612  0.3740 -3.4837
 1353SOL    HW215519   4.050   0.960  15.188  0.7460  0.3701 -1.0330
 1354SOL     OW15520   2.668   1.219   3.386  0.4730  0.1254  0.9439
 1354SOL    HW115521   2.711   1.271   3.453 -1.2004  1.8551  0.6687
 1354SOL    HW215522   2.581   1.258   3.380  0.9097  0.7382 -1.2090
 1355SOL     OW15523   4.279   4.261   7.854  0.1882  0.4146  0.0831
 1355SOL    HW115524   4.255   4.324   7.922  0.7056  0.0387  0.6111
 1355SOL    HW215525   4.317   4.313   7.783  0.5729 -0.9864 -0.7444
 1356SOL     OW15526   4.385   1.931   9.965 -0.7174 -0.5774  0.0331
 1356SOL    HW115527   4.358   1.850  10.009 -1.4080  0.1664  0.9686
 1356SOL    HW215528   4.481   1.926   9.968 -0.6776  1.1842  1.7351
 1357SOL     OW15529   3.200   3.038   2.443 -0.4687  0.5324 -0.4957
 1357SOL    HW115530   3.232   3.071   2.527  0.3995  2.4642 -1.5915
 1357SOL    HW215531   3.133   3.104   2.426 -2.2928 -1.0767  0.5358
 1358SOL     OW15532   2.549   4.123   3.916 -0.3682 -0.1070  0.1343
 1358SOL    HW115533   2.593   4.057   3.970 -0.3611  0.0093  0.2715
 1358SOL    HW215534   2.461   4.086   3.903 -0.3622  0.0814 -0.4393
 1359SOL     OW15535   3.770   1.782   2.570  0.4101  0.2741  0.1432
 1359SOL    HW115536   3.713   1.845   2.614  0.8846  0.4386  0.5209
 1359SOL    HW215537   3.749   1.717   2.637 -0.3394 -0.0797 -0.4342
 1360SOL     OW15538   0.206   1.648   3.522  0.0129 -0.5856 -0.0808
 1360SOL    HW115539   0.286   1.647   3.575 -0.9176 -0.9681  1.3143
 1360SOL    HW215540   0.223   1.735   3.485  3.2719 -0.9552  0.5138
 1361SOL     OW15541   2.657   0.135  13.883 -0.0653  0.1889  0.1529
 1361SOL    HW115542   2.590   0.067  13.894 -0.7561  0.8966  0.3104
 1361SOL    HW215543   2.670   0.137  13.788  1.9107  0.3826  0.4261
 1362SOL     OW15544   2.877   0.607   7.176  0.5014  0.5618  0.1292
 1362SOL    HW115545   2.786   0.578   7.172  0.6551  0.1885 -0.7604
 1362SOL    HW215546   2.876   0.681   7.237  1.0986 -1.2339  2.2857
 1363SOL     OW15547   4.564   0.977  16.064 -0.2442  0.5681 -0.5018
 1363SOL    HW115548   4.659   0.989  16.056 -0.0146  0.3329  1.7085
 1363SOL    HW215549   4.554   0.953  16.156  0.2765  2.3274  0.0302
 1364SOL     OW15550   0.309   3.608   5.476  0.0292  0.4571  0.2186
 1364SOL    HW115551   0.215   3.602   5.493 -0.2538  1.0068 -1.1600
 1364SOL    HW215552   0.322   3.690   5.524 -0.0578  1.2386 -1.0898
 1365SOL     OW15553   0.153   0.760   0.463 -0.1454 -0.2719 -0.8127
 1365SOL    HW115554   0.090   0.688   0.452  1.2185 -1.6345  0.3951
 1365SOL    HW215555   0.192   0.728   0.544 -1.6466 -0.1359 -0.0406
 1366SOL     OW15556   2.906   1.042   1.541  0.2516  0.3001  0.2497
 1366SOL    HW115557   2.898   1.120   1.594 -2.8058 -1.0839  1.8434
 1366SOL    HW215558   2.833   0.987   1.571  0.3931 -0.5606 -0.9598
 1367SOL     OW15559   3.319   3.334   4.418 -0.0283 -0.5279 -0.2523
 1367SOL    HW115560   3.362   3.319   4.333 -0.0961  2.9780 -0.8909
 1367SOL    HW215561   3.295   3.426   4.405 -0.0267 -0.8740 -2.6697
 1368SOL     OW15562   0.068   0.496   6.939  0.2742 -0.4075  0.3096
 1368SOL    HW115563   0.120   0.463   6.865  2.2544  2.1968  0.5440
 1368SOL    HW215564   0.037   0.582   6.912  0.7853 -0.2776  0.1324
 1369SOL     OW15565   0.600   0.509   2.008 -0.3640 -0.8466  0.0401
 1369SOL    HW115566   0.693   0.486   2.014  0.0960  1.1190  0.3806
 1369SOL    HW215567   0.568   0.438   2.063  1.9403 -1.5235  0.5359
 1370SOL     OW15568   3.358   3.586   5.908 -0.3193 -0.0421 -0.3182
 1370SOL    HW115569   3.369   3.554   5.819 -0.3274  0.3914 -0.4744
 1370SOL    HW215570   3.448   3.588   5.941 -0.3221 -0.4277 -0.2830
 1371SOL     OW15571   4.471   1.669   7.917  0.6134  0.2293  0.1897
 1371SOL    HW115572   4.463   1.646   7.825 -1.6122  0.6439  0.2838
 1371SOL    HW215573   4.566   1.671   7.932  0.6620  1.1806 -0.2793
 1372SOL     OW15574   1.475   0.903   2.535  0.1780 -0.6693 -0.2013
 1372SOL    HW115575   1.474   0.841   2.608 -1.3744  0.2968  0.5990
 1372SOL    HW215576   1.516   0.848   2.469  0.2839  0.8250 -1.3829
 1373SOL     OW15577   1.364   1.062   7.155 -0.9137  0.4442  0.6770
 1373SOL    HW115578   1.345   1.139   7.102  0.1678  1.7213  2.1518
 1373SOL    HW215579   1.287   1.005   7.161 -0.9287  0.1785 -2.1379
 1374SOL     OW15580   0.243   1.140   8.026  0.2151 -0.1610 -0.5737
 1374SOL    HW115581   0.274   1.051   8.042  1.2237  0.0879 -1.1339
 1374SOL    HW215582   0.319   1.185   8.064 -1.2028  1.2396  0.6599
 1375SOL     OW15583   3.358   3.107  16.996 -0.2895  0.3368  0.3440
 1375SOL    HW115584   3.430   3.068  17.045 -1.4902 -0.8630  1.1501
 1375SOL    HW215585   3.286   3.043  17.002 -1.6137  1.6115 -1.7884
 1376SOL     OW15586   3.014   0.478   6.146  0.7225  0.4710  0.0611
 1376SOL    HW115587   3.027   0.390   6.183 -1.1189 -0.3898 -1.3487
 1376SOL    HW215588   3.011   0.519   6.233  1.8353  0.8208 -0.0689
 1377SOL     OW15589   2.126   1.946  13.757 -0.0072  0.2553  0.1577
 1377SOL    HW115590   2.077   1.950  13.674  2.5769  0.2858 -1.3674
 1377SOL    HW215591   2.162   2.034  13.765  2.0960 -0.7623  1.6577
 1378SOL     OW15592   0.665   1.373   3.130 -0.5100 -0.8075 -0.2179
 1378SOL    HW115593   0.697   1.318   3.202  1.3903 -1.1605 -1.3320
 1378SOL    HW215594   0.576   1.341   3.116  0.2171 -2.4141 -1.2688
 1379SOL     OW15595   3.380   2.664  10.075 -0.1660 -0.2155  0.0295
 1379SOL    HW115596   3.376   2.756  10.052  0.6889 -0.4653 -1.1042
 1379SOL    HW215597   3.296   2.644  10.034 -1.0242  1.1068  1.1510
 1380SOL     OW15598   0.964   0.229   7.581  0.5503  0.0849  0.0228
 1380SOL    HW115599   0.978   0.301   7.642  0.4056 -0.7220  0.9960
 1380SOL    HW215600   1.004   0.154   7.624  1.6753 -0.0623 -1.2657
 1381SOL     OW15601   4.078   3.710   6.294 -0.4232 -0.0396 -0.2475
 1381SOL    HW115602   4.024   3.766   6.240 -0.2174 -1.2116 -1.6728
 1381SOL    HW215603   4.123   3.770   6.354  0.4666 -0.7566 -0.1889
 1382SOL     OW15604   2.532   1.963  14.500 -0.0150 -0.1260  0.4374
 1382SOL    HW115605   2.532   1.986  14.407  3.3787 -0.9085  0.2462
 1382SOL    HW215606   2.467   2.021  14.540 -0.8304  0.2556 -1.4723
 1383SOL     OW15607   3.317   1.176  10.774 -0.1875  0.0987 -0.1022
 1383SOL    HW115608   3.369   1.219  10.706  1.4313 -0.4691  0.7734
 1383SOL    HW215609   3.365   1.096  10.797 -0.0688  0.0706 -0.4456
 1384SOL     OW15610   4.179   2.804   6.433 -0.1595  0.3036  0.8006
 1384SOL    HW115611   4.247   2.871   6.431  0.8252 -0.7248  0.0399
 1384SOL    HW215612   4.216   2.725   6.394 -1.1060 -0.9909  2.5196
 1385SOL     OW15613   0.612   3.574  16.341  0.3897 -0.4680  0.0625
 1385SOL    HW115614   0.667   3.530  16.276  0.3019 -0.5130  0.0190
 1385SOL    HW215615   0.598   3.508  16.409 -0.3424 -1.2721 -0.8794
 1386SOL     OW15616   3.720   2.021  13.842  0.6717 -0.3411 -0.1178
 1386SOL    HW115617   3.781   1.962  13.798  0.7254 -0.0752 -0.4027
 1386SOL    HW215618   3.770   2.043  13.921 -2.6028  1.5712  1.4728
 1387SOL     OW15619   4.311   0.512   4.148  0.6187  0.3520 -0.1192
 1387SOL    HW115620   4.348   0.599   4.165 -1.6393  1.6761 -1.8985
 1387SOL    HW215621   4.277   0.481   4.231  1.3495  1.5368  0.6331
 1388SOL     OW15622   2.925   2.364   5.104  0.5568 -0.1638 -0.1636
 1388SOL    HW115623   2.887   2.413   5.031 -1.0172 -2.1128 -0.6629
 1388SOL    HW215624   2.849   2.311   5.131 -1.3451  1.7977 -1.6616
 1389SOL     OW15625   3.336   0.308   8.051 -0.3744  0.1133 -0.0084
 1389SOL    HW115626   3.336   0.218   8.084  0.9794  0.1094 -0.0090
 1389SOL    HW215627   3.369   0.354   8.128  1.3169 -2.0396  0.5532
 1390SOL     OW15628   0.470   4.484   6.005 -0.6186 -0.2361  0.0716
 1390SOL    HW115629   0.424   4.545   5.948 -1.5850 -0.4853  0.5906
 1390SOL    HW215630   0.553   4.488   5.957  0.1314 -0.8934  1.3197
 1391SOL     OW15631   0.232   0.701   7.739  0.0810  0.2020 -0.7118
 1391SOL    HW115632   0.257   0.720   7.648 -1.7562 -0.1729 -1.3042
 1391SOL    HW215633   0.138   0.717   7.734 -0.0605 -0.6911 -0.9711
 1392SOL     OW15634   3.292   1.946   8.252  1.0370  0.4869 -0.2416
 1392SOL    HW115635   3.268   1.854   8.263  0.0348  0.9589  1.6481
 1392SOL    HW215636   3.223   1.979   8.310 -0.5836 -0.4973 -1.6066
 1393SOL     OW15637   3.251   0.508   0.686 -0.0550 -0.1598  0.0456
 1393SOL    HW115638   3.308   0.435   0.710  0.9183  1.0305  1.3850
 1393SOL    HW215639   3.296   0.583   0.725 -2.7982  2.3687 -1.6498
 1394SOL     OW15640   0.066   0.145  16.815  0.0533  0.0061 -0.1919
 1394SOL    HW115641   0.151   0.134  16.773 -0.7473 -0.8339 -1.6391
 1394SOL    HW215642   0.052   0.058  16.853  1.4290  0.5086  1.4125
 1395SOL     OW15643   0.319   3.095  15.950 -0.3999 -0.6291 -0.5185
 1395SOL    HW115644   0.391   3.096  15.887  0.2492 -0.5881  0.2183
 1395SOL    HW215645   0.305   3.002  15.967  1.1714 -1.1695 -2.1807
 1396SOL     OW15646   1.458   0.663   3.015  0.3817  0.3109 -0.6322
 1396SOL    HW115647   1.485   0.650   3.105  2.4879 -3.5131 -1.8154
 1396SOL    HW215648   1.371   0.633   3.041  0.4109  1.3116  0.6080
 1397SOL     OW15649   3.008   1.368   3.004  0.4180  0.4954  0.1163
 1397SOL    HW115650   3.054   1.449   3.025  0.5603 -0.0366  1.8536
 1397SOL    HW215651   2.934   1.355   3.062  0.4148 -2.1868 -0.4622
 1398SOL     OW15652   0.841   0.356  16.488  0.0509 -0.6820  0.0697
 1398SOL    HW115653   0.918   0.325  16.441 -0.6795 -1.7702 -0.3913
 1398SOL    HW215654   0.776   0.295  16.454 -0.4806 -0.1081  0.0556
 1399SOL     OW15655   2.788   2.655  14.122  0.2402  0.9895 -0.2170
 1399SOL    HW115656   2.797   2.748  14.143 -0.1786  1.0908 -0.4851
 1399SOL    HW215657   2.872   2.626  14.157 -0.5200 -0.2082  0.6095
 1400SOL     OW15658   4.158   0.376   8.557 -0.5883  0.1116 -0.4157
 1400SOL    HW115659   4.066   0.356   8.576 -1.0318  2.4431 -0.0878
 1400SOL    HW215660   4.196   0.289   8.568  1.0066  1.0741  1.7513
 1401SOL     OW15661   0.343   3.432   0.949  0.2131  0.1947  0.1627
 1401SOL    HW115662   0.416   3.455   0.892  0.5273  1.0713  0.9355
 1401SOL    HW215663   0.346   3.336   0.945  1.0862  0.2045  0.6926
 1402SOL     OW15664   4.124   2.510   1.722 -0.2397  0.1314  0.5508
 1402SOL    HW115665   4.084   2.553   1.646  0.7641 -0.3274 -0.2407
 1402SOL    HW215666   4.093   2.421   1.705 -1.1232  0.5394  0.0430
 1403SOL     OW15667   3.084   1.715   8.681  0.2629  0.1488 -0.2838
 1403SOL    HW115668   3.098   1.623   8.659 -2.8850 -0.1551 -1.0562
 1403SOL    HW215669   3.070   1.716   8.775  0.9502  1.3517 -0.1897
 1404SOL     OW15670   3.876   2.849   2.947 -0.3834  0.2071  0.4319
 1404SOL    HW115671   3.894   2.767   2.901  0.9743  0.1214  1.1225
 1404SOL    HW215672   3.891   2.825   3.038 -1.5930  0.1379  0.6137
 1405SOL     OW15673   2.114   3.012   1.287  0.3841  0.2257 -0.3033
 1405SOL    HW115674   2.190   2.995   1.232  0.8707 -0.6861  0.6589
 1405SOL    HW215675   2.142   2.969   1.368 -0.1246  1.4309  0.5150
 1406SOL     OW15676   2.381   2.580  16.021 -0.0073  0.3257  0.3338
 1406SOL    HW115677   2.340   2.496  16.003 -0.6606  0.5114  0.9683
 1406SOL    HW215678   2.451   2.566  15.957 -0.7010 -1.9129  0.0959
 1407SOL     OW15679   4.303   1.893   6.571  0.4848 -0.5992  0.6756
 1407SOL    HW115680   4.288   1.986   6.586 -2.7514 -0.8104 -1.2442
 1407SOL    HW215681   4.336   1.895   6.481  1.3254  1.0944  1.0156
 1408SOL     OW15682   2.864   2.440  13.367 -0.0267  0.0006 -0.2193
 1408SOL    HW115683   2.924   2.417  13.296 -1.2595 -0.0727 -1.2368
 1408SOL    HW215684   2.825   2.511  13.316  1.9804  2.2486  1.3297
 1409SOL     OW15685   3.605   3.955   5.801  0.1435 -0.8595 -0.0443
 1409SOL    HW115686   3.576   4.000   5.722  0.6678  0.4929  0.5339
 1409SOL    HW215687   3.599   3.864   5.772  0.9436 -0.9114 -0.0584
 1410SOL     OW15688   4.047   0.781   3.234  0.6739 -0.1123 -0.4280
 1410SOL    HW115689   4.125   0.787   3.289  0.6930 -2.2346 -0.2270
 1410SOL    HW215690   3.984   0.758   3.303  1.6801 -0.2026  0.4551
 1411SOL     OW15691   0.443   1.903   2.421 -0.3838  0.3717 -0.0402
 1411SOL    HW115692   0.457   1.932   2.331  1.8953  0.7349  0.4300
 1411SOL    HW215693   0.501   1.960   2.471  0.6209 -0.4662 -0.2495
 1412SOL     OW15694   4.256   1.066   2.803 -0.6390 -0.3510  0.3683
 1412SOL    HW115695   4.217   0.998   2.749  2.6469 -1.8006 -0.1339
 1412SOL    HW215696   4.341   1.027   2.821  0.5896  2.4679  0.7389
 1413SOL     OW15697   0.320   3.387   9.251 -0.1454 -0.0817  0.1932
 1413SOL    HW115698   0.341   3.379   9.158 -1.2053 -0.2380 -0.0325
 1413SOL    HW215699   0.225   3.385   9.246 -0.1785 -2.3934  1.7295
 1414SOL     OW15700   1.048   4.499   9.231 -0.1519 -0.1814  0.0941
 1414SOL    HW115701   1.108   4.517   9.304 -2.1598  0.3132  1.6151
 1414SOL    HW215702   1.045   4.586   9.191  2.7169 -0.7509 -1.3248
 1415SOL     OW15703   1.334   0.947   4.002 -1.0500 -0.0738  0.6063
 1415SOL    HW115704   1.296   0.859   4.001 -0.1917 -0.4433  0.8801
 1415SOL    HW215705   1.261   1.009   4.007 -0.0099  1.3427 -1.5455
 1416SOL     OW15706   1.499   3.063   8.193 -0.6401  0.9631 -0.3118
 1416SOL    HW115707   1.469   3.098   8.277 -1.8839 -0.5103 -0.1445
 1416SOL    HW215708   1.478   2.970   8.198  1.5693  0.3493 -2.4514
 1417SOL     OW15709   2.104   3.087   0.852  0.6185 -0.3920  0.1886
 1417SOL    HW115710   2.134   3.163   0.802  1.1685 -2.1513 -2.1598
 1417SOL    HW215711   2.107   3.015   0.789  1.2205  0.9308 -1.3064
 1418SOL     OW15712   2.630   2.796  11.130  0.9198  0.0056 -0.1538
 1418SOL    HW115713   2.609   2.708  11.098 -0.4792  0.6674 -1.0444
 1418SOL    HW215714   2.591   2.774  11.214  1.8047  3.6470  1.1885
 1419SOL     OW15715   0.166   0.998  10.086 -0.4320  0.4168  0.0204
 1419SOL    HW115716   0.197   0.938  10.155  1.1225 -1.0523 -1.9650
 1419SOL    HW215717   0.254   1.020  10.055 -0.3302 -0.4318 -0.2905
 1420SOL     OW15718   0.254   2.482   4.613 -0.0818  0.3303 -0.1714
 1420SOL    HW115719   0.314   2.516   4.680 -0.1327 -1.2742  0.6717
 1420SOL    HW215720   0.208   2.561   4.584 -0.1758  0.1151 -0.5983
 1421SOL     OW15721   4.633   2.214   1.128  0.2678 -0.2966  0.8373
 1421SOL    HW115722   0.002   2.241   1.124  0.6227 -1.7656 -1.1416
 1421SOL    HW215723   4.596   2.280   1.070  2.0165  2.1608  2.5699
 1422SOL     OW15724   4.457   2.275   0.551  0.2695 -0.7930 -0.2599
 1422SOL    HW115725   4.368   2.249   0.574 -0.6144  0.8987 -1.8039
 1422SOL    HW215726   4.510   2.254   0.628 -1.3838 -0.4234  0.9861
 1423SOL     OW15727   0.067   3.141   2.270  0.6549  0.0547 -0.8007
 1423SOL    HW115728   0.055   3.167   2.179  1.7732 -1.3464 -1.3559
 1423SOL    HW215729   0.160   3.161   2.283  0.2098  1.0882  0.6626
 1424SOL     OW15730   0.569   0.288   2.177  0.4863  0.0726  0.2015
 1424SOL    HW115731   0.561   0.247   2.263 -1.1821 -1.4841 -0.6865
 1424SOL    HW215732   0.599   0.212   2.127  0.5133  0.3960 -0.2775
 1425SOL     OW15733   1.145   4.110   8.151  0.2802  0.1801 -0.5766
 1425SOL    HW115734   1.133   4.045   8.221 -1.0915 -1.4043 -2.2882
 1425SOL    HW215735   1.060   4.148   8.171  1.2207  1.6306  0.7706
 1426SOL     OW15736   2.085   3.359  12.424 -0.2423 -0.1170  0.0023
 1426SOL    HW115737   2.109   3.287  12.482 -1.5018 -1.9639 -1.8014
 1426SOL    HW215738   2.061   3.309  12.347  1.5347  1.2272 -1.4452
 1427SOL     OW15739   3.734   1.918   5.709 -0.7180  0.3685  0.3499
 1427SOL    HW115740   3.685   2.000   5.706 -1.6217 -0.1984 -0.5142
 1427SOL    HW215741   3.667   1.853   5.729  2.4297 -2.3070  2.2235
 1428SOL     OW15742   1.292   3.163   4.217  0.1845  0.1289  0.3647
 1428SOL    HW115743   1.252   3.250   4.222  3.0394  1.4273  0.4444
 1428SOL    HW215744   1.223   3.109   4.178  1.2818 -1.2057  0.2527
 1429SOL     OW15745   0.948   1.132   4.379 -0.4452 -0.0100 -0.3294
 1429SOL    HW115746   0.981   1.209   4.333 -0.6693 -0.9856 -2.1473
 1429SOL    HW215747   1.027   1.101   4.424 -1.4271  0.9663  2.0830
 1430SOL     OW15748   1.954   0.328   2.926 -0.0968 -0.4531 -0.3802
 1430SOL    HW115749   1.985   0.255   2.871 -1.5375 -0.7924 -0.7548
 1430SOL    HW215750   1.948   0.404   2.869  0.4061 -0.7325 -0.8104
 1431SOL     OW15751   3.828   2.649   8.988 -0.1987  0.1847 -0.5607
 1431SOL    HW115752   3.752   2.687   9.032 -1.3944 -2.0187 -0.7131
 1431SOL    HW215753   3.786   2.607   8.913 -0.7722  0.9291 -0.6511
 1432SOL     OW15754   0.279   0.178  16.347  0.1218 -0.4466  0.0381
 1432SOL    HW115755   0.303   0.253  16.402 -0.6656 -0.7159  0.7387
 1432SOL    HW215756   0.362   0.131  16.351 -0.4128 -1.4229 -0.2593
 1433SOL     OW15757   4.455   1.191   1.876 -0.5965  0.2505  0.4670
 1433SOL    HW115758   4.471   1.285   1.879 -2.0560  0.5169 -0.0930
 1433SOL    HW215759   4.492   1.165   1.961  0.8320  1.4191  0.2029
 1434SOL     OW15760   3.231   4.467   6.698  0.1026 -0.5865  0.0809
 1434SOL    HW115761   3.211   4.557   6.671  0.4799 -0.9454 -1.4358
 1434SOL    HW215762   3.309   4.461   6.642  1.9930  0.8592  2.5420
 1435SOL     OW15763   2.018   0.830   7.610  0.2359  0.1789 -0.0083
 1435SOL    HW115764   1.966   0.762   7.652  0.5541  0.8686  1.5137
 1435SOL    HW215765   2.088   0.846   7.673  0.4266 -1.5822  0.2148
 1436SOL     OW15766   3.022   0.294   9.265 -0.5728 -0.2577  0.1780
 1436SOL    HW115767   2.996   0.327   9.351  0.9054 -0.1447  0.5721
 1436SOL    HW215768   2.945   0.318   9.213  0.6202 -0.9593 -1.9505
 1437SOL     OW15769   1.867   3.008  15.932 -0.2095  0.0127 -0.0427
 1437SOL    HW115770   1.805   3.078  15.912  2.0798  1.1459 -3.1052
 1437SOL    HW215771   1.813   2.934  15.904 -1.5248  0.5642  1.0331
 1438SOL     OW15772   1.785   3.189   0.729 -0.0106 -0.7374  0.3713
 1438SOL    HW115773   1.784   3.237   0.647  1.7640 -0.8975  0.2549
 1438SOL    HW215774   1.735   3.113   0.698  1.4525 -0.2533 -3.1924
 1439SOL     OW15775   2.038   2.022   8.287 -0.2233  0.2459 -0.0472
 1439SOL    HW115776   2.056   1.940   8.332  1.0775  0.6978  0.2626
 1439SOL    HW215777   2.002   1.987   8.206  0.1411  1.1287 -0.5932
 1440SOL     OW15778   2.227   0.889   7.792  0.5615  0.3831  0.2024
 1440SOL    HW115779   2.205   0.825   7.859  0.2566 -1.3441 -1.5307
 1440SOL    HW215780   2.315   0.912   7.822  0.6613 -0.0784  0.2561
 1441SOL     OW15781   0.071   2.736   8.672 -0.3985  0.3388 -0.2424
 1441SOL    HW115782   0.018   2.736   8.751 -3.1368  0.4520 -2.0813
 1441SOL    HW215783   0.016   2.793   8.619 -1.1935  0.3019  0.5475
 1442SOL     OW15784   1.647   3.474   1.401  0.2900 -0.7786  0.3362
 1442SOL    HW115785   1.575   3.423   1.438 -1.7542  1.0670 -1.1063
 1442SOL    HW215786   1.658   3.411   1.330 -1.6469  0.5459 -1.1303
 1443SOL     OW15787   1.824   1.204  16.592  0.0268  0.1585  0.2505
 1443SOL    HW115788   1.819   1.190  16.497 -1.3650 -0.4777  0.4118
 1443SOL    HW215789   1.888   1.274  16.605  0.3342  0.3046 -2.0242
 1444SOL     OW15790   3.759   3.840   2.582  0.2976  0.3139  0.2342
 1444SOL    HW115791   3.834   3.782   2.570 -0.3069 -0.4316  0.0634
 1444SOL    HW215792   3.691   3.782   2.616 -2.3137  2.1190 -1.9506
 1445SOL     OW15793   4.189   0.185   2.275  0.4060  0.1277 -0.6370
 1445SOL    HW115794   4.277   0.149   2.261 -0.2337 -1.2569 -1.1068
 1445SOL    HW215795   4.198   0.221   2.363 -1.1480  0.8798 -0.7986
 1446SOL     OW15796   2.080   3.437   3.553 -0.1717 -0.1577  0.6927
 1446SOL    HW115797   2.122   3.357   3.519 -3.7783 -1.3089 -1.0623
 1446SOL    HW215798   2.153   3.498   3.564 -0.6618  0.1740  2.0348
 1447SOL     OW15799   4.191   0.965   6.538  0.5523 -0.5869 -0.5240
 1447SOL    HW115800   4.123   0.905   6.568 -0.9035  1.8049  0.9676
 1447SOL    HW215801   4.190   0.946   6.444 -2.9063 -1.3275 -0.3645
 1448SOL     OW15802   4.038   2.179   4.092  0.2425 -0.1722 -0.3791
 1448SOL    HW115803   4.099   2.152   4.160 -0.6077 -1.5383 -0.1595
 1448SOL    HW215804   3.959   2.201   4.140  2.9692 -0.4282  4.2292
 1449SOL     OW15805   3.259   3.913   8.619  0.1846 -0.3379 -0.0437
 1449SOL    HW115806   3.165   3.924   8.606  0.3791  0.4182 -0.8366
 1449SOL    HW215807   3.313   3.940   8.545  1.8331  1.4411  1.8070
 1450SOL     OW15808   4.430   3.017   8.409  0.0319 -0.3554 -0.6281
 1450SOL    HW115809   4.429   3.025   8.314 -0.2465 -0.3851 -0.6283
 1450SOL    HW215810   4.384   3.095   8.438  1.9962  0.7464 -0.4656
 1451SOL     OW15811   1.308   1.676   7.397  0.2966  0.2042 -0.0109
 1451SOL    HW115812   1.360   1.643   7.324 -0.8465 -1.4193 -0.0794
 1451SOL    HW215813   1.230   1.701   7.348  1.3106  0.8000 -1.3027
 1452SOL     OW15814   3.988   1.490   4.974 -0.0893  0.5791 -0.4073
 1452SOL    HW115815   3.925   1.548   4.932 -0.8611 -0.6703 -0.9868
 1452SOL    HW215816   4.009   1.550   5.045 -2.3933 -0.0007  0.7594
 1453SOL     OW15817   0.737   1.168  10.818 -0.0565 -0.0886  0.1975
 1453SOL    HW115818   0.767   1.087  10.777  1.7665 -0.1740  1.6902
 1453SOL    HW215819   0.724   1.138  10.908  1.1699 -0.3584  0.2819
 1454SOL     OW15820   2.193   4.291   2.946  0.1071 -0.0248 -0.4193
 1454SOL    HW115821   2.157   4.304   2.859 -0.5775 -0.8515 -0.2511
 1454SOL    HW215822   2.279   4.332   2.960 -1.5880  3.4885 -0.3770
 1455SOL     OW15823   4.007   1.918   7.273  0.1908  0.3226  0.3136
 1455SOL    HW115824   3.974   1.983   7.334  2.2787 -0.9938  2.8271
 1455SOL    HW215825   4.084   1.963   7.237  1.1544 -1.1601  0.5119
 1456SOL     OW15826   0.605   1.776   3.966  0.1543  0.1656  0.1949
 1456SOL    HW115827   0.585   1.869   3.967  0.3348  0.2171 -2.2969
 1456SOL    HW215828   0.526   1.749   4.014  0.1143 -0.0337  0.0196
 1457SOL     OW15829   4.049   1.803  12.926 -0.2687  0.6435 -0.2654
 1457SOL    HW115830   4.023   1.881  12.877  1.5037  1.4707  0.1185
 1457SOL    HW215831   4.079   1.833  13.012 -0.0854  2.3895 -0.9423
 1458SOL     OW15832   1.629   1.327  15.325 -0.5297  0.5821 -0.6992
 1458SOL    HW115833   1.697   1.311  15.260  1.2080  1.0745  0.9948
 1458SOL    HW215834   1.669   1.292  15.405 -1.7645  0.6656 -0.0439
 1459SOL     OW15835   2.228   0.610   6.399 -0.0386 -0.0083  0.1975
 1459SOL    HW115836   2.279   0.547   6.450  1.0297 -0.6831 -1.6876
 1459SOL    HW215837   2.206   0.679   6.461 -0.0006  0.0564  0.1389
 1460SOL     OW15838   4.241   3.572  15.080  0.0344 -0.1227  0.5625
 1460SOL    HW115839   4.180   3.550  15.150  0.6916 -0.9412  0.8773
 1460SOL    HW215840   4.322   3.588  15.129  0.2712 -0.2078  0.2019
 1461SOL     OW15841   1.305   2.493  14.425 -0.4047 -0.0057 -0.3534
 1461SOL    HW115842   1.362   2.416  14.426  0.7451  0.8479  0.4699
 1461SOL    HW215843   1.331   2.551  14.496  0.7463  1.9158 -2.3242
 1462SOL     OW15844   4.059   0.461   2.291 -0.5116 -0.5008 -0.7263
 1462SOL    HW115845   4.093   0.511   2.218  0.2734 -0.6055 -0.4376
 1462SOL    HW215846   4.097   0.374   2.280  1.4301  0.3797 -0.9181
 1463SOL     OW15847   1.101   3.700   3.023 -0.5396  0.6284  0.0961
 1463SOL    HW115848   1.059   3.669   2.943 -0.3914 -0.2131  0.3451
 1463SOL    HW215849   1.190   3.673   2.999 -1.4153 -1.2584 -1.0285
 1464SOL     OW15850   2.441   3.469  11.353 -0.1880  0.0988 -0.0571
 1464SOL    HW115851   2.428   3.412  11.429  1.3102 -3.6353 -2.6042
 1464SOL    HW215852   2.353   3.466  11.315 -0.5450  0.7111  0.7286
 1465SOL     OW15853   3.400   1.658  11.724 -0.6940  0.0080 -0.6977
 1465SOL    HW115854   3.384   1.736  11.778 -1.5925 -1.2568  0.8855
 1465SOL    HW215855   3.398   1.693  11.636 -2.1383 -2.8200 -1.7853
 1466SOL     OW15856   3.760   1.885   3.590 -0.0967  0.3355  0.0423
 1466SOL    HW115857   3.839   1.831   3.590 -0.5597 -0.3161 -2.1188
 1466SOL    HW215858   3.728   1.865   3.678  1.2237 -0.9250  0.2312
 1467SOL     OW15859   0.337   2.636  13.511 -0.2039  0.1133  0.0473
 1467SOL    HW115860   0.312   2.545  13.529  0.3372 -0.1872 -0.7104
 1467SOL    HW215861   0.340   2.674  13.599 -1.1064 -1.4525  0.7609
 1468SOL     OW15862   2.150   1.378   9.683 -0.6663 -0.1300 -0.0133
 1468SOL    HW115863   2.121   1.319   9.752 -1.6945 -1.4783 -1.6090
 1468SOL    HW215864   2.171   1.461   9.725  3.3690 -1.2988  0.2297
 1469SOL     OW15865   3.695   1.591   2.777  0.6047  0.3743 -0.4633
 1469SOL    HW115866   3.717   1.524   2.842 -2.9974  1.1893  1.5609
 1469SOL    HW215867   3.620   1.547   2.736  0.7659 -0.1130 -0.2421
 1470SOL     OW15868   2.624   1.869   9.023  0.1292 -0.0231 -0.3267
 1470SOL    HW115869   2.536   1.904   9.010  0.0905  0.0845  0.2247
 1470SOL    HW215870   2.610   1.781   9.059 -1.3480  1.0741  1.7445
 1471SOL     OW15871   0.955   0.851   8.623 -0.4138  0.0312  1.0205
 1471SOL    HW115872   0.960   0.762   8.658  1.3413  0.4894  1.9829
 1471SOL    HW215873   1.033   0.852   8.568 -0.2588  1.5624  1.2609
 1472SOL     OW15874   2.183   4.540   0.287  0.3852  0.2712 -0.2238
 1472SOL    HW115875   2.142   4.613   0.332  1.0035  0.8306 -0.5604
 1472SOL    HW215876   2.186   4.582   0.201  1.1149 -0.4895 -0.5812
 1473SOL     OW15877   4.443   1.885   3.164 -0.3769 -0.2655 -0.0752
 1473SOL    HW115878   4.366   1.854   3.213 -1.6730  0.5738 -1.5774
 1473SOL    HW215879   4.435   1.974   3.200  1.6271 -0.3913  0.6567
 1474SOL     OW15880   2.406   3.451   4.620 -0.4093 -0.4335  0.2889
 1474SOL    HW115881   2.393   3.364   4.583 -0.1089 -0.0939 -0.6218
 1474SOL    HW215882   2.471   3.425   4.684 -1.2162 -0.5265  1.0714
 1475SOL     OW15883   4.098   0.914   2.987  0.0628  0.2606 -0.3363
 1475SOL    HW115884   4.142   0.843   2.940 -0.9696 -0.9075  0.4767
 1475SOL    HW215885   4.064   0.872   3.066  2.0371 -2.8913 -1.1663
 1476SOL     OW15886   0.913   4.321   7.505 -0.3240 -0.0583  0.8706
 1476SOL    HW115887   0.948   4.309   7.417  0.6426  1.4286  1.0574
 1476SOL    HW215888   0.829   4.361   7.483  0.9245  1.7868 -0.4856
 1477SOL     OW15889   4.074   1.807   0.554 -0.0565 -0.5087 -0.0432
 1477SOL    HW115890   4.162   1.795   0.590  0.3806  2.8116 -0.0043
 1477SOL    HW215891   4.094   1.770   0.468  1.6075  2.7671 -1.0667
 1478SOL     OW15892   4.675   3.186   6.447 -0.5681 -0.7562  0.4143
 1478SOL    HW115893   4.649   3.121   6.382  0.7629 -0.7802 -0.0945
 1478SOL    HW215894   4.633   3.267   6.419  0.3595 -0.8298 -1.2189
 1479SOL     OW15895   4.328   3.915  10.399 -0.9890 -0.6046  0.3538
 1479SOL    HW115896   4.237   3.908  10.370 -1.5195 -0.0031  1.8422
 1479SOL    HW215897   4.338   4.010  10.411  2.5942 -0.8660 -0.4257
 1480SOL     OW15898   3.261   3.227   7.787 -0.2711  0.4932  0.2975
 1480SOL    HW115899   3.255   3.268   7.701  0.7661 -1.3974 -0.6613
 1480SOL    HW215900   3.338   3.170   7.784 -1.3589 -0.8582 -1.8217
 1481SOL     OW15901   3.597   0.136   5.289  0.5048  0.2124  0.0867
 1481SOL    HW115902   3.513   0.158   5.248  0.2027 -0.4458  0.3482
 1481SOL    HW215903   3.569   0.077   5.359  2.6650 -2.2416 -1.1005
 1482SOL     OW15904   0.736   0.886   8.029  0.3270  0.2855 -0.7916
 1482SOL    HW115905   0.727   0.919   7.939  1.7283  0.0701 -1.0174
 1482SOL    HW215906   0.806   0.947   8.053  0.4929 -0.7542  1.3351
 1483SOL     OW15907   0.810   4.650  16.757 -0.0776  0.2409  0.1546
 1483SOL    HW115908   0.840   4.721  16.815  3.2980 -0.3293 -0.8874
 1483SOL    HW215909   0.867   4.580  16.791  2.0042  2.1561  0.6663
 1484SOL     OW15910   4.668   4.288   3.776 -0.0237  0.2993 -0.1887
 1484SOL    HW115911   4.601   4.270   3.709 -1.0644  0.1782  0.8905
 1484SOL    HW215912   4.660   4.211   3.831 -2.2494  0.1121 -0.7649
 1485SOL     OW15913   4.652   4.306   6.968  0.3110  0.7939  0.0246
 1485SOL    HW115914   4.701   4.270   7.043 -3.3642 -0.9539  1.6076
 1485SOL    HW215915   4.568   4.324   7.012  0.4057  1.0637  0.0954
 1486SOL     OW15916   0.186   2.072   4.960 -0.0803  0.2143 -0.1930
 1486SOL    HW115917   0.113   2.019   4.994  0.1223 -0.7772 -1.3013
 1486SOL    HW215918   0.129   2.133   4.912 -1.9026 -0.7929  0.6852
 1487SOL     OW15919   4.683   1.872   3.461  0.3300 -0.2619 -0.1211
 1487SOL    HW115920   0.006   1.829   3.389 -0.8789 -1.5164 -0.1562
 1487SOL    HW215921   0.029   1.895   3.524 -0.2221  1.0826 -0.0248
 1488SOL     OW15922   4.181   3.310   5.264  0.7990  0.2854  0.2219
 1488SOL    HW115923   4.186   3.248   5.337  0.4911 -0.2929 -0.2497
 1488SOL    HW215924   4.274   3.331   5.257  1.1616 -0.8421  1.6216
 1489SOL     OW15925   3.628   3.001   0.818  0.0535 -0.3602 -0.5909
 1489SOL    HW115926   3.700   3.010   0.879  1.3503 -1.1274 -1.9967
 1489SOL    HW215927   3.552   2.985   0.873 -0.1316 -1.0285 -1.0329
 1490SOL     OW15928   4.403   2.771   0.021  0.0945  0.1948  0.2146
 1490SOL    HW115929   4.449   2.732  17.639 -0.1712 -0.4881  0.4130
 1490SOL    HW215930   4.457   2.728   0.087 -0.1005 -2.2503 -1.2308
 1491SOL     OW15931   0.303   0.634  13.264 -0.1440 -0.0705  0.1288
 1491SOL    HW115932   0.308   0.694  13.339  0.2423 -0.6487  0.5664
 1491SOL    HW215933   0.282   0.547  13.297 -1.0920  0.7199  1.5957
 1492SOL     OW15934   1.708   2.157   5.805 -0.4620  0.0215  0.2615
 1492SOL    HW115935   1.710   2.191   5.716 -1.6966  0.5409  0.4316
 1492SOL    HW215936   1.616   2.131   5.804 -0.1561 -1.0296 -0.9451
 1493SOL     OW15937   0.144   1.899   9.428  0.4864 -0.5181  0.1080
 1493SOL    HW115938   0.209   1.946   9.375 -1.1465  1.4926 -0.0973
 1493SOL    HW215939   0.199   1.859   9.496  2.4783  1.3254 -0.4181
 1494SOL     OW15940   3.900   2.682   6.278 -0.4961 -0.1819 -0.0761
 1494SOL    HW115941   3.807   2.665   6.292 -0.6495  1.6844  1.0275
 1494SOL    HW215942   3.916   2.721   6.364 -2.2441  2.2692 -0.8712
 1495SOL     OW15943   3.647   3.657   8.843  0.2483  0.1703  0.0220
 1495SOL    HW115944   3.672   3.744   8.814 -0.6727 -0.0637 -1.5017
 1495SOL    HW215945   3.677   3.662   8.934 -1.0220  0.3419  0.4307
 1496SOL     OW15946   3.034   3.261   2.447  0.0484 -0.5772 -0.6261
 1496SOL    HW115947   2.968   3.287   2.382 -1.2664 -1.2720  0.4492
 1496SOL    HW215948   2.979   3.271   2.524  1.8818  0.3142  0.5514
 1497SOL     OW15949   4.161   1.051   6.818 -0.7849 -0.5662 -0.1428
 1497SOL    HW115950   4.159   0.972   6.871 -0.5400 -0.3627  0.1731
 1497SOL    HW215951   4.185   1.015   6.732 -3.9491  0.4814 -1.4639
 1498SOL     OW15952   1.772   2.854   9.234 -0.0773  0.1305  0.1465
 1498SOL    HW115953   1.773   2.761   9.213 -0.0584 -0.6843  3.7070
 1498SOL    HW215954   1.792   2.844   9.327 -0.4130  2.2262  0.4611
 1499SOL     OW15955   0.549   2.977   3.175  0.9409  0.2853 -0.4102
 1499SOL    HW115956   0.530   3.067   3.150 -0.4301  0.7220  2.2176
 1499SOL    HW215957   0.582   2.989   3.264 -1.2838  2.4874  0.1144
 1500SOL     OW15958   1.724   1.830   3.579  0.2133  0.3328 -0.0971
 1500SOL    HW115959   1.630   1.848   3.591  0.2030  0.7221 -0.7451
 1500SOL    HW215960   1.761   1.918   3.583  2.1577 -0.5711  1.5596
 1501SOL     OW15961   0.791   3.405  13.269 -0.1666 -0.6965 -0.1556
 1501SOL    HW115962   0.719   3.342  13.263  1.0625 -2.3540  2.6533
 1501SOL    HW215963   0.867   3.348  13.277  0.9101  0.7444 -0.1071
 1502SOL     OW15964   3.196   1.879  15.236  0.5719 -0.6738 -0.5712
 1502SOL    HW115965   3.289   1.897  15.251  0.4662  0.8297 -1.7771
 1502SOL    HW215966   3.190   1.821  15.159 -0.2136 -1.9841  0.4743
 1503SOL     OW15967   1.047   0.045   3.053  0.8627  0.5037 -0.6688
 1503SOL    HW115968   1.071   0.049   2.960  2.1327 -2.3267 -0.4549
 1503SOL    HW215969   1.044   4.674   3.069  0.4488  0.7451  0.6367
 1504SOL     OW15970   0.941   0.982   0.180  0.5400  0.0529 -0.2175
 1504SOL    HW115971   0.872   0.931   0.223 -0.1822 -0.1615 -1.6198
 1504SOL    HW215972   0.952   1.047   0.250 -1.2186 -0.5582  0.6271
 1505SOL     OW15973   0.693   4.566   5.361  0.1517  0.6460 -0.1421
 1505SOL    HW115974   0.718   4.647   5.405 -1.7709  0.8541  0.5553
 1505SOL    HW215975   0.599   4.584   5.350  0.0640  1.3238  1.6979
 1506SOL     OW15976   4.412   0.931   5.520  0.2424  0.1911 -0.7185
 1506SOL    HW115977   4.453   0.917   5.435  1.2365 -1.7778  0.0554
 1506SOL    HW215978   4.373   1.017   5.507 -3.8388 -1.7365 -1.3913
 1507SOL     OW15979   2.436   2.003  11.191  0.0716 -0.2032 -0.2515
 1507SOL    HW115980   2.389   2.003  11.275  0.0073  0.9208 -0.2811
 1507SOL    HW215981   2.481   2.088  11.194 -1.3587  0.5095  0.7114
 1508SOL     OW15982   4.133   2.275   4.880  0.0626  0.0568  0.1649
 1508SOL    HW115983   4.181   2.349   4.843  1.3694  0.6206  3.0032
 1508SOL    HW215984   4.186   2.200   4.852  2.3281  1.6781  0.0676
 1509SOL     OW15985   2.495   2.026   5.386 -0.1258 -0.0191 -0.3212
 1509SOL    HW115986   2.482   2.094   5.452  1.1140 -0.7137  0.6348
 1509SOL    HW215987   2.418   2.053   5.335 -0.6537 -1.7984 -0.4661
 1510SOL     OW15988   3.250   4.438   5.024 -0.1981  0.3632 -0.0075
 1510SOL    HW115989   3.183   4.458   4.959 -0.3460 -2.9359 -0.8840
 1510SOL    HW215990   3.286   4.361   4.980  1.8061  0.0084  2.1908
 1511SOL     OW15991   2.763   2.157   3.461 -0.1956  0.3479  0.6516
 1511SOL    HW115992   2.684   2.118   3.499 -0.1685 -0.5228 -0.2042
 1511SOL    HW215993   2.738   2.178   3.371 -0.6674 -1.2518  0.4201
 1512SOL     OW15994   3.798   0.764  14.875 -0.0142  0.1671  0.1490
 1512SOL    HW115995   3.705   0.788  14.880  0.1613  0.9729 -0.3611
 1512SOL    HW215996   3.790   0.695  14.810  2.4832 -2.7136  2.9434
 1513SOL     OW15997   0.564   2.934  14.426  0.3406  0.5120 -0.6183
 1513SOL    HW115998   0.593   2.999  14.362  0.0628  0.6408 -0.6142
 1513SOL    HW215999   0.506   2.876  14.376 -0.5144 -0.8902  2.0173
 1514SOL     OW16000   2.368   1.409  10.282  0.1174  0.1503 -0.2773
 1514SOL    HW116001   2.453   1.373  10.257  0.3496 -0.4740  1.3747
 1514SOL    HW216002   2.387   1.503  10.288  1.4489 -0.3436  3.2721
 1515SOL     OW16003   1.453   2.753  17.122 -0.8250 -0.6682 -0.8272
 1515SOL    HW116004   1.446   2.660  17.105  0.6817 -0.9951  0.3309
 1515SOL    HW216005   1.502   2.752  17.205  1.1376 -2.5879 -2.0026
 1516SOL     OW16006   2.512   2.369   0.640  0.2017  0.4940 -0.1288
 1516SOL    HW116007   2.439   2.388   0.699 -0.0889 -0.7596 -0.0966
 1516SOL    HW216008   2.505   2.274   0.632  1.9096  0.5587 -2.5199
 1517SOL     OW16009   2.632   3.027  12.404  0.1660  0.3804 -0.7900
 1517SOL    HW116010   2.592   3.112  12.387 -2.4479 -0.3974  1.5014
 1517SOL    HW216011   2.553   2.976  12.423 -0.1749  1.0924 -0.3135
 1518SOL     OW16012   0.447   2.063  11.680  0.9103 -0.2683 -0.6353
 1518SOL    HW116013   0.388   2.012  11.735  1.6623 -2.0581 -1.4895
 1518SOL    HW216014   0.517   2.000  11.667  0.4023 -0.7300 -1.1166
 1519SOL     OW16015   4.295   2.476   4.864 -0.6354 -0.0575  0.4482
 1519SOL    HW116016   4.324   2.488   4.954 -2.5743  1.4973  0.8546
 1519SOL    HW216017   4.247   2.553   4.836  0.4138  0.9253  1.3844
 1520SOL     OW16018   1.948   1.758   4.366 -0.2609  0.1708 -0.2372
 1520SOL    HW116019   1.979   1.847   4.383 -0.6922  0.1800  0.4889
 1520SOL    HW216020   2.030   1.728   4.326 -0.9197 -1.0249 -0.6800
 1521SOL     OW16021   3.875   4.581  16.431 -0.1870  0.0149 -0.2466
 1521SOL    HW116022   3.949   4.576  16.492  0.4022  3.2152 -0.6709
 1521SOL    HW216023   3.846   4.490  16.426 -1.2321  0.1912  2.5139
 1522SOL     OW16024   1.423   4.122   3.788  0.7302  0.5316 -0.7513
 1522SOL    HW116025   1.394   4.139   3.878 -0.3008 -2.4263 -0.5419
 1522SOL    HW216026   1.337   4.115   3.746  0.1377 -0.9274  0.6983
 1523SOL     OW16027   4.677   0.632   7.730 -0.6489 -0.2958 -0.2177
 1523SOL    HW116028   4.666   0.542   7.701 -0.3580 -0.5046  0.3296
 1523SOL    HW216029   4.654   0.618   7.822 -1.2457 -3.2182 -0.8249
 1524SOL     OW16030   0.167   2.250   5.565  0.4350 -0.2756 -0.3815
 1524SOL    HW116031   0.125   2.335   5.574  0.4441 -0.4164  0.9614
 1524SOL    HW216032   0.111   2.201   5.504  1.4642 -0.0605 -1.4890
 1525SOL     OW16033   3.306   1.520   6.297 -0.0233  0.4394  0.0096
 1525SOL    HW116034   3.314   1.614   6.306 -0.0807  0.2810  1.6332
 1525SOL    HW216035   3.212   1.510   6.315  0.2759 -1.9755  0.2385
 1526SOL     OW16036   2.532   1.600   3.724 -0.0247 -0.4118  0.0673
 1526SOL    HW116037   2.625   1.579   3.717 -0.1971 -0.8021 -1.0125
 1526SOL    HW216038   2.528   1.679   3.668  2.0516 -0.9876 -0.8792
 1527SOL     OW16039   1.812   0.902  10.573 -0.0756 -0.0718  0.7907
 1527SOL    HW116040   1.824   0.807  10.577  0.0203  0.0028  2.5141
 1527SOL    HW216041   1.888   0.926  10.520 -1.2854  0.0360 -0.8854
 1528SOL     OW16042   2.253   0.788  15.607 -0.4051  0.0361  0.2071
 1528SOL    HW116043   2.295   0.703  15.624 -0.8207  0.0994  1.4888
 1528SOL    HW216044   2.175   0.749  15.568 -1.0396  2.5247 -1.0217
 1529SOL     OW16045   1.602   2.803   4.509  0.1376 -0.1747 -0.1674
 1529SOL    HW116046   1.697   2.802   4.499 -0.0261  0.1179 -1.6784
 1529SOL    HW216047   1.599   2.898   4.521  1.1335  0.0243 -1.5576
 1530SOL     OW16048   1.625   3.057   9.466 -0.3785  0.0232  0.4867
 1530SOL    HW116049   1.576   3.012   9.534 -0.5409 -1.6603 -0.7585
 1530SOL    HW216050   1.555   3.064   9.402 -1.1892 -1.1095  1.2537
 1531SOL     OW16051   3.269   4.079   3.676 -0.1465 -0.4111 -0.9041
 1531SOL    HW116052   3.281   4.163   3.719 -2.5933 -0.5851  0.1240
 1531SOL    HW216053   3.347   4.029   3.699 -0.6109 -0.0088  1.5469
 1532SOL     OW16054   2.475   1.151  10.619 -0.3326  0.2426  0.2543
 1532SOL    HW116055   2.430   1.075  10.582  1.6021 -0.5146 -0.5847
 1532SOL    HW216056   2.540   1.177  10.554  2.2234  0.2854  2.8142
 1533SOL     OW16057   1.229   3.431   3.443 -0.4080  0.5488  0.4934
 1533SOL    HW116058   1.162   3.466   3.385 -2.0855 -0.6221  1.7444
 1533SOL    HW216059   1.252   3.357   3.386  0.7287  0.1221  1.4997
 1534SOL     OW16060   2.351   4.542   1.424 -0.2040 -0.4832  0.1472
 1534SOL    HW116061   2.260   4.570   1.423 -0.0699 -0.0606 -0.8253
 1534SOL    HW216062   2.404   4.613   1.462  0.5436 -1.4929  0.9703
 1535SOL     OW16063   0.309   3.751  11.436  0.1671  0.7172 -0.3987
 1535SOL    HW116064   0.228   3.796  11.413 -1.1901 -0.6918  1.7226
 1535SOL    HW216065   0.326   3.712  11.350 -1.8788  0.8801 -0.8615
 1536SOL     OW16066   4.362   0.684   3.595  0.4706 -0.3785  0.0101
 1536SOL    HW116067   4.431   0.732   3.549  1.2926 -0.3958  1.2374
 1536SOL    HW216068   4.400   0.601   3.624 -0.4883 -0.2183  1.7236
 1537SOL     OW16069   3.654   4.278   7.763 -0.0360 -0.2330  0.0903
 1537SOL    HW116070   3.750   4.272   7.760 -0.1845 -1.4441 -2.4173
 1537SOL    HW216071   3.616   4.280   7.851 -0.5415  3.9438 -0.2085
 1538SOL     OW16072   3.276   0.189   9.265 -0.5440 -0.3472  0.1628
 1538SOL    HW116073   3.192   0.230   9.284 -1.0166 -0.2542 -2.1352
 1538SOL    HW216074   3.331   0.221   9.337 -1.3555  0.5728  0.3611
 1539SOL     OW16075   1.732   2.918   6.177 -0.6043 -0.4850 -0.3867
 1539SOL    HW116076   1.796   2.847   6.176  0.0917  0.0790  3.3011
 1539SOL    HW216077   1.723   2.929   6.271  0.6127  1.4671 -0.4813
 1540SOL     OW16078   4.420   4.671  12.454  0.5310 -0.8361  0.0264
 1540SOL    HW116079   4.377   4.707  12.532  1.0504 -2.1208  0.9159
 1540SOL    HW216080   4.470   4.595  12.485 -1.0254 -1.7854  0.1954
 1541SOL     OW16081   0.794   0.910  10.715 -0.5890 -0.1271 -0.2244
 1541SOL    HW116082   0.840   0.830  10.740 -0.1053 -0.3535 -1.8090
 1541SOL    HW216083   0.707   0.885  10.747 -0.1249 -0.9849  0.3595
 1542SOL     OW16084   1.285   0.280   8.082  0.1657 -0.3256 -0.2006
 1542SOL    HW116085   1.220   0.350   8.086  1.1681  0.5971 -0.0643
 1542SOL    HW216086   1.282   0.237   7.996  1.0320 -0.2383 -0.2804
 1543SOL     OW16087   1.440   4.642   3.055  0.1220  0.4073  0.1569
 1543SOL    HW116088   1.498   4.574   3.089  1.3631  1.7684  0.7927
 1543SOL    HW216089   1.504   4.692   3.004  2.7333 -1.1270  1.9299
 1544SOL     OW16090   4.125   2.903   4.510  0.3728 -0.0534  0.4687
 1544SOL    HW116091   4.168   2.839   4.452 -1.3804  0.4698 -1.4012
 1544SOL    HW216092   4.147   2.980   4.459 -0.6135  0.1790  0.4055
 1545SOL     OW16093   3.048   4.469   7.175  0.2904  0.3150 -0.2887
 1545SOL    HW116094   3.096   4.401   7.126  0.3780 -1.8661  2.7819
 1545SOL    HW216095   3.012   4.426   7.252  1.7947  0.2923  0.4005
 1546SOL     OW16096   3.808   2.576   3.824  0.3309  0.1209 -1.0310
 1546SOL    HW116097   3.764   2.503   3.869  0.4664  0.8954  0.3690
 1546SOL    HW216098   3.802   2.654   3.879  0.5960  2.0921 -3.8254
 1547SOL     OW16099   2.270   1.277   5.456  0.2766  0.6508 -0.6886
 1547SOL    HW116100   2.179   1.306   5.455 -0.4794 -1.6427  0.5648
 1547SOL    HW216101   2.308   1.352   5.410  1.6185 -0.0910 -0.7717
 1548SOL     OW16102   1.170   2.585   9.732  0.6765  0.3702  0.2407
 1548SOL    HW116103   1.234   2.610   9.666 -1.3079  1.5473 -1.2466
 1548SOL    HW216104   1.227   2.564   9.806 -1.4833 -1.3170  1.4434
 1549SOL     OW16105   2.408   1.099   1.783  0.0509 -0.4938  0.6372
 1549SOL    HW116106   2.483   1.138   1.829 -1.0621  3.5169 -0.9042
 1549SOL    HW216107   2.444   1.037   1.720  2.1555  1.4880 -0.1416
 1550SOL     OW16108   3.983   4.434   1.306 -0.3126  0.6154 -0.0846
 1550SOL    HW116109   4.071   4.469   1.288 -0.0006 -1.0835 -1.8179
 1550SOL    HW216110   3.926   4.504   1.336  2.3712  3.2227 -1.0219
 1551SOL     OW16111   0.238   0.613   8.327  0.0456 -0.1192 -0.1854
 1551SOL    HW116112   0.174   0.647   8.390 -0.1698  0.8659 -0.9230
 1551SOL    HW216113   0.294   0.690   8.322 -0.4419  0.2606  0.2498
 1552SOL     OW16114   1.350   3.845   8.638  0.2046  0.3965  0.0176
 1552SOL    HW116115   1.384   3.849   8.727  0.4727  0.6409 -0.0942
 1552SOL    HW216116   1.428   3.813   8.593  0.3307  0.2463  0.3417
 1553SOL     OW16117   0.786   4.381   0.105  0.2371  0.1261 -0.2193
 1553SOL    HW116118   0.824   4.468   0.087 -1.9455  1.0271 -0.4267
 1553SOL    HW216119   0.859   4.346   0.157  1.7878  2.9226 -0.4789
 1554SOL     OW16120   0.159   3.822   0.463  0.2271 -0.2957 -0.1061
 1554SOL    HW116121   0.129   3.769   0.536 -0.5443  0.3407  0.0320
 1554SOL    HW216122   0.165   3.747   0.403  0.1279  0.4862 -1.1067
 1555SOL     OW16123   3.073   1.940  17.191 -0.6090  0.1608 -0.1967
 1555SOL    HW116124   3.071   1.933  17.095  0.1413 -0.8292 -0.1380
 1555SOL    HW216125   3.150   1.995  17.206  0.3857 -1.5762  1.0111
 1556SOL     OW16126   0.126   0.070   8.099 -0.2825 -0.4795 -0.4868
 1556SOL    HW116127   0.064   4.720   8.090 -1.3213  0.1845  1.5303
 1556SOL    HW216128   0.198   0.036   8.046  1.5228  1.0589  0.9758
 1557SOL     OW16129   2.823   2.424   3.530  1.0262 -0.1577  0.1022
 1557SOL    HW116130   2.803   2.330   3.537 -0.5495  0.2626  1.1725
 1557SOL    HW216131   2.917   2.422   3.511  0.8056 -1.6223 -0.8812
 1558SOL     OW16132   1.842   1.631   7.545  0.1372  0.2858 -0.3315
 1558SOL    HW116133   1.910   1.696   7.532  1.0025 -0.4611  0.4617
 1558SOL    HW216134   1.864   1.566   7.478 -0.5168  0.6174 -0.8681
 1559SOL     OW16135   1.586   2.607   4.326  0.0788 -0.7437 -0.2256
 1559SOL    HW116136   1.679   2.590   4.336  0.2852 -1.0349 -2.5373
 1559SOL    HW216137   1.575   2.684   4.382 -0.9036  0.1693 -1.6608
 1560SOL     OW16138   1.746   2.331   7.489  0.2826  0.2705  0.1869
 1560SOL    HW116139   1.794   2.347   7.569 -1.4192 -1.2707  1.5368
 1560SOL    HW216140   1.659   2.367   7.510 -0.5372 -0.6318 -1.6260
 1561SOL     OW16141   2.091   3.053  16.929 -0.1590  0.2629  0.3001
 1561SOL    HW116142   2.089   2.962  16.900  0.8813  0.7715 -1.3389
 1561SOL    HW216143   2.052   3.091  16.850  3.0763  1.7383 -0.5499
 1562SOL     OW16144   2.505   2.325   3.050 -0.5324 -0.1637 -0.2229
 1562SOL    HW116145   2.520   2.318   2.955  1.1552 -1.5404  0.1461
 1562SOL    HW216146   2.580   2.276   3.084 -0.8805  0.2444  1.1055
 1563SOL     OW16147   2.181   3.263   3.765 -0.0764  0.0751  0.1738
 1563SOL    HW116148   2.102   3.314   3.786  0.2178  0.5010  0.2406
 1563SOL    HW216149   2.176   3.271   3.670 -0.1528 -0.8761  0.0967
 1564SOL     OW16150   3.369   0.693   0.854 -0.6429  1.0311 -0.1485
 1564SOL    HW116151   3.424   0.765   0.885 -0.2774  1.3303 -1.4698
 1564SOL    HW216152   3.285   0.738   0.854 -1.9031 -1.3311 -1.5900
 1565SOL     OW16153   4.255   2.907  14.273 -0.2726  0.3287  0.0337
 1565SOL    HW116154   4.278   2.991  14.314  0.5339  1.4652 -2.7508
 1565SOL    HW216155   4.174   2.886  14.319 -1.3406  1.7258 -1.2607
 1566SOL     OW16156   1.789   2.572  10.318  0.0308 -0.0263 -0.2005
 1566SOL    HW116157   1.804   2.661  10.286  1.4528 -0.2199 -0.0963
 1566SOL    HW216158   1.702   2.588  10.352  0.5516  0.0370  1.0902
 1567SOL     OW16159   1.768   3.632   9.853 -0.1115  0.6951  0.0839
 1567SOL    HW116160   1.770   3.602   9.944  3.7318 -0.3820 -0.3254
 1567SOL    HW216161   1.822   3.564   9.811 -1.5985 -0.0606 -0.5907
 1568SOL     OW16162   2.588   0.389   6.662  0.4119 -0.1491 -0.0212
 1568SOL    HW116163   2.678   0.419   6.660 -0.1764  1.5145 -1.8169
 1568SOL    HW216164   2.609   0.296   6.656  0.1252 -0.3349  1.9216
 1569SOL     OW16165   3.941   2.500   3.200 -0.3077  0.0610  0.5332
 1569SOL    HW116166   3.924   2.417   3.154  1.6332 -0.2662  0.4010
 1569SOL    HW216167   3.860   2.551   3.195 -1.9894 -2.5121  1.3424
 1570SOL     OW16168   3.611   1.195   6.034  0.4638 -0.2407  0.5282
 1570SOL    HW116169   3.627   1.284   6.003  0.3580  0.0446  1.2872
 1570SOL    HW216170   3.562   1.205   6.116 -0.1522  1.4992 -0.0619
 1571SOL     OW16171   1.822   2.757   8.081 -0.1478 -0.0734  0.0061
 1571SOL    HW116172   1.770   2.830   8.048 -1.1022 -0.5069  0.5458
 1571SOL    HW216173   1.907   2.800   8.083  1.0252 -2.4119  0.2909
 1572SOL     OW16174   2.531   2.079   3.561 -0.0616  0.7169  0.4361
 1572SOL    HW116175   2.467   2.143   3.589 -1.7377 -0.9142  0.3593
 1572SOL    HW216176   2.525   2.022   3.638  0.1794 -2.6947 -2.0756
 1573SOL     OW16177   1.267   4.721   7.291  0.1403 -0.6372 -0.1246
 1573SOL    HW116178   1.287   4.651   7.229 -0.7507 -0.1820 -0.9338
 1573SOL    HW216179   1.211   0.055   7.238  0.1946 -0.3024  0.1829
 1574SOL     OW16180   0.111   0.403   6.283  0.2436  0.4359 -0.4998
 1574SOL    HW116181   0.118   0.312   6.310  0.6932  1.1655  1.8154
 1574SOL    HW216182   0.087   0.392   6.191  1.7238  0.1328 -0.8569
 1575SOL     OW16183   3.667   1.502  17.059  0.0440 -0.3384 -0.1450
 1575SOL    HW116184   3.659   1.596  17.076  0.4421 -0.8424  2.8953
 1575SOL    HW216185   3.653   1.469  17.148  0.3686  1.7747  0.6849
 1576SOL     OW16186   2.643   2.288   2.803 -0.0929  0.0982 -0.2461
 1576SOL    HW116187   2.661   2.369   2.756  1.0703 -1.2893 -2.1737
 1576SOL    HW216188   2.727   2.250   2.827 -0.5816 -0.4455  0.6095
 1577SOL     OW16189   0.699   0.106  12.188 -0.2284 -0.3784 -0.3089
 1577SOL    HW116190   0.783   0.141  12.218  1.0411 -2.5211 -1.4267
 1577SOL    HW216191   0.656   0.191  12.178  0.7550  0.4923  2.9488
 1578SOL     OW16192   4.411   2.169   3.277  0.1591  0.3961 -0.0474
 1578SOL    HW116193   4.460   2.214   3.346  2.3523 -0.1288 -1.2792
 1578SOL    HW216194   4.435   2.215   3.197 -0.1243  0.4362 -0.1124
 1579SOL     OW16195   0.895   3.953   8.630  0.1969 -0.0674  0.1357
 1579SOL    HW116196   0.814   3.915   8.596  1.2699 -1.3656 -0.9616
 1579SOL    HW216197   0.935   3.886   8.686  0.8422  0.3482  0.1758
 1580SOL     OW16198   4.642   1.019   8.629 -0.6465  0.0382  0.5468
 1580SOL    HW116199   4.601   0.938   8.598 -0.7078  1.4794 -3.1321
 1580SOL    HW216200   4.720   0.977   8.665 -0.3425  0.4062  0.3237
 1581SOL     OW16201   0.515   0.638   6.347 -0.3488  0.0982  0.1597
 1581SOL    HW116202   0.583   0.605   6.288 -0.9245 -1.7593  0.5481
 1581SOL    HW216203   0.441   0.583   6.322 -0.6411  0.3386  0.5039
 1582SOL     OW16204   4.160   2.303  12.611  0.2015  0.1608 -0.3560
 1582SOL    HW116205   4.172   2.361  12.686  0.2254  0.1685 -0.3655
 1582SOL    HW216206   4.241   2.327  12.564 -0.1571  1.6930 -0.1702
 1583SOL     OW16207   3.110   2.696   6.707  0.0609 -0.1298 -0.0690
 1583SOL    HW116208   3.036   2.728   6.655 -1.7995  0.6036  3.0182
 1583SOL    HW216209   3.094   2.731   6.794  0.6507  0.5956 -0.2501
 1584SOL     OW16210   2.281   4.392   2.501  0.0647  0.2972 -0.3418
 1584SOL    HW116211   2.284   4.487   2.513 -3.7594  0.7734 -3.0453
 1584SOL    HW216212   2.250   4.385   2.411  2.2182 -2.1035 -0.9008
 1585SOL     OW16213   1.354   3.917   8.929 -0.4580  0.5726 -0.2170
 1585SOL    HW116214   1.398   3.979   8.988  0.1273 -0.7491  0.7235
 1585SOL    HW216215   1.307   3.983   8.877 -0.0121  0.8994 -0.2072
 1586SOL     OW16216   4.061   1.486   5.974  0.0639  0.1521  0.0589
 1586SOL    HW116217   4.105   1.571   5.980  0.0645  0.3390 -2.6597
 1586SOL    HW216218   4.033   1.459   6.062 -2.4445  1.4812 -0.3419
 1587SOL     OW16219   0.778   2.361   6.102 -0.2764 -0.4742 -0.7710
 1587SOL    HW116220   0.848   2.418   6.070 -0.9038  0.6703 -0.0674
 1587SOL    HW216221   0.800   2.280   6.054 -0.8415 -0.7632 -0.5419
 1588SOL     OW16222   4.631   3.411   1.869  0.2427  0.2436 -0.0968
 1588SOL    HW116223   4.702   3.438   1.811  0.4542 -1.6184 -0.6938
 1588SOL    HW216224   4.573   3.487   1.868 -0.6357 -0.3863  1.5931
 1589SOL     OW16225   2.311   2.287   4.389  0.5840 -0.3484  0.6046
 1589SOL    HW116226   2.345   2.201   4.413  1.0114  0.3301  2.4075
 1589SOL    HW216227   2.389   2.342   4.397  0.5374 -0.0857 -0.6364
 1590SOL     OW16228   4.660   3.132  13.760 -0.0671 -0.1116 -0.0689
 1590SOL    HW116229   4.606   3.207  13.785 -3.0444 -1.1558 -3.2609
 1590SOL    HW216230   4.633   3.069  13.827  1.1134  0.2732  0.7719
 1591SOL     OW16231   2.381   2.582   6.638  0.2154  0.3856 -0.6680
 1591SOL    HW116232   2.375   2.532   6.720 -1.8164  0.4069 -0.8095
 1591SOL    HW216233   2.466   2.558   6.600 -0.1257 -1.5623 -0.2120
 1592SOL     OW16234   0.379   1.697  16.542 -0.1135  0.2652 -0.3511
 1592SOL    HW116235   0.404   1.662  16.456  2.7131 -0.0142  0.6042
 1592SOL    HW216236   0.360   1.790  16.544  1.1117  0.4316  2.6008
 1593SOL     OW16237   1.404   2.747  14.897 -0.0004  0.9228 -0.2059
 1593SOL    HW116238   1.471   2.733  14.964 -2.3253  0.0909  1.9666
 1593SOL    HW216239   1.457   2.740  14.818 -1.0303  0.3189 -0.8388
 1594SOL     OW16240   4.346   1.431  11.024  0.2186  0.1973  0.0346
 1594SOL    HW116241   4.311   1.507  11.072  2.2989 -0.1053  2.0230
 1594SOL    HW216242   4.372   1.377  11.099 -0.9319  1.0226  1.0408
 1595SOL     OW16243   1.226   3.807   2.023 -0.3291 -0.3182  0.0468
 1595SOL    HW116244   1.281   3.839   2.095 -0.4243 -1.1241  0.4725
 1595SOL    HW216245   1.289   3.753   1.977  2.0514  1.5210  1.1676
 1596SOL     OW16246   2.750   1.757   6.360  0.0789  0.3425 -0.2610
 1596SOL    HW116247   2.793   1.843   6.352 -0.6339  0.8602  1.3865
 1596SOL    HW216248   2.757   1.746   6.455 -1.4535 -0.0507 -0.1964
 1597SOL     OW16249   3.465   1.838   3.613  0.3004 -1.2132  0.1353
 1597SOL    HW116250   3.529   1.813   3.680  1.6338  0.8588 -0.3925
 1597SOL    HW216251   3.506   1.798   3.536 -1.2192 -1.0566 -0.7388
 1598SOL     OW16252   2.154   3.855   8.332 -0.1522  0.5239  0.5183
 1598SOL    HW116253   2.101   3.775   8.326 -0.0259  0.4425  0.4712
 1598SOL    HW216254   2.117   3.899   8.256  2.4258 -1.1461 -1.7229
 1599SOL     OW16255   2.634   1.607  10.004 -0.3149 -0.3563  0.4100
 1599SOL    HW116256   2.569   1.547   9.969 -1.4813  0.3869  1.2878
 1599SOL    HW216257   2.716   1.557  10.000 -0.2995 -0.2373 -0.7804
 1600SOL     OW16258   4.683   2.322   9.106  0.2124 -0.0456  0.0832
 1600SOL    HW116259   0.015   2.367   9.170  1.0749 -0.9201 -0.0330
 1600SOL    HW216260   0.018   2.252   9.074  1.4354  1.5089 -1.1202
 1601SOL     OW16261   3.681   3.219  15.440 -0.4477  0.2572  0.6418
 1601SOL    HW116262   3.773   3.212  15.466 -0.8310  0.2483  1.9878
 1601SOL    HW216263   3.670   3.299  15.491 -1.0757  0.4837  0.1613
 1602SOL     OW16264   3.276   3.678  11.005 -0.7665  0.4892 -0.6330
 1602SOL    HW116265   3.203   3.642  11.056  0.2379 -0.9447 -0.1888
 1602SOL    HW216266   3.324   3.596  10.999  0.5792  1.1031  2.1515
 1603SOL     OW16267   1.923   1.192  12.843 -0.4452 -0.1723  0.1586
 1603SOL    HW116268   1.909   1.135  12.919  0.8635 -0.2480  0.3384
 1603SOL    HW216269   1.975   1.258  12.889  0.6317 -0.4345 -0.7045
 1604SOL     OW16270   1.517   4.304  12.019  0.4007 -0.2977  0.3022
 1604SOL    HW116271   1.491   4.243  11.950  1.5144  1.0724 -1.3030
 1604SOL    HW216272   1.445   4.272  12.074 -0.1687  0.8426  0.2045
 1605SOL     OW16273   1.174   4.161   3.666  0.8598 -0.0578 -0.5760
 1605SOL    HW116274   1.101   4.118   3.710  0.4223  0.6896 -0.5649
 1605SOL    HW216275   1.122   4.235   3.635  2.0702  0.9770 -0.1181
 1606SOL     OW16276   1.183   3.101   5.249  0.1080  0.3166 -0.0698
 1606SOL    HW116277   1.190   3.006   5.235 -1.3777  0.1552  0.3029
 1606SOL    HW216278   1.274   3.132   5.242 -0.0014  0.2933 -1.7320
 1607SOL     OW16279   4.008   3.825  14.776 -0.7571 -0.1139  0.4515
 1607SOL    HW116280   3.993   3.912  14.738 -0.3705 -0.7652 -1.1692
 1607SOL    HW216281   4.100   3.806  14.756 -1.0574 -0.0888 -1.0017
 1608SOL     OW16282   4.182   1.105   4.301  0.1709 -0.3544  0.2623
 1608SOL    HW116283   4.117   1.159   4.347 -1.1960 -0.8237 -1.0838
 1608SOL    HW216284   4.155   1.017   4.330  3.7055 -0.9475  1.6615
 1609SOL     OW16285   0.389   2.829   0.647 -0.8120 -0.5611  0.1217
 1609SOL    HW116286   0.318   2.892   0.637 -0.0369 -0.0126 -1.9718
 1609SOL    HW216287   0.378   2.785   0.562 -0.4318  1.1005 -0.7936
 1610SOL     OW16288   0.407   4.097   5.727 -0.3279  0.7390  0.1973
 1610SOL    HW116289   0.416   4.105   5.822  1.7535  1.5347 -0.0627
 1610SOL    HW216290   0.497   4.095   5.693 -0.4938 -1.9018 -0.1551
 1611SOL     OW16291   4.328   3.437  11.068 -0.0948  0.0727  0.0697
 1611SOL    HW116292   4.359   3.474  10.985 -0.4888 -0.1615 -0.1795
 1611SOL    HW216293   4.286   3.360  11.030  0.9121 -0.2162 -0.4541
 1612SOL     OW16294   3.612   4.413  12.343 -0.0971  0.2763 -0.3672
 1612SOL    HW116295   3.677   4.390  12.277  0.3466  0.3054  0.0603
 1612SOL    HW216296   3.628   4.505  12.367 -0.4342 -0.0005  0.9305
 1613SOL     OW16297   3.825   4.680   4.669  0.2610  0.1829  0.3751
 1613SOL    HW116298   3.853   0.047   4.650 -0.8707  0.6046  0.7039
 1613SOL    HW216299   3.757   4.698   4.734 -0.6816 -0.5820 -0.3831
 1614SOL     OW16300   1.942   2.554   5.542 -1.1354 -0.2395  0.4960
 1614SOL    HW116301   1.967   2.645   5.555 -0.1579 -0.7200  1.9269
 1614SOL    HW216302   1.875   2.571   5.475 -2.4755  0.9829  2.1276
 1615SOL     OW16303   0.962   1.319   7.913 -0.0182 -0.6580  0.1195
 1615SOL    HW116304   0.935   1.362   7.832 -1.3346  0.7447  1.3032
 1615SOL    HW216305   1.044   1.362   7.940 -0.1282  0.8217 -1.8716
 1616SOL     OW16306   3.613   0.374   4.640 -0.1072 -0.2067 -0.2842
 1616SOL    HW116307   3.609   0.452   4.695 -0.5190 -1.3402  1.3299
 1616SOL    HW216308   3.705   0.353   4.623  0.1432 -0.7093  1.6416
 1617SOL     OW16309   3.934   0.149  14.763  0.6654 -0.5785 -0.0079
 1617SOL    HW116310   3.937   0.189  14.850  2.1520  1.5865 -1.0648
 1617SOL    HW216311   3.886   0.068  14.783 -2.1496  1.2830  0.8340
 1618SOL     OW16312   3.693   3.451  17.169 -0.0788 -0.0604  0.3338
 1618SOL    HW116313   3.762   3.403  17.122  0.9188  0.7460  0.9547
 1618SOL    HW216314   3.693   3.412  17.256  1.4119 -1.0324 -0.0916
 1619SOL     OW16315   1.181   4.183   1.147  0.0993 -0.0774  0.1197
 1619SOL    HW116316   1.272   4.153   1.137  0.8158  2.5115 -1.1314
 1619SOL    HW216317   1.199   4.275   1.167  1.4672  0.1661 -2.2108
 1620SOL     OW16318   2.515   0.785   5.888 -0.6554  0.1222  0.6351
 1620SOL    HW116319   2.469   0.814   5.809 -1.6625 -4.7949 -0.5881
 1620SOL    HW216320   2.446   0.781   5.954 -1.4465  1.1184 -0.1318
 1621SOL     OW16321   3.009   0.893   6.748 -0.0818 -0.5149  0.2174
 1621SOL    HW116322   2.938   0.901   6.684 -0.7117 -0.0066  0.9789
 1621SOL    HW216323   2.988   0.964   6.808  2.1859  0.1781  0.1569
 1622SOL     OW16324   2.621   0.265  11.875  0.0982  0.0459  0.4565
 1622SOL    HW116325   2.633   0.217  11.957 -0.5305  1.7167  1.5436
 1622SOL    HW216326   2.633   0.204  11.803  2.2068  0.9690  0.0133
 1623SOL     OW16327   0.831   1.089   2.131 -0.0860 -0.6536  0.1383
 1623SOL    HW116328   0.913   1.050   2.161 -0.6417  0.0655  2.5363
 1623SOL    HW216329   0.829   1.035   2.052 -1.3812  1.2919 -1.1525
 1624SOL     OW16330   1.273   4.401   7.672 -0.0605 -0.0924  0.4475
 1624SOL    HW116331   1.230   4.412   7.588  0.1286  1.9543  0.6309
 1624SOL    HW216332   1.287   4.488   7.709 -1.5382  1.1341 -1.9225
 1625SOL     OW16333   0.861   3.314   4.222  0.0795 -0.4076 -0.3343
 1625SOL    HW116334   0.766   3.310   4.212 -0.0222  0.1254  0.4203
 1625SOL    HW216335   0.883   3.253   4.292  1.3471 -0.0202 -0.4000
 1626SOL     OW16336   4.338   0.099  11.331  0.4005 -0.1271 -0.8122
 1626SOL    HW116337   4.310   0.013  11.301 -0.5847 -1.0290  2.7480
 1626SOL    HW216338   4.261   0.151  11.308  0.4055  0.6991  0.9901
 1627SOL     OW16339   2.831   0.437  16.776  0.0856 -0.3306  0.3867
 1627SOL    HW116340   2.748   0.476  16.801 -0.0315  0.7893 -1.7189
 1627SOL    HW216341   2.826   0.362  16.835 -1.9930 -2.2342 -2.2537
 1628SOL     OW16342   1.417   4.123   5.667  0.1861 -0.3744  0.3505
 1628SOL    HW116343   1.496   4.174   5.682  0.1921  0.3045 -2.1056
 1628SOL    HW216344   1.357   4.180   5.620 -0.8967  0.5403  2.8340
 1629SOL     OW16345   1.352   1.584  10.737  0.2562 -0.2062 -0.5848
 1629SOL    HW116346   1.387   1.547  10.655  0.8559  1.6762 -1.1811
 1629SOL    HW216347   1.258   1.593  10.726  0.7050  1.0035 -3.5802
 1630SOL     OW16348   4.343   1.764   0.633 -0.4267  0.0933  0.3142
 1630SOL    HW116349   4.436   1.784   0.635 -0.6789  1.3498 -0.5331
 1630SOL    HW216350   4.325   1.703   0.704  1.8049 -0.3199  0.5137
 1631SOL     OW16351   1.269   2.369   0.215  0.0755  0.2998  0.1335
 1631SOL    HW116352   1.240   2.290   0.260 -2.6952  0.1930 -1.8651
 1631SOL    HW216353   1.265   2.340   0.124 -0.5842 -0.6129  0.4616
 1632SOL     OW16354   0.366   1.193   9.414 -0.3290 -0.1249  0.5493
 1632SOL    HW116355   0.319   1.161   9.337  2.3957 -3.1671  0.1545
 1632SOL    HW216356   0.298   1.256   9.439 -0.8532 -0.9240  1.1251
 1633SOL     OW16357   0.522   2.018  13.244 -0.3985 -0.1685 -0.1585
 1633SOL    HW116358   0.566   1.934  13.258 -0.2793  0.0067  0.5094
 1633SOL    HW216359   0.464   1.998  13.170  1.0875 -0.9170 -1.1143
 1634SOL     OW16360   2.905   3.948   1.659  0.2689  0.2412 -0.6931
 1634SOL    HW116361   2.960   3.958   1.581 -0.7125 -0.5858 -1.4993
 1634SOL    HW216362   2.932   4.023   1.712 -2.1010 -0.5460  1.6025
 1635SOL     OW16363   3.767   2.689   6.960 -0.9037 -0.4842  0.4965
 1635SOL    HW116364   3.710   2.693   7.038 -1.3261  0.9002  0.1130
 1635SOL    HW216365   3.824   2.765   6.974 -0.0767 -1.0786  0.3437
 1636SOL     OW16366   2.119   3.297   2.911  0.0443  0.3986 -0.1924
 1636SOL    HW116367   2.128   3.202   2.914  0.2430  0.3827 -1.5376
 1636SOL    HW216368   2.207   3.328   2.889 -0.9569  2.7054 -0.9289
 1637SOL     OW16369   3.925   0.622   5.309  0.3678  0.4875  0.5009
 1637SOL    HW116370   3.972   0.564   5.370  0.7795 -1.2709 -1.4746
 1637SOL    HW216371   3.844   0.571   5.297 -0.0716  1.6896 -1.5611
 1638SOL     OW16372   4.520   2.285   3.049  0.4161  0.0750  0.1008
 1638SOL    HW116373   4.604   2.251   3.082  0.9650  1.4560  0.1129
 1638SOL    HW216374   4.525   2.256   2.957  3.7149  0.9402 -0.0053
 1639SOL     OW16375   0.797   1.728   7.170  0.2308 -0.0276  0.2783
 1639SOL    HW116376   0.806   1.746   7.076  2.5686  1.4609  0.7973
 1639SOL    HW216377   0.827   1.808   7.214  1.6143  0.1628 -1.0368
 1640SOL     OW16378   4.677   2.276   3.568 -0.0933 -0.2038  0.1848
 1640SOL    HW116379   4.600   2.333   3.563 -0.6117 -0.8020  1.2779
 1640SOL    HW216380   4.721   2.294   3.485 -0.8985 -0.1440 -0.2349
 1641SOL     OW16381   2.952   4.134   4.011 -0.7200 -0.1498 -0.3818
 1641SOL    HW116382   2.884   4.137   4.078 -0.5738 -0.3999 -0.2216
 1641SOL    HW216383   2.970   4.226   3.990  2.9156 -1.1877 -1.7016
 1642SOL     OW16384   1.747   0.224   3.084 -0.5891 -0.3619  0.8767
 1642SOL    HW116385   1.814   0.270   3.034 -1.1183  0.4796  0.9481
 1642SOL    HW216386   1.797   0.186   3.156  1.9041  2.5548  0.6494
 1643SOL     OW16387   1.885   0.547   4.651  1.1542  0.1645  0.2905
 1643SOL    HW116388   1.912   0.603   4.724  1.3412 -0.7577  0.9178
 1643SOL    HW216389   1.969   0.519   4.616  0.3772  1.6623 -2.7258
 1644SOL     OW16390   2.240   2.753   3.100  0.1351  0.6407  0.6692
 1644SOL    HW116391   2.174   2.821   3.115  0.7135  0.6895  3.0359
 1644SOL    HW216392   2.187   2.674   3.095  0.2196  0.7915 -2.6569
 1645SOL     OW16393   3.297   4.216   2.363  0.4076 -0.2115 -0.0860
 1645SOL    HW116394   3.230   4.237   2.428  0.7082 -1.1721  0.5406
 1645SOL    HW216395   3.351   4.296   2.364  2.5110 -1.6163 -1.3648
 1646SOL     OW16396   3.924   2.181  12.654  0.1279  0.0652  0.0128
 1646SOL    HW116397   3.947   2.098  12.695  2.3921  1.2023  1.0317
 1646SOL    HW216398   4.010   2.214  12.629  0.3414 -1.2520 -1.0011
 1647SOL     OW16399   1.710   3.145   5.110 -0.1850  0.6065  0.4221
 1647SOL    HW116400   1.785   3.097   5.073 -0.8903 -1.7634  2.0628
 1647SOL    HW216401   1.698   3.212   5.043 -1.0889 -0.1694 -0.2045
 1648SOL     OW16402   1.179   0.620   1.229  0.0005  0.0198 -0.4912
 1648SOL    HW116403   1.165   0.661   1.314  3.4320  0.7350 -0.2691
 1648SOL    HW216404   1.088   0.598   1.206 -0.0155 -1.7500  1.2806
 1649SOL     OW16405   1.873   1.253   6.321 -0.5019 -0.2261  0.0572
 1649SOL    HW116406   1.849   1.160   6.319 -3.4648  0.4974  1.6751
 1649SOL    HW216407   1.891   1.271   6.413 -1.8413 -0.1845  0.3190
 1650SOL     OW16408   2.731   3.481   6.100 -0.2590  0.1165 -0.2766
 1650SOL    HW116409   2.699   3.516   6.183 -0.6445 -0.7410 -0.0561
 1650SOL    HW216410   2.801   3.543   6.082 -0.3363  0.4417  0.5721
 1651SOL     OW16411   4.238   4.441  12.677 -0.1205 -0.8137 -0.2139
 1651SOL    HW116412   4.252   4.350  12.648  0.8941 -0.5932 -0.4183
 1651SOL    HW216413   4.309   4.441  12.740  0.4485  0.3461 -0.8694
 1652SOL     OW16414   4.639   3.629   4.280  0.0371 -0.1057 -0.4129
 1652SOL    HW116415   4.672   3.563   4.219 -1.3072 -0.0876 -1.1571
 1652SOL    HW216416   4.686   3.618   4.363  1.7655  2.2474 -1.0844
 1653SOL     OW16417   1.898   2.254   8.075 -0.0217  0.2862 -0.0006
 1653SOL    HW116418   1.808   2.228   8.092  0.5399 -1.4533  0.2648
 1653SOL    HW216419   1.919   2.197   8.001  1.6530 -1.4060  1.7647
 1654SOL     OW16420   0.619   0.662   5.456  0.2991  0.1357 -0.0121
 1654SOL    HW116421   0.621   0.750   5.493  0.6747  0.3662 -0.5845
 1654SOL    HW216422   0.565   0.683   5.380 -1.3485 -3.4934  0.1533
 1655SOL     OW16423   4.126   2.075  12.036  0.0382  0.3748 -0.0965
 1655SOL    HW116424   4.098   2.147  11.980  1.0081  3.0731  2.9536
 1655SOL    HW216425   4.133   2.111  12.124  1.3240  0.5777 -0.2811
 1656SOL     OW16426   3.604   1.739   3.819  0.0606 -0.0139  0.0798
 1656SOL    HW116427   3.609   1.797   3.895 -2.2237  1.2340 -0.7343
 1656SOL    HW216428   3.594   1.649   3.851 -0.8613 -0.1988 -0.7281
 1657SOL     OW16429   1.940   4.624   7.687 -0.8058  0.7658 -0.0349
 1657SOL    HW116430   2.013   4.565   7.667 -1.9020 -1.1274  1.6073
 1657SOL    HW216431   1.900   4.634   7.600 -1.2861 -0.0151  0.0931
 1658SOL     OW16432   0.179   1.780   5.998  0.6642 -1.0502  0.1223
 1658SOL    HW116433   0.162   1.733   5.916  0.7689  1.5559 -1.4121
 1658SOL    HW216434   0.158   1.868   5.967 -0.4242 -3.0132 -4.7899
 1659SOL     OW16435   3.737   1.143  12.249  0.0965 -0.0035  0.1984
 1659SOL    HW116436   3.667   1.093  12.207  0.1368 -0.6182  0.8707
 1659SOL    HW216437   3.755   1.215  12.187 -0.5216  0.8149  0.9777
 1660SOL     OW16438   0.428   2.359   9.207  0.3531  0.4380 -0.0806
 1660SOL    HW116439   0.503   2.361   9.268  0.0866  1.5386  0.2070
 1660SOL    HW216440   0.476   2.326   9.131 -1.9402  0.3933 -1.4838
 1661SOL     OW16441   1.138   3.600  16.483 -0.3369  0.3283  0.0411
 1661SOL    HW116442   1.183   3.528  16.439 -3.3743 -1.3655 -0.3229
 1661SOL    HW216443   1.073   3.625  16.417 -0.9881  0.5585  0.7750
 1662SOL     OW16444   2.591   0.670   7.191  0.3008 -0.3697 -0.1867
 1662SOL    HW116445   2.563   0.618   7.116  0.8365  1.2647 -1.5128
 1662SOL    HW216446   2.559   0.610   7.258  3.8753 -1.3740  0.6084
 1663SOL     OW16447   1.683   0.895   4.954 -0.4660 -0.0495 -0.5324
 1663SOL    HW116448   1.644   0.809   4.941 -3.3634  0.9729  1.3090
 1663SOL    HW216449   1.759   0.869   5.006  1.2496  1.6694 -2.1612
 1664SOL     OW16450   1.105   1.218   5.972  0.6417  0.1243  0.8061
 1664SOL    HW116451   1.135   1.308   5.988 -0.1039  1.1280 -3.3470
 1664SOL    HW216452   1.024   1.217   6.023  0.5453  0.1815  0.6535
 1665SOL     OW16453   4.297   3.676   9.559 -0.2097  0.8732  0.1527
 1665SOL    HW116454   4.280   3.689   9.466  0.1373 -0.6992 -0.1440
 1665SOL    HW216455   4.222   3.722   9.595 -0.9144  0.7423 -1.1574
 1666SOL     OW16456   1.786   2.057  13.499  0.6354 -0.3671 -0.2603
 1666SOL    HW116457   1.796   1.987  13.435 -0.1881  0.6610 -1.5129
 1666SOL    HW216458   1.794   2.136  13.446  0.1406 -1.8151 -2.4793
 1667SOL     OW16459   1.011   2.199   6.377 -0.5607  0.0429  0.3253
 1667SOL    HW116460   1.022   2.225   6.286  0.2240  1.6871  0.8884
 1667SOL    HW216461   1.061   2.270   6.417  0.9402 -1.0660  0.4403
 1668SOL     OW16462   2.228   3.443   2.602  0.5615 -0.1162 -0.0832
 1668SOL    HW116463   2.225   3.427   2.696  1.0373 -0.0504 -0.0553
 1668SOL    HW216464   2.323   3.437   2.591  0.2903  1.4865 -3.6303
 1669SOL     OW16465   2.422   3.885  14.054  0.7540 -0.3455 -0.1047
 1669SOL    HW116466   2.411   3.790  14.059  0.7955 -0.4255 -1.5938
 1669SOL    HW216467   2.332   3.916  14.050  1.1221  0.5426 -1.6205
 1670SOL     OW16468   0.977   3.537  11.714 -0.8435 -0.1497  0.2422
 1670SOL    HW116469   1.017   3.464  11.668  0.6344  0.9612 -0.2301
 1670SOL    HW216470   1.025   3.614  11.686 -0.3526 -0.3826  0.4435
 1671SOL     OW16471   4.628   3.678   5.747  0.1947 -0.2486 -0.3149
 1671SOL    HW116472   4.670   3.690   5.832  0.6814 -0.7045 -0.4869
 1671SOL    HW216473   4.579   3.596   5.755  0.2161 -0.2434 -0.1310
 1672SOL     OW16474   1.738   0.081  16.406 -0.0196  0.5425  0.3840
 1672SOL    HW116475   1.803   0.037  16.351 -1.1289 -1.2021  0.4661
 1672SOL    HW216476   1.727   0.027  16.485 -0.7433 -2.3814 -1.7031
 1673SOL     OW16477   3.031   1.786  16.611  0.4743  0.2358 -0.5284
 1673SOL    HW116478   3.038   1.874  16.648 -1.6290  0.9674 -1.8343
 1673SOL    HW216479   3.119   1.762  16.583 -0.0794  0.0394 -2.1463
 1674SOL     OW16480   3.068   0.336   6.632  0.2060  0.1230 -0.1479
 1674SOL    HW116481   3.074   0.298   6.719 -1.2601 -1.3704 -0.6911
 1674SOL    HW216482   3.076   0.265   6.568 -0.9835 -0.0476 -0.1072
 1675SOL     OW16483   0.182   3.637   8.513  0.2097  0.1207 -0.0850
 1675SOL    HW116484   0.114   3.611   8.451 -0.3859 -0.2241  0.7036
 1675SOL    HW216485   0.257   3.583   8.490 -0.1298 -0.4453  0.1454
 1676SOL     OW16486   0.470   0.902   4.977  0.0522  0.5045  0.3224
 1676SOL    HW116487   0.522   0.849   4.916  1.6844  1.4041  0.9286
 1676SOL    HW216488   0.494   0.985   4.938  0.7676 -0.3883 -1.1259
 1677SOL     OW16489   2.776   3.403   0.672  0.2691 -0.0532  0.1906
 1677SOL    HW116490   2.819   3.407   0.586  1.9128 -0.7385  0.9783
 1677SOL    HW216491   2.691   3.364   0.650  1.1184 -2.7971  1.7214
 1678SOL     OW16492   2.421   0.561   1.967  0.1069 -0.5355 -0.5406
 1678SOL    HW116493   2.367   0.494   1.925 -1.2868 -0.8782  1.7926
 1678SOL    HW216494   2.510   0.528   1.969  0.5130  0.5634 -0.6344
 1679SOL     OW16495   2.454   2.930   5.184 -0.0299  0.5683  0.4008
 1679SOL    HW116496   2.545   2.934   5.154  0.3180 -0.5859  1.3123
 1679SOL    HW216497   2.420   2.881   5.109  1.3251 -0.5527  0.5270
 1680SOL     OW16498   3.142   2.413  11.557 -0.1032 -0.2088 -0.0662
 1680SOL    HW116499   3.105   2.385  11.473  0.3584  2.6995 -1.2373
 1680SOL    HW216500   3.224   2.363  11.557  1.5627  2.5250 -1.4987
 1681SOL     OW16501   3.096   1.032   8.792  0.1210  0.1253  0.5730
 1681SOL    HW116502   3.035   1.102   8.768 -0.4875 -0.5880  0.0435
 1681SOL    HW216503   3.156   1.037   8.717 -2.4654 -1.1035 -1.5557
 1682SOL     OW16504   0.352   0.531   6.970  0.4864 -0.8861 -0.6764
 1682SOL    HW116505   0.280   0.528   7.033  1.3856  1.0173  0.4324
 1682SOL    HW216506   0.317   0.476   6.900 -0.1085 -1.4231  0.0421
 1683SOL     OW16507   3.019   0.998   4.384  0.3957  0.1473 -0.9176
 1683SOL    HW116508   3.096   1.053   4.395  0.3709  0.0032 -0.0273
 1683SOL    HW216509   3.056   0.910   4.371  1.5052  0.3035  1.1976
 1684SOL     OW16510   4.542   3.764   6.639 -0.0311  0.2980  0.1873
 1684SOL    HW116511   4.463   3.798   6.596 -0.2273  0.9326  1.0454
 1684SOL    HW216512   4.510   3.765   6.729 -1.4591 -1.2678 -0.2899
 1685SOL     OW16513   3.339   0.757   8.379 -0.6815 -0.3766 -0.0962
 1685SOL    HW116514   3.374   0.766   8.468 -0.0900 -1.2202 -0.2453
 1685SOL    HW216515   3.409   0.794   8.326 -0.9497  0.8438  0.3968
 1686SOL     OW16516   0.209   0.165   5.028  0.0930  0.2839  0.4553
 1686SOL    HW116517   0.216   0.073   5.003 -0.1646  1.0303 -2.3090
 1686SOL    HW216518   0.124   0.179   4.987  0.8391  0.1866 -1.1308
 1687SOL     OW16519   4.063   1.296  12.759  0.6837  0.3091 -0.3233
 1687SOL    HW116520   4.065   1.385  12.724 -0.9352 -0.6678 -2.9080
 1687SOL    HW216521   4.062   1.243  12.679  0.4011  0.1260 -0.1982
 1688SOL     OW16522   1.830   0.239   5.137 -0.5034  0.4349 -0.0408
 1688SOL    HW116523   1.845   0.328   5.103 -0.4576  0.8992  1.2016
 1688SOL    HW216524   1.910   0.190   5.116  0.3281  0.8907  2.0242
 1689SOL     OW16525   1.475   3.222   8.404  0.4970  0.9842 -0.6989
 1689SOL    HW116526   1.404   3.271   8.362  0.3495  1.7742  0.4672
 1689SOL    HW216527   1.466   3.232   8.498 -0.7934  0.7304 -0.8028
 1690SOL     OW16528   3.963   2.342   9.477 -0.0173  0.0456  0.3719
 1690SOL    HW116529   3.967   2.319   9.570 -2.2186  0.1760  0.4973
 1690SOL    HW216530   4.043   2.309   9.436  0.6282  0.7998  1.0336
 1691SOL     OW16531   2.180   2.267  17.200 -0.3373 -0.2882 -0.3790
 1691SOL    HW116532   2.185   2.177  17.231  0.5643  0.2751  1.0957
 1691SOL    HW216533   2.139   2.307  17.277  1.6124 -0.0256  0.5039
 1692SOL     OW16534   0.562   0.710   8.888 -1.0536  0.9877 -0.3403
 1692SOL    HW116535   0.556   0.777   8.819 -2.7039  1.3935  0.2112
 1692SOL    HW216536   0.582   0.762   8.966  0.6558  1.6256 -1.1961
 1693SOL     OW16537   0.222   4.578   7.197  0.1446 -0.8840  0.0855
 1693SOL    HW116538   0.239   4.672   7.197 -3.9768 -0.1236 -2.2927
 1693SOL    HW216539   0.214   4.563   7.103  0.9298 -0.8996  0.0180
 1694SOL     OW16540   0.133   2.645   1.292  0.2079 -0.1245 -0.6782
 1694SOL    HW116541   0.102   2.626   1.204  0.7172 -0.1465 -0.8478
 1694SOL    HW216542   0.225   2.621   1.301  0.2617  0.5679  0.7153
 1695SOL     OW16543   0.243   4.137  15.706 -0.5824 -0.5005 -0.5547
 1695SOL    HW116544   0.265   4.044  15.698 -0.7823 -0.5116 -0.9304
 1695SOL    HW216545   0.171   4.151  15.645  1.5645  1.7950 -2.5418
 1696SOL     OW16546   3.719   4.678  14.816 -0.0732 -0.2387 -0.5181
 1696SOL    HW116547   3.697   4.685  14.723 -3.3626  1.3595  0.3581
 1696SOL    HW216548   3.702   0.047  14.839  2.6360 -0.0658  0.7986
 1697SOL     OW16549   1.300   1.903   2.826  0.2960  0.4586 -0.7143
 1697SOL    HW116550   1.318   1.848   2.749  1.4442 -1.2974  0.8130
 1697SOL    HW216551   1.317   1.836   2.892 -0.2756 -0.1478 -1.1857
 1698SOL     OW16552   4.021   1.321   9.121 -0.9045 -0.0188  0.4517
 1698SOL    HW116553   4.081   1.392   9.099 -2.3773  1.3002  0.7022
 1698SOL    HW216554   4.084   1.254   9.147  1.7571  2.7806  1.2113
 1699SOL     OW16555   3.733   3.778   3.917  0.0576  0.6688  1.2238
 1699SOL    HW116556   3.734   3.872   3.899  2.5329  0.5015  0.3994
 1699SOL    HW216557   3.657   3.780   3.975  0.9369 -1.4303  2.4664
 1700SOL     OW16558   0.550   3.994  14.083  0.0399 -0.6805 -0.3368
 1700SOL    HW116559   0.540   4.059  14.013  2.8654 -0.7519 -0.8270
 1700SOL    HW216560   0.485   3.927  14.063 -2.4685  1.8008 -0.5960
 1701SOL     OW16561   3.908   2.326   9.738 -0.0584 -0.2423  0.3953
 1701SOL    HW116562   3.839   2.281   9.787 -0.1554  0.6664  1.1150
 1701SOL    HW216563   3.923   2.401   9.796  1.7788 -0.4364  0.1647
 1702SOL     OW16564   1.728   0.133   3.537 -0.4744 -0.2647  0.0933
 1702SOL    HW116565   1.733   0.164   3.447 -1.4692 -0.1894  0.0660
 1702SOL    HW216566   1.704   0.041   3.524  1.0343 -0.6859  0.3110
 1703SOL     OW16567   0.423   4.498   6.966 -0.1439  0.2996 -0.3955
 1703SOL    HW116568   0.426   4.560   6.893 -0.2385  0.7596 -0.0070
 1703SOL    HW216569   0.366   4.431   6.927  2.8649 -2.3172 -0.3456
 1704SOL     OW16570   0.977   1.870  10.011 -0.1427 -0.1300 -0.3790
 1704SOL    HW116571   1.067   1.859  10.039 -0.6102 -0.8609  0.8342
 1704SOL    HW216572   0.957   1.792   9.960 -1.3398  0.1260 -0.3120
 1705SOL     OW16573   3.375   3.753  16.257 -0.2232 -0.1310  0.1510
 1705SOL    HW116574   3.395   3.670  16.214 -0.7436 -0.0372 -0.2592
 1705SOL    HW216575   3.458   3.770  16.303 -0.6229 -0.3179  0.9548
 1706SOL     OW16576   0.880   0.498   3.623 -0.9962  0.3775  0.3807
 1706SOL    HW116577   0.892   0.529   3.534  1.8028 -0.2669  0.5414
 1706SOL    HW216578   0.912   0.408   3.614  0.3305  0.7306  1.6809
 1707SOL     OW16579   3.600   1.598   6.275 -0.3293 -0.1714  0.2621
 1707SOL    HW116580   3.522   1.651   6.286  0.3988  1.2701 -1.5405
 1707SOL    HW216581   3.614   1.551   6.357 -0.1954  0.7046  0.7330
 1708SOL     OW16582   0.429   0.706   6.789  0.2142  0.2128 -0.1937
 1708SOL    HW116583   0.495   0.755   6.837 -0.6429  0.0776  1.1336
 1708SOL    HW216584   0.415   0.634   6.851  0.9578 -0.2605 -0.5820
 1709SOL     OW16585   4.177   2.121   1.423  0.1814 -0.5911 -0.4883
 1709SOL    HW116586   4.264   2.145   1.390  0.0382  0.1611 -0.3319
 1709SOL    HW216587   4.117   2.165   1.363  0.6122  1.1513  0.3502
 1710SOL     OW16588   3.980   3.786   8.870 -0.0489 -0.4175  0.3281
 1710SOL    HW116589   3.998   3.723   8.801 -2.7600 -1.7609  0.8503
 1710SOL    HW216590   4.023   3.738   8.941  0.0317 -1.9378 -0.7607
 1711SOL     OW16591   3.856   3.212   9.132 -0.5154  0.1481 -0.2932
 1711SOL    HW116592   3.930   3.184   9.186 -0.0194 -1.4845 -1.8157
 1711SOL    HW216593   3.828   3.296   9.167  1.0072  0.6636 -0.3314
 1712SOL     OW16594   1.685   3.452   6.818  0.0621  0.3395  0.3607
 1712SOL    HW116595   1.770   3.462   6.860 -0.3959  0.0234  1.3600
 1712SOL    HW216596   1.632   3.426   6.894  0.3396 -0.2698  0.3448
 1713SOL     OW16597   3.885   2.158   8.498  0.3854  0.2171  0.0345
 1713SOL    HW116598   3.865   2.205   8.579  1.3968  1.2402 -0.3233
 1713SOL    HW216599   3.971   2.192   8.474  0.3901 -1.0417 -1.7699
 1714SOL     OW16600   3.581   3.261   5.293  0.2160 -0.4409  0.3975
 1714SOL    HW116601   3.646   3.310   5.243  0.9657 -0.7207  1.0953
 1714SOL    HW216602   3.552   3.332   5.351 -1.8523 -1.2993  0.4186
 1715SOL     OW16603   3.448   3.222   0.222  0.1408  0.1333  0.4758
 1715SOL    HW116604   3.372   3.181   0.180 -1.3706  1.5180  1.8430
 1715SOL    HW216605   3.430   3.312   0.194 -0.6079 -0.0539  0.3486
 1716SOL     OW16606   3.265   0.859   4.003  0.2496 -0.3249 -0.4387
 1716SOL    HW116607   3.175   0.828   4.011  1.0268 -2.1612  1.3767
 1716SOL    HW216608   3.288   0.835   3.913 -0.2665  0.3082 -0.7356
 1717SOL     OW16609   0.330   2.765   3.226 -0.1474  0.0076  0.0757
 1717SOL    HW116610   0.353   2.687   3.177 -0.9556 -0.8990  1.1377
 1717SOL    HW216611   0.403   2.821   3.202 -0.7108  1.2275  1.2015
 1718SOL     OW16612   4.632   1.275   6.702  0.2442  0.2757  0.3615
 1718SOL    HW116613   4.609   1.218   6.629  0.5685 -1.1719  1.3987
 1718SOL    HW216614   4.721   1.300   6.675  1.5750 -2.3888  2.3949
 1719SOL     OW16615   1.571   2.280   3.465 -0.2743 -0.3425 -0.6731
 1719SOL    HW116616   1.555   2.374   3.465 -2.0162 -0.6325  0.8262
 1719SOL    HW216617   1.509   2.252   3.533  3.5275 -4.9066  0.9747
 1720SOL     OW16618   3.394   3.087   6.695  0.4119 -0.1352 -0.2315
 1720SOL    HW116619   3.352   3.051   6.617 -2.1942 -1.2631  1.6610
 1720SOL    HW216620   3.381   3.180   6.679  0.3061 -0.3176 -1.1893
 1721SOL     OW16621   4.516   0.880   3.882  0.0279 -0.3829 -0.3734
 1721SOL    HW116622   4.528   0.965   3.925 -2.2882 -0.0813 -0.2890
 1721SOL    HW216623   4.482   0.833   3.958  0.3719  0.8905  0.5795
 1722SOL     OW16624   1.805   0.255   5.423 -0.3475 -0.4019 -0.2664
 1722SOL    HW116625   1.823   0.268   5.329 -0.2635 -2.4412 -0.5296
 1722SOL    HW216626   1.790   0.161   5.413 -1.3725 -0.2095 -0.5178
 1723SOL     OW16627   2.049   2.095   5.514 -0.6977 -0.3991 -0.5486
 1723SOL    HW116628   1.974   2.056   5.470 -0.2022 -1.8863 -0.0648
 1723SOL    HW216629   2.028   2.085   5.607  0.2609  1.2254 -0.1588
 1724SOL     OW16630   1.176   3.198   1.950 -0.2058 -0.4962  0.0319
 1724SOL    HW116631   1.246   3.255   1.982 -0.9260  0.1758  0.4134
 1724SOL    HW216632   1.121   3.199   2.028  0.8202 -1.3819  0.7643
 1725SOL     OW16633   0.140   1.335  16.125 -0.4828 -0.4111  0.6148
 1725SOL    HW116634   0.083   1.351  16.201 -1.0554  0.8239 -0.0687
 1725SOL    HW216635   0.171   1.423  16.106 -0.5798 -0.7452 -1.0735
 1726SOL     OW16636   4.207   4.034   5.715  0.0359  0.0762  0.5663
 1726SOL    HW116637   4.130   4.079   5.680  1.1038  2.4634  1.2565
 1726SOL    HW216638   4.268   4.101   5.745 -0.3163 -0.3971  2.3597
 1727SOL     OW16639   3.179   0.837   1.983 -0.0203  0.1926 -0.2726
 1727SOL    HW116640   3.125   0.887   2.045  0.8714 -0.0408  0.6846
 1727SOL    HW216641   3.143   0.869   1.900 -1.2004  0.1682  0.2380
 1728SOL     OW16642   0.892   2.524   0.264  0.1183  0.4329 -0.3897
 1728SOL    HW116643   0.898   2.513   0.169 -1.9387  0.5438 -0.5337
 1728SOL    HW216644   0.937   2.607   0.276  1.9279 -0.5824 -0.2215
 1729SOL     OW16645   2.662   0.890   5.353 -0.2920  0.2785  0.2788
 1729SOL    HW116646   2.730   0.829   5.325 -0.2958 -0.9637  3.0619
 1729SOL    HW216647   2.682   0.973   5.309 -0.2041 -0.7977 -1.7228
 1730SOL     OW16648   3.464   1.111  14.098 -0.0084 -0.1252 -0.0936
 1730SOL    HW116649   3.422   1.189  14.133 -1.7313 -2.2325  2.5203
 1730SOL    HW216650   3.542   1.113  14.154 -0.6971 -1.0605  0.8941
 1731SOL     OW16651   4.707   2.168   0.057  0.2810 -0.2183  0.1631
 1731SOL    HW116652   4.715   2.171  17.655 -0.6091  1.4142  0.1417
 1731SOL    HW216653   4.616   2.194   0.072  1.1667  1.9453  1.7452
 1732SOL     OW16654   1.482   4.496   2.162  0.5721 -0.0921  0.1974
 1732SOL    HW116655   1.564   4.474   2.119 -0.2689 -1.3593 -0.7694
 1732SOL    HW216656   1.506   4.569   2.219  4.0444 -0.6678 -0.5392
 1733SOL     OW16657   0.303   0.708   7.237 -0.1378 -0.3368  0.8312
 1733SOL    HW116658   0.317   0.767   7.311  0.6438 -1.5136  1.6299
 1733SOL    HW216659   0.248   0.643   7.282  1.5251 -2.2227  0.1529
 1734SOL     OW16660   0.053   2.940   9.304 -0.0126  0.3914  0.3116
 1734SOL    HW116661   0.065   2.997   9.228  0.0269  1.0017  0.7810
 1734SOL    HW216662   0.134   2.889   9.307  0.3889  1.0006 -0.1075
 1735SOL     OW16663   1.965   0.635  13.696 -0.2303  0.6420  0.2647
 1735SOL    HW116664   1.921   0.550  13.686  0.3232  0.4782 -0.7531
 1735SOL    HW216665   2.021   0.629  13.773 -0.0288  2.5896  0.2719
 1736SOL     OW16666   2.822   2.357   6.483 -0.1931  0.0452  0.2122
 1736SOL    HW116667   2.803   2.390   6.395  1.6434 -1.0387 -0.5880
 1736SOL    HW216668   2.755   2.289   6.489  0.8886 -0.8692  1.8323
 1737SOL     OW16669   0.634   0.365  16.176  0.3580  0.3961 -0.3265
 1737SOL    HW116670   0.565   0.375  16.111  1.9181  0.0100 -2.0316
 1737SOL    HW216671   0.644   0.455  16.208  0.2163  0.5226 -0.6388
 1738SOL     OW16672   1.013   3.590   3.761 -0.1807  0.2762  0.1939
 1738SOL    HW116673   1.095   3.623   3.725 -0.6248 -0.1156 -1.1648
 1738SOL    HW216674   1.032   3.587   3.855 -0.1120 -0.0588  0.1684
 1739SOL     OW16675   4.694   3.159   6.738  0.2080  0.3557  0.0997
 1739SOL    HW116676   4.695   3.249   6.771  0.6347  0.6451 -0.6917
 1739SOL    HW216677   4.701   3.187   6.647  0.2351 -2.7123 -0.8239
 1740SOL     OW16678   1.351   4.139   2.986  0.2703 -0.1709 -0.5895
 1740SOL    HW116679   1.285   4.151   2.917  0.8753  0.3859 -1.0762
 1740SOL    HW216680   1.339   4.220   3.035  0.3158 -2.0477  2.4794
 1741SOL     OW16681   3.338   4.446   2.019 -0.2345 -0.4127  0.7360
 1741SOL    HW116682   3.372   4.363   2.053  0.7538 -1.7699 -3.6567
 1741SOL    HW216683   3.403   4.462   1.950 -0.5311 -0.7669  0.3754
 1742SOL     OW16684   4.555   2.331   8.775  0.0339  0.1978 -0.0157
 1742SOL    HW116685   4.573   2.243   8.742  0.4316  0.3172 -0.1163
 1742SOL    HW216686   4.638   2.372   8.750  0.4463 -0.6160  0.0444
 1743SOL     OW16687   2.429   0.314   3.329 -0.0137  0.1218  0.5823
 1743SOL    HW116688   2.474   0.259   3.265  0.8227 -0.5799  1.7682
 1743SOL    HW216689   2.486   0.307   3.406  0.1025 -0.3838  0.4479
 1744SOL     OW16690   1.817   3.903   8.354  0.3369 -0.5420  0.1726
 1744SOL    HW116691   1.816   3.843   8.280  0.1420  1.2399 -1.2812
 1744SOL    HW216692   1.829   3.989   8.313  1.9686  0.2128  2.2629
 1745SOL     OW16693   3.611   4.480  17.498 -0.2576  0.1099 -0.2827
 1745SOL    HW116694   3.530   4.460  17.545 -0.2879  0.7572 -0.0669
 1745SOL    HW216695   3.674   4.466  17.568  0.6134 -1.5140 -1.4039
 1746SOL     OW16696   0.117   3.549   3.064  0.3431  0.6024 -0.2703
 1746SOL    HW116697   0.094   3.637   3.033 -0.8639 -0.0433 -1.2156
 1746SOL    HW216698   0.095   3.506   2.981  2.1268  2.8447 -1.9099
 1747SOL     OW16699   0.184   4.168   5.033  0.4999 -0.1403  0.0274
 1747SOL    HW116700   0.185   4.077   5.063  0.8666 -0.4601 -0.9541
 1747SOL    HW216701   0.092   4.174   5.007  1.3853  1.3498 -2.7138
 1748SOL     OW16702   2.645   1.732  17.115  0.3417  0.2383 -0.5103
 1748SOL    HW116703   2.626   1.725  17.208 -1.0744  2.0837 -0.6642
 1748SOL    HW216704   2.566   1.783  17.094 -0.4333 -0.9618 -0.5162
 1749SOL     OW16705   0.283   1.656   5.437  0.0363  0.1332 -0.2432
 1749SOL    HW116706   0.346   1.704   5.490  0.7927  1.3321 -2.2055
 1749SOL    HW216707   0.302   1.688   5.349 -1.0174  2.3950  0.3661
 1750SOL     OW16708   1.557   3.138  16.334 -0.1433 -0.2199  0.1642
 1750SOL    HW116709   1.499   3.082  16.385  0.2904 -0.2420  0.6277
 1750SOL    HW216710   1.492   3.162  16.267 -0.0536 -0.7848 -0.1225
 1751SOL     OW16711   4.082   3.550   6.059 -0.8620 -0.3148  0.0184
 1751SOL    HW116712   4.099   3.634   6.017 -1.5954 -0.5624 -0.7731
 1751SOL    HW216713   4.065   3.571   6.151  0.3018 -2.5721  0.7543
 1752SOL     OW16714   4.315   4.130   9.770  0.0334 -0.0333  0.1993
 1752SOL    HW116715   4.301   4.072   9.695 -0.3742 -0.9002  0.9358
 1752SOL    HW216716   4.353   4.205   9.725 -2.1788  1.5994  1.0495
 1753SOL     OW16717   0.175   4.540  11.058  0.7207 -0.1901  0.1051
 1753SOL    HW116718   0.202   4.454  11.027  1.0279  0.4106 -1.2994
 1753SOL    HW216719   0.249   4.556  11.117 -0.2221  1.3513  0.8803
 1754SOL     OW16720   4.282   2.188   4.316  0.1559 -0.9323 -0.1531
 1754SOL    HW116721   4.304   2.220   4.228  3.4705  0.6374  1.2178
 1754SOL    HW216722   4.363   2.142   4.338  0.4050 -0.7867 -0.7530
 1755SOL     OW16723   0.753   3.722  15.205 -0.8143  0.1822 -0.2391
 1755SOL    HW116724   0.807   3.643  15.209 -0.2898  0.6356  1.7005
 1755SOL    HW216725   0.724   3.736  15.296 -1.3642  3.0612 -0.8562
 1756SOL     OW16726   3.733   4.689   7.579  0.0988 -0.3648 -0.0334
 1756SOL    HW116727   3.667   0.015   7.529  2.5218  0.7970 -2.1151
 1756SOL    HW216728   3.770   0.039   7.629  2.8480 -3.2423  2.1098
 1757SOL     OW16729   1.608   4.040   2.211 -0.0805  0.0933  0.2184
 1757SOL    HW116730   1.541   4.108   2.216 -0.0139  0.3403 -2.4064
 1757SOL    HW216731   1.558   3.970   2.168 -0.6136 -0.8889  2.4191
 1758SOL     OW16732   4.358   2.500   0.849  0.0468 -0.2407 -0.1803
 1758SOL    HW116733   4.337   2.439   0.920 -1.3036  0.6555  0.1677
 1758SOL    HW216734   4.305   2.464   0.778  0.8862  1.2527 -1.5502
 1759SOL     OW16735   3.467   4.473   7.022  0.1507 -0.3711 -0.2112
 1759SOL    HW116736   3.511   4.528   6.956  1.0957  1.0464  1.6083
 1759SOL    HW216737   3.486   4.521   7.102  0.1433  1.2191 -1.1589
 1760SOL     OW16738   4.524   2.486   8.974  0.2060 -0.0513 -0.0064
 1760SOL    HW116739   4.525   2.423   8.902 -2.4814 -1.3501  1.1048
 1760SOL    HW216740   4.581   2.430   9.027  0.7767 -1.1416 -1.7459
 1761SOL     OW16741   1.443   1.703   6.090 -0.4631 -0.5200  0.0948
 1761SOL    HW116742   1.535   1.699   6.117  0.2293 -0.7215 -2.2421
 1761SOL    HW216743   1.449   1.640   6.018 -2.9024  0.1841 -0.7470
 1762SOL     OW16744   2.559   4.604   6.844  0.4167 -0.2840  0.5167
 1762SOL    HW116745   2.628   4.611   6.778 -0.4904  1.9181 -0.1955
 1762SOL    HW216746   2.534   4.515   6.821 -0.6877  0.2215 -0.2150
 1763SOL     OW16747   3.168   2.375   5.546 -0.0002 -0.0147 -1.0053
 1763SOL    HW116748   3.123   2.458   5.533 -0.4136  0.1154  1.2433
 1763SOL    HW216749   3.109   2.346   5.615 -0.0873  2.3391 -0.0967
 1764SOL     OW16750   1.695   0.869   7.271 -0.3998 -0.0641  0.2213
 1764SOL    HW116751   1.779   0.881   7.315 -0.5951 -0.2556  0.6516
 1764SOL    HW216752   1.641   0.946   7.288  0.4748  0.6203 -0.1108
 1765SOL     OW16753   1.976   0.556   1.859  0.1375  0.1809  0.1936
 1765SOL    HW116754   1.999   0.469   1.891 -1.5767 -0.5614 -0.5668
 1765SOL    HW216755   1.929   0.541   1.777  0.2406  1.1703 -0.0448
 1766SOL     OW16756   0.140   1.179   9.683  0.2012 -0.0935  0.1795
 1766SOL    HW116757   0.096   1.174   9.767  1.9852  0.8670  1.1615
 1766SOL    HW216758   0.207   1.242   9.707  2.6320 -2.2414 -0.9999
 1767SOL     OW16759   3.636   2.440  12.814  0.7158  0.0678 -0.1731
 1767SOL    HW116760   3.659   2.349  12.797  0.4183  0.3334 -2.0167
 1767SOL    HW216761   3.544   2.442  12.787  0.2970 -0.4885  1.2319
 1768SOL     OW16762   1.684   3.627   4.071 -0.3834 -0.8501  0.2041
 1768SOL    HW116763   1.638   3.544   4.079 -0.2372 -1.1249 -1.8490
 1768SOL    HW216764   1.629   3.682   4.016 -0.7460 -0.9105  0.5107
 1769SOL     OW16765   0.274   3.635  17.158 -0.2959  0.1417  0.0868
 1769SOL    HW116766   0.244   3.545  17.144  1.3548 -0.2149 -1.1710
 1769SOL    HW216767   0.369   3.623  17.157 -0.0481  2.0754  0.1636
 1770SOL     OW16768   2.969   1.597   3.370  0.1014 -0.2238  0.0794
 1770SOL    HW116769   2.931   1.685   3.369 -2.1682 -1.2313 -0.9197
 1770SOL    HW216770   2.897   1.541   3.342 -1.0755  1.2057  0.2830
 1771SOL     OW16771   2.753   0.380   7.636 -0.3992  0.1833  0.4943
 1771SOL    HW116772   2.742   0.469   7.603 -1.4721  0.1135  0.6508
 1771SOL    HW216773   2.762   0.341   7.549 -0.2358 -0.3148  0.7352
 1772SOL     OW16774   2.987   4.475   2.997  0.0255  0.2042  0.4274
 1772SOL    HW116775   3.026   4.493   2.911 -3.7062 -1.5359 -1.6797
 1772SOL    HW216776   2.903   4.436   2.971  0.5968 -1.4227  1.0598
 1773SOL     OW16777   0.024   1.656  10.058  0.0065 -0.3666 -0.4908
 1773SOL    HW116778   0.083   1.702   9.998  1.2004  0.7777  1.5702
 1773SOL    HW216779   0.004   1.723  10.122 -0.3589 -0.1806 -0.8010
 1774SOL     OW16780   2.418   0.584  16.141  0.2422  0.2861 -0.2765
 1774SOL    HW116781   2.385   0.555  16.056 -0.8057  0.4692  0.0670
 1774SOL    HW216782   2.345   0.637  16.173  0.7862  1.0119 -0.2207
 1775SOL     OW16783   2.068   1.013   1.358 -0.1221 -0.2387 -0.2886
 1775SOL    HW116784   1.990   0.989   1.408 -1.4597  1.2070 -1.6873
 1775SOL    HW216785   2.127   0.987   1.429 -0.1360  0.7122  0.0761
 1776SOL     OW16786   4.022   2.375  12.298  0.6544 -0.7667 -0.7648
 1776SOL    HW116787   3.939   2.405  12.335  2.0781  2.3353 -0.0829
 1776SOL    HW216788   4.044   2.294  12.345 -0.0636 -1.6178 -1.8942
 1777SOL     OW16789   0.765   0.149   3.695  0.1235 -0.5500 -0.3337
 1777SOL    HW116790   0.752   0.244   3.702  1.0155 -0.5405  1.2151
 1777SOL    HW216791   0.713   0.130   3.617  0.7824  0.1393 -0.9507
 1778SOL     OW16792   0.539   0.748  16.761  0.1709  0.1730 -0.2094
 1778SOL    HW116793   0.495   0.682  16.815 -0.7222  1.8792  1.1280
 1778SOL    HW216794   0.598   0.686  16.717 -0.3518 -0.5723  0.1293
 1779SOL     OW16795   4.261   1.803   4.020  0.1838 -0.2295 -0.2231
 1779SOL    HW116796   4.169   1.815   4.043 -0.1423 -1.4712 -0.9157
 1779SOL    HW216797   4.293   1.893   4.033  0.6017 -0.2992 -0.7746
 1780SOL     OW16798   1.339   2.985  17.068  0.3837  0.7886  0.1246
 1780SOL    HW116799   1.425   3.028  17.065  1.5266 -1.4592  0.1639
 1780SOL    HW216800   1.378   2.898  17.079 -1.4295 -0.0068  0.1735
 1781SOL     OW16801   3.330   3.885   4.354  0.4152 -0.2550 -0.8177
 1781SOL    HW116802   3.247   3.881   4.402  1.2871 -0.4498  0.6869
 1781SOL    HW216803   3.382   3.822   4.403 -0.2287  0.5730  0.9430
 1782SOL     OW16804   3.530   4.128   2.665  0.3584  0.1423  0.0703
 1782SOL    HW116805   3.573   4.042   2.672 -0.2830 -0.2522 -0.8675
 1782SOL    HW216806   3.609   4.181   2.676  1.0529 -0.6396 -1.0880
 1783SOL     OW16807   2.112   0.703   3.381 -0.7524  0.0472  0.0653
 1783SOL    HW116808   2.190   0.756   3.364 -0.9486 -0.1229 -1.3787
 1783SOL    HW216809   2.046   0.772   3.383 -1.1452 -0.2727 -1.6181
 1784SOL     OW16810   2.289   2.251  16.949 -0.0379 -0.6608 -0.0462
 1784SOL    HW116811   2.223   2.202  16.899  0.7010 -0.9759 -0.7107
 1784SOL    HW216812   2.240   2.261  17.030 -0.0602 -0.7395 -0.0496
 1785SOL     OW16813   1.996   3.381   3.969  0.7694 -0.0319 -0.1915
 1785SOL    HW116814   1.968   3.362   4.059  0.6088  1.5605  0.1100
 1785SOL    HW216815   1.957   3.315   3.912 -1.6265 -1.2799  2.9320
 1786SOL     OW16816   3.169   4.248   7.533  0.0687  0.0395 -0.0802
 1786SOL    HW116817   3.238   4.206   7.583  0.6906  1.7301  0.4902
 1786SOL    HW216818   3.220   4.329   7.524 -1.3929  0.8677 -0.8793
 1787SOL     OW16819   2.751   1.949  13.280  0.0057 -0.4347 -0.0128
 1787SOL    HW116820   2.824   2.009  13.294  2.1281 -2.6566 -1.7241
 1787SOL    HW216821   2.732   1.934  13.373 -0.0761 -3.4260 -0.5030
 1788SOL     OW16822   4.640   3.809   9.053  0.7532  0.3267  0.2968
 1788SOL    HW116823   4.682   3.890   9.023  1.8390  0.6010  2.5500
 1788SOL    HW216824   4.554   3.843   9.075  0.1631 -1.3425  0.5557
 1789SOL     OW16825   3.264   0.262   7.079 -0.5250 -0.2634 -0.2952
 1789SOL    HW116826   3.220   0.341   7.046 -0.5304 -0.9225 -1.8524
 1789SOL    HW216827   3.236   0.263   7.171 -1.6700  1.1160 -0.6435
 1790SOL     OW16828   4.268   3.447   7.796 -0.3233  0.0304  0.5947
 1790SOL    HW116829   4.356   3.483   7.781 -0.3679 -1.2481 -2.7697
 1790SOL    HW216830   4.217   3.474   7.720 -0.7787  1.9792  1.6020
 1791SOL     OW16831   3.748   3.430   9.219  0.5062 -0.1731 -0.3408
 1791SOL    HW116832   3.739   3.510   9.168  0.1542 -1.5526 -2.4235
 1791SOL    HW216833   3.820   3.456   9.277  0.8992  0.5683 -1.1594
 1792SOL     OW16834   0.528   3.477  12.922  0.3373 -0.4400 -0.3668
 1792SOL    HW116835   0.600   3.422  12.955  0.7569 -0.6935 -1.7274
 1792SOL    HW216836   0.558   3.561  12.958  3.6843 -1.5758 -0.4407
 1793SOL     OW16837   1.507   2.806   7.292  0.1213 -0.1817 -0.0277
 1793SOL    HW116838   1.547   2.736   7.343 -0.9125 -1.4604 -1.0002
 1793SOL    HW216839   1.516   2.874   7.359  1.3069  0.2468 -0.6207
 1794SOL     OW16840   1.882   4.274   6.036 -0.6628  0.0336  0.1269
 1794SOL    HW116841   1.852   4.185   6.053  0.3655  0.0954  2.3580
 1794SOL    HW216842   1.950   4.282   6.104 -0.2251  1.4087 -0.4780
 1795SOL     OW16843   1.131   3.072  16.160 -0.1603 -0.1810  1.0963
 1795SOL    HW116844   1.098   3.109  16.242 -0.4384  0.0511  0.8782
 1795SOL    HW216845   1.127   3.143  16.096  0.7486 -1.5637 -0.5023
 1796SOL     OW16846   0.682   3.358   6.879 -0.0978  0.5473 -0.3384
 1796SOL    HW116847   0.597   3.365   6.921  0.4055 -0.6429  0.8703
 1796SOL    HW216848   0.683   3.265   6.855 -0.3034  0.1662  1.1073
 1797SOL     OW16849   1.720   0.069   6.692 -1.1436  0.5489 -0.7451
 1797SOL    HW116850   1.626   0.054   6.692 -0.8966 -1.1219  2.6119
 1797SOL    HW216851   1.732   0.093   6.784 -0.1156  2.9497 -1.4904
 1798SOL     OW16852   3.240   0.655   5.835  0.3555  0.0068  0.0480
 1798SOL    HW116853   3.218   0.736   5.880 -0.9252  0.5373 -1.5140
 1798SOL    HW216854   3.159   0.649   5.783  0.8085 -1.9286 -0.4687
 1799SOL     OW16855   4.229   3.156   7.134  0.1954 -0.1451 -0.2352
 1799SOL    HW116856   4.247   3.224   7.200 -0.5129  0.1293 -0.3288
 1799SOL    HW216857   4.142   3.180   7.102  1.7534  2.0441 -2.8542
 1800SOL     OW16858   3.145   4.339  12.849  0.1450  0.3471 -0.3468
 1800SOL    HW116859   3.239   4.355  12.858 -0.4446  3.1550  0.8824
 1800SOL    HW216860   3.106   4.412  12.897  0.7877 -1.1680  2.5179
 1801SOL     OW16861   2.703   2.525   2.386 -0.2246  0.6153 -0.3045
 1801SOL    HW116862   2.642   2.451   2.381  0.5930 -0.2003  1.8789
 1801SOL    HW216863   2.744   2.494   2.467  3.0351  0.5829 -1.9367
 1802SOL     OW16864   3.505   1.858  15.196 -0.4202 -0.5661 -0.3597
 1802SOL    HW116865   3.492   1.861  15.102 -1.0407  1.0021 -0.2303
 1802SOL    HW216866   3.542   1.771  15.207 -0.8210 -0.5791  0.8946
 1803SOL     OW16867   1.785   1.066  11.371  0.3571 -0.2290  0.2211
 1803SOL    HW116868   1.856   1.003  11.356 -1.0666 -1.5831 -0.8306
 1803SOL    HW216869   1.797   1.075  11.465  2.5375  1.8780 -0.2596
 1804SOL     OW16870   0.652   2.678   3.631  0.0555  0.2268  0.3069
 1804SOL    HW116871   0.644   2.767   3.598  0.2211 -0.1374 -0.7065
 1804SOL    HW216872   0.597   2.686   3.709 -1.0813  0.5210 -0.5138
 1805SOL     OW16873   0.586   0.807   4.727  0.1990 -0.2509 -0.9376
 1805SOL    HW116874   0.590   0.713   4.707  0.2687 -0.8243  1.7795
 1805SOL    HW216875   0.624   0.821   4.640 -1.3754 -0.6329 -1.6913
 1806SOL     OW16876   1.021   1.332   5.107 -0.6193  0.3162 -0.7302
 1806SOL    HW116877   0.959   1.291   5.168 -1.2712  2.7452  0.2476
 1806SOL    HW216878   1.094   1.357   5.163 -0.5851 -0.8816 -0.2384
 1807SOL     OW16879   0.636   3.471   0.833  0.0796  0.6605 -0.0063
 1807SOL    HW116880   0.677   3.555   0.855  1.9179 -0.1267 -0.4547
 1807SOL    HW216881   0.653   3.466   0.739 -0.5892  1.0645 -0.1447
 1808SOL     OW16882   2.971   2.646  12.449  0.2881  0.9180  0.0197
 1808SOL    HW116883   2.893   2.688  12.413  1.8013  1.3039 -2.8044
 1808SOL    HW216884   3.033   2.713  12.420  0.1321  1.2473  0.4479
 1809SOL     OW16885   2.882   1.334   7.537  0.5385 -0.1858 -0.2674
 1809SOL    HW116886   2.958   1.384   7.567 -1.1016  1.1044  1.6853
 1809SOL    HW216887   2.915   1.296   7.455 -2.6128 -0.8456 -1.2096
 1810SOL     OW16888   1.608   2.572   8.204 -0.3714 -0.0629 -0.1914
 1810SOL    HW116889   1.609   2.507   8.134  2.3801 -0.2478  0.0250
 1810SOL    HW216890   1.695   2.610   8.189 -1.3633  2.2154 -0.1668
 1811SOL     OW16891   3.166   0.243   4.665 -0.3287 -0.3462 -0.0095
 1811SOL    HW116892   3.251   0.229   4.622 -0.5845  0.5660 -0.8167
 1811SOL    HW216893   3.131   0.324   4.628  1.3261 -0.4110 -1.7125
 1812SOL     OW16894   2.168   3.751   8.847 -0.2472  0.1045  0.4711
 1812SOL    HW116895   2.084   3.797   8.839 -0.5637 -0.3820  0.9812
 1812SOL    HW216896   2.184   3.774   8.939 -0.1922 -0.3054  0.5623
 1813SOL     OW16897   4.060   0.911   1.852 -0.3543  0.5095  0.3616
 1813SOL    HW116898   4.023   0.937   1.936  0.8477 -0.2890  1.1475
 1813SOL    HW216899   4.141   0.960   1.841  0.2416 -0.4555  0.3949
 1814SOL     OW16900   3.297   1.631   9.092  0.1197  0.6432  0.6223
 1814SOL    HW116901   3.206   1.642   9.065  0.4488  1.1875 -0.2509
 1814SOL    HW216902   3.284   1.564   9.159  3.4080 -1.2415 -0.6340
 1815SOL     OW16903   2.857   0.074  16.125 -0.6074  0.2549  0.2029
 1815SOL    HW116904   2.878   4.722  16.180 -1.5090  0.0426  0.2581
 1815SOL    HW216905   2.791   0.044  16.064  2.0731  0.8203 -3.0029
 1816SOL     OW16906   0.843   3.501   2.490 -0.4584 -0.7693 -0.2557
 1816SOL    HW116907   0.799   3.525   2.572  0.5082 -2.9234  0.8929
 1816SOL    HW216908   0.926   3.467   2.523 -0.6223 -0.9012  0.0175
 1817SOL     OW16909   2.929   2.554  14.458  0.4670  0.5090  0.0047
 1817SOL    HW116910   2.981   2.615  14.407 -1.1027  0.9019 -1.1033
 1817SOL    HW216911   2.970   2.470  14.438  0.7529  1.2820 -2.6159
 1818SOL     OW16912   3.755   0.198  15.943  0.2863 -0.0738  0.1996
 1818SOL    HW116913   3.835   0.204  15.996 -0.6290 -0.5901  1.6335
 1818SOL    HW216914   3.787   0.222  15.856 -3.6922 -1.4487 -1.6353
 1819SOL     OW16915   3.312   2.943   5.934  0.0056 -0.8266  0.3284
 1819SOL    HW116916   3.292   2.868   5.877 -0.9712 -1.5620  1.6204
 1819SOL    HW216917   3.219   2.958   5.951  0.8452  1.4492  2.8582
 1820SOL     OW16918   2.955   1.692   4.778  0.1606  0.3662  0.4376
 1820SOL    HW116919   2.952   1.686   4.683  1.0870 -0.4013  0.4609
 1820SOL    HW216920   3.043   1.667   4.805  0.4955 -0.8147 -1.8048
 1821SOL     OW16921   0.161   2.287   2.227 -0.1587 -0.1561  0.1553
 1821SOL    HW116922   0.133   2.369   2.185 -2.3545  0.5505  3.0101
 1821SOL    HW216923   0.080   2.265   2.273 -0.7468  0.2468 -0.6797
 1822SOL     OW16924   3.445   4.213   2.122 -0.0995  0.1694  0.2808
 1822SOL    HW116925   3.539   4.199   2.111 -0.1347 -1.1267  1.6717
 1822SOL    HW216926   3.432   4.192   2.214 -1.4389 -0.0354  0.0437
 1823SOL     OW16927   3.106   2.624   2.380 -0.3791 -0.3684 -0.2551
 1823SOL    HW116928   3.075   2.551   2.433 -2.9728 -0.6109 -2.0732
 1823SOL    HW216929   3.024   2.645   2.334 -1.7998 -1.4282  1.7763
 1824SOL     OW16930   2.154   0.705   9.413 -0.4458  0.4695 -0.9895
 1824SOL    HW116931   2.195   0.791   9.409  2.2510 -0.6445  2.3808
 1824SOL    HW216932   2.228   0.647   9.434 -1.0099 -0.9878 -3.0374
 1825SOL     OW16933   3.517   1.442   5.859 -0.2059  0.2375 -0.0893
 1825SOL    HW116934   3.422   1.438   5.858 -0.2192  1.2137 -4.3201
 1825SOL    HW216935   3.520   1.538   5.855  1.9443  0.1410 -0.9887
 1826SOL     OW16936   2.396   0.608   7.869 -0.0163  0.6074 -0.3535
 1826SOL    HW116937   2.336   0.626   7.942 -0.4743  2.5269 -1.2091
 1826SOL    HW216938   2.460   0.678   7.871  1.2333 -0.5864  1.2109
 1827SOL     OW16939   0.122   0.079   3.143  0.4666  0.0851 -0.2634
 1827SOL    HW116940   0.098   0.164   3.181  3.2418  1.2865 -1.1642
 1827SOL    HW216941   0.214   0.063   3.165  0.8144 -0.6783 -2.2695
 1828SOL     OW16942   0.636   0.042  11.593  0.9445  0.1108 -0.1878
 1828SOL    HW116943   0.709   4.708  11.566 -0.3705 -2.0201  0.6595
 1828SOL    HW216944   0.667   0.069  11.679  3.0021 -0.8011 -0.6410
 1829SOL     OW16945   1.423   3.588   8.479 -0.2307  0.1991  0.2937
 1829SOL    HW116946   1.485   3.656   8.505 -0.8581  1.1278 -0.6152
 1829SOL    HW216947   1.448   3.519   8.539  2.1793  1.2420  0.4941
 1830SOL     OW16948   3.012   2.534  17.571 -0.1004 -0.5418  0.1849
 1830SOL    HW116949   3.097   2.490  17.567  0.2089  0.0454  0.3402
 1830SOL    HW216950   2.952   2.467  17.537  0.6017 -1.7139  1.2783
 1831SOL     OW16951   0.513   2.204   3.457 -1.0138  0.1483 -0.1225
 1831SOL    HW116952   0.557   2.171   3.379 -3.4608 -0.4029 -1.2731
 1831SOL    HW216953   0.557   2.151   3.523 -1.9987 -0.5002  0.0080
 1832SOL     OW16954   0.766   3.150   5.231  0.0148  0.4840  0.1973
 1832SOL    HW116955   0.720   3.190   5.305 -0.9982  0.9383 -0.6690
 1832SOL    HW216956   0.704   3.180   5.165  0.9052 -1.4578 -1.5145
 1833SOL     OW16957   1.711   4.185   6.263 -0.5704  0.0310  0.7693
 1833SOL    HW116958   1.748   4.266   6.298  1.1037  0.0126 -0.9580
 1833SOL    HW216959   1.633   4.183   6.318 -0.3802 -0.3508  1.0285
 1834SOL     OW16960   1.343   0.846   3.376 -0.4091  0.4018 -0.2813
 1834SOL    HW116961   1.342   0.765   3.325 -0.4901 -0.3399  0.9202
 1834SOL    HW216962   1.275   0.895   3.329 -1.7073 -0.6099  0.5585
 1835SOL     OW16963   4.243   0.544   9.162 -0.6287 -0.5209 -0.1182
 1835SOL    HW116964   4.297   0.465   9.155  1.9885  1.2913 -0.5639
 1835SOL    HW216965   4.202   0.528   9.247 -0.1331  0.2407  0.2590
 1836SOL     OW16966   4.500   2.220   2.775 -0.2041 -0.0504 -0.6037
 1836SOL    HW116967   4.524   2.308   2.747  0.6178 -0.5615 -1.4744
 1836SOL    HW216968   4.585   2.177   2.761  0.8599  1.2789  1.7724
 1837SOL     OW16969   1.786   2.974  13.264  0.1523 -0.3742 -0.0654
 1837SOL    HW116970   1.832   3.038  13.210 -2.1312  1.2704 -0.0932
 1837SOL    HW216971   1.703   3.020  13.248  1.1747  1.9354  1.2486
 1838SOL     OW16972   1.541   4.351   7.579 -0.3214 -0.3930 -0.4983
 1838SOL    HW116973   1.528   4.443   7.602 -1.0722 -1.1317  2.0177
 1838SOL    HW216974   1.450   4.326   7.597  0.0780 -0.6899  1.0731
 1839SOL     OW16975   1.938   0.274   7.882 -0.0606 -0.2875 -0.4286
 1839SOL    HW116976   1.863   0.332   7.892  0.1425 -0.4473  1.9964
 1839SOL    HW216977   1.890   0.194   7.904 -0.3044  0.6508  2.4443
 1840SOL     OW16978   0.064   2.648   4.772 -0.1932  0.3912 -0.5777
 1840SOL    HW116979   0.068   2.721   4.834  0.0554  1.2332 -1.6022
 1840SOL    HW216980   4.691   2.648   4.767 -0.2965  1.1740  1.2864
 1841SOL     OW16981   2.591   1.514   2.932 -0.2749 -0.7396 -1.0901
 1841SOL    HW116982   2.536   1.468   2.869  0.9758  0.1416 -2.8134
 1841SOL    HW216983   2.534   1.566   2.989  1.9789 -0.2446  0.7366
 1842SOL     OW16984   2.837   1.020  16.205  0.0138 -0.6776 -0.1314
 1842SOL    HW116985   2.837   1.106  16.162  0.6041 -0.1489  0.9183
 1842SOL    HW216986   2.929   1.002  16.223  0.3102  1.5855  0.6199
 1843SOL     OW16987   3.585   4.421   5.475 -0.1215  0.2691 -0.0723
 1843SOL    HW116988   3.567   4.438   5.382 -0.9481 -0.5111 -0.0517
 1843SOL    HW216989   3.680   4.427   5.487 -0.0592 -0.5351 -0.1865
 1844SOL     OW16990   4.608   1.907   7.352 -0.0343 -0.8589 -0.3770
 1844SOL    HW116991   4.704   1.906   7.348 -0.0047  0.2428  0.0270
 1844SOL    HW216992   4.596   1.872   7.440 -1.4918  1.4819  0.3684
 1845SOL     OW16993   1.190   2.606   3.215  0.0824 -0.4072  0.2639
 1845SOL    HW116994   1.263   2.623   3.275  0.3306 -2.4089  0.5373
 1845SOL    HW216995   1.127   2.566   3.274 -2.5957  0.5788 -1.9286
 1846SOL     OW16996   1.385   2.646   4.676  0.0345 -0.1686  0.0695
 1846SOL    HW116997   1.430   2.696   4.607  0.2804  1.0659  1.1187
 1846SOL    HW216998   1.305   2.697   4.681  0.4702  0.4082  1.1821
 1847SOL     OW16999   0.642   0.580  16.342  0.2241  0.4320 -0.6137
 1847SOL    HW117000   0.733   0.565  16.367 -0.5554 -1.1449  1.2769
 1847SOL    HW217001   0.658   0.657  16.289 -0.9928  0.5132 -0.8718
 1848SOL     OW17002   4.325   2.296   9.892 -0.1488  0.3121 -0.6927
 1848SOL    HW117003   4.419   2.291   9.905  0.1220  2.4413 -1.9038
 1848SOL    HW217004   4.303   2.387   9.914  0.4045  0.1016  0.7356
 1849SOL     OW17005   1.967   0.561   5.753  0.3250  0.3165 -0.1920
 1849SOL    HW117006   1.942   0.521   5.836 -0.2246  3.0837  0.9780
 1849SOL    HW217007   2.028   0.626   5.787 -0.2860  1.0013 -0.4051
 1850SOL     OW17008   0.206   0.333   9.433  0.3218 -0.5622 -0.2532
 1850SOL    HW117009   0.159   0.313   9.514  0.1081 -2.9460 -0.9725
 1850SOL    HW217010   0.139   0.346   9.366  0.0600  0.2878  0.1796
 1851SOL     OW17011   3.772   4.521   2.081 -0.4553 -0.1160  0.5165
 1851SOL    HW117012   3.850   4.472   2.055  1.1801  3.6256 -1.8003
 1851SOL    HW217013   3.800   4.563   2.162  0.1014 -0.9078  0.7304
 1852SOL     OW17014   3.751   1.827   4.643  0.3317 -0.3400 -0.1182
 1852SOL    HW117015   3.699   1.866   4.573  0.5263  0.6199  0.2596
 1852SOL    HW217016   3.767   1.906   4.695 -0.8016 -0.0062 -0.2875
 1853SOL     OW17017   3.044   1.932  16.929 -0.0096 -0.5936  0.5417
 1853SOL    HW117018   2.959   1.893  16.908 -0.1260  0.4292 -0.8418
 1853SOL    HW217019   3.026   1.998  16.862 -0.3964 -0.9082  0.3356
 1854SOL     OW17020   2.368   1.096  16.946 -0.2201  0.4342 -0.2702
 1854SOL    HW117021   2.328   1.026  16.998 -0.0437  0.3994 -0.1785
 1854SOL    HW217022   2.460   1.072  16.957 -0.0515  1.5137  0.6132
 1855SOL     OW17023   3.004   4.418   6.120 -0.6530 -0.0139  0.4644
 1855SOL    HW117024   3.054   4.373   6.053  0.5698  1.1060  0.6213
 1855SOL    HW217025   3.003   4.358   6.195  1.4746 -1.1861 -0.4335
 1856SOL     OW17026   2.156   1.995   4.312 -0.1014  0.6255  0.6407
 1856SOL    HW117027   2.199   2.055   4.251 -2.5784  1.0467 -0.7144
 1856SOL    HW217028   2.203   1.916   4.285 -0.6887 -0.1952  2.0325
 1857SOL     OW17029   3.598   1.217   6.786 -0.0133  0.0078 -0.5724
 1857SOL    HW117030   3.692   1.210   6.773 -0.0463 -1.9914  0.2703
 1857SOL    HW217031   3.578   1.222   6.692  0.6383 -0.1241 -0.7177
 1858SOL     OW17032   2.802   3.999   4.500 -0.1722 -0.1033 -0.0924
 1858SOL    HW117033   2.765   4.079   4.538  0.1283 -1.8817  4.0317
 1858SOL    HW217034   2.733   3.937   4.527 -1.0307  0.1744 -1.6716
 1859SOL     OW17035   2.318   1.149  10.206  0.1563  0.3831 -0.0887
 1859SOL    HW117036   2.300   1.235  10.244 -1.6859  0.7303 -1.7046
 1859SOL    HW217037   2.297   1.094  10.281 -0.5070  2.0240  0.9270
 1860SOL     OW17038   0.218   1.445   9.460 -0.4601 -0.1538 -0.0602
 1860SOL    HW117039   0.207   1.451   9.555 -1.1377 -4.1896  0.1028
 1860SOL    HW217040   0.266   1.527   9.443  1.2001 -0.8635  1.1318
 1861SOL     OW17041   2.475   1.875   7.679 -0.4384 -0.4301  0.0708
 1861SOL    HW117042   2.543   1.939   7.697  0.7897 -1.4355 -1.0402
 1861SOL    HW217043   2.472   1.857   7.585 -1.2811  0.3013 -0.0408
 1862SOL     OW17044   1.308   2.150  13.119  0.5709  0.3970 -0.0474
 1862SOL    HW117045   1.248   2.224  13.109  1.3132  1.5523  3.9147
 1862SOL    HW217046   1.300   2.124  13.211 -0.5647 -0.3482 -0.3586
 1863SOL     OW17047   0.652   1.959   7.782 -0.3754  0.2083  0.2540
 1863SOL    HW117048   0.680   1.956   7.873  0.4457 -1.6602 -0.0616
 1863SOL    HW217049   0.741   1.948   7.748 -1.3388 -1.1709 -1.8024
 1864SOL     OW17050   4.175   1.310   1.260 -0.0856 -0.1078 -0.6123
 1864SOL    HW117051   4.096   1.259   1.239 -0.0152 -0.8730  0.9360
 1864SOL    HW217052   4.220   1.254   1.323  0.2151 -0.8575 -1.5043
 1865SOL     OW17053   4.627   2.510   5.339  0.0097  0.1527 -0.2849
 1865SOL    HW117054   4.640   2.437   5.399 -2.8386 -1.1410 -1.2367
 1865SOL    HW217055   4.652   2.467   5.258 -1.3665  0.4192 -0.8463
 1866SOL     OW17056   1.599   0.465   9.339  0.2319  0.1606 -0.1363
 1866SOL    HW117057   1.595   0.458   9.434  1.2743 -0.6332 -0.1528
 1866SOL    HW217058   1.637   0.381   9.315 -0.3517  0.2627 -1.4243
 1867SOL     OW17059   1.722   4.489  16.103  0.5697 -0.3886 -0.5281
 1867SOL    HW117060   1.773   4.570  16.104  1.8734 -1.2273  0.1573
 1867SOL    HW217061   1.644   4.518  16.150 -0.7649 -1.2255 -2.1844
 1868SOL     OW17062   0.078   3.783  17.028  0.5477 -0.2289  0.8627
 1868SOL    HW117063   0.040   3.718  16.968 -1.5099  2.2391 -0.5152
 1868SOL    HW217064   0.154   3.743  17.069 -0.2917  1.1646  3.7078
 1869SOL     OW17065   1.034   0.733   5.335 -0.1219 -0.6212  0.7661
 1869SOL    HW117066   0.990   0.666   5.284 -1.0268  0.9975 -0.5882
 1869SOL    HW217067   1.068   0.681   5.408  1.1175  0.7481  1.1703
 1870SOL     OW17068   2.023   2.221  11.268 -0.2909 -0.1441  0.7834
 1870SOL    HW117069   2.086   2.173  11.215  0.3863  2.2542 -0.5497
 1870SOL    HW217070   2.018   2.169  11.348  0.0921  1.6442  1.9652
 1871SOL     OW17071   2.352   3.177   2.052  0.1793  0.2053 -0.3804
 1871SOL    HW117072   2.416   3.211   2.115 -0.7955  0.2048  0.6193
 1871SOL    HW217073   2.397   3.101   2.016  2.5203  0.9121  1.0621
 1872SOL     OW17074   1.173   2.208  15.105 -0.1802  0.2363 -0.1614
 1872SOL    HW117075   1.190   2.239  15.194  0.2552 -0.0943 -0.1311
 1872SOL    HW217076   1.091   2.255  15.085 -0.3694 -0.9541 -2.2158
 1873SOL     OW17077   2.760   2.797   4.643  0.1458  0.3177 -0.2890
 1873SOL    HW117078   2.692   2.864   4.634 -1.6936 -1.3892  0.9075
 1873SOL    HW217079   2.841   2.847   4.648  0.3751  0.0050 -0.8425
 1874SOL     OW17080   0.637   3.818   2.656 -0.3394 -0.3302 -0.1079
 1874SOL    HW117081   0.541   3.820   2.663 -0.4342 -2.1014 -1.1002
 1874SOL    HW217082   0.638   3.805   2.561 -0.5172 -2.9376  0.2494
 1875SOL     OW17083   2.769   3.366  15.948 -0.1881  0.3383 -0.1248
 1875SOL    HW117084   2.773   3.357  15.852 -0.2292 -1.6376  0.0621
 1875SOL    HW217085   2.697   3.429  15.950  0.4837  1.0988 -0.0206
 1876SOL     OW17086   1.691   4.117   2.547 -0.1070 -0.8609  0.1177
 1876SOL    HW117087   1.637   4.132   2.625 -0.5110  1.2990 -0.5704
 1876SOL    HW217088   1.773   4.080   2.579  0.5172  0.9312  0.5572
 1877SOL     OW17089   4.236   0.285  16.166  0.1502  0.0206 -0.3988
 1877SOL    HW117090   4.290   0.212  16.134  0.9333 -0.1872  1.4041
 1877SOL    HW217091   4.254   0.356  16.104 -2.0946  2.0898  1.3270
 1878SOL     OW17092   0.005   4.325   0.629  0.3451 -0.1953 -0.3797
 1878SOL    HW117093   0.028   4.247   0.578 -1.6266 -0.5133 -0.8112
 1878SOL    HW217094   0.090   4.362   0.652  0.0386  0.1433  0.1934
 1879SOL     OW17095   3.785   1.692   6.708 -0.3481 -0.1640 -0.5212
 1879SOL    HW117096   3.771   1.685   6.803  1.3635  0.1540 -0.2448
 1879SOL    HW217097   3.814   1.601   6.698  0.3908  0.1962 -1.5901
 1880SOL     OW17098   1.099   4.160   2.743 -0.2304  0.3161  0.2036
 1880SOL    HW117099   1.054   4.239   2.771 -0.0431 -0.3330  2.3576
 1880SOL    HW217100   1.074   4.158   2.651  0.8971  2.0451 -0.1328
 1881SOL     OW17101   1.086   0.992   5.305 -0.7744  0.5881 -0.1183
 1881SOL    HW117102   1.092   0.980   5.210 -0.5382  1.2380 -0.1832
 1881SOL    HW217103   1.078   0.899   5.324 -1.5535  0.5945 -0.4335
 1882SOL     OW17104   3.164   3.196   8.219  0.2162  0.7781  0.6583
 1882SOL    HW117105   3.099   3.142   8.262  0.2047 -0.7514 -1.2832
 1882SOL    HW217106   3.112   3.276   8.223 -1.3143 -0.2483  0.9227
 1883SOL     OW17107   2.627   1.542  13.098 -0.1478 -0.5677  0.1285
 1883SOL    HW117108   2.600   1.473  13.159 -2.5716 -1.0486 -1.4951
 1883SOL    HW217109   2.721   1.526  13.093 -0.0523  0.0390  0.0043
 1884SOL     OW17110   4.224   1.261   9.977  0.3396  0.6320  0.3306
 1884SOL    HW117111   4.301   1.263  10.035  0.8049 -1.0994 -0.2497
 1884SOL    HW217112   4.158   1.273  10.046 -0.4888 -2.9409  0.1595
 1885SOL     OW17113   3.455   3.094  16.501 -0.0051 -0.0463  0.2209
 1885SOL    HW117114   3.452   3.162  16.568 -0.4418 -0.9542  1.1277
 1885SOL    HW217115   3.382   3.120  16.444  0.8757 -0.2509 -0.9897
 1886SOL     OW17116   4.533   2.279   8.465 -0.1297  0.4252  0.2293
 1886SOL    HW117117   4.468   2.339   8.501 -0.3749  0.1297  0.2781
 1886SOL    HW217118   4.470   2.209   8.452  2.1585 -1.6153  0.1395
 1887SOL     OW17119   1.749   0.017  12.414 -0.3901  0.7546 -0.5573
 1887SOL    HW117120   1.822   4.678  12.413 -2.4126 -1.6351 -0.9773
 1887SOL    HW217121   1.764   0.056  12.328 -1.7199 -0.2536 -1.2508
 1888SOL     OW17122   0.061   2.931   1.579 -0.3494 -0.7194 -0.0860
 1888SOL    HW117123   0.049   3.009   1.525  1.2270 -0.0948  0.4501
 1888SOL    HW217124   0.154   2.914   1.566  0.1672  0.6655  1.7512
 1889SOL     OW17125   3.004   3.718   8.006  0.4294  0.6661  0.0996
 1889SOL    HW117126   2.927   3.732   8.062 -1.1785 -0.2321 -1.9143
 1889SOL    HW217127   2.962   3.696   7.923 -0.3255  0.4061  0.5493
 1890SOL     OW17128   4.338   2.916  14.966  0.3356 -0.3767  0.4303
 1890SOL    HW117129   4.272   2.881  15.025  1.7137 -1.7360  1.1625
 1890SOL    HW217130   4.292   2.979  14.910 -1.1257 -0.8044  1.1542
 1891SOL     OW17131   3.445   4.433   2.343 -0.9407  0.2427 -0.0121
 1891SOL    HW117132   3.531   4.395   2.363 -0.9928  0.3462  0.4078
 1891SOL    HW217133   3.480   4.520   2.324 -1.4360 -0.1343 -2.6878
 1892SOL     OW17134   0.228   1.135   5.284  0.3566 -0.1527 -0.6551
 1892SOL    HW117135   0.272   1.202   5.231  0.7042 -0.7303 -1.1101
 1892SOL    HW217136   0.295   1.070   5.305  0.6573  0.2642 -0.3368
 1893SOL     OW17137   1.096   1.569   6.878 -0.0602  0.0176 -0.5115
 1893SOL    HW117138   1.042   1.641   6.910 -1.8895 -1.2797 -0.6313
 1893SOL    HW217139   1.165   1.614   6.830  0.8116 -0.9604 -0.1819
 1894SOL     OW17140   2.525   3.121   4.944  0.3280 -0.1433 -0.2070
 1894SOL    HW117141   2.555   3.033   4.966  0.0352 -0.9122 -2.9215
 1894SOL    HW217142   2.460   3.140   5.011  1.8697  1.2687  0.9186
 1895SOL     OW17143   2.923   0.781   8.630 -0.1393  0.1858  0.8228
 1895SOL    HW117144   2.938   0.713   8.696 -3.4426  0.4139  1.7929
 1895SOL    HW217145   2.853   0.831   8.672  2.3299  1.6910  3.1467
 1896SOL     OW17146   4.682   2.371   5.108  0.5516 -0.7870  0.1684
 1896SOL    HW117147   4.619   2.299   5.106 -1.0435  0.6140  0.0656
 1896SOL    HW217148   0.002   2.373   5.023 -2.0810 -1.0791 -1.1775
 1897SOL     OW17149   4.003   3.668   2.529  0.2713  0.4204  0.2212
 1897SOL    HW117150   3.977   3.613   2.455  0.7417  1.5876 -0.8090
 1897SOL    HW217151   4.091   3.687   2.496 -0.4031  1.4171 -0.9931
 1898SOL     OW17152   3.053   1.210  10.677 -0.7112  0.4545 -0.4323
 1898SOL    HW117153   3.138   1.189  10.715 -0.8029  1.6313  0.4553
 1898SOL    HW217154   3.069   1.188  10.586  0.6438  2.5084 -0.7076
 1899SOL     OW17155   3.235   0.045   5.789 -0.1780 -0.4674  0.5700
 1899SOL    HW117156   3.310   0.021   5.843 -1.5627 -1.1832  2.1850
 1899SOL    HW217157   3.207   4.683   5.754  2.0215 -1.6400  1.6593
 1900SOL     OW17158   1.047   3.159  17.116 -0.9416  0.2118  0.1318
 1900SOL    HW117159   1.053   3.064  17.128 -1.1853  0.2334  0.4303
 1900SOL    HW217160   1.135   3.177  17.148 -0.3675 -1.0588 -0.6795
 1901SOL     OW17161   0.174   2.733   6.943  0.9156  0.5719  0.0421
 1901SOL    HW117162   0.146   2.817   6.978  1.4018 -0.1969  2.2426
 1901SOL    HW217163   0.108   2.703   6.881  1.6464  0.4106 -0.6638
 1902SOL     OW17164   1.724   2.997  14.797  0.4868 -0.3990 -0.4449
 1902SOL    HW117165   1.694   2.928  14.737 -0.4344 -0.4094  0.0446
 1902SOL    HW217166   1.769   3.050  14.731  3.1284  1.0074  2.4989
 1903SOL     OW17167   0.792   0.092   5.362  0.0678  0.4648  0.4236
 1903SOL    HW117168   0.766   0.101   5.270  0.2757 -1.5363  0.1642
 1903SOL    HW217169   0.819   0.182   5.379 -0.1902  0.8229 -1.1006
 1904SOL     OW17170   0.956   4.007  13.377 -0.3507  0.5680 -0.5762
 1904SOL    HW117171   0.943   3.954  13.456  1.7358  2.3190  0.9371
 1904SOL    HW217172   1.049   3.993  13.357 -1.3006 -0.4606 -4.3382
 1905SOL     OW17173   3.734   1.331   2.383  0.3023  0.1907  0.5311
 1905SOL    HW117174   3.809   1.273   2.392 -0.1494 -0.7517 -1.7588
 1905SOL    HW217175   3.763   1.398   2.321  0.9555  1.5385  2.3003
 1906SOL     OW17176   3.444   2.229   9.687  0.4405  0.7649 -0.4104
 1906SOL    HW117177   3.506   2.156   9.688  0.2951  0.6437 -0.3880
 1906SOL    HW217178   3.509   2.288   9.648  0.5794  0.8168 -0.0949
 1907SOL     OW17179   2.590   2.716  16.321 -0.1202  0.0724 -0.1409
 1907SOL    HW117180   2.598   2.624  16.295 -1.1036  0.1797 -0.8272
 1907SOL    HW217181   2.524   2.758  16.265  0.2743  2.2654  1.0475
 1908SOL     OW17182   1.804   3.559   5.440 -0.4905 -0.0678  0.1349
 1908SOL    HW117183   1.868   3.494   5.412 -1.7650 -0.9899 -0.6651
 1908SOL    HW217184   1.830   3.642   5.401 -0.6223  0.7984  1.9041
 1909SOL     OW17185   1.155   4.225   5.633  0.5089  0.3734 -0.3382
 1909SOL    HW117186   1.126   4.137   5.659  1.7540  0.3160  0.8861
 1909SOL    HW217187   1.096   4.247   5.562 -0.9534 -0.9605  0.4589
 1910SOL     OW17188   4.222   0.019  11.683 -0.6789  0.7596  0.2937
 1910SOL    HW117189   4.195   4.698  11.764  0.8524 -0.7556 -0.0014
 1910SOL    HW217190   4.317   0.008  11.683 -0.7006  0.5568  0.4046
 1911SOL     OW17191   0.512   2.243   7.974 -0.5897  0.4962  0.0161
 1911SOL    HW117192   0.445   2.299   8.014  0.0786  1.8316 -0.7532
 1911SOL    HW217193   0.500   2.260   7.881  0.6154  0.6899 -0.1019
 1912SOL     OW17194   4.402   0.093   5.411 -0.4882  0.1203 -0.2444
 1912SOL    HW117195   4.360   0.064   5.492 -0.0675 -0.8747 -0.3924
 1912SOL    HW217196   4.393   0.016   5.356 -0.5189  1.1192 -1.6615
 1913SOL     OW17197   2.593   3.517   9.017  0.1530  0.2295  0.5456
 1913SOL    HW117198   2.556   3.604   9.003 -2.1269 -1.1283 -1.9305
 1913SOL    HW217199   2.541   3.490   9.093 -1.5557  0.4405 -0.5583
 1914SOL     OW17200   1.833   4.194   9.333  0.1349 -0.5428 -0.1896
 1914SOL    HW117201   1.825   4.099   9.339 -3.8999 -0.1156  1.2130
 1914SOL    HW217202   1.747   4.226   9.362 -1.4228 -3.5642 -1.5129
 1915SOL     OW17203   0.992   3.627   0.015  0.1759  0.3725 -0.4494
 1915SOL    HW117204   0.902   3.639  17.675 -0.7642 -1.4870  1.4168
 1915SOL    HW217205   1.044   3.622  17.628 -0.6986 -0.6997 -0.9468
 1916SOL     OW17206   1.488   1.871   8.501  0.6384 -0.4955  0.2350
 1916SOL    HW117207   1.523   1.932   8.565 -1.9752  1.5811 -0.3319
 1916SOL    HW217208   1.569   1.830   8.470 -0.0108 -0.6116 -1.3055
 1917SOL     OW17209   4.058   1.132   4.607 -0.0882  0.0177  0.0790
 1917SOL    HW117210   4.133   1.189   4.624 -1.7136  2.2998 -0.3663
 1917SOL    HW217211   3.997   1.206   4.604 -2.4652 -1.9262  0.1044
 1918SOL     OW17212   2.351   1.817   2.479 -0.6309  0.2448  0.5489
 1918SOL    HW117213   2.353   1.850   2.390 -1.6476  0.3783  0.5804
 1918SOL    HW217214   2.283   1.869   2.520 -2.0719  0.0178 -1.5681
 1919SOL     OW17215   0.636   3.276  11.229 -0.1472  0.5945  0.5134
 1919SOL    HW117216   0.718   3.305  11.268  0.5771 -0.9661  0.1170
 1919SOL    HW217217   0.646   3.292  11.136 -2.8058  0.3641  0.1701
 1920SOL     OW17218   3.154   3.750   1.074 -0.0176 -0.0830 -0.5435
 1920SOL    HW117219   3.194   3.740   1.161  2.1856 -1.7711 -1.7604
 1920SOL    HW217220   3.102   3.829   1.094 -0.8616 -0.7797  0.0352
 1921SOL     OW17221   3.143   2.480  16.757  0.2471 -0.3383  0.5403
 1921SOL    HW117222   3.116   2.559  16.711 -0.3299 -1.7049 -1.4773
 1921SOL    HW217223   3.167   2.419  16.687 -0.4312 -0.2039  0.1923
 1922SOL     OW17224   3.512   4.413   8.708 -0.1958  0.4977 -0.2408
 1922SOL    HW117225   3.533   4.320   8.709 -1.3777  0.2333 -0.2149
 1922SOL    HW217226   3.456   4.408   8.631  0.2923  1.7301 -0.6864
 1923SOL     OW17227   3.706   1.849   9.236  0.2086 -0.5050 -0.2148
 1923SOL    HW117228   3.772   1.915   9.216  0.2716 -0.5693 -0.2185
 1923SOL    HW217229   3.753   1.766   9.235  0.0798 -0.6115  1.8836
 1924SOL     OW17230   3.672   1.416   6.510  0.2531  0.2248 -0.2092
 1924SOL    HW117231   3.753   1.371   6.533 -0.6795 -1.4592 -0.1403
 1924SOL    HW217232   3.623   1.335   6.491  2.0428 -0.7188 -0.7717
 1925SOL     OW17233   1.764   1.166   8.037 -0.0638 -0.2069  0.2973
 1925SOL    HW117234   1.698   1.222   8.078  1.8544  1.0700  1.6498
 1925SOL    HW217235   1.709   1.104   7.988  0.7202  0.3847 -1.3307
 1926SOL     OW17236   0.648   1.183   6.613 -0.4947  0.1587 -0.1504
 1926SOL    HW117237   0.582   1.118   6.588 -1.7458  0.4202  2.4466
 1926SOL    HW217238   0.616   1.210   6.699  2.7298 -1.3898  1.5441
 1927SOL     OW17239   4.342   0.079  10.442 -0.0553 -0.4918  0.3040
 1927SOL    HW117240   4.316   4.714  10.413  1.4922 -1.1058  0.7551
 1927SOL    HW217241   4.434   0.059  10.461  1.1591  1.9872 -2.9592
 1928SOL     OW17242   0.076   2.201   8.434  0.9791 -0.2029 -0.0140
 1928SOL    HW117243   0.087   2.141   8.507 -3.2401  1.2867  1.8594
 1928SOL    HW217244   4.713   2.244   8.443  1.6891  1.2276 -0.0471
 1929SOL     OW17245   3.935   0.379  11.027  0.6060 -0.0045 -0.1017
 1929SOL    HW117246   3.955   0.336  10.943 -1.4365  0.4017 -0.8087
 1929SOL    HW217247   4.025   0.404  11.046  0.8124 -0.2604 -0.7436
 1930SOL     OW17248   2.892   1.438   5.846 -0.0102  0.6677  0.3389
 1930SOL    HW117249   2.957   1.399   5.788  0.6697 -1.4437  2.5053
 1930SOL    HW217250   2.815   1.383   5.864 -1.1616  2.1391 -0.1193
 1931SOL     OW17251   0.562   1.787   3.027 -0.2982 -0.6193 -0.4589
 1931SOL    HW117252   0.625   1.754   2.962  1.5205  0.4051  0.7867
 1931SOL    HW217253   0.476   1.796   2.986 -1.0165 -0.8884  1.0002
 1932SOL     OW17254   1.280   2.845  15.895 -0.4431 -0.0391 -0.7362
 1932SOL    HW117255   1.328   2.794  15.829 -0.9011  0.2698 -1.3053
 1932SOL    HW217256   1.321   2.931  15.890  1.9032 -1.1926 -1.1691
 1933SOL     OW17257   4.247   3.311   6.203 -0.1116 -0.3233 -0.7583
 1933SOL    HW117258   4.326   3.363   6.197 -0.7724  0.5553 -1.9768
 1933SOL    HW217259   4.237   3.280   6.112  2.2224 -1.1462 -0.7330
 1934SOL     OW17260   1.392   1.520   6.854  0.0151 -0.1911  0.3021
 1934SOL    HW117261   1.363   1.502   6.765 -0.0424  2.4886 -0.2263
 1934SOL    HW217262   1.452   1.595   6.849 -1.0374  0.6513  0.2830
 1935SOL     OW17263   3.907   4.293   4.446  0.1085 -0.7452 -0.0411
 1935SOL    HW117264   3.985   4.289   4.391 -0.2008 -0.0653 -0.5126
 1935SOL    HW217265   3.864   4.376   4.430  1.2296  0.1376  1.4307
 1936SOL     OW17266   0.467   0.429   9.393  0.6739  0.2553 -0.1169
 1936SOL    HW117267   0.460   0.491   9.320 -2.0238  0.1033  0.0500
 1936SOL    HW217268   0.376   0.402   9.395  0.4032  1.2632  1.2481
 1937SOL     OW17269   1.403   4.475  13.412 -0.3551 -0.0202 -0.7065
 1937SOL    HW117270   1.493   4.450  13.434 -0.3192  1.9343  1.2660
 1937SOL    HW217271   1.410   4.560  13.369 -1.7118  0.3731 -0.1395
 1938SOL     OW17272   1.938   0.671   2.451 -0.0024  0.5202 -0.3385
 1938SOL    HW117273   1.922   0.757   2.411 -0.4972  0.7073  0.2579
 1938SOL    HW217274   1.852   0.631   2.441 -0.3706  1.2711 -0.1868
 1939SOL     OW17275   3.177   0.001   2.242  0.5262 -0.4374 -0.2083
 1939SOL    HW117276   3.163   4.638   2.282 -0.9565 -0.3593 -0.5544
 1939SOL    HW217277   3.178   4.700   2.149  1.8561 -3.5660  0.6243
 1940SOL     OW17278   1.178   1.193  12.407  0.3223 -0.1456 -0.4006
 1940SOL    HW117279   1.187   1.169  12.315  1.1777 -1.8011  0.1198
 1940SOL    HW217280   1.264   1.229  12.427  0.9517 -2.3584  0.8821
 1941SOL     OW17281   0.259   2.105  13.419 -0.1264  0.5969  0.4197
 1941SOL    HW117282   0.274   2.122  13.326 -0.9285  0.6471  0.3047
 1941SOL    HW217283   0.220   2.182  13.459  2.2204  1.6879  0.6418
 1942SOL     OW17284   0.746   1.149  15.282 -0.3752  0.2993 -0.3547
 1942SOL    HW117285   0.744   1.219  15.348 -0.7534  0.0494 -0.0948
 1942SOL    HW217286   0.811   1.190  15.226  0.7726 -1.1089 -0.0666
 1943SOL     OW17287   3.670   0.092   9.485 -0.6161  0.1394 -0.2340
 1943SOL    HW117288   3.659   0.181   9.452 -2.9787  0.6748  1.9991
 1943SOL    HW217289   3.758   0.080   9.449 -0.6575  3.7210 -1.4758
 1944SOL     OW17290   2.213   1.071   0.138  0.3174 -0.0631  0.4633
 1944SOL    HW117291   2.128   1.079   0.095  0.5605 -0.4130 -0.1000
 1944SOL    HW217292   2.266   1.031   0.068  1.4193  0.2210  1.1467
 1945SOL     OW17293   4.135   1.705   0.321  0.4094 -0.0886 -0.3127
 1945SOL    HW117294   4.093   1.621   0.343 -1.2518  1.1614  1.2171
 1945SOL    HW217295   4.093   1.738   0.242  0.8654  0.2668 -0.4062
 1946SOL     OW17296   0.603   4.638   7.204 -0.6546 -0.2398 -0.3169
 1946SOL    HW117297   0.534   4.619   7.139 -0.5850  2.4645 -1.1948
 1946SOL    HW217298   0.667   4.570   7.182  1.2469  1.4304  0.1077
 1947SOL     OW17299   1.566   2.663   0.400 -0.6000  0.6769  0.3768
 1947SOL    HW117300   1.510   2.738   0.379 -0.3340  1.1896  1.5013
 1947SOL    HW217301   1.499   2.595   0.395 -0.5748  0.7025 -0.3605
 1948SOL     OW17302   3.123   1.098   2.773  0.1537 -0.0407  0.1880
 1948SOL    HW117303   3.212   1.132   2.768  0.6708 -1.2113  1.3177
 1948SOL    HW217304   3.113   1.120   2.866  1.5635  1.1454  0.0569
 1949SOL     OW17305   1.997   2.616  17.408  0.4342  0.0089  0.3345
 1949SOL    HW117306   2.089   2.635  17.394  0.1674  1.1940  0.1435
 1949SOL    HW217307   1.956   2.700  17.387 -0.0949 -0.4155 -0.3408
 1950SOL     OW17308   2.088   3.867   6.984 -0.4659 -0.2849  0.2495
 1950SOL    HW117309   2.169   3.897   7.024 -1.5753  0.7148  1.7473
 1950SOL    HW217310   2.131   3.808   6.922  0.3282 -0.0323  0.5650
 1951SOL     OW17311   0.721   1.463   4.786 -0.5222 -0.4411  0.6129
 1951SOL    HW117312   0.811   1.491   4.806 -1.2693  1.3867  1.4016
 1951SOL    HW217313   0.726   1.398   4.716  0.6836  0.1752  0.1227
 1952SOL     OW17314   3.862   4.281   8.169 -0.8139  0.1084 -0.2323
 1952SOL    HW117315   3.896   4.200   8.132 -2.5266 -0.6646 -0.0765
 1952SOL    HW217316   3.941   4.315   8.212 -0.3094  0.4657 -1.4567
 1953SOL     OW17317   0.018   1.508  12.678 -0.2004  0.1103  0.1547
 1953SOL    HW117318   4.660   1.535  12.634 -0.1171  0.2801  0.1065
 1953SOL    HW217319   0.084   1.521  12.610 -2.1213  0.7958 -1.5768
 1954SOL     OW17320   2.759   0.206  16.887  0.3688 -0.4824 -0.0467
 1954SOL    HW117321   2.746   0.176  16.977  3.6914 -2.8611 -0.3622
 1954SOL    HW217322   2.728   0.129  16.839 -0.6785  0.6314 -1.1539
 1955SOL     OW17323   3.760   1.404   2.960 -0.7406  0.3576  0.1639
 1955SOL    HW117324   3.743   1.326   2.907 -0.0053 -1.6057  2.8115
 1955SOL    HW217325   3.716   1.380   3.042  0.9484 -2.5555  0.2245
 1956SOL     OW17326   1.248   0.726  17.663 -0.4196 -0.0661  0.1998
 1956SOL    HW117327   1.293   0.652   0.013 -1.5200  0.1943  1.8170
 1956SOL    HW217328   1.161   0.689  17.652  0.6587 -2.5034 -0.2825
 1957SOL     OW17329   0.016   2.623   9.863  0.2349 -0.0441  0.2017
 1957SOL    HW117330   0.063   2.611   9.945 -0.0860 -3.1376 -0.0781
 1957SOL    HW217331   0.050   2.707   9.831  0.5875 -0.8953 -1.6943
 1958SOL     OW17332   0.488   4.010   6.591  0.0866  0.2622  0.0993
 1958SOL    HW117333   0.491   3.915   6.578  0.2249  0.3351 -0.3845
 1958SOL    HW217334   0.561   4.042   6.538  0.5387  0.1302  0.6458
 1959SOL     OW17335   3.946   4.444   2.361  0.1961  0.2680 -0.4549
 1959SOL    HW117336   3.922   4.537   2.358  2.3202  0.7524 -2.1550
 1959SOL    HW217337   4.041   4.447   2.371  0.5854 -3.7729 -3.0302
 1960SOL     OW17338   2.198   4.244   5.214 -0.2297  0.4995  0.5275
 1960SOL    HW117339   2.153   4.168   5.250 -0.3625  1.1143  1.6440
 1960SOL    HW217340   2.243   4.258   5.297  0.5063  1.6394 -0.0625
 1961SOL     OW17341   1.867   4.430   2.506  0.2404  0.2660  0.0196
 1961SOL    HW117342   1.923   4.466   2.438  1.6445 -0.4951  0.7756
 1961SOL    HW217343   1.793   4.405   2.451  0.5816 -0.8205  0.0611
 1962SOL     OW17344   4.203   3.685   4.435 -1.2052  0.7269 -1.2768
 1962SOL    HW117345   4.279   3.634   4.404  0.8306  3.0675 -0.1361
 1962SOL    HW217346   4.209   3.765   4.383 -1.8828 -0.1867 -2.7523
 1963SOL     OW17347   3.792   3.202   5.746 -0.1715 -0.4981  0.1873
 1963SOL    HW117348   3.821   3.280   5.793  3.2381 -1.5110 -0.2810
 1963SOL    HW217349   3.811   3.129   5.806  1.4097  0.1797  0.5100
 1964SOL     OW17350   2.005   1.959   2.114  0.2937 -0.1134 -0.3581
 1964SOL    HW117351   1.943   1.912   2.169  1.5748  0.4735  1.5633
 1964SOL    HW217352   1.940   1.985   2.049 -0.2392 -0.8019 -0.1037
 1965SOL     OW17353   1.857   4.005   6.113  0.3128 -0.4330  0.4157
 1965SOL    HW117354   1.846   3.911   6.124 -2.7209 -0.3696 -1.9025
 1965SOL    HW217355   1.789   4.034   6.174 -0.2433  1.8564 -1.2704
 1966SOL     OW17356   3.472   1.331   6.212  0.0649 -0.2350 -0.0637
 1966SOL    HW117357   3.548   1.382   6.242 -0.4779  0.6209 -0.1303
 1966SOL    HW217358   3.403   1.397   6.215 -0.8487 -1.2007  0.0198
 1967SOL     OW17359   4.682   3.545   3.656  0.6243  0.6981  0.0134
 1967SOL    HW117360   4.703   3.633   3.626  1.1699  0.9940  1.2581
 1967SOL    HW217361   4.627   3.561   3.733  0.1169 -1.0890  0.0336
 1968SOL     OW17362   1.292   0.865   2.244  0.1333 -0.5013 -0.7092
 1968SOL    HW117363   1.339   0.799   2.193  1.5016 -1.4199  1.7434
 1968SOL    HW217364   1.367   0.923   2.254  0.1677 -0.6751  0.0110
 1969SOL     OW17365   0.861   1.797   2.643  0.6222 -0.5130 -0.2684
 1969SOL    HW117366   0.810   1.877   2.649  0.9176 -0.3523  0.0863
 1969SOL    HW217367   0.833   1.754   2.724  2.4916 -0.8484  0.2131
 1970SOL     OW17368   0.871   2.073   3.360 -0.1209  0.4218 -0.0218
 1970SOL    HW117369   0.851   1.986   3.325  2.9964 -0.8806  1.4277
 1970SOL    HW217370   0.912   2.115   3.284  0.8407 -0.2809  0.1011
 1971SOL     OW17371   0.796   0.298   7.184  0.0047  0.0581  0.1461
 1971SOL    HW117372   0.824   0.340   7.265  0.6799 -0.5944  0.2464
 1971SOL    HW217373   0.778   0.375   7.129  0.8984  0.2188  0.0744
 1972SOL     OW17374   4.630   1.349   9.045 -0.1241 -0.0022 -0.5604
 1972SOL    HW117375   4.688   1.339   8.969 -0.8296  0.5853 -1.1735
 1972SOL    HW217376   4.692   1.387   9.107 -3.6849  3.0954  1.1002
 1973SOL     OW17377   1.456   1.815  17.235 -0.5237  0.4474  0.2689
 1973SOL    HW117378   1.494   1.855  17.313 -1.0834 -1.7749  1.6990
 1973SOL    HW217379   1.379   1.769  17.268  0.7299 -2.1118 -0.2929
 1974SOL     OW17380   3.899   4.053  15.691 -0.2718 -0.3375  0.4496
 1974SOL    HW117381   3.995   4.048  15.694 -0.2418 -0.3630 -0.8848
 1974SOL    HW217382   3.883   4.126  15.751  0.7505  0.2526  0.0051
 1975SOL     OW17383   1.537   4.250  17.591  0.1559  0.5955  0.2007
 1975SOL    HW117384   1.624   4.289  17.600  0.3437  0.9847 -3.3828
 1975SOL    HW217385   1.494   4.289  17.667 -0.8001  2.2381 -1.1642
 1976SOL     OW17386   2.620   1.319   5.394  0.2927  0.1168  0.0512
 1976SOL    HW117387   2.680   1.393   5.395  0.4665 -0.0782  2.8274
 1976SOL    HW217388   2.539   1.366   5.375  0.7382  0.7155 -0.3635
 1977SOL     OW17389   0.614   4.002   7.948  0.0702  0.2055 -0.0504
 1977SOL    HW117390   0.550   4.073   7.951  2.6000  2.4950 -0.2828
 1977SOL    HW217391   0.685   4.040   8.000 -1.0205  2.1953 -0.0215
 1978SOL     OW17392   0.803   4.143   1.948 -0.2174 -0.4016  0.1953
 1978SOL    HW117393   0.870   4.076   1.939  0.1766 -0.2923  2.4046
 1978SOL    HW217394   0.724   4.097   1.919  1.0244 -1.5726 -1.3279
 1979SOL     OW17395   1.409   1.550   7.153 -0.2421  0.0320 -0.2581
 1979SOL    HW117396   1.383   1.519   7.066 -3.0010  0.9806  0.2210
 1979SOL    HW217397   1.443   1.476   7.204 -1.4848 -0.3936 -0.0402
 1980SOL     OW17398   4.077   1.717   5.121  0.0636 -0.2328 -0.1667
 1980SOL    HW117399   4.022   1.794   5.136  0.2390 -0.1916  0.2676
 1980SOL    HW217400   4.156   1.764   5.097  0.2285 -0.8618 -0.8607
 1981SOL     OW17401   0.838   4.082   6.865 -0.3134  0.2656 -1.0679
 1981SOL    HW117402   0.850   4.177   6.860  1.2015  0.1461  0.2728
 1981SOL    HW217403   0.850   4.063   6.772  1.8984 -0.6131 -0.6140
 1982SOL     OW17404   3.483   2.423  13.865 -0.3735 -0.1585  0.0040
 1982SOL    HW117405   3.484   2.509  13.822  2.1191 -0.4523 -0.5368
 1982SOL    HW217406   3.572   2.401  13.838 -0.6370 -0.0388 -0.9722
 1983SOL     OW17407   2.350   0.808   3.305 -0.2505 -0.7790 -0.4771
 1983SOL    HW117408   2.408   0.875   3.341  2.2739 -2.6720 -1.0768
 1983SOL    HW217409   2.404   0.734   3.330  1.3596  1.1521  1.7925
 1984SOL     OW17410   3.655   1.682  14.869  1.0493  0.4895  0.1313
 1984SOL    HW117411   3.594   1.751  14.895 -0.2262 -0.3346 -0.6193
 1984SOL    HW217412   3.743   1.718  14.868  1.6415 -0.9653 -0.6599
 1985SOL     OW17413   2.959   1.743  11.681  0.1774  0.1566  0.2200
 1985SOL    HW117414   2.967   1.661  11.731  1.0804 -0.5204 -1.0268
 1985SOL    HW217415   2.892   1.722  11.616 -1.2315  0.7079  1.4785
 1986SOL     OW17416   3.541   0.448  15.668 -0.1945 -0.0725  0.0078
 1986SOL    HW117417   3.510   0.527  15.712  0.1357 -0.2397  0.5343
 1986SOL    HW217418   3.490   0.439  15.587 -0.4902  2.0085 -0.0396
 1987SOL     OW17419   3.246   4.575   5.577 -0.3756 -0.5158 -0.1607
 1987SOL    HW117420   3.186   4.607   5.510 -0.9705 -2.7808 -0.7250
 1987SOL    HW217421   3.244   4.479   5.571  2.1534 -0.4806 -1.3408
 1988SOL     OW17422   1.044   1.163  13.081 -0.3995 -0.2997  0.1516
 1988SOL    HW117423   1.094   1.197  13.007 -0.7851  1.3796  0.6450
 1988SOL    HW217424   1.090   1.218  13.145 -1.8522 -1.2135  1.9838
 1989SOL     OW17425   3.249   0.008   6.644 -0.0585 -0.0909  0.2848
 1989SOL    HW117426   3.337   4.707   6.613  0.2568  2.0056 -0.3967
 1989SOL    HW217427   3.280   0.087   6.688 -0.2628  0.0251  0.2189
 1990SOL     OW17428   4.714   4.579   3.246  0.0414  0.5401  0.3375
 1990SOL    HW117429   0.035   4.652   3.202 -0.9468  0.2043 -1.1919
 1990SOL    HW217430   0.054   4.509   3.233  0.1588  0.3450  1.9860
 1991SOL     OW17431   4.300   1.545   3.943  0.0115  0.1791 -0.7197
 1991SOL    HW117432   4.334   1.569   3.857 -0.4073  0.0606 -0.9231
 1991SOL    HW217433   4.288   1.636   3.970  1.8508  0.1545  0.1460
 1992SOL     OW17434   1.364   2.020  13.410 -0.3159  0.2162 -0.2686
 1992SOL    HW117435   1.392   2.051  13.497 -0.7473  0.1221 -0.0987
 1992SOL    HW217436   1.423   1.947  13.394 -0.0251  0.4184 -0.1322
 1993SOL     OW17437   2.119   0.480   1.405 -0.4606 -0.2972  0.4140
 1993SOL    HW117438   2.213   0.491   1.419 -0.6577  0.2295  1.3171
 1993SOL    HW217439   2.108   0.386   1.392 -0.6880 -0.6768  3.4079
 1994SOL     OW17440   3.332   1.031   7.444  0.0738 -0.2230 -0.1963
 1994SOL    HW117441   3.362   0.983   7.522 -1.2103 -1.0900 -0.2477
 1994SOL    HW217442   3.366   1.120   7.449 -0.1421 -0.1276 -0.4893
 1995SOL     OW17443   2.298   2.047   8.027 -0.3660  0.0142  0.4465
 1995SOL    HW117444   2.258   1.961   8.016  1.2485 -0.6074 -0.5385
 1995SOL    HW217445   2.387   2.038   8.062 -0.5927 -1.1685  0.7486
 1996SOL     OW17446   4.327   1.894   0.370  0.0795  0.2518 -0.1826
 1996SOL    HW117447   4.272   1.828   0.328 -0.3644  0.0623  0.7018
 1996SOL    HW217448   4.326   1.863   0.461 -1.0209 -1.0668 -0.6457
 1997SOL     OW17449   0.918   3.762   1.147 -0.1660 -0.4229 -0.3208
 1997SOL    HW117450   1.000   3.716   1.165 -0.3007 -0.3667  0.4535
 1997SOL    HW217451   0.871   3.758   1.230 -0.8359  1.4907 -0.6047
 1998SOL     OW17452   3.208   3.098   4.274 -0.1007 -0.4568  0.3041
 1998SOL    HW117453   3.186   3.166   4.210 -0.9852  0.1433  1.2384
 1998SOL    HW217454   3.254   3.147   4.343  1.1798 -1.0181 -0.1612
 1999SOL     OW17455   4.719   3.496   1.354  0.4443  0.6246 -0.3846
 1999SOL    HW117456   0.079   3.483   1.306  0.5437  3.5287 -0.9969
 1999SOL    HW217457   4.689   3.580   1.319  1.0814  2.1460  2.7535
 2000SOL     OW17458   4.511   3.806   4.924 -0.0222  0.1710 -0.1325
 2000SOL    HW117459   4.450   3.781   4.854 -0.9942 -0.8534  1.0712
 2000SOL    HW217460   4.466   3.764   4.997 -0.0953 -0.5317 -0.5761
 2001SOL     OW17461   1.956   0.063   8.925 -0.1983  0.0587 -0.0961
 2001SOL    HW117462   1.915   0.149   8.923 -0.0633  0.1698  1.6910
 2001SOL    HW217463   1.870   0.021   8.920 -0.2037 -0.0874  1.3663
 2002SOL     OW17464   3.400   1.013  10.353  0.2339 -0.1708 -0.4106
 2002SOL    HW117465   3.349   1.071  10.410  1.4481  1.0672 -0.5580
 2002SOL    HW217466   3.338   0.949  10.319  1.0682 -0.8163 -0.7424
 2003SOL     OW17467   0.816   1.932  13.369 -0.5382 -0.2896 -0.8516
 2003SOL    HW117468   0.764   1.860  13.332  0.1442 -0.6492 -1.1132
 2003SOL    HW217469   0.774   2.006  13.326 -0.2626  1.0691  1.2185
 2004SOL     OW17470   0.739   4.352   2.123  0.3071 -0.3193 -1.3902
 2004SOL    HW117471   0.747   4.271   2.073  1.5539 -1.4629  0.6434
 2004SOL    HW217472   0.665   4.394   2.080  0.7655  0.8506 -1.0482
 2005SOL     OW17473   0.487   3.718   7.175 -0.4995 -0.1341  0.2544
 2005SOL    HW117474   0.497   3.770   7.255  0.7842 -0.5435  0.3622
 2005SOL    HW217475   0.513   3.782   7.108 -2.3943  0.6491  0.2695
 2006SOL     OW17476   3.553   3.869  13.153 -0.0400  0.5507 -0.4651
 2006SOL    HW117477   3.470   3.898  13.189  0.5313  1.2071  0.3226
 2006SOL    HW217478   3.557   3.906  13.065 -0.4049 -2.1493 -1.6253
 2007SOL     OW17479   1.416   0.345   7.475  0.1563 -0.2120 -0.1145
 2007SOL    HW117480   1.433   0.300   7.393 -0.8396  0.0973 -0.4963
 2007SOL    HW217481   1.354   0.285   7.517 -0.7776  1.8104  1.4572
 2008SOL     OW17482   4.423   1.620   2.706 -0.0836 -0.1940  0.3082
 2008SOL    HW117483   4.380   1.628   2.791  1.5692 -2.0419  1.3172
 2008SOL    HW217484   4.452   1.529   2.705  0.4473 -0.0084 -1.1860
 2009SOL     OW17485   1.574   1.295   3.581  0.0854 -0.1771 -0.1606
 2009SOL    HW117486   1.511   1.338   3.639  0.5489  0.3994 -0.0911
 2009SOL    HW217487   1.519   1.236   3.530 -1.0621  0.5970  0.1823
 2010SOL     OW17488   4.425   0.150   7.069  0.0876 -0.2035 -0.5169
 2010SOL    HW117489   4.347   0.204   7.077  0.0820 -0.3866  0.6710
 2010SOL    HW217490   4.496   0.213   7.053 -1.5371  1.6376 -0.4019
 2011SOL     OW17491   4.472   0.680   7.501  0.4032 -0.0038 -0.0732
 2011SOL    HW117492   4.560   0.706   7.528  0.5635 -0.9588  0.3354
 2011SOL    HW217493   4.480   0.584   7.504 -1.7188 -0.2248 -1.5070
 2012SOL     OW17494   4.193   2.624   6.767 -0.5039  0.0833  0.2129
 2012SOL    HW117495   4.163   2.615   6.677  0.7331  1.5170 -0.3497
 2012SOL    HW217496   4.198   2.533   6.797 -1.0333  0.9577  2.8940
 2013SOL     OW17497   0.679   2.208   4.960  0.2509 -0.1934 -0.3124
 2013SOL    HW117498   0.663   2.260   5.039  0.0051 -1.2546  0.3352
 2013SOL    HW217499   0.596   2.217   4.912  0.0311 -0.0036  0.0959
 2014SOL     OW17500   3.336   1.633   4.659 -0.1302 -0.4399 -0.1481
 2014SOL    HW117501   3.390   1.668   4.730  0.8874 -0.8182 -0.7368
 2014SOL    HW217502   3.304   1.720   4.634  0.8488  0.3163  1.2764
 2015SOL     OW17503   3.606   3.217   2.488  0.0226 -0.6624 -0.0934
 2015SOL    HW117504   3.541   3.251   2.426  0.3873  0.1645 -0.0183
 2015SOL    HW217505   3.665   3.290   2.507  0.9894 -2.0089  2.0768
 2016SOL     OW17506   2.595   3.133   2.940 -0.2479  0.1007  0.0950
 2016SOL    HW117507   2.534   3.093   3.002  1.0695  0.5425  1.6811
 2016SOL    HW217508   2.643   3.203   2.985  0.1509 -0.9002  1.2144
 2017SOL     OW17509   4.107   2.462  11.180  0.0862  0.2678  0.5663
 2017SOL    HW117510   4.022   2.504  11.194  1.1944  2.7404 -0.2302
 2017SOL    HW217511   4.129   2.512  11.101 -0.1850  0.5761  0.6839
 2018SOL     OW17512   4.430   2.972  11.356  0.2208 -0.2635  0.0427
 2018SOL    HW117513   4.520   2.946  11.372  0.8162  1.6014 -0.3214
 2018SOL    HW217514   4.445   3.046  11.298  1.5619  0.2343  1.0417
 2019SOL     OW17515   4.691   3.865   8.083  0.8834 -0.4112 -0.5700
 2019SOL    HW117516   4.694   3.950   8.038 -0.7184 -0.8767 -1.5730
 2019SOL    HW217517   0.056   3.861   8.120  0.6480 -0.7118 -0.0479
 2020SOL     OW17518   3.098   0.272   5.697 -0.0182  0.2909  0.3849
 2020SOL    HW117519   3.079   0.286   5.790  0.9961  1.4542  0.4210
 2020SOL    HW217520   3.159   0.198   5.699 -1.2290 -0.6739  2.1206
 2021SOL     OW17521   2.038   0.771  10.086  0.0708 -0.0226  0.8756
 2021SOL    HW117522   1.947   0.770  10.114  0.3400 -1.3078  1.7115
 2021SOL    HW217523   2.061   0.681  10.110 -1.8859 -0.2260  1.9679
 2022SOL     OW17524   1.376   4.504   5.292 -0.2207 -0.0976  0.0776
 2022SOL    HW117525   1.435   4.540   5.227 -0.2301 -0.9454 -0.4020
 2022SOL    HW217526   1.353   4.415   5.265 -1.5908  1.2290 -3.0971
 2023SOL     OW17527   0.276   2.960   7.259 -0.5389 -0.1861  0.5091
 2023SOL    HW117528   0.332   2.914   7.322 -0.1755 -0.1337  0.2253
 2023SOL    HW217529   0.270   3.037   7.316 -0.0492 -1.8848  2.8315
 2024SOL     OW17530   0.417   0.206   2.980 -0.4423 -0.3506 -0.2900
 2024SOL    HW117531   0.476   0.234   2.910 -3.0315  0.7141 -2.0768
 2024SOL    HW217532   0.338   0.200   2.926  0.3203  0.2806 -1.4781
 2025SOL     OW17533   2.830   0.251   0.380  0.4994  0.0775  0.3515
 2025SOL    HW117534   2.811   0.207   0.297  1.8091 -1.6012  0.9530
 2025SOL    HW217535   2.765   0.207   0.436  1.1989 -0.1779  0.9519
 2026SOL     OW17536   2.093   3.690   3.357  0.1628 -0.0495 -0.3366
 2026SOL    HW117537   2.100   3.770   3.306 -4.7808 -0.2395 -1.3175
 2026SOL    HW217538   2.057   3.725   3.438  0.0447 -0.1759 -0.3324
 2027SOL     OW17539   1.622   3.070  17.057  0.2097 -0.1313 -0.0621
 2027SOL    HW117540   1.694   3.127  17.084  1.1653 -1.0387 -0.7170
 2027SOL    HW217541   1.653   3.047  16.970  1.8201  1.2067  0.1536
 2028SOL     OW17542   1.479   4.344  15.214  0.1084  0.3306  0.0581
 2028SOL    HW117543   1.569   4.326  15.185 -0.9353  0.0554 -3.0431
 2028SOL    HW217544   1.467   4.296  15.295  0.4487  1.3172  0.6895
 2029SOL     OW17545   2.904   4.592   6.419  0.3864 -0.1506 -0.3132
 2029SOL    HW117546   2.853   4.511   6.416 -0.9060  0.6583 -0.3114
 2029SOL    HW217547   2.901   4.606   6.324  0.4516  1.3438 -0.0932
 2030SOL     OW17548   1.051   0.163   7.202  0.4095 -0.2297  0.6708
 2030SOL    HW117549   1.098   0.222   7.143 -1.7546 -0.3139 -1.1318
 2030SOL    HW217550   0.961   0.173   7.172  0.8893  1.1980 -0.2800
 2031SOL     OW17551   4.527   0.764   8.584 -0.1315 -0.0131 -0.3672
 2031SOL    HW117552   4.456   0.798   8.638 -1.1346 -1.7380 -0.6205
 2031SOL    HW217553   4.521   0.673   8.612 -0.2080 -0.3800 -1.5957
 2032SOL     OW17554   0.619   0.570   8.318 -0.0039 -0.0218  0.0914
 2032SOL    HW117555   0.597   0.643   8.260  0.4914  0.0452 -0.0134
 2032SOL    HW217556   0.576   0.503   8.265 -0.1759  0.7613 -0.7733
 2033SOL     OW17557   2.382   0.107  17.620 -0.2236  0.0781 -0.2404
 2033SOL    HW117558   2.408   0.072   0.013  2.2174  3.1302  0.2477
 2033SOL    HW217559   2.472   0.116  17.591  0.6503 -1.1744  2.1033
 2034SOL     OW17560   2.768   1.350   6.698 -0.9663 -0.0117 -1.0001
 2034SOL    HW117561   2.676   1.337   6.719 -0.8139 -1.0095 -0.9830
 2034SOL    HW217562   2.775   1.312   6.610 -0.2187 -1.2104 -0.4132
 2035SOL     OW17563   4.333   4.386  14.602  0.0203 -0.2414 -0.6796
 2035SOL    HW117564   4.386   4.435  14.540  4.3538 -2.6062  1.1265
 2035SOL    HW217565   4.278   4.456  14.637  1.7719  1.4150 -1.2805
 2036SOL     OW17566   4.500   3.567   7.742 -0.4986  0.2138 -0.0919
 2036SOL    HW117567   4.553   3.635   7.700  1.9568 -0.5753  1.7614
 2036SOL    HW217568   4.518   3.574   7.836 -0.7414 -0.1431 -0.0183
 2037SOL     OW17569   1.091   0.562   9.701  0.0217 -0.1251  0.1704
 2037SOL    HW117570   1.126   0.478   9.673  2.3273  0.0369  2.5890
 2037SOL    HW217571   0.999   0.560   9.675  0.5072  0.0093 -1.5704
 2038SOL     OW17572   2.515   1.678   8.445 -0.0389 -0.5474  0.3033
 2038SOL    HW117573   2.543   1.760   8.404  1.0812  0.1672  2.5079
 2038SOL    HW217574   2.590   1.657   8.501 -1.3842 -3.5733  0.9668
 2039SOL     OW17575   0.205   2.156  16.325  0.1081  0.1246 -0.1074
 2039SOL    HW117576   0.141   2.105  16.276 -0.1368 -0.4099  0.7738
 2039SOL    HW217577   0.258   2.197  16.257  0.5785 -1.2594 -0.5702
 2040SOL     OW17578   0.606   3.759   9.247 -0.2027  0.1333  0.0753
 2040SOL    HW117579   0.521   3.796   9.270 -1.0424 -2.8278  1.6738
 2040SOL    HW217580   0.595   3.664   9.243 -2.1541  0.3818 -0.5139
 2041SOL     OW17581   1.096   0.009   8.488  0.2630 -0.1205  0.2079
 2041SOL    HW117582   1.095   4.641   8.457 -0.3962 -0.7077  1.9759
 2041SOL    HW217583   1.014   0.007   8.538 -0.3702 -2.7936 -0.9212
 2042SOL     OW17584   1.914   0.403   6.321  0.2779 -0.0479 -0.9698
 2042SOL    HW117585   1.870   0.335   6.270 -0.8506 -0.0733  0.0278
 2042SOL    HW217586   2.007   0.386   6.306  0.2165 -0.4497 -0.9002
 2043SOL     OW17587   1.191   4.130   8.858  0.2240 -0.0482 -0.5178
 2043SOL    HW117588   1.201   4.226   8.862  0.2952 -0.0996  0.6805
 2043SOL    HW217589   1.170   4.113   8.950  3.0825  2.6212  0.6348
 2044SOL     OW17590   4.501   2.886   9.337  0.0896 -0.3388  0.1417
 2044SOL    HW117591   4.596   2.892   9.342  0.2808 -3.0095 -0.1752
 2044SOL    HW217592   4.486   2.930   9.254  0.0218  1.0764  0.9061
 2045SOL     OW17593   3.894   4.314   0.424  0.1286 -0.5176 -0.0577
 2045SOL    HW117594   3.842   4.313   0.504 -0.8065  1.5976 -0.6343
 2045SOL    HW217595   3.977   4.346   0.460 -0.5639  0.2085  0.8820
 2046SOL     OW17596   0.857   2.972   0.748 -0.8176 -0.0561 -0.3228
 2046SOL    HW117597   0.814   3.038   0.694  2.9482  2.2365 -0.5095
 2046SOL    HW217598   0.803   2.894   0.733  0.8491 -1.5341  1.3279
 2047SOL     OW17599   0.724   2.676   5.785 -0.8000 -0.2143 -0.1515
 2047SOL    HW117600   0.770   2.592   5.783 -1.8358 -0.6709 -3.8583
 2047SOL    HW217601   0.647   2.654   5.837 -0.9427  2.5764  0.8644
 2048SOL     OW17602   2.984   3.846   6.629 -0.3054 -0.4144  0.1248
 2048SOL    HW117603   3.035   3.927   6.636  0.9077 -1.0972 -1.0055
 2048SOL    HW217604   2.917   3.881   6.569  2.3316  1.5947 -1.6351
 2049SOL     OW17605   2.475   0.713  12.526 -0.1784  0.0273 -0.2167
 2049SOL    HW117606   2.554   0.730  12.578  0.7753 -0.3002 -1.5406
 2049SOL    HW217607   2.474   0.782  12.461  2.0967 -1.3488 -1.7492
 2050SOL     OW17608   0.440   2.822  12.657 -0.1274 -0.2750  0.3771
 2050SOL    HW117609   0.415   2.835  12.566  0.8470  0.3565  0.2088
 2050SOL    HW217610   0.445   2.911  12.693  2.4527 -0.3165  0.0858
 2051SOL     OW17611   0.508   0.128   5.711  0.1051  0.4375  0.0755
 2051SOL    HW117612   0.515   0.206   5.767  2.3542 -0.0771  0.5281
 2051SOL    HW217613   0.603   0.123   5.698  0.1513  1.9915 -0.1804
 2052SOL     OW17614   4.132   2.786   8.162  0.1318 -0.0453 -0.7957
 2052SOL    HW117615   4.109   2.717   8.100 -0.7156  0.9820 -1.6418
 2052SOL    HW217616   4.166   2.854   8.104  1.1042  1.4329  1.4974
 2053SOL     OW17617   2.662   1.253   2.955 -0.2010  0.2142  0.0582
 2053SOL    HW117618   2.664   1.348   2.964 -0.0826  0.0882  1.3489
 2053SOL    HW217619   2.567   1.242   2.955 -0.2209  0.3886 -0.0867
 2054SOL     OW17620   2.329   2.722  14.684  0.0021  0.3951 -0.4610
 2054SOL    HW117621   2.240   2.740  14.651 -0.3523  1.6116  1.1391
 2054SOL    HW217622   2.373   2.742  14.602 -1.4188  1.7847 -0.8872
 2055SOL     OW17623   0.320   2.630   1.536 -0.1486  0.5111 -0.2789
 2055SOL    HW117624   0.354   2.620   1.448 -2.6034 -0.1576 -1.1491
 2055SOL    HW217625   0.279   2.716   1.529  1.4068  1.4040  1.5440
 2056SOL     OW17626   3.097   3.430   5.946 -0.1308 -0.1938 -0.6959
 2056SOL    HW117627   3.126   3.457   5.858 -1.0401 -0.6346 -1.1294
 2056SOL    HW217628   3.109   3.337   5.929 -1.2908  0.2210 -3.9221
 2057SOL     OW17629   1.951   0.931   7.383  0.4977  0.3816  0.4116
 2057SOL    HW117630   1.912   1.013   7.415  1.4544  1.1341 -0.3589
 2057SOL    HW217631   1.973   0.885   7.464 -1.5192  0.2191  0.8643
 2058SOL     OW17632   2.757   2.842   3.479  0.1009 -0.4420  0.7758
 2058SOL    HW117633   2.669   2.849   3.517 -0.9560  0.0341 -1.6957
 2058SOL    HW217634   2.746   2.898   3.402  1.7246 -0.7584  0.3125
 2059SOL     OW17635   0.275   3.356  12.926  1.0096  0.7573 -0.1641
 2059SOL    HW117636   0.362   3.393  12.940  1.8202 -1.1540 -0.1079
 2059SOL    HW217637   0.284   3.264  12.950  0.7974  0.6979 -0.3081
 2060SOL     OW17638   1.946   2.782   7.515 -0.4230 -0.1033  0.1370
 2060SOL    HW117639   2.036   2.799   7.543 -1.3412  0.2904  2.8830
 2060SOL    HW217640   1.914   2.721   7.582 -0.3857  0.9031  1.0772
 2061SOL     OW17641   2.252   0.113   3.668 -0.0695  0.4147 -0.5676
 2061SOL    HW117642   2.255   0.186   3.606  1.3061  0.9670  0.1407
 2061SOL    HW217643   2.342   0.106   3.700  0.2758  2.4933 -1.0821
 2062SOL     OW17644   4.347   2.801   5.555  0.2225  0.3995 -0.6319
 2062SOL    HW117645   4.352   2.794   5.650 -0.4285  0.7126 -0.5757
 2062SOL    HW217646   4.440   2.807   5.532  0.4248 -1.8659 -0.4074
 2063SOL     OW17647   0.743   3.816   7.547  0.6566 -0.6662  0.2803
 2063SOL    HW117648   0.824   3.822   7.497 -0.1243 -2.0063 -1.1286
 2063SOL    HW217649   0.768   3.872   7.621  2.7628 -1.5523  0.2434
 2064SOL     OW17650   1.034   3.218   1.353  0.1562 -0.5406 -0.0094
 2064SOL    HW117651   1.032   3.170   1.436 -1.6461 -0.9992 -0.3091
 2064SOL    HW217652   1.085   3.295   1.378  0.3253 -0.7649  0.3407
 2065SOL     OW17653   0.607   3.134   3.382 -0.5065 -0.4124  0.2366
 2065SOL    HW117654   0.585   3.131   3.476 -1.2281  0.3125  0.0913
 2065SOL    HW217655   0.618   3.226   3.360 -2.4339 -0.0886  0.6061
 2066SOL     OW17656   2.151   1.490   3.079  0.7848  0.2770 -0.3813
 2066SOL    HW117657   2.093   1.552   3.124 -1.7695 -2.0898 -0.4378
 2066SOL    HW217658   2.091   1.415   3.079  0.4198  0.5771 -2.0256
 2067SOL     OW17659   4.281   0.609  16.567 -0.2003 -0.4034  0.1460
 2067SOL    HW117660   4.350   0.669  16.594 -1.3596  0.7530  0.5801
 2067SOL    HW217661   4.323   0.570  16.490  2.6394  1.0704  0.9884
 2068SOL     OW17662   2.663   3.509   2.744 -0.6108 -0.1581  0.0245
 2068SOL    HW117663   2.616   3.592   2.739 -2.2960 -1.0564  0.8434
 2068SOL    HW217664   2.709   3.516   2.828  0.1719 -0.3452 -0.3789
 2069SOL     OW17665   4.383   0.081   2.824  0.0696  0.3409 -0.2630
 2069SOL    HW117666   4.300   0.052   2.863 -0.4815  0.2140 -1.5431
 2069SOL    HW217667   4.452   0.029   2.866  0.4409  0.3233 -0.8959
 2070SOL     OW17668   4.693   0.383   2.900  0.1113 -0.5658  0.1647
 2070SOL    HW117669   4.657   0.330   2.829  0.4651  0.6218 -0.8927
 2070SOL    HW217670   4.610   0.417   2.932 -0.2409 -1.3218  0.0526
 2071SOL     OW17671   4.025   1.835   6.445  0.3965 -0.6224  0.1671
 2071SOL    HW117672   4.120   1.840   6.446  0.3496  0.1565  0.5396
 2071SOL    HW217673   4.005   1.741   6.438  0.6582 -0.6452 -0.2847
 2072SOL     OW17674   2.186   1.651   4.253 -0.3501  0.1335  0.0255
 2072SOL    HW117675   2.144   1.592   4.191 -0.3327 -0.5999  0.6985
 2072SOL    HW217676   2.279   1.630   4.255 -0.5007 -0.3900  1.7216
 2073SOL     OW17677   1.164   4.504   6.403  0.4300  0.6686  0.3595
 2073SOL    HW117678   1.162   4.421   6.356 -1.4275  1.7458 -1.4304
 2073SOL    HW217679   1.099   4.559   6.360 -0.2323  1.4268  2.3044
 2074SOL     OW17680   1.959   4.193   6.631  0.5445  0.2693 -0.7166
 2074SOL    HW117681   1.951   4.162   6.721 -2.2146 -0.0777 -1.0951
 2074SOL    HW217682   1.900   4.267   6.619 -0.8108 -1.0666 -2.1896
 2075SOL     OW17683   0.248   1.659   0.004  1.2223 -0.1604 -0.6731
 2075SOL    HW117684   0.339   1.668  17.670  1.5772 -0.0008  0.6030
 2075SOL    HW217685   0.250   1.580   0.057  1.8013 -0.2354 -0.8081
 2076SOL     OW17686   1.425   1.975   6.442  0.4143  0.3927  0.2549
 2076SOL    HW117687   1.397   2.058   6.481 -0.6794 -0.0120  0.3194
 2076SOL    HW217688   1.455   1.928   6.520 -0.9250 -1.1513 -0.1438
 2077SOL     OW17689   1.595   3.985  14.057  0.0471  0.0637 -0.2866
 2077SOL    HW117690   1.571   3.932  13.981  3.3406 -3.6481  1.2231
 2077SOL    HW217691   1.659   4.048  14.027  0.5130  0.5716  1.7596
 2078SOL     OW17692   1.443   2.549   3.539 -0.2756 -0.1369  0.0252
 2078SOL    HW117693   1.366   2.603   3.520  0.9859  0.4712 -3.4137
 2078SOL    HW217694   1.427   2.529   3.631 -1.4266  2.4168  0.3753
 2079SOL     OW17695   1.849   3.097   9.193  0.2742  0.0405  0.2572
 2079SOL    HW117696   1.775   3.156   9.176  1.2844  0.8055 -1.4469
 2079SOL    HW217697   1.803   3.013   9.191  2.9501 -1.4330  0.0204
 2080SOL     OW17698   0.410   1.886   6.425 -0.2557  0.2553 -0.4445
 2080SOL    HW117699   0.496   1.926   6.415  0.3264 -0.3783  1.9307
 2080SOL    HW217700   0.397   1.876   6.331  2.4826  1.3709 -0.9290
 2081SOL     OW17701   1.864   0.567   7.352  0.2692 -0.0754  0.4242
 2081SOL    HW117702   1.782   0.545   7.396  0.7055 -0.7137  0.9160
 2081SOL    HW217703   1.886   0.478   7.327  1.0256  0.3314 -0.3484
 2082SOL     OW17704   3.499   0.070   4.334 -0.6030 -0.2068 -0.2346
 2082SOL    HW117705   3.462   0.047   4.248 -0.2952 -0.0605 -0.4069
 2082SOL    HW217706   3.492   4.713   4.387  1.4960  1.1185  2.0192
 2083SOL     OW17707   2.176   4.640   0.804  0.2727  0.2277 -0.3302
 2083SOL    HW117708   2.226   4.721   0.813  0.6761 -0.1735  1.0209
 2083SOL    HW217709   2.195   4.598   0.887 -2.4367  1.2244  0.8017
 2084SOL     OW17710   0.535   0.009   8.862 -0.1641 -0.2215  0.0471
 2084SOL    HW117711   0.522   4.675   8.786  1.3966 -3.4343  2.1579
 2084SOL    HW217712   0.458   0.066   8.868  1.8205  2.4792  0.0866
 2085SOL     OW17713   0.285   2.925   0.284 -0.7785  0.1158 -0.5795
 2085SOL    HW117714   0.293   2.842   0.332 -0.7671  0.2792 -0.3002
 2085SOL    HW217715   0.372   2.960   0.303 -0.8233  0.2420 -0.6113
 2086SOL     OW17716   4.674   0.740   8.988 -0.0107 -0.6252  0.6494
 2086SOL    HW117717   4.679   0.824   9.032  0.5889 -0.6066  0.5503
 2086SOL    HW217718   4.581   0.728   8.967  0.5367 -1.5950 -1.3197
 2087SOL     OW17719   2.430   2.704   1.810  0.0033 -0.3105 -0.0230
 2087SOL    HW117720   2.522   2.699   1.837 -0.5139  0.7288  1.9066
 2087SOL    HW217721   2.411   2.625   1.760  2.8706 -1.2690  0.3757
 2088SOL     OW17722   2.056   3.926   4.354 -0.2626 -0.1161 -0.3061
 2088SOL    HW117723   1.991   3.877   4.306 -1.5179  0.6407  0.6118
 2088SOL    HW217724   2.018   4.014   4.353  2.2347  0.9544 -0.7871
 2089SOL     OW17725   4.649   0.770   7.217  0.5573  0.0264 -0.4229
 2089SOL    HW117726   0.004   0.774   7.272  1.2715 -1.4869 -1.3282
 2089SOL    HW217727   4.601   0.843   7.257  0.1787 -0.7272  0.4829
 2090SOL     OW17728   0.994   1.727   8.181  0.1475  0.1095  0.4904
 2090SOL    HW117729   0.953   1.813   8.185  0.6563  0.3856 -0.1349
 2090SOL    HW217730   1.064   1.740   8.117 -0.5624  0.3368 -0.2417
 2091SOL     OW17731   1.526   4.015   4.795  0.2403  0.2953 -0.1542
 2091SOL    HW117732   1.431   4.029   4.803  0.3345  0.0484  1.3114
 2091SOL    HW217733   1.557   4.100   4.764 -1.6576  0.1899 -2.3806
 2092SOL     OW17734   2.622   2.169   0.410 -0.1629  0.1195  0.0358
 2092SOL    HW117735   2.685   2.100   0.389  0.2838  0.6257 -0.2776
 2092SOL    HW217736   2.581   2.138   0.491 -1.2730  0.2965 -0.4591
 2093SOL     OW17737   0.699   4.155   7.661 -0.1771  0.1557  0.0982
 2093SOL    HW117738   0.731   4.216   7.594 -1.6196  0.8269  0.0244
 2093SOL    HW217739   0.653   4.214   7.720 -2.6905  0.7594 -2.5077
 2094SOL     OW17740   2.600   2.526   2.689  0.3261 -0.4944 -0.3548
 2094SOL    HW117741   2.536   2.583   2.730 -0.0716  0.7645 -2.7514
 2094SOL    HW217742   2.678   2.580   2.676  2.0614 -2.6321  0.9942
 2095SOL     OW17743   1.916   0.445   5.996 -0.0450  0.1910  0.1762
 2095SOL    HW117744   1.878   0.381   6.056 -1.4908 -1.4345 -2.4598
 2095SOL    HW217745   2.006   0.454   6.028  0.4288  2.2615 -1.7105
 2096SOL     OW17746   3.573   0.963   2.961  0.0158 -0.8266  0.1633
 2096SOL    HW117747   3.541   0.946   3.050  0.7313 -0.9313  0.3943
 2096SOL    HW217748   3.515   1.033   2.929  1.0511  1.0033  2.2553
 2097SOL     OW17749   2.494   1.437   5.734  0.6108 -0.7374  0.6595
 2097SOL    HW117750   2.530   1.524   5.753 -0.3796  0.1458 -1.4947
 2097SOL    HW217751   2.407   1.460   5.700 -0.0588  0.2081  3.0513
 2098SOL     OW17752   3.999   0.270  15.026 -0.0770 -0.3597  0.0863
 2098SOL    HW117753   4.010   0.275  15.121  3.1163 -2.1222 -0.1611
 2098SOL    HW217754   4.075   0.313  14.987  1.9380 -2.5778  1.5045
 2099SOL     OW17755   3.263   2.872   2.943  0.3932 -0.3585 -0.3443
 2099SOL    HW117756   3.241   2.803   3.006 -0.6524  0.1392 -0.1599
 2099SOL    HW217757   3.351   2.897   2.970  1.7991 -3.0768 -2.3739
 2100SOL     OW17758   0.173   1.677   6.442 -0.4900 -0.3767 -0.4440
 2100SOL    HW117759   0.119   1.627   6.380 -2.1903 -1.4405  1.8989
 2100SOL    HW217760   0.249   1.713   6.395 -1.5121  1.5797 -0.5765
 2101SOL     OW17761   3.501   3.491  16.818 -0.1036  0.2219 -0.0105
 2101SOL    HW117762   3.472   3.403  16.792 -1.0237  0.4769  0.1661
 2101SOL    HW217763   3.513   3.491  16.913 -0.2366 -0.8892  0.0085
 2102SOL     OW17764   3.278   0.960   7.183 -0.6328  0.0430 -0.1350
 2102SOL    HW117765   3.302   0.979   7.273 -0.4391 -0.6364 -0.0434
 2102SOL    HW217766   3.295   0.866   7.183 -2.3126 -0.2405  1.5054
 2103SOL     OW17767   1.611   3.723  16.980 -0.1769  0.0464 -0.0223
 2103SOL    HW117768   1.694   3.723  17.028 -0.6293  3.1298  0.7464
 2103SOL    HW217769   1.550   3.696  17.049 -0.0703 -1.8154 -0.6503
 2104SOL     OW17770   2.859   0.159  10.176  0.0178 -0.3297 -0.1712
 2104SOL    HW117771   2.907   0.080  10.200  0.2959 -0.0261  0.2971
 2104SOL    HW217772   2.821   0.126  10.095 -1.8453 -1.4061  1.1356
 2105SOL     OW17773   4.340   1.877  12.705  0.0691 -0.1550 -0.3301
 2105SOL    HW117774   4.431   1.878  12.734 -0.1013 -0.7695  0.2051
 2105SOL    HW217775   4.322   1.784  12.689 -0.0175 -0.3792  1.0813
 2106SOL     OW17776   2.393   4.176   6.365 -0.1623 -0.4294  0.4408
 2106SOL    HW117777   2.388   4.081   6.351  0.9809 -0.4224 -0.0064
 2106SOL    HW217778   2.452   4.183   6.441 -0.8348  0.0521  0.9166
 2107SOL     OW17779   1.939   0.125   0.657 -0.5439 -0.2373 -0.2563
 2107SOL    HW117780   2.003   0.192   0.634 -0.6483 -0.4126 -1.0545
 2107SOL    HW217781   1.978   0.039   0.637 -2.1325 -0.9875 -0.0973
 2108SOL     OW17782   2.203   3.722   6.783 -0.1389 -0.3115 -0.1377
 2108SOL    HW117783   2.126   3.677   6.747  0.3675 -1.8434  0.7026
 2108SOL    HW217784   2.272   3.674   6.737  0.3500 -1.0095  1.3606
 2109SOL     OW17785   3.229   3.824   4.669 -0.4056 -0.4995  0.3172
 2109SOL    HW117786   3.181   3.823   4.752  0.2084  0.1730  0.6799
 2109SOL    HW217787   3.312   3.867   4.689 -0.4112 -0.9557  1.3268
 2110SOL     OW17788   1.723   3.781  15.993 -0.3066  0.6473  0.4314
 2110SOL    HW117789   1.784   3.844  15.956 -0.1100 -0.0136 -0.3632
 2110SOL    HW217790   1.648   3.835  16.019 -0.0899  0.1259  2.1947
 2111SOL     OW17791   1.383   4.279   3.217  0.1405  0.5999 -0.2890
 2111SOL    HW117792   1.444   4.212   3.249  1.4732  2.0396  0.1864
 2111SOL    HW217793   1.451   4.344   3.200 -1.8158  1.4683 -4.7639
 2112SOL     OW17794   0.723   3.789  14.914  0.2140 -0.0184  0.6293
 2112SOL    HW117795   0.789   3.734  14.872  0.0759 -0.3809  0.8830
 2112SOL    HW217796   0.722   3.751  15.002  0.7861 -1.6121 -0.0415
 2113SOL     OW17797   1.701   1.341   5.872  0.2477 -0.2522  0.2144
 2113SOL    HW117798   1.772   1.361   5.933  1.9837 -3.8194 -0.6340
 2113SOL    HW217799   1.713   1.246   5.869  0.1063 -0.2956  0.9021
 2114SOL     OW17800   0.987   0.830  13.460 -0.0610  0.2648  0.5379
 2114SOL    HW117801   0.921   0.793  13.519 -0.0330 -1.7050 -0.6889
 2114SOL    HW217802   0.930   0.863  13.390  0.9160  0.3975 -0.1928
 2115SOL     OW17803   1.587   1.486   3.957  0.5228  0.4116  0.1950
 2115SOL    HW117804   1.552   1.557   3.903 -0.5744 -0.4216 -0.1987
 2115SOL    HW217805   1.507   1.450   3.994  0.4573  1.5263  1.1427
 2116SOL     OW17806   0.076   3.468  12.146  0.3574  0.3122 -0.2513
 2116SOL    HW117807   0.154   3.415  12.162 -0.5916 -1.7163 -2.3694
 2116SOL    HW217808   0.124   3.548  12.126 -0.4919  1.0259  0.5454
 2117SOL     OW17809   0.369   4.722   3.219 -0.5370  0.4315  0.1451
 2117SOL    HW117810   0.420   4.690   3.145 -0.4059 -0.0407  0.4384
 2117SOL    HW217811   0.437   0.055   3.256 -0.6176  0.4856  0.2121
 2118SOL     OW17812   1.941   1.285  17.368 -0.1886  0.0893  0.1871
 2118SOL    HW117813   1.975   1.349  17.431  2.0586  0.7926 -1.7332
 2118SOL    HW217814   1.907   1.217  17.426 -2.2283  1.8036  1.0053
 2119SOL     OW17815   4.690   1.943  10.044 -0.1118  0.2088  0.3908
 2119SOL    HW117816   0.063   1.951  10.047 -0.2019  1.2233  0.6082
 2119SOL    HW217817   4.685   1.926   9.950  1.9874  2.8107 -0.2100
 2120SOL     OW17818   1.194   0.754   2.878 -0.2287  0.3801 -0.2315
 2120SOL    HW117819   1.173   0.694   2.949 -3.3382  0.4509 -1.0584
 2120SOL    HW217820   1.179   0.692   2.807  0.2459  1.0911 -0.9573
 2121SOL     OW17821   4.305   1.874   6.298  0.0217  0.0142 -0.3928
 2121SOL    HW117822   4.268   1.921   6.224  0.1131  0.7560  0.0333
 2121SOL    HW217823   4.356   1.808   6.250  0.8656  1.2738 -1.2320
 2122SOL     OW17824   2.271   3.461   3.319 -0.4344 -0.0560 -0.2954
 2122SOL    HW117825   2.361   3.482   3.345 -0.3424  0.9523 -1.4087
 2122SOL    HW217826   2.229   3.547   3.327 -0.0000  0.1839 -0.6037
 2123SOL     OW17827   3.967   3.619   6.578 -0.4154  0.0584 -0.1035
 2123SOL    HW117828   3.890   3.588   6.626  0.8860 -0.7520  1.4502
 2123SOL    HW217829   3.936   3.594   6.492 -1.8853 -0.9927  0.7333
 2124SOL     OW17830   3.980   4.133   2.903 -0.5055  0.1396  0.0783
 2124SOL    HW117831   3.916   4.202   2.922 -1.2628 -0.3494 -0.7319
 2124SOL    HW217832   3.969   4.124   2.809 -0.7476 -0.7691  0.1935
 2125SOL     OW17833   4.684   2.868  11.385 -0.1167  0.2322  0.0581
 2125SOL    HW117834   0.043   2.913  11.362  0.1860  0.1603  0.9965
 2125SOL    HW217835   4.698   2.825  11.469 -1.9548  0.6936  0.5911
 2126SOL     OW17836   3.474   2.799  15.906  0.5326 -0.3958  0.0669
 2126SOL    HW117837   3.477   2.731  15.840 -1.9660  0.4785 -0.9601
 2126SOL    HW217838   3.398   2.760  15.950  0.7607 -0.2504  0.5890
 2127SOL     OW17839   2.154   0.751   5.831  0.0209  0.5928 -0.0209
 2127SOL    HW117840   2.209   0.815   5.785  0.2150  0.3767 -0.0878
 2127SOL    HW217841   2.165   0.786   5.920 -0.2404  2.4771 -0.7182
 2128SOL     OW17842   2.882   2.109  17.326 -1.0527  0.4725 -0.3011
 2128SOL    HW117843   2.917   2.129  17.413 -0.2075 -0.1169 -0.5019
 2128SOL    HW217844   2.959   2.082  17.276 -0.8495  3.0620 -1.4023
 2129SOL     OW17845   3.298   0.010   9.057 -0.2731  0.4512  0.2339
 2129SOL    HW117846   3.375   4.695   9.100 -1.2842 -3.4123 -1.2900
 2129SOL    HW217847   3.267   0.069   9.126 -0.7470  2.9131 -2.0756
 2130SOL     OW17848   1.204   3.610   1.169 -0.3575  0.3719 -0.2377
 2130SOL    HW117849   1.297   3.628   1.185 -0.2025 -1.4165  0.8958
 2130SOL    HW217850   1.192   3.536   1.229 -1.3930 -1.2454 -2.4091
 2131SOL     OW17851   4.300   0.921   9.542 -0.1183  0.2752 -0.0910
 2131SOL    HW117852   4.364   0.931   9.472 -1.4963 -0.2416 -1.4171
 2131SOL    HW217853   4.292   1.014   9.564 -0.0686  0.2273  0.1286
 2132SOL     OW17854   3.061   0.588   4.971  0.2484 -0.0592 -0.0618
 2132SOL    HW117855   3.151   0.580   4.942 -0.0900  0.2926 -1.2377
 2132SOL    HW217856   3.064   0.669   5.023  1.8524  1.0017 -1.7893
 2133SOL     OW17857   1.672   1.869  11.693 -0.2085 -0.1086 -0.7287
 2133SOL    HW117858   1.688   1.799  11.757  0.6328 -1.1551 -2.0757
 2133SOL    HW217859   1.728   1.938  11.725 -0.0117 -1.0426  0.9308
 2134SOL     OW17860   3.360   1.147   4.216  0.1549 -0.1544 -0.1793
 2134SOL    HW117861   3.300   1.210   4.175 -0.1057  0.9276  1.8624
 2134SOL    HW217862   3.446   1.158   4.176 -0.7362 -1.3574 -2.4585
 2135SOL     OW17863   0.687   3.114   0.561  0.3855  0.2143 -0.0699
 2135SOL    HW117864   0.742   3.154   0.494  1.0971 -0.0382  0.3597
 2135SOL    HW217865   0.640   3.049   0.509  0.8003 -0.3193  0.2130
 2136SOL     OW17866   1.229   2.610  14.733  0.2438 -0.0880 -0.2610
 2136SOL    HW117867   1.290   2.661  14.679 -0.9951  0.7754 -0.8434
 2136SOL    HW217868   1.293   2.574  14.795 -1.1808  1.3233  2.0108
 2137SOL     OW17869   4.407   2.566   5.092  0.7590 -0.0404  0.3218
 2137SOL    HW117870   4.379   2.646   5.136 -0.7904 -1.3206  1.6419
 2137SOL    HW217871   4.501   2.583   5.097  0.8972 -0.2819 -1.2847
 2138SOL     OW17872   0.790   3.239  15.629 -0.1493  0.4983 -0.1225
 2138SOL    HW117873   0.859   3.201  15.684 -0.3526  0.6300  0.2219
 2138SOL    HW217874   0.719   3.255  15.692 -0.8864  2.3606 -1.4353
 2139SOL     OW17875   1.971   4.164   4.259 -0.0893  0.3855 -0.3240
 2139SOL    HW117876   1.898   4.164   4.197 -1.1056  0.0446  0.8650
 2139SOL    HW217877   2.045   4.189   4.204  0.6731 -0.9191  0.1031
 2140SOL     OW17878   3.784   3.021   5.970  0.1144  0.1612  0.4282
 2140SOL    HW117879   3.762   2.964   6.043 -0.4741  1.0740  0.9562
 2140SOL    HW217880   3.700   3.066   5.969  0.3753  0.6504  0.5908
 2141SOL     OW17881   4.710   3.542  11.208  0.3052  0.5500  0.0624
 2141SOL    HW117882   0.064   3.598  11.204  0.1915  0.7829  1.3047
 2141SOL    HW217883   4.654   3.605  11.254 -0.9536  0.7194 -1.6792
 2142SOL     OW17884   1.356   3.395  17.480  0.0750  0.0069 -0.1228
 2142SOL    HW117885   1.405   3.343  17.545  0.3418  0.7601  0.2742
 2142SOL    HW217886   1.418   3.395  17.407  1.2362 -0.5463  0.8612
 2143SOL     OW17887   1.427   4.417   4.959 -0.6312  0.0141 -0.3406
 2143SOL    HW117888   1.409   4.366   4.880  2.4638 -1.5875 -0.0181
 2143SOL    HW217889   1.373   4.493   4.936 -2.3250 -0.9729  0.3374
 2144SOL     OW17890   1.186   2.704   7.292  0.5165  0.0583  0.3920
 2144SOL    HW117891   1.263   2.656   7.322  2.0458  0.9520 -2.1100
 2144SOL    HW217892   1.221   2.792   7.282 -1.4068  0.6435 -1.1906
 2145SOL     OW17893   0.913   3.192  15.854  0.1026  0.2560 -0.2660
 2145SOL    HW117894   1.002   3.197  15.891 -0.4748 -1.0813  1.3077
 2145SOL    HW217895   0.853   3.236  15.914 -1.0100  1.6295 -2.4321
 2146SOL     OW17896   1.191   1.815   6.437 -0.3919 -0.0886  0.2738
 2146SOL    HW117897   1.279   1.854   6.445  0.6779 -1.8876 -2.5986
 2146SOL    HW217898   1.183   1.793   6.344  3.1817  1.7447 -0.4953
 2147SOL     OW17899   1.766   0.660   7.093  0.3755 -0.1783  0.3579
 2147SOL    HW117900   1.745   0.738   7.042  0.2843  0.4311  1.3341
 2147SOL    HW217901   1.752   0.698   7.179  0.2864 -0.6677  0.5590
 2148SOL     OW17902   3.517   3.048   7.176 -0.2814  0.3104  0.3863
 2148SOL    HW117903   3.587   3.106   7.207  0.3004  0.3197 -0.9195
 2148SOL    HW217904   3.563   2.964   7.168  0.2817  0.3669  2.9671
 2149SOL     OW17905   1.127   0.763   3.977 -0.0072  0.1200 -0.4366
 2149SOL    HW117906   1.042   0.799   3.952 -0.6064  1.6031  3.7110
 2149SOL    HW217907   1.145   0.711   3.898 -3.6106  2.7852 -2.9826
 2150SOL     OW17908   4.670   2.968   3.488  0.0541  0.1473  0.6195
 2150SOL    HW117909   4.623   2.885   3.475 -0.3715  0.7798 -1.9071
 2150SOL    HW217910   4.680   2.963   3.583 -2.0017 -1.7728  0.7335
 2151SOL     OW17911   4.063   1.609  14.490  0.4906 -0.5782  0.4538
 2151SOL    HW117912   4.021   1.535  14.535  2.1258 -1.4529  0.5174
 2151SOL    HW217913   3.983   1.657  14.467  0.5459 -0.8255 -0.2551
 2152SOL     OW17914   3.397   2.329   5.740  0.5074 -0.3643  0.7695
 2152SOL    HW117915   3.339   2.348   5.666  0.7599  2.6672  1.3600
 2152SOL    HW217916   3.391   2.405   5.797  1.0651  1.0586 -1.0776
 2153SOL     OW17917   0.425   2.269   5.508  0.6914  0.6391  0.2566
 2153SOL    HW117918   0.335   2.247   5.533 -0.0174  1.4958 -1.5623
 2153SOL    HW217919   0.408   2.304   5.420 -2.0520  1.3736  1.0812
 2154SOL     OW17920   1.179   2.123   7.748 -0.0150 -0.4052 -0.3380
 2154SOL    HW117921   1.221   2.128   7.663  1.8189 -0.3331  0.5716
 2154SOL    HW217922   1.201   2.210   7.781 -1.2478  0.3309 -1.4621
 2155SOL     OW17923   1.964   2.109   2.704 -0.3389 -0.2527  0.1144
 2155SOL    HW117924   1.876   2.111   2.741 -0.5496  1.4542 -0.4798
 2155SOL    HW217925   1.950   2.182   2.643  1.7011  0.3318  0.3514
 2156SOL     OW17926   1.074   4.261  11.430 -0.5897 -0.7892  0.3043
 2156SOL    HW117927   1.164   4.295  11.434 -1.1924  0.3839  4.0132
 2156SOL    HW217928   1.071   4.219  11.516  0.9210 -1.5730 -0.0267
 2157SOL     OW17929   3.423   1.725   4.912 -0.2496 -0.3876  0.5845
 2157SOL    HW117930   3.465   1.700   4.994  0.4468  1.9983  0.9342
 2157SOL    HW217931   3.423   1.820   4.923 -0.4259 -0.3605  0.3477
 2158SOL     OW17932   2.056   0.734   1.503 -0.1015 -0.3591  0.3794
 2158SOL    HW117933   1.983   0.776   1.457  0.4935  0.0196 -0.2310
 2158SOL    HW217934   2.038   0.644   1.477  3.0157 -0.9730  0.3607
 2159SOL     OW17935   1.945   1.224   1.491  0.0422 -0.0841  0.1476
 2159SOL    HW117936   1.855   1.203   1.465 -0.5640  0.0731  2.1320
 2159SOL    HW217937   1.992   1.232   1.408  1.1918  0.4500  0.8602
 2160SOL     OW17938   4.362   2.841   4.245  0.1839 -0.1882  0.2170
 2160SOL    HW117939   4.308   2.773   4.285 -0.5300  0.7113  0.8004
 2160SOL    HW217940   4.447   2.798   4.244  0.2544 -0.0931  2.7158
 2161SOL     OW17941   2.336   2.456   7.998 -0.0105 -0.1139 -0.0063
 2161SOL    HW117942   2.284   2.535   8.005  1.3580  0.7633  0.3255
 2161SOL    HW217943   2.323   2.411   8.082 -1.3812 -1.2965 -0.8476
 2162SOL     OW17944   0.328   0.775   7.975  0.0058  0.8184  0.6440
 2162SOL    HW117945   0.322   0.767   7.880 -1.6747  0.7408  0.7576
 2162SOL    HW217946   0.323   0.685   8.007 -0.9510  0.1200 -1.5261
 2163SOL     OW17947   0.059   1.630  16.414 -0.2629  0.6955  0.3948
 2163SOL    HW117948   0.058   1.540  16.383  0.7343  0.5275  0.8589
 2163SOL    HW217949   0.093   1.626  16.504  2.0198 -3.3356 -0.6794
 2164SOL     OW17950   3.190   1.415  11.725 -0.1215 -0.1057  0.9221
 2164SOL    HW117951   3.107   1.460  11.741  0.2013  0.8745 -0.1755
 2164SOL    HW217952   3.206   1.454  11.639  0.0985 -1.9515  0.1215
 2165SOL     OW17953   1.076   0.091   4.099  0.1479 -0.1673  0.4025
 2165SOL    HW117954   1.143   0.153   4.070  1.3966 -2.0865 -0.7595
 2165SOL    HW217955   1.026   0.078   4.018  1.7666 -1.6551 -0.3643
 2166SOL     OW17956   2.609   1.314  14.494  0.1606 -0.8622 -0.3368
 2166SOL    HW117957   2.626   1.395  14.446  0.9799 -1.7787 -1.5986
 2166SOL    HW217958   2.680   1.331  14.555 -0.7697  1.3921  0.1108
 2167SOL     OW17959   3.225   2.251   2.752  0.7007  0.0323 -0.0939
 2167SOL    HW117960   3.162   2.320   2.776 -0.1682 -0.9614  0.4410
 2167SOL    HW217961   3.280   2.287   2.681  1.6069 -0.6491  0.2655
 2168SOL     OW17962   4.224   4.440   2.324 -0.4709  0.0747  0.0836
 2168SOL    HW117963   4.317   4.450   2.305 -0.3556 -2.3617 -0.6642
 2168SOL    HW217964   4.196   4.488   2.245  0.2516  0.5080  0.0989
 2169SOL     OW17965   1.920   0.089  14.454  0.3192 -0.3802 -0.1350
 2169SOL    HW117966   1.840   0.138  14.434 -0.8220 -1.5482  1.6061
 2169SOL    HW217967   1.930   0.022  14.386  0.7588 -0.7586  0.3118
 2170SOL     OW17968   4.479   0.430  11.277 -0.2707 -0.1356 -0.3879
 2170SOL    HW117969   4.479   0.400  11.368 -0.0761 -1.1718 -0.7285
 2170SOL    HW217970   4.547   0.496  11.274  2.4920 -2.9099  1.0619
 2171SOL     OW17971   0.161   2.390   1.568 -0.1325 -0.0723  0.1139
 2171SOL    HW117972   0.079   2.387   1.519 -0.4982 -1.4860  0.8051
 2171SOL    HW217973   0.216   2.460   1.534 -0.8933  0.3844 -0.1824
 2172SOL     OW17974   0.729   4.404   0.872  0.0372 -0.2752  0.4121
 2172SOL    HW117975   0.712   4.488   0.830  1.6123 -0.5328 -0.7657
 2172SOL    HW217976   0.753   4.344   0.801  0.7512  0.0522  0.3733
 2173SOL     OW17977   2.327   3.686   6.043  0.6109 -0.1270 -0.3746
 2173SOL    HW117978   2.329   3.781   6.049 -1.3706 -0.1587  0.7254
 2173SOL    HW217979   2.376   3.677   5.960 -0.1540 -1.3479 -0.7026
 2174SOL     OW17980   0.728   1.335  11.733  0.3347 -0.4442 -0.2741
 2174SOL    HW117981   0.665   1.332  11.805  1.8256 -0.2712  1.0470
 2174SOL    HW217982   0.738   1.430  11.725 -0.4950 -0.2039  1.5523
 2175SOL     OW17983   0.075   2.872   6.652 -0.5631  0.7123 -0.6957
 2175SOL    HW117984   0.034   2.816   6.717  0.0488 -3.0716 -3.5940
 2175SOL    HW217985   0.055   2.958   6.690 -1.8866 -0.2699  0.7716
 2176SOL     OW17986   4.496   1.665   8.958  0.1575  0.3478  0.8176
 2176SOL    HW117987   4.489   1.670   8.862  2.0810 -0.9081  0.6056
 2176SOL    HW217988   4.582   1.624   8.965 -0.4089 -1.0774 -0.6606
 2177SOL     OW17989   1.241   0.704   1.537  0.9154 -0.5632 -0.6884
 2177SOL    HW117990   1.204   0.791   1.527 -0.6191 -1.1932 -0.4760
 2177SOL    HW217991   1.205   0.684   1.623  0.3222  2.5326 -0.2222
 2178SOL     OW17992   4.509   2.720   8.455 -0.0279  0.2125 -0.1690
 2178SOL    HW117993   4.476   2.664   8.525  1.0661 -0.6127 -0.3081
 2178SOL    HW217994   4.573   2.778   8.498  0.9190 -0.2011 -1.0245
 2179SOL     OW17995   3.985   2.357  15.911  0.3017 -0.3742 -0.2343
 2179SOL    HW117996   3.926   2.310  15.971 -1.6594  0.8870 -1.1532
 2179SOL    HW217997   4.032   2.280  15.878  0.7904 -0.8963  1.6784
 2180SOL     OW17998   1.382   2.700   7.789  0.0334  0.2660 -0.4110
 2180SOL    HW117999   1.354   2.789   7.813 -1.1064 -0.7647  2.1766
 2180SOL    HW218000   1.319   2.661   7.850  2.0439 -2.6111 -0.1732
 2181SOL     OW18001   0.829   1.418   6.785 -0.1266  0.0669 -0.3353
 2181SOL    HW118002   0.889   1.490   6.771  1.2638 -0.9980  0.1765
 2181SOL    HW218003   0.792   1.441   6.870 -2.2141 -0.4999 -1.0871
 2182SOL     OW18004   1.642   1.138   5.553 -0.7550 -0.2326  0.3546
 2182SOL    HW118005   1.572   1.082   5.587  0.8414 -1.7972  1.0719
 2182SOL    HW218006   1.601   1.163   5.471  0.5970  1.0353  0.0572
 2183SOL     OW18007   2.940   3.700   8.394  0.1511  0.5626 -0.0424
 2183SOL    HW118008   3.022   3.750   8.388  0.8512 -0.3499  1.9410
 2183SOL    HW218009   2.902   3.725   8.478 -0.0954 -3.3365  1.0116
 2184SOL     OW18010   3.249   0.280  11.548 -0.2677 -0.1287 -1.0648
 2184SOL    HW118011   3.232   0.370  11.520 -0.1893  0.1808 -0.0896
 2184SOL    HW218012   3.247   0.237  11.462  0.1251 -0.6771 -0.8004
 2185SOL     OW18013   0.262   3.325   7.161  0.2927  0.1642 -0.5366
 2185SOL    HW118014   0.182   3.366   7.128  1.1832  1.6643 -0.7883
 2185SOL    HW218015   0.217   3.259   7.215  2.7335 -1.2384 -0.2196
 2186SOL     OW18016   0.318   2.644   8.954 -0.2480 -0.4920  0.7084
 2186SOL    HW118017   0.239   2.654   9.008 -0.1097  0.8307  0.6665
 2186SOL    HW218018   0.323   2.554   8.921  2.3007  0.2432 -0.9070
 2187SOL     OW18019   2.430   0.117  13.505  0.1219  0.3811  0.5481
 2187SOL    HW118020   2.351   0.148  13.459 -1.4175 -2.6367  1.1621
 2187SOL    HW218021   2.486   0.183  13.464 -3.1800  0.7177 -3.4631
 2188SOL     OW18022   3.572   3.077  15.824  0.4772 -0.3772  0.1153
 2188SOL    HW118023   3.551   2.989  15.854  1.3988  0.1199  2.2393
 2188SOL    HW218024   3.505   3.133  15.864  0.1577  0.0573 -1.0147
 2189SOL     OW18025   0.809   1.676   5.822  0.2699  0.6390  0.1549
 2189SOL    HW118026   0.806   1.728   5.742 -1.4068 -0.0894 -0.2425
 2189SOL    HW218027   0.902   1.656   5.829  0.1494 -0.1066 -0.4678
 2190SOL     OW18028   1.392   1.022   7.692  0.3453  0.5769  0.0805
 2190SOL    HW118029   1.426   0.971   7.619  0.4145 -0.2647  0.7087
 2190SOL    HW218030   1.341   1.093   7.653 -0.4994 -0.8270 -1.3677
 2191SOL     OW18031   1.110   4.564   4.223  0.0429  0.1852 -0.5420
 2191SOL    HW118032   1.202   4.571   4.247 -0.4113  3.3864  0.2527
 2191SOL    HW218033   1.085   4.652   4.196  0.1631  0.5018  0.3825
 2192SOL     OW18034   4.567   4.229   2.471 -0.2075  0.0178  0.5039
 2192SOL    HW118035   4.632   4.198   2.408  1.1614  1.0686  1.4061
 2192SOL    HW218036   4.488   4.196   2.428  0.9396 -2.0227 -0.0697
 2193SOL     OW18037   3.322   2.345   8.885  0.2112  0.0038 -0.2993
 2193SOL    HW118038   3.312   2.428   8.931  1.9484 -0.8321  1.6184
 2193SOL    HW218039   3.256   2.373   8.822  1.7903  1.7522 -1.1619
 2194SOL     OW18040   3.239   3.581   8.542  0.3477 -0.3470 -0.4160
 2194SOL    HW118041   3.323   3.624   8.560 -0.2556  1.4610 -1.8729
 2194SOL    HW218042   3.186   3.657   8.519 -0.2293 -0.3855  0.8003
 2195SOL     OW18043   2.787   4.707   4.161  0.3559 -0.0438 -0.4326
 2195SOL    HW118044   2.861   4.683   4.218  2.0718  0.2774 -2.5385
 2195SOL    HW218045   2.739   0.033   4.229 -2.6706 -0.9302 -1.9485
 2196SOL     OW18046   1.455   2.509   8.731 -0.2133 -0.3092  0.1241
 2196SOL    HW118047   1.479   2.482   8.642 -1.4032  1.3615 -0.6964
 2196SOL    HW218048   1.361   2.492   8.725 -0.2742 -0.4570  1.5626
 2197SOL     OW18049   3.263   0.361   3.093  0.2337 -0.2032  0.2996
 2197SOL    HW118050   3.191   0.348   3.154  0.5189  0.1131  0.6989
 2197SOL    HW218051   3.333   0.356   3.158  0.3082 -0.7466  0.1793
 2198SOL     OW18052   3.504   3.918   4.684 -0.1951  0.0784 -0.1641
 2198SOL    HW118053   3.573   3.872   4.730  0.9202  1.2503 -0.6723
 2198SOL    HW218054   3.513   3.878   4.598  1.0575  1.8383 -0.8422
 2199SOL     OW18055   0.435   4.424   8.641 -0.0671  0.0502  0.0703
 2199SOL    HW118056   0.348   4.448   8.673 -1.2303 -1.8008 -1.6872
 2199SOL    HW218057   0.465   4.511   8.613 -1.1253 -0.3173 -2.2376
 2200SOL     OW18058   3.359   1.830  12.922 -0.1904  0.4547  0.4112
 2200SOL    HW118059   3.344   1.879  12.841  2.6349  2.5519  1.1422
 2200SOL    HW218060   3.373   1.899  12.988 -0.3630 -1.5410  2.5285
 2201SOL     OW18061   1.551   3.789  12.315  0.1560 -0.2903 -0.0993
 2201SOL    HW118062   1.497   3.839  12.254 -1.5150  0.5404  2.0543
 2201SOL    HW218063   1.492   3.781  12.390  0.1438  1.3481  0.0647
 2202SOL     OW18064   4.617   2.016   0.515 -0.3287  0.0308 -0.1061
 2202SOL    HW118065   4.688   2.037   0.575  0.3031 -3.2107  0.2917
 2202SOL    HW218066   4.579   2.099   0.485  1.5528  1.4077  1.3807
 2203SOL     OW18067   0.899   1.908  15.961 -0.7489  0.3180  0.5729
 2203SOL    HW118068   0.938   1.820  15.959  1.7374  1.3889  1.2929
 2203SOL    HW218069   0.804   1.898  15.960 -0.6011 -1.2199  1.1043
 2204SOL     OW18070   1.104   1.438   6.166 -0.3976  0.0616 -0.0143
 2204SOL    HW118071   1.118   1.532   6.156 -2.4802  0.3983  0.1433
 2204SOL    HW218072   1.022   1.451   6.214  0.1114  1.9817  0.3251
 2205SOL     OW18073   0.559   1.572   3.364 -0.4046 -0.0977  0.6927
 2205SOL    HW118074   0.534   1.598   3.276  2.9483  0.0039 -0.2088
 2205SOL    HW218075   0.589   1.652   3.407  1.7156 -2.2213  3.2116
 2206SOL     OW18076   4.020   4.401   0.817  0.1642  0.5249  0.0328
 2206SOL    HW118077   4.110   4.432   0.821 -0.2903  1.7130  1.6204
 2206SOL    HW218078   4.033   4.306   0.819 -1.0336  0.2939 -4.2161
 2207SOL     OW18079   2.022   1.706   4.903  0.3958 -0.2752  0.5106
 2207SOL    HW118080   2.005   1.695   4.810 -1.1910 -0.0336  0.7722
 2207SOL    HW218081   2.092   1.772   4.898  0.7250 -0.6821 -0.2748
 2208SOL     OW18082   1.700   2.499   7.751  0.3563 -0.4209 -0.6291
 2208SOL    HW118083   1.646   2.555   7.806  0.1326 -2.2776  1.0316
 2208SOL    HW218084   1.670   2.412   7.776 -1.6972  0.7004  0.7596
 2209SOL     OW18085   1.728   0.249   0.774 -0.5277  0.1784  0.5054
 2209SOL    HW118086   1.786   0.279   0.845  1.7750  2.4236 -2.3150
 2209SOL    HW218087   1.801   0.227   0.716 -0.7806  3.6696 -1.1495
 2210SOL     OW18088   0.932   1.961   7.615 -0.2337 -0.1972  0.1745
 2210SOL    HW118089   0.995   1.998   7.553  0.1932 -0.0030  0.7326
 2210SOL    HW218090   0.902   2.032   7.671 -0.6624  0.4630 -0.8850
 2211SOL     OW18091   3.641   3.571   4.674  0.0697 -0.9222  0.3911
 2211SOL    HW118092   3.660   3.549   4.766  1.4224 -0.2390  0.2583
 2211SOL    HW218093   3.717   3.540   4.625  0.0594  1.2067 -0.9323
 2212SOL     OW18094   2.962   1.444   6.839 -0.1976  0.1151  0.2583
 2212SOL    HW118095   2.890   1.406   6.789  1.2671 -0.1125 -1.6727
 2212SOL    HW218096   3.018   1.480   6.770  2.1551 -1.3561  1.4255
 2213SOL     OW18097   4.539   2.723  14.986 -0.2059  0.0751  0.5375
 2213SOL    HW118098   4.492   2.802  14.962  0.7805  0.1101 -1.2524
 2213SOL    HW218099   4.468   2.664  15.013 -0.7786  1.8651  2.9102
 2214SOL     OW18100   0.169   3.148   7.971 -0.6058 -0.8802  0.3923
 2214SOL    HW118101   0.211   3.169   7.888  1.0015  0.3353  1.5165
 2214SOL    HW218102   0.196   3.210   8.038 -1.9593  0.5021 -0.3383
 2215SOL     OW18103   3.797   3.417   5.177  0.2543 -0.8974  0.6966
 2215SOL    HW118104   3.855   3.446   5.247  1.1783  0.0654 -0.4529
 2215SOL    HW218105   3.848   3.347   5.135 -1.3038 -1.1099 -0.8729
 2216SOL     OW18106   0.016   0.589  12.382  0.3552 -0.0363 -0.0647
 2216SOL    HW118107   0.095   0.574  12.330  0.6030 -1.7205  0.7951
 2216SOL    HW218108   4.698   0.503  12.370 -2.8554  1.5842 -0.7141
 2217SOL     OW18109   1.577   2.556  15.740  0.3406  0.3225  0.1861
 2217SOL    HW118110   1.529   2.475  15.755  1.0048 -0.1605 -0.3172
 2217SOL    HW218111   1.500   2.614  15.736 -0.0358 -0.2386 -0.7718
 2218SOL     OW18112   2.859   3.998   5.889 -0.2805  0.5871 -0.4229
 2218SOL    HW118113   2.841   4.077   5.838 -0.0429 -0.1474 -1.6237
 2218SOL    HW218114   2.787   3.994   5.952  0.8529 -0.7659  0.7860
 2219SOL     OW18115   3.308   1.918   7.602 -0.3957  0.4092 -0.3018
 2219SOL    HW118116   3.219   1.893   7.578 -0.9880  2.5193 -0.3230
 2219SOL    HW218117   3.360   1.839   7.594 -1.5264 -0.5721  1.9821
 2220SOL     OW18118   0.835   2.833   2.704 -0.7923 -0.3507 -0.3857
 2220SOL    HW118119   0.793   2.762   2.655 -0.1755 -0.1865 -1.1520
 2220SOL    HW218120   0.776   2.871   2.769 -0.1577  0.6155 -0.3797
 2221SOL     OW18121   2.712   3.681   4.018  0.2520 -0.0901  0.4478
 2221SOL    HW118122   2.674   3.610   3.965  0.6233  1.4273 -1.8273
 2221SOL    HW218123   2.688   3.654   4.107 -0.8011 -0.3934  0.0638
 2222SOL     OW18124   1.490   0.776  17.125  0.0816 -0.1286  0.1216
 2222SOL    HW118125   1.547   0.719  17.074  0.9369  0.5240  0.3416
 2222SOL    HW218126   1.436   0.822  17.060  1.9442  0.0350 -1.3233
 2223SOL     OW18127   0.913   3.187   8.447  0.4613 -0.6898  0.2112
 2223SOL    HW118128   0.956   3.245   8.510  3.4407 -1.6810 -0.8718
 2223SOL    HW218129   0.866   3.135   8.511 -1.4162 -0.3233 -0.8748
 2224SOL     OW18130   2.743   3.893   3.815  0.2065  0.2773  0.0530
 2224SOL    HW118131   2.784   3.829   3.872 -1.3410  0.2654  1.1540
 2224SOL    HW218132   2.819   3.934   3.774  0.4155  0.1625  0.3299
 2225SOL     OW18133   3.653   2.600   6.342 -0.3438  0.1356  0.1383
 2225SOL    HW118134   3.613   2.518   6.372 -0.6487 -0.2363 -1.2314
 2225SOL    HW218135   3.584   2.639   6.288 -0.2096  0.3100  0.0954
 2226SOL     OW18136   1.960   0.890  11.279 -0.4053  0.0543 -0.4434
 2226SOL    HW118137   1.951   0.816  11.219 -4.8211 -0.5112  0.9045
 2226SOL    HW218138   2.017   0.862  11.351  2.7029 -0.6382 -3.1952
 2227SOL     OW18139   3.838   1.774  13.237 -0.1685  0.4002  0.2322
 2227SOL    HW118140   3.766   1.820  13.193  0.6893 -0.4484 -2.1085
 2227SOL    HW218141   3.902   1.846  13.236  1.6261 -1.1969 -1.2697
 2228SOL     OW18142   4.345   1.432   9.084  0.3060 -0.1889 -0.3201
 2228SOL    HW118143   4.439   1.421   9.073 -0.0042 -1.8052 -1.2643
 2228SOL    HW218144   4.339   1.524   9.111  3.7357 -0.2257  0.4782
 2229SOL     OW18145   0.025   0.576   4.945  0.3750 -0.0813  0.4033
 2229SOL    HW118146   0.039   0.488   4.979  0.9709 -0.0407  0.2701
 2229SOL    HW218147   4.701   0.625   5.013  0.3150 -0.0265  0.3214
 2230SOL     OW18148   1.232   2.185   2.767  0.4136 -0.4841  0.4001
 2230SOL    HW118149   1.301   2.230   2.815  0.5974 -0.6825  0.3222
 2230SOL    HW218150   1.256   2.093   2.782  1.9954 -0.2993 -1.1126
 2231SOL     OW18151   2.206   0.945  14.776  0.5144 -0.1651 -0.3227
 2231SOL    HW118152   2.230   0.857  14.745 -0.5161  0.1020 -1.8881
 2231SOL    HW218153   2.270   1.004  14.736  1.1318 -0.5417  0.1178
 2232SOL     OW18154   3.607   1.882  13.114  0.1047  0.8751  0.0104
 2232SOL    HW118155   3.553   1.939  13.169 -0.2719 -1.6849  2.3031
 2232SOL    HW218156   3.562   1.798  13.123  3.2570 -0.6811  1.5441
 2233SOL     OW18157   4.020   4.286   6.031  0.4495 -0.1164 -0.7071
 2233SOL    HW118158   4.009   4.201   5.988  1.0899 -0.3104 -0.4848
 2233SOL    HW218159   4.025   4.274   6.126 -0.6090 -0.2392 -0.6614
 2234SOL     OW18160   1.533   3.128   0.194  0.6094 -0.3965 -0.0995
 2234SOL    HW118161   1.612   3.156   0.147 -0.6274  0.3506 -1.7430
 2234SOL    HW218162   1.508   3.208   0.241  1.0667 -0.9662  1.1202
 2235SOL     OW18163   2.844   4.595   4.864 -0.0633  0.1836 -0.5318
 2235SOL    HW118164   2.821   4.652   4.790  2.1308  1.1792 -0.4442
 2235SOL    HW218165   2.866   4.663   4.927 -1.1819  0.1164 -0.0777
 2236SOL     OW18166   2.124   3.552   9.826 -0.1842  0.3728  0.2340
 2236SOL    HW118167   2.047   3.510   9.788  0.7486  0.0066 -1.2719
 2236SOL    HW218168   2.086   3.601   9.900 -0.3937  0.3802  0.1218
 2237SOL     OW18169   2.944   1.433   7.109  0.8693  0.6408  0.2591
 2237SOL    HW118170   2.880   1.373   7.147 -0.9629  1.7364 -1.0611
 2237SOL    HW218171   2.913   1.437   7.018 -0.7074  1.2793  0.8245
 2238SOL     OW18172   3.657   2.971   5.045 -0.1547  0.2509  0.2158
 2238SOL    HW118173   3.694   3.026   4.976  1.1149 -0.0695  0.6429
 2238SOL    HW218174   3.645   2.894   4.989  2.5096  0.0680 -0.1400
 2239SOL     OW18175   2.477   0.002  15.420 -0.2291 -0.3558 -0.5047
 2239SOL    HW118176   2.480   4.701  15.513 -2.7158  2.6918  0.3325
 2239SOL    HW218177   2.542   0.072  15.420 -0.3998 -0.1873 -1.7782
 2240SOL     OW18178   1.054   3.136   6.230  0.3679  0.0673  0.1460
 2240SOL    HW118179   1.105   3.210   6.196 -0.0951  0.8561  1.1584
 2240SOL    HW218180   0.964   3.167   6.241  0.0484  0.2947 -3.1328
 2241SOL     OW18181   3.062   0.561   8.937 -0.8803 -0.2244 -0.1563
 2241SOL    HW118182   3.135   0.582   8.879  0.2933  1.5872  1.9742
 2241SOL    HW218183   3.058   0.641   8.991 -2.3450  1.2362 -2.4226
 2242SOL     OW18184   0.924   4.355   6.814  0.0237  0.9252 -0.2577
 2242SOL    HW118185   1.014   4.322   6.819 -1.6178 -3.5670 -0.3385
 2242SOL    HW218186   0.928   4.420   6.744 -1.7629 -0.0566 -1.2603
 2243SOL     OW18187   0.830   3.875   9.183 -0.4085  0.0873  0.6389
 2243SOL    HW118188   0.818   3.839   9.095  1.3504 -0.0167  0.4287
 2243SOL    HW218189   0.752   3.838   9.224 -0.6908 -0.2119 -0.1557
 2244SOL     OW18190   1.788   4.498   8.882 -0.1616  0.2158  0.6282
 2244SOL    HW118191   1.844   4.462   8.951  0.5217 -0.7693 -0.4367
 2244SOL    HW218192   1.702   4.470   8.912 -0.1013 -0.0240  0.5738
 2245SOL     OW18193   4.325   2.500  13.382 -0.3027 -0.2870 -0.5199
 2245SOL    HW118194   4.235   2.472  13.364 -1.3796  0.7656  3.1780
 2245SOL    HW218195   4.372   2.478  13.301  0.9975 -3.9038  1.2402
 2246SOL     OW18196   1.960   3.347   4.820  0.6402 -0.5631 -0.5229
 2246SOL    HW118197   1.872   3.380   4.802  0.8392 -0.2496 -0.9058
 2246SOL    HW218198   2.019   3.411   4.780  0.6135 -1.3798 -1.8640
 2247SOL     OW18199   4.320   4.694   3.718  0.6953 -0.1011  0.4660
 2247SOL    HW118200   4.314   0.011   3.631  0.7991 -1.4585 -0.1474
 2247SOL    HW218201   4.368   0.040   3.765 -1.0865  1.0886  0.5811
 2248SOL     OW18202   4.431   0.336   8.129  0.5268  0.1060  0.3715
 2248SOL    HW118203   4.390   0.268   8.183  1.6784 -0.2429  0.8108
 2248SOL    HW218204   4.486   0.290   8.066 -1.8095 -0.8268 -0.9962
 2249SOL     OW18205   1.999   3.303  15.763  0.2431 -0.4066  0.1843
 2249SOL    HW118206   2.031   3.391  15.743  0.9233 -0.7649 -0.3148
 2249SOL    HW218207   1.964   3.270  15.680 -0.0623 -1.2485  0.6521
 2250SOL     OW18208   1.508   3.390   5.115 -0.1263 -0.1410  0.1645
 2250SOL    HW118209   1.416   3.413   5.102 -0.0655 -0.6937 -1.2051
 2250SOL    HW218210   1.497   3.304   5.155 -0.6923 -0.7426 -1.2893
 2251SOL     OW18211   3.771   2.450   4.266  0.4626  0.3285 -0.2651
 2251SOL    HW118212   3.711   2.504   4.214  1.7442  1.6812 -0.3391
 2251SOL    HW218213   3.780   2.496   4.349 -1.3856 -0.7209  0.5158
 2252SOL     OW18214   4.691   2.150   8.040 -0.5696  0.0145 -0.1098
 2252SOL    HW118215   0.043   2.138   7.981 -1.9239  2.3812 -2.2931
 2252SOL    HW218216   4.671   2.241   8.018 -1.8568 -0.1814  0.2675
 2253SOL     OW18217   2.846   4.080   3.476  0.2089 -0.1022  0.5440
 2253SOL    HW118218   2.796   4.147   3.428 -1.3674 -0.5284  1.5865
 2253SOL    HW218219   2.765   4.029   3.477 -0.9483  1.7110 -0.7634
 2254SOL     OW18220   1.043   4.450   4.817 -0.1913 -0.1035  0.1553
 2254SOL    HW118221   1.071   4.380   4.759  0.7564 -1.3734  2.1622
 2254SOL    HW218222   0.951   4.427   4.833 -0.8883  2.1532 -0.5700
 2255SOL     OW18223   3.083   4.084   6.619  0.2084  0.6231 -0.5275
 2255SOL    HW118224   3.149   4.108   6.554  2.5715 -0.4800  1.4530
 2255SOL    HW218225   3.134   4.093   6.700 -0.2976 -2.3074  0.1134
 2256SOL     OW18226   3.024   2.452   1.162 -0.7038 -0.0800 -0.5386
 2256SOL    HW118227   3.052   2.527   1.216 -0.8950 -0.5265  0.1803
 2256SOL    HW218228   3.064   2.473   1.078 -0.6252  0.2072 -0.4305
 2257SOL     OW18229   4.018   2.646   5.136  0.2144 -0.1299  0.4878
 2257SOL    HW118230   3.969   2.588   5.079 -0.5962  0.1033  0.9534
 2257SOL    HW218231   4.046   2.586   5.205 -0.1390 -2.3472 -1.2918
 2258SOL     OW18232   2.893   1.495  11.757 -0.1712  0.4267  0.2821
 2258SOL    HW118233   2.833   1.499  11.831  1.3524  0.0450  1.5435
 2258SOL    HW218234   2.832   1.513  11.686  0.3278 -1.4437 -0.6319
 2259SOL     OW18235   2.352   3.448   5.229 -0.8373 -0.4585 -0.4017
 2259SOL    HW118236   2.380   3.522   5.282 -0.8397  0.8360 -2.1948
 2259SOL    HW218237   2.428   3.444   5.170 -1.2488  0.9307 -1.0324
 2260SOL     OW18238   1.273   1.372   4.916 -0.2401 -0.6058 -0.4463
 2260SOL    HW118239   1.187   1.402   4.889 -0.7334 -2.1902 -0.6453
 2260SOL    HW218240   1.264   1.288   4.962 -0.6949 -1.0032 -1.2735
 2261SOL     OW18241   1.029   3.919  15.194  0.1043  0.4683 -0.1038
 2261SOL    HW118242   1.100   3.984  15.189 -0.3069  1.0991  2.2830
 2261SOL    HW218243   1.018   3.902  15.101 -0.9724  1.9390 -0.2442
 2262SOL     OW18244   1.020   0.207  17.357  0.1856 -0.1252 -0.2674
 2262SOL    HW118245   0.999   0.223  17.265 -1.5995 -0.2260  0.1151
 2262SOL    HW218246   1.089   0.271  17.373  1.3338 -1.1163 -1.3045
 2263SOL     OW18247   0.967   1.549   5.460 -0.4748 -0.5672 -0.1495
 2263SOL    HW118248   1.016   1.487   5.515  1.9111  0.1785 -1.4607
 2263SOL    HW218249   0.884   1.565   5.505 -0.5782  0.8472 -0.8694
 2264SOL     OW18250   4.610   0.550   3.282 -0.0595  0.0308  0.3348
 2264SOL    HW118251   4.519   0.568   3.258 -0.3163 -1.1721  0.3937
 2264SOL    HW218252   4.624   0.611   3.354  1.9450  2.9167 -2.4893
 2265SOL     OW18253   0.038   2.718  12.671  0.2314 -0.3574 -0.1078
 2265SOL    HW118254   0.052   2.623  12.666 -1.3778 -0.6002  0.0425
 2265SOL    HW218255   0.103   2.741  12.738  0.4760 -3.8817  0.8803
 2266SOL     OW18256   2.197   2.659   7.665  0.3999 -0.1210 -0.3494
 2266SOL    HW118257   2.118   2.658   7.719  1.4490 -0.4136  1.1786
 2266SOL    HW218258   2.269   2.679   7.726 -0.1026  2.7394 -0.7273
 2267SOL     OW18259   4.249   2.575   6.291 -0.0585  0.5040  0.2216
 2267SOL    HW118260   4.185   2.591   6.222 -1.0396 -0.5901  0.8747
 2267SOL    HW218261   4.265   2.481   6.282 -1.4565  0.1661  1.2046
 2268SOL     OW18262   0.839   1.501   2.540  1.0718  0.2464 -0.3813
 2268SOL    HW118263   0.919   1.472   2.583  2.5277 -0.3854 -3.5072
 2268SOL    HW218264   0.833   1.588   2.578 -2.1084 -0.8174  1.5679
 2269SOL     OW18265   2.436   2.910   2.006 -0.3614 -0.0490  0.3603
 2269SOL    HW118266   2.513   2.891   2.059  0.6325 -1.0674 -1.4429
 2269SOL    HW218267   2.437   2.833   1.949 -0.3717 -0.1620  0.5129
 2270SOL     OW18268   3.241   0.008   2.961 -0.2278  0.0877  0.2662
 2270SOL    HW118269   3.207   0.081   2.909  0.4161 -0.4015 -0.8321
 2270SOL    HW218270   3.324   0.004   2.915  0.7207 -0.0963  1.9858
 2271SOL     OW18271   2.598   2.552   3.254  0.5482 -0.1174 -0.0577
 2271SOL    HW118272   2.640   2.577   3.172 -1.8198  0.0731 -1.2251
 2271SOL    HW218273   2.633   2.465   3.269  1.4658  0.1244 -0.8392
 2272SOL     OW18274   3.288   2.655   8.465 -0.1650  0.3417 -0.4429
 2272SOL    HW118275   3.236   2.625   8.391 -0.6394 -0.8959  0.3921
 2272SOL    HW218276   3.260   2.747   8.472 -0.8569  0.2596 -2.3210
 2273SOL     OW18277   1.258   1.103   4.451  0.6113 -0.0766 -0.6960
 2273SOL    HW118278   1.280   1.173   4.512  0.8167  1.0196 -2.0246
 2273SOL    HW218279   1.324   1.114   4.382  2.1173 -0.9717  0.6063
 2274SOL     OW18280   4.272   4.394   4.876  0.1792  0.0343  0.3570
 2274SOL    HW118281   4.365   4.407   4.858  0.5098 -0.6555  1.5674
 2274SOL    HW218282   4.259   4.440   4.959  0.1281 -0.7533  0.7884
 2275SOL     OW18283   0.950   0.946   3.749 -0.1619  0.4852  0.0184
 2275SOL    HW118284   1.005   0.881   3.705 -1.2669  0.3799 -1.1989
 2275SOL    HW218285   1.010   1.020   3.759 -0.5240  0.7490  0.2701
 2276SOL     OW18286   1.808   1.296   3.434 -0.3045 -0.3751 -0.2079
 2276SOL    HW118287   1.772   1.317   3.347  0.1682  0.3965 -0.2190
 2276SOL    HW218288   1.732   1.280   3.490 -0.7941  1.6878 -0.2703
 2277SOL     OW18289   0.196   2.613  12.109 -0.1823 -0.3735 -0.1862
 2277SOL    HW118290   0.111   2.572  12.093  0.0828 -0.4717 -1.3591
 2277SOL    HW218291   0.192   2.630  12.203  0.9349  0.0099 -0.2137
 2278SOL     OW18292   4.426   4.587   5.277  0.2737 -0.0958  0.6731
 2278SOL    HW118293   4.407   4.524   5.346 -0.2902  0.2742  0.8541
 2278SOL    HW218294   4.339   4.593   5.237  2.0059  0.9618 -2.9311
 2279SOL     OW18295   2.120   0.949   2.668  0.0161  0.0970 -0.2633
 2279SOL    HW118296   2.156   0.866   2.637  1.8915  0.1795  1.6791
 2279SOL    HW218297   2.194   0.982   2.718  0.7552  3.2945 -3.4620
 2280SOL     OW18298   2.168   0.970   7.139  0.5950  0.0156  1.1692
 2280SOL    HW118299   2.127   0.884   7.148  1.7888 -0.5308  1.3854
 2280SOL    HW218300   2.249   0.947   7.183  0.8525 -1.4407 -0.0489
 2281SOL     OW18301   1.912   2.724  13.298 -0.5232 -0.2600 -0.2113
 2281SOL    HW118302   1.980   2.786  13.326 -1.7449  1.0282 -0.1430
 2281SOL    HW218303   1.846   2.792  13.295  0.2921  0.5589  0.4309
 2282SOL     OW18304   3.630   4.004   6.152  0.1584  0.7315  0.4543
 2282SOL    HW118305   3.591   3.991   6.238  0.0375 -1.8543  0.0141
 2282SOL    HW218306   3.562   4.038   6.094  0.3700 -0.9363 -0.7738
 2283SOL     OW18307   3.278   3.716   1.625  0.0202  0.1699 -0.3391
 2283SOL    HW118308   3.204   3.698   1.682  1.7075  0.5610  2.0000
 2283SOL    HW218309   3.336   3.748   1.694 -0.1409 -2.0900  0.8365
 2284SOL     OW18310   0.838   2.446   5.750  0.3570  0.0793  0.2070
 2284SOL    HW118311   0.857   2.474   5.661 -1.2961 -2.3660 -0.9307
 2284SOL    HW218312   0.835   2.350   5.744  3.1606 -0.0238  0.5172
 2285SOL     OW18313   3.647   0.220  17.274 -0.7779  0.0817  0.1201
 2285SOL    HW118314   3.711   0.238  17.205  0.0902  0.0728  0.9193
 2285SOL    HW218315   3.567   0.220  17.222  1.5043  0.0677 -3.3394
 2286SOL     OW18316   1.138   3.533   5.342  0.7665 -0.3939 -0.2325
 2286SOL    HW118317   1.149   3.571   5.430 -1.8964  1.7690 -0.8451
 2286SOL    HW218318   1.097   3.451   5.368 -1.3214  0.4649 -0.8600
 2287SOL     OW18319   0.621   2.661   6.544 -0.1230  0.5664  0.4956
 2287SOL    HW118320   0.695   2.621   6.590  1.6516  0.9407 -1.9838
 2287SOL    HW218321   0.551   2.597   6.544 -0.2109  0.6623  0.4768
 2288SOL     OW18322   1.847   4.468   5.548 -0.0151  0.0722  0.1968
 2288SOL    HW118323   1.860   4.387   5.597  0.0872 -0.0023  0.0443
 2288SOL    HW218324   1.792   4.517   5.610 -0.0255  0.1654  0.1136
 2289SOL     OW18325   2.085   3.421   4.480 -0.0006  0.4442  0.5639
 2289SOL    HW118326   2.120   3.334   4.501  0.2540 -0.1842 -2.4123
 2289SOL    HW218327   2.089   3.470   4.562 -1.3363 -0.2377  1.0266
 2290SOL     OW18328   4.068   3.227   2.764  0.2334  0.0864  0.6494
 2290SOL    HW118329   4.055   3.169   2.688  0.1307  1.8541 -0.6663
 2290SOL    HW218330   4.157   3.198   2.786  0.5571  0.2600 -0.4090
 2291SOL     OW18331   0.138   2.021   3.622 -0.5106  0.3155  0.3044
 2291SOL    HW118332   0.106   2.109   3.600 -0.3771  0.0742 -0.8259
 2291SOL    HW218333   0.221   2.045   3.663 -1.0537 -0.2944  1.7704
 2292SOL     OW18334   0.466   2.691  15.917  0.4588  0.2618 -0.1689
 2292SOL    HW118335   0.433   2.738  15.993  0.6635  1.6704 -0.9422
 2292SOL    HW218336   0.386   2.672  15.869  0.5852  0.9546 -0.6587
 2293SOL     OW18337   0.093   0.135  13.642 -0.0082 -0.0491  0.4986
 2293SOL    HW118338   0.085   0.049  13.683 -1.2998 -0.2900 -0.2672
 2293SOL    HW218339   0.102   0.187  13.722  1.2623  2.1278 -1.0502
 2294SOL     OW18340   4.418   1.903   8.253 -0.5821 -0.3500  0.2953
 2294SOL    HW118341   4.352   1.837   8.231 -0.9193  0.2818 -0.5717
 2294SOL    HW218342   4.368   1.979   8.223  0.5699  0.4699  0.4433
 2295SOL     OW18343   0.105   0.321   2.565 -0.2590 -0.1527  0.3907
 2295SOL    HW118344   0.027   0.283   2.605 -1.4765  1.3375 -0.5311
 2295SOL    HW218345   0.085   0.332   2.472 -0.3430 -1.1452  0.2981
 2296SOL     OW18346   1.237   3.260   8.241  0.1747 -0.2212  1.1019
 2296SOL    HW118347   1.246   3.216   8.156  2.8899  0.4064  1.0800
 2296SOL    HW218348   1.191   3.339   8.213 -1.2458 -1.2975  0.3421
 2297SOL     OW18349   3.764   3.694  16.871 -0.3858  0.4977 -0.0343
 2297SOL    HW118350   3.712   3.646  16.806  0.3437 -0.2364 -0.0744
 2297SOL    HW218351   3.845   3.708  16.823 -1.0191  0.7311 -1.0495
 2298SOL     OW18352   3.701   0.832   4.954 -0.1417  0.2156  0.0941
 2298SOL    HW118353   3.691   0.927   4.966  1.2163  0.2893  0.5929
 2298SOL    HW218354   3.792   0.833   4.925  0.4521 -2.9982  1.9008
 2299SOL     OW18355   2.132   4.065   5.815 -0.5671  0.2332  0.2273
 2299SOL    HW118356   2.157   4.144   5.863  1.0940 -1.3353  1.9880
 2299SOL    HW218357   2.171   3.995   5.868  0.6125 -0.0759 -1.0553
 2300SOL     OW18358   0.441   1.601   5.838  0.8726  0.1054  0.0932
 2300SOL    HW118359   0.420   1.694   5.826  0.4575 -0.4315 -3.3231
 2300SOL    HW218360   0.351   1.568   5.839  1.2340 -0.9238 -1.7802
 2301SOL     OW18361   1.503   3.822   3.945 -0.4163 -0.4265  0.1352
 2301SOL    HW118362   1.511   3.861   4.032  0.6887  1.5057 -0.8365
 2301SOL    HW218363   1.409   3.807   3.952 -0.6096  0.9625  0.4669
 2302SOL     OW18364   1.712   3.460   7.940  0.4729  0.9383 -0.3107
 2302SOL    HW118365   1.728   3.367   7.961 -2.2772  0.7342  0.8125
 2302SOL    HW218366   1.645   3.448   7.873  0.4391  1.9145 -0.4465
 2303SOL     OW18367   1.447   3.750   6.811 -0.2474 -0.1012  0.0908
 2303SOL    HW118368   1.397   3.678   6.848  0.0434 -0.3337  0.0303
 2303SOL    HW218369   1.391   3.825   6.832 -0.2216 -0.8634  2.8142
 2304SOL     OW18370   3.107   2.417  17.225 -0.5060  0.1124  0.6104
 2304SOL    HW118371   3.189   2.460  17.249  0.1562 -1.2884  0.8054
 2304SOL    HW218372   3.135   2.357  17.155 -0.7323  1.0154 -0.2631
 2305SOL     OW18373   1.702   4.265  15.337 -0.0253  0.1619 -0.1491
 2305SOL    HW118374   1.624   4.215  15.360 -0.3577  0.3478 -0.8755
 2305SOL    HW218375   1.742   4.191  15.290  2.3711  1.2349  0.2109
 2306SOL     OW18376   0.771   2.874   5.161  0.0400 -0.1489  0.2091
 2306SOL    HW118377   0.727   2.916   5.087  0.4865 -1.4787 -0.8140
 2306SOL    HW218378   0.810   2.949   5.206  0.7894 -0.9369  0.8510
 2307SOL     OW18379   2.576   0.481   8.797  0.0316  0.1034  0.1244
 2307SOL    HW118380   2.620   0.442   8.722  0.3351  2.4711 -0.9289
 2307SOL    HW218381   2.498   0.506   8.746  0.0156 -0.6887 -0.2309
 2308SOL     OW18382   4.266   1.281   6.920  0.0259 -0.0340 -0.7067
 2308SOL    HW118383   4.296   1.313   6.835 -0.7064  0.1287 -0.9011
 2308SOL    HW218384   4.239   1.191   6.902  0.8603 -0.0034 -2.1206
 2309SOL     OW18385   4.000   4.172   2.276 -0.0653  0.3022 -0.2605
 2309SOL    HW118386   3.987   4.222   2.195  0.8993  2.7301  1.0992
 2309SOL    HW218387   4.027   4.246   2.330  1.5251  1.2249 -2.3293
 2310SOL     OW18388   0.243   3.689  12.025  0.3740  0.1530 -0.1188
 2310SOL    HW118389   0.307   3.661  12.090  0.0588 -1.0145 -0.3031
 2310SOL    HW218390   0.306   3.746  11.982 -0.5714 -2.0938 -4.6118
 2311SOL     OW18391   0.554   1.125   8.985 -0.5206 -0.0622  0.3352
 2311SOL    HW118392   0.558   1.193   8.918  1.0470 -0.7520 -0.2697
 2311SOL    HW218393   0.575   1.174   9.064  0.5750  0.8273 -0.5187
 2312SOL     OW18394   0.213   0.731   2.737  0.1934  0.0478 -0.6648
 2312SOL    HW118395   0.212   0.798   2.806 -1.5067 -0.7358  0.0561
 2312SOL    HW218396   0.252   0.655   2.781  2.7557  1.0588 -1.1504
 2313SOL     OW18397   2.056   0.940   0.635 -0.0764  0.5673  0.0156
 2313SOL    HW118398   2.128   1.003   0.645  0.1447  0.1973  0.7402
 2313SOL    HW218399   1.981   0.976   0.683 -0.6640 -0.4558 -0.1296
 2314SOL     OW18400   0.369   1.096   7.462  0.6694 -0.6376  0.0097
 2314SOL    HW118401   0.304   1.165   7.469 -0.3353 -1.5463 -0.4915
 2314SOL    HW218402   0.377   1.092   7.367 -1.6813  0.4507 -0.2355
 2315SOL     OW18403   2.189   1.394   8.701 -0.2823  0.1121 -0.0670
 2315SOL    HW118404   2.098   1.413   8.677  0.2525 -1.0281 -3.0403
 2315SOL    HW218405   2.216   1.485   8.687  1.4205 -0.0530  2.1099
 2316SOL     OW18406   3.595   2.121   1.208  0.4542 -0.1899  0.5412
 2316SOL    HW118407   3.688   2.113   1.232  0.5280  3.3005  1.4138
 2316SOL    HW218408   3.564   2.179   1.277 -0.2176  1.6513 -1.3074
 2317SOL     OW18409   2.652   2.110   8.823  0.2234  0.5713 -0.5090
 2317SOL    HW118410   2.679   2.094   8.913  2.1061  1.0558 -1.0056
 2317SOL    HW218411   2.742   2.099   8.794  0.1591  0.1738 -0.5613
 2318SOL     OW18412   3.727   0.092   0.747  0.1513  0.1648  0.0566
 2318SOL    HW118413   3.818   0.089   0.778 -0.1528 -3.3748  0.6084
 2318SOL    HW218414   3.718   0.183   0.720 -0.4497  0.2522  0.5479
 2319SOL     OW18415   1.317   0.786   4.600 -0.6233 -0.1983 -0.2772
 2319SOL    HW118416   1.232   0.805   4.640  0.0604 -0.9261  1.4835
 2319SOL    HW218417   1.298   0.699   4.565  2.6602 -1.7946  2.0066
 2320SOL     OW18418   3.890   0.076   0.500  0.0688 -0.2548  0.2880
 2320SOL    HW118419   3.883   0.167   0.527 -0.3296 -0.2818  0.2846
 2320SOL    HW218420   3.823   0.076   0.431 -1.2880 -0.5782  1.6069
 2321SOL     OW18421   4.001   3.044   2.599  0.4474  0.2458  0.2840
 2321SOL    HW118422   3.973   2.954   2.616  1.8965 -0.0665  1.0660
 2321SOL    HW218423   4.046   3.031   2.516  2.3489 -1.7963  1.6340
 2322SOL     OW18424   3.520   4.608   1.646  0.6031  0.0982  0.2904
 2322SOL    HW118425   3.555   4.555   1.717 -0.2602 -0.6953  0.1267
 2322SOL    HW218426   3.564   4.693   1.646  0.0395  0.3897  0.0730
 2323SOL     OW18427   2.276   1.770  15.315  0.0446 -0.0601 -0.0501
 2323SOL    HW118428   2.293   1.685  15.275  2.2474 -1.1699  3.2506
 2323SOL    HW218429   2.235   1.749  15.399  0.2960  0.1001  0.1158
 2324SOL     OW18430   0.196   4.613   7.776 -0.0619 -0.0847  0.0018
 2324SOL    HW118431   0.155   4.660   7.704 -1.1490 -1.4534 -0.2788
 2324SOL    HW218432   0.135   4.540   7.791  1.4292 -1.2506  0.3791
 2325SOL     OW18433   2.078   2.727   3.427 -0.5850  0.3050  0.0919
 2325SOL    HW118434   2.071   2.691   3.339 -2.9925  0.8963  0.0425
 2325SOL    HW218435   2.135   2.663   3.470  1.6739  2.3434  0.0893
 2326SOL     OW18436   1.867   4.484   7.983  0.1269 -0.0460 -0.1843
 2326SOL    HW118437   1.834   4.444   7.903  0.7454  2.2351 -1.5777
 2326SOL    HW218438   1.917   4.413   8.024 -1.2914 -0.5100  0.7555
 2327SOL     OW18439   1.183   1.496   3.967 -0.4375 -0.1545  0.1233
 2327SOL    HW118440   1.246   1.425   3.980 -0.1009  0.4467  1.8104
 2327SOL    HW218441   1.205   1.547   4.045 -0.3508 -0.5808  0.3763
 2328SOL     OW18442   2.011   1.144   9.012 -0.1009  0.0060  0.2689
 2328SOL    HW118443   2.088   1.186   8.974  0.4241  0.4359  1.8436
 2328SOL    HW218444   2.045   1.121   9.098 -0.3137 -2.2066 -0.2213
 2329SOL     OW18445   1.906   3.475   9.684 -0.1618 -0.0704 -0.0283
 2329SOL    HW118446   1.831   3.442   9.635  0.6296 -0.8629 -0.7034
 2329SOL    HW218447   1.974   3.417   9.648 -0.3299 -1.0299  1.1787
 2330SOL     OW18448   2.638   3.735   5.703  0.1902  0.4189 -0.3755
 2330SOL    HW118449   2.679   3.772   5.625 -2.5638  0.7787 -1.6592
 2330SOL    HW218450   2.599   3.819   5.730  1.0567  0.8657 -0.5161
 2331SOL     OW18451   0.854   3.804   3.758 -0.1501  0.1735  0.4952
 2331SOL    HW118452   0.796   3.804   3.682  0.8952  0.8259 -0.3005
 2331SOL    HW218453   0.890   3.715   3.763  1.6451  0.8484 -0.5050
 2332SOL     OW18454   1.164   3.771  12.002 -0.1702 -0.0135 -0.1785
 2332SOL    HW118455   1.177   3.688  11.957 -0.7966  0.2094 -0.7850
 2332SOL    HW218456   1.176   3.830  11.928 -1.3618  0.2413 -0.1788
 2333SOL     OW18457   3.294   4.697   7.551  0.0427 -0.4260 -0.0687
 2333SOL    HW118458   3.202   4.675   7.536 -0.3477 -0.2872  2.1209
 2333SOL    HW218459   3.303   4.668   7.642 -1.0018 -0.3033  0.0787
 2334SOL     OW18460   0.712   0.532   6.175 -0.3784 -0.1324  0.2724
 2334SOL    HW118461   0.721   0.438   6.183 -1.5042 -0.4175 -1.7095
 2334SOL    HW218462   0.747   0.538   6.086 -1.2972  0.0142 -0.0812
 2335SOL     OW18463   0.346   3.002   5.434  0.0704 -0.1618  0.5229
 2335SOL    HW118464   0.377   2.935   5.495 -0.1004 -0.1696  0.5992
 2335SOL    HW218465   0.391   2.979   5.353 -1.1148  0.0846 -0.2085
 2336SOL     OW18466   0.035   1.419   2.121  0.2567 -0.9572  0.7760
 2336SOL    HW118467   0.121   1.451   2.094 -1.3338  1.3253 -1.7014
 2336SOL    HW218468   0.051   1.331   2.153 -1.3679 -0.6064  2.5661
 2337SOL     OW18469   3.271   1.496   7.993 -0.0377  0.2024 -0.1507
 2337SOL    HW118470   3.223   1.578   7.983 -1.1136 -0.2895  0.9542
 2337SOL    HW218471   3.360   1.533   7.998  0.5378 -1.4446  1.9504
 2338SOL     OW18472   0.390   3.333  17.262  0.2346 -0.4561 -0.0026
 2338SOL    HW118473   0.453   3.352  17.193 -2.0131  0.2225 -1.8551
 2338SOL    HW218474   0.444   3.282  17.322  3.4280  2.9872  0.1002
 2339SOL     OW18475   0.371   3.301  10.865  0.3746  0.3412 -0.0068
 2339SOL    HW118476   0.377   3.378  10.809 -0.5341  1.3673  1.3442
 2339SOL    HW218477   0.287   3.322  10.906  0.5819 -0.2259  0.7084
 2340SOL     OW18478   1.670   1.022   6.725 -0.1535 -0.7210 -0.1303
 2340SOL    HW118479   1.619   0.945   6.700 -2.1478 -0.0839  2.0408
 2340SOL    HW218480   1.597   1.084   6.726 -1.3578 -2.1506 -0.1203
 2341SOL     OW18481   2.629   0.094   4.368 -0.6401  0.0367  0.0589
 2341SOL    HW118482   2.593   0.178   4.395  1.0062  1.0003 -0.7607
 2341SOL    HW218483   2.635   0.040   4.447  0.5010  1.6863  1.0887
 2342SOL     OW18484   0.775   1.206   3.342 -0.1357 -0.0770  0.2028
 2342SOL    HW118485   0.804   1.137   3.281 -3.4719 -0.7781 -0.5679
 2342SOL    HW218486   0.726   1.164   3.412  0.5209 -2.6507 -0.8937
 2343SOL     OW18487   3.436   0.758   9.705  0.5693  0.1400 -0.0011
 2343SOL    HW118488   3.387   0.700   9.647  0.9918 -1.7030  1.4754
 2343SOL    HW218489   3.526   0.732   9.683 -0.5457 -2.4020 -1.4889
 2344SOL     OW18490   0.443   1.713  10.429 -0.3370 -0.2899  0.6763
 2344SOL    HW118491   0.467   1.750  10.514 -3.9043  2.2936  0.5350
 2344SOL    HW218492   0.462   1.620  10.441 -1.7721 -0.5588  0.8448
 2345SOL     OW18493   1.883   1.265   5.522  0.7402  0.1951 -0.0070
 2345SOL    HW118494   1.900   1.192   5.582  1.6312 -0.3867 -0.9606
 2345SOL    HW218495   1.793   1.235   5.506 -1.0698  5.6182 -0.1041
 2346SOL     OW18496   1.834   1.523   2.918  0.1907 -0.5163 -0.0362
 2346SOL    HW118497   1.828   1.448   2.858  0.3727 -1.8135  1.5402
 2346SOL    HW218498   1.855   1.479   3.001  0.4528  3.7397  2.1541
 2347SOL     OW18499   4.663   1.311   2.575 -0.4965 -0.2200  0.0676
 2347SOL    HW118500   4.700   1.393   2.608  1.0410 -0.3229 -1.4098
 2347SOL    HW218501   4.718   1.254   2.629 -0.4786 -2.1950 -2.0460
 2348SOL     OW18502   4.290   1.215  14.610 -0.2589 -0.3652  0.2382
 2348SOL    HW118503   4.208   1.217  14.660  0.4483  2.2078  1.3039
 2348SOL    HW218504   4.254   1.151  14.548  2.8328 -2.8208  1.0114
 2349SOL     OW18505   4.544   3.163  10.290  0.2587 -0.3104  0.1578
 2349SOL    HW118506   4.564   3.164  10.197 -1.0599  1.8495 -0.1001
 2349SOL    HW218507   4.472   3.226  10.302  1.5253  1.1794  0.0197
 2350SOL     OW18508   0.831   1.891   7.956 -0.3231 -0.4893  0.0062
 2350SOL    HW118509   0.825   1.808   7.909 -0.5509  0.3333 -1.4436
 2350SOL    HW218510   0.925   1.907   7.964 -0.3753 -0.3284  0.2845
 2351SOL     OW18511   3.408   0.585   4.546  0.1914 -0.3697  0.3081
 2351SOL    HW118512   3.442   0.657   4.598  1.6010  1.1278 -2.7033
 2351SOL    HW218513   3.338   0.550   4.601 -1.6461 -0.1450 -1.8839
 2352SOL     OW18514   1.172   3.754   4.926 -0.2487  0.2634 -0.1633
 2352SOL    HW118515   1.112   3.695   4.973 -1.1062 -2.2397 -4.3601
 2352SOL    HW218516   1.239   3.693   4.896 -0.3988  0.5724 -1.1235
 2353SOL     OW18517   0.934   1.089   8.064 -0.0289 -0.6895 -0.5870
 2353SOL    HW118518   0.973   1.124   8.144 -0.8601 -1.0215 -0.0346
 2353SOL    HW218519   0.951   1.168   8.013 -1.4176 -0.9548 -1.4638
 2354SOL     OW18520   1.519   1.811   2.632  0.2756  0.2131 -0.2839
 2354SOL    HW118521   1.607   1.824   2.597 -1.2448 -0.0974 -4.2177
 2354SOL    HW218522   1.534   1.722   2.665 -1.0595 -0.4639 -1.4962
 2355SOL     OW18523   0.718   2.143   3.865  0.0280 -0.2714 -0.0710
 2355SOL    HW118524   0.689   2.160   3.955 -1.0672  2.0095 -0.8690
 2355SOL    HW218525   0.800   2.192   3.870  0.7129 -1.2815 -1.3719
 2356SOL     OW18526   0.363   1.068   2.002  0.1121 -0.2433 -1.0111
 2356SOL    HW118527   0.357   1.110   2.088  0.1034 -0.2260 -1.0200
 2356SOL    HW218528   0.448   1.106   1.978  0.8308 -0.0183  1.8669
 2357SOL     OW18529   0.564   4.370   2.896  0.4078  0.2499  0.0747
 2357SOL    HW118530   0.614   4.407   2.823 -0.4508  0.3059 -0.4906
 2357SOL    HW218531   0.637   4.331   2.944  0.2394 -1.2518 -0.8759
 2358SOL     OW18532   2.268   1.192   1.482 -0.2810 -0.3462  0.3787
 2358SOL    HW118533   2.254   1.107   1.523 -2.0557 -1.3726 -2.3216
 2358SOL    HW218534   2.242   1.172   1.392  2.1610  1.2601 -0.6850
 2359SOL     OW18535   0.197   3.177   2.864 -0.1234 -1.0090 -0.2102
 2359SOL    HW118536   0.129   3.231   2.904 -0.4291 -0.6097 -1.2476
 2359SOL    HW218537   0.203   3.100   2.921  1.0451 -1.0872 -0.4306
 2360SOL     OW18538   1.328   3.341   9.416  0.3679  0.0745  0.6292
 2360SOL    HW118539   1.415   3.348   9.378 -0.1723 -1.3265 -0.8512
 2360SOL    HW218540   1.291   3.408   9.357  1.4660 -0.9079 -1.1609
 2361SOL     OW18541   0.401   0.010   8.310 -0.0083  0.6003  0.2837
 2361SOL    HW118542   0.343   4.691   8.246 -0.1815  1.9404 -0.4347
 2361SOL    HW218543   0.335   0.063   8.355 -0.7632 -1.8641  2.0905
 2362SOL     OW18544   4.354   4.199   8.602 -0.4879 -0.2347  0.5142
 2362SOL    HW118545   4.314   4.286   8.603 -1.4940 -0.6562 -1.8794
 2362SOL    HW218546   4.272   4.160   8.570 -1.1468  0.6899  1.0813
 2363SOL     OW18547   3.859   3.295   9.787 -0.1611 -0.1155 -0.1754
 2363SOL    HW118548   3.816   3.242   9.721 -1.9931 -0.0980  1.0029
 2363SOL    HW218549   3.795   3.291   9.858  0.7909 -3.0183  0.5335
 2364SOL     OW18550   4.094   0.731   8.210  0.0525 -0.5377 -0.1414
 2364SOL    HW118551   4.140   0.665   8.262 -0.1521  0.2340  1.0304
 2364SOL    HW218552   4.011   0.689   8.187  0.2937  0.7023 -3.2671
 2365SOL     OW18553   4.448   2.247   7.646  0.0750 -0.4313 -0.2767
 2365SOL    HW118554   4.400   2.175   7.604  0.2881 -1.2988  0.9890
 2365SOL    HW218555   4.472   2.301   7.571 -0.6261 -0.3918 -0.4749
 2366SOL     OW18556   1.462   2.940   3.394  0.2170  0.2776 -0.1947
 2366SOL    HW118557   1.406   2.901   3.327 -0.0055  2.3350 -1.1825
 2366SOL    HW218558   1.520   3.003   3.351 -0.2160  1.4337  0.9335
 2367SOL     OW18559   0.934   2.287   8.332 -0.1790 -0.4118 -0.1041
 2367SOL    HW118560   0.896   2.292   8.420  0.0778  0.5185 -0.0371
 2367SOL    HW218561   1.025   2.283   8.362 -0.1832 -0.0181 -0.0329
 2368SOL     OW18562   0.925   1.297  12.414 -0.2967 -0.0156  0.4606
 2368SOL    HW118563   0.889   1.304  12.502 -1.1559  0.6207  0.0623
 2368SOL    HW218564   1.017   1.276  12.428 -0.1340  0.2433 -0.2019
 2369SOL     OW18565   0.722   1.357   6.417  0.0515 -0.6504  0.0448
 2369SOL    HW118566   0.708   1.302   6.495 -2.8955  0.4824  0.3086
 2369SOL    HW218567   0.753   1.287   6.360 -1.4620 -0.4787 -0.9799
 2370SOL     OW18568   3.271   2.161   7.482  0.2756  0.0859  0.0824
 2370SOL    HW118569   3.235   2.112   7.408 -0.7235 -1.2270  1.4346
 2370SOL    HW218570   3.313   2.090   7.531 -1.2326 -2.2401 -1.9862
 2371SOL     OW18571   2.283   0.508   2.461 -0.4273 -0.3456 -0.1298
 2371SOL    HW118572   2.307   0.565   2.388  0.2995 -0.8961 -0.3243
 2371SOL    HW218573   2.360   0.451   2.454 -1.6431 -2.0635  0.3437
 2372SOL     OW18574   1.388   3.196   6.690 -0.0751 -0.5867  0.2415
 2372SOL    HW118575   1.478   3.215   6.665 -1.0962  0.4858 -2.6972
 2372SOL    HW218576   1.373   3.238   6.775  1.0940  1.3712 -0.5268
 2373SOL     OW18577   2.492   0.285  16.027 -0.2223  0.0159 -0.0746
 2373SOL    HW118578   2.486   0.348  15.956 -1.8487 -1.2050 -0.9934
 2373SOL    HW218579   2.523   0.338  16.101  2.0328 -0.7634 -0.4465
 2374SOL     OW18580   3.491   0.015   6.414  0.3009  0.3006 -0.2896
 2374SOL    HW118581   3.441   4.706   6.340 -2.6344  0.0077  1.8255
 2374SOL    HW218582   3.505   0.106   6.387 -2.2072  0.4363 -1.0842
 2375SOL     OW18583   0.265   0.513  16.276  0.1463  0.4006  0.3142
 2375SOL    HW118584   0.352   0.492  16.308 -0.2857 -0.8151  0.6923
 2375SOL    HW218585   0.236   0.583  16.334  1.4519  1.1875  0.0215
 2376SOL     OW18586   4.690   0.706   3.744 -0.0100  0.1366 -0.3459
 2376SOL    HW118587   0.026   0.657   3.801  1.8191  0.4552 -1.9573
 2376SOL    HW218588   4.627   0.750   3.801 -0.2621 -0.5133 -0.1226
 2377SOL     OW18589   2.469   0.010   5.950 -0.1625  0.1135  0.0265
 2377SOL    HW118590   2.440   0.050   5.868  1.8134 -0.9491 -1.2068
 2377SOL    HW218591   2.491   0.079   6.012 -0.0573  0.7390 -0.7053
 2378SOL     OW18592   0.803   4.530   8.201  0.5365 -0.3902  0.0945
 2378SOL    HW118593   0.893   4.513   8.174  0.4384  1.0760 -1.1831
 2378SOL    HW218594   0.774   4.585   8.128 -0.5581 -2.0191 -0.7009
 2379SOL     OW18595   2.826   1.338   3.596  0.0764 -0.7835 -0.1001
 2379SOL    HW118596   2.826   1.422   3.643 -2.0826 -1.4151  1.0293
 2379SOL    HW218597   2.899   1.283   3.626  0.8338  1.3180  1.9344
 2380SOL     OW18598   2.384   1.644   8.976 -0.4746 -0.2170 -0.1939
 2380SOL    HW118599   2.352   1.645   8.886 -0.7734  3.0666 -0.0423
 2380SOL    HW218600   2.381   1.735   9.004  1.4016  0.1330 -1.1341
 2381SOL     OW18601   2.937   2.965   2.686  0.1439  0.3257 -0.5213
 2381SOL    HW118602   2.898   3.047   2.717  2.0109  1.7236 -1.9145
 2381SOL    HW218603   3.025   2.983   2.719  0.6976 -1.6094 -0.9762
 2382SOL     OW18604   2.933   2.710   0.628  0.2466 -0.1404 -0.0770
 2382SOL    HW118605   3.011   2.764   0.645 -1.3958  2.3026 -0.2229
 2382SOL    HW218606   2.864   2.743   0.685  0.2229 -2.5214  1.2539
 2383SOL     OW18607   4.598   0.947   7.941 -0.1260 -0.4258 -0.1688
 2383SOL    HW118608   4.594   0.853   7.958 -2.7248 -0.4054 -0.6805
 2383SOL    HW218609   4.628   0.939   7.851  2.1273  0.4200  0.5181
 2384SOL     OW18610   0.406   0.848   6.212  0.3244  0.1008 -0.3259
 2384SOL    HW118611   0.476   0.783   6.219 -1.4152 -1.8227 -0.9023
 2384SOL    HW218612   0.328   0.795   6.231 -0.8093  1.5404 -0.9596
 2385SOL     OW18613   2.063   3.262   1.096  0.2444  0.0013  0.5356
 2385SOL    HW118614   2.040   3.248   1.188  1.0328  2.0962  1.0414
 2385SOL    HW218615   2.085   3.169   1.085  0.4035 -0.1047  1.8220
 2386SOL     OW18616   0.845   0.958   4.900 -0.1220  0.3430 -0.1221
 2386SOL    HW118617   0.922   0.974   4.954 -0.1698 -0.7553  0.2830
 2386SOL    HW218618   0.854   0.869   4.865 -0.4359 -0.0938  0.9184
 2387SOL     OW18619   4.160   1.754  14.305  0.1971  0.0246 -0.4881
 2387SOL    HW118620   4.131   1.701  14.379  1.6412 -2.3333 -1.6134
 2387SOL    HW218621   4.195   1.683  14.251 -0.8098 -0.0161 -1.0877
 2388SOL     OW18622   3.377   3.422   4.685  0.0207 -0.2848  0.3744
 2388SOL    HW118623   3.415   3.402   4.599  1.1808  0.6202  0.6747
 2388SOL    HW218624   3.418   3.506   4.707 -0.4193 -0.0353  0.2359
 2389SOL     OW18625   1.046   4.528   3.718  0.2462 -0.1025 -0.6481
 2389SOL    HW118626   1.029   4.482   3.636 -1.2465 -0.3673 -0.1920
 2389SOL    HW218627   1.141   4.539   3.711  0.5919 -1.6992  1.5320
 2390SOL     OW18628   1.756   1.069   5.944 -0.1569 -0.6947 -0.7922
 2390SOL    HW118629   1.826   1.022   5.989  1.1678  1.4609 -0.5642
 2390SOL    HW218630   1.681   1.010   5.954 -1.4338  0.7148 -1.8851
 2391SOL     OW18631   2.338   3.762   1.956 -0.1143 -0.5251  0.5603
 2391SOL    HW118632   2.412   3.790   1.902 -1.0448 -1.1460 -1.0264
 2391SOL    HW218633   2.378   3.774   2.043  0.9439  0.6391 -0.0802
 2392SOL     OW18634   3.346   3.914  11.099 -0.6462  0.6960  0.2394
 2392SOL    HW118635   3.264   3.914  11.149  1.0775 -0.0295  3.0659
 2392SOL    HW218636   3.324   3.832  11.056  0.0698  1.1199 -0.9291
 2393SOL     OW18637   0.925   1.319  11.330  0.3263 -0.0585  0.1096
 2393SOL    HW118638   0.952   1.308  11.239  0.6033 -2.9996  0.5199
 2393SOL    HW218639   0.966   1.240  11.366  2.1002 -0.4044 -2.7150
 2394SOL     OW18640   2.200   1.477  11.831 -0.1108  0.0789  0.0767
 2394SOL    HW118641   2.136   1.487  11.901  0.5757  1.6492  0.5037
 2394SOL    HW218642   2.239   1.565  11.835  1.3804 -0.6571  2.0127
 2395SOL     OW18643   3.491   0.844   2.736  0.0944 -0.1439 -0.0459
 2395SOL    HW118644   3.524   0.858   2.824  2.2601 -0.2879 -0.8358
 2395SOL    HW218645   3.570   0.834   2.682  1.2635  0.6265  1.5251
 2396SOL     OW18646   3.390   4.290   2.826 -0.6214 -0.0755 -0.2362
 2396SOL    HW118647   3.444   4.368   2.822 -0.8547  0.1371  0.6613
 2396SOL    HW218648   3.439   4.232   2.768  0.4634 -2.4149  2.9580
 2397SOL     OW18649   2.320   0.467   4.310  0.0665  0.3127  0.2932
 2397SOL    HW118650   2.262   0.476   4.235  1.7136  1.4269 -0.8550
 2397SOL    HW218651   2.263   0.503   4.378 -1.8082  0.5173 -1.3946
 2398SOL     OW18652   2.172   2.110   6.326  0.2928 -0.2018  0.7269
 2398SOL    HW118653   2.081   2.090   6.302  0.4715  0.5103 -0.5164
 2398SOL    HW218654   2.224   2.036   6.297 -0.2129 -0.4515  0.4455
 2399SOL     OW18655   0.412   1.085  11.485 -0.0445  0.2571 -0.3001
 2399SOL    HW118656   0.435   1.143  11.556 -1.8205  0.7919 -0.1566
 2399SOL    HW218657   0.316   1.079  11.487  0.1295 -3.2760 -2.4019
 2400SOL     OW18658   2.755   0.289   2.620  0.0228 -1.0103 -0.4267
 2400SOL    HW118659   2.819   0.260   2.556  0.7347  0.8375 -0.5379
 2400SOL    HW218660   2.752   0.385   2.619 -2.1501 -1.0480  0.6719
 2401SOL     OW18661   1.821   1.372   4.705 -0.8548  0.2105  0.4321
 2401SOL    HW118662   1.853   1.359   4.615 -1.0192 -2.6726  0.7981
 2401SOL    HW218663   1.859   1.295   4.749  0.2496 -0.1798 -1.1865
 2402SOL     OW18664   2.777   2.581   4.857  0.1228 -0.4855 -0.1785
 2402SOL    HW118665   2.719   2.621   4.922 -1.1798 -1.4110 -0.7701
 2402SOL    HW218666   2.762   2.625   4.774  0.4363 -0.6374 -0.3122
 2403SOL     OW18667   2.343   2.944   0.964 -0.0368 -0.3691  0.0606
 2403SOL    HW118668   2.365   3.020   1.017  0.6170  0.1202 -0.9145
 2403SOL    HW218669   2.269   2.976   0.913 -0.1100  1.6364  1.4406
 2404SOL     OW18670   2.720   3.098   8.763 -0.3525  0.0521  0.1196
 2404SOL    HW118671   2.735   3.045   8.841 -1.8451 -0.9197 -0.2571
 2404SOL    HW218672   2.762   3.179   8.792  1.6423 -0.5108 -1.1697
 2405SOL     OW18673   0.897   2.655   2.950 -0.1208  0.0084  0.0613
 2405SOL    HW118674   0.945   2.726   2.908  2.5973 -0.7285  1.9821
 2405SOL    HW218675   0.812   2.657   2.906  1.2661  1.7593 -2.5133
 2406SOL     OW18676   0.028   2.203   1.722 -0.2961  0.0959 -0.0299
 2406SOL    HW118677   0.078   2.263   1.667  1.1590  0.5949  1.8459
 2406SOL    HW218678   0.076   2.121   1.710  0.4352  0.0612  3.3132
 2407SOL     OW18679   4.029   1.809  10.253  0.7124 -0.0904  0.0218
 2407SOL    HW118680   4.105   1.861  10.281 -2.0184  4.0479 -0.1783
 2407SOL    HW218681   3.953   1.862  10.276 -0.8754 -2.0387 -0.7706
 2408SOL     OW18682   0.220   3.441   9.766  0.1438 -0.9056 -0.4510
 2408SOL    HW118683   0.187   3.494   9.693  1.5182 -0.5585 -0.8117
 2408SOL    HW218684   0.232   3.357   9.722  0.5933 -0.0186 -2.0172
 2409SOL     OW18685   3.717   2.270   6.278 -0.4091 -0.3240 -0.0750
 2409SOL    HW118686   3.666   2.241   6.202 -2.9640  0.8280  1.2066
 2409SOL    HW218687   3.777   2.324   6.227 -1.2251 -0.0819 -0.7792
 2410SOL     OW18688   1.633   3.882   7.502 -0.9964  0.0831 -0.3679
 2410SOL    HW118689   1.670   3.865   7.588  0.1533 -0.5667 -0.9967
 2410SOL    HW218690   1.671   3.968   7.485 -1.2494  0.7198  2.3263
 2411SOL     OW18691   4.231   3.907   2.337 -0.1837  0.0066 -0.4680
 2411SOL    HW118692   4.148   3.893   2.291 -0.0226  1.7182 -1.2761
 2411SOL    HW218693   4.248   3.828   2.388 -1.9738  0.4637  0.8432
 2412SOL     OW18694   3.740   2.532  14.921  0.0543 -0.1616  0.0575
 2412SOL    HW118695   3.754   2.466  14.854  1.0653 -0.6628  0.7508
 2412SOL    HW218696   3.671   2.575  14.872 -0.7916 -2.2282 -0.5450
 2413SOL     OW18697   1.019   3.981   1.921  0.0801  0.5918  0.2962
 2413SOL    HW118698   1.098   4.036   1.919  0.0593  0.6534  1.0571
 2413SOL    HW218699   1.063   3.897   1.932 -1.6250 -0.2874  0.4267
 2414SOL     OW18700   4.546   3.118   0.569  0.1750  0.6849 -0.2259
 2414SOL    HW118701   4.586   3.068   0.498  0.8230 -0.1432  0.7265
 2414SOL    HW218702   4.630   3.151   0.601  2.0663 -3.4052 -0.9383
 2415SOL     OW18703   3.057   3.102   8.622 -0.2748  0.2556 -0.1386
 2415SOL    HW118704   3.107   3.074   8.698  0.7614  1.1198 -0.4959
 2415SOL    HW218705   3.091   3.191   8.615  2.5180 -0.7572  0.6896
 2416SOL     OW18706   2.737   1.915   8.083 -0.2101 -0.1310 -0.0882
 2416SOL    HW118707   2.791   1.864   8.143 -1.4041 -0.7349  0.4713
 2416SOL    HW218708   2.679   1.847   8.051  1.3805 -1.1936 -0.7149
 2417SOL     OW18709   0.637   1.512  10.824  0.0792 -0.0502 -0.3524
 2417SOL    HW118710   0.710   1.566  10.855 -0.4494 -0.6677  1.9517
 2417SOL    HW218711   0.682   1.429  10.803  1.6548  0.6833  0.1082
 2418SOL     OW18712   2.666   2.538   5.141  0.7788  0.0641 -0.0311
 2418SOL    HW118713   2.588   2.558   5.193  1.8521 -1.9159  2.3645
 2418SOL    HW218714   2.735   2.586   5.188  0.1188  1.7668 -0.7719
 2419SOL     OW18715   1.294   1.013   8.648  0.8922 -0.3719  0.1120
 2419SOL    HW118716   1.368   0.970   8.691 -0.0079 -0.1598  1.8538
 2419SOL    HW218717   1.235   1.011   8.723 -0.2517 -0.2617 -0.7860
 2420SOL     OW18718   1.887   3.263   7.321  0.4522 -0.3816 -0.0739
 2420SOL    HW118719   1.959   3.317   7.289  3.2390 -3.4983  0.9383
 2420SOL    HW218720   1.922   3.175   7.310 -0.2262 -0.7220  0.4658
 2421SOL     OW18721   3.503   4.107   5.297  0.4482  0.0101  0.7941
 2421SOL    HW118722   3.521   4.020   5.263 -0.0029 -0.6241  2.1808
 2421SOL    HW218723   3.505   4.163   5.219  2.1259 -4.1460 -2.1246
 2422SOL     OW18724   1.727   0.370   5.679  0.4120 -0.0203 -0.2251
 2422SOL    HW118725   1.812   0.403   5.710  0.0165 -0.4107  1.2688
 2422SOL    HW218726   1.751   0.310   5.607 -0.4372 -0.6608  0.0242
 2423SOL     OW18727   3.155   3.445  16.765 -0.4783  0.1016  0.2118
 2423SOL    HW118728   3.144   3.418  16.855 -3.1085  1.4283  0.2674
 2423SOL    HW218729   3.126   3.535  16.779  1.6465  0.4912  2.2003
 2424SOL     OW18730   1.856   2.922   1.236 -0.2985  0.2413 -0.1739
 2424SOL    HW118731   1.890   2.833   1.233  1.0199  0.7276  0.0793
 2424SOL    HW218732   1.938   2.964   1.262 -0.2190 -1.0741  1.6643
 2425SOL     OW18733   3.874   1.634   9.197 -0.0147 -0.1047 -0.2031
 2425SOL    HW118734   3.935   1.633   9.271  1.6483 -1.4325 -1.5861
 2425SOL    HW218735   3.872   1.539   9.184 -2.1834 -0.0553 -0.1242
 2426SOL     OW18736   1.050   2.320   2.344  0.2399  0.2478 -0.0535
 2426SOL    HW118737   1.128   2.319   2.401  0.2969 -2.2291 -0.1946
 2426SOL    HW218738   0.991   2.272   2.402 -1.3832 -0.0600 -1.9986
 2427SOL     OW18739   3.477   1.193   5.657  0.2812 -0.0774 -0.5862
 2427SOL    HW118740   3.491   1.287   5.642 -0.9172  0.2998  0.7596
 2427SOL    HW218741   3.532   1.185   5.735 -0.6610 -0.8717 -0.0209
 2428SOL     OW18742   4.324   2.332   8.168 -0.6460  0.0941 -0.0527
 2428SOL    HW118743   4.351   2.346   8.078  2.4902 -1.0852  0.7180
 2428SOL    HW218744   4.314   2.420   8.203  0.1557  1.1564 -2.5238
 2429SOL     OW18745   0.198   2.060  17.011 -0.4644  0.0714 -0.1231
 2429SOL    HW118746   0.242   2.131  16.963 -0.0954 -1.4217 -1.9951
 2429SOL    HW218747   0.215   1.984  16.955 -0.5219 -2.4547  3.2838
 2430SOL     OW18748   0.211   1.755   9.854  0.0443 -0.2038  0.2635
 2430SOL    HW118749   0.131   1.775   9.804 -0.0182  1.0048  0.8292
 2430SOL    HW218750   0.277   1.782   9.790 -0.4154  1.4502  0.4648
 2431SOL     OW18751   2.669   1.277   0.555 -0.0766  0.4478 -0.5033
 2431SOL    HW118752   2.576   1.254   0.557  0.0953 -0.2477 -0.4906
 2431SOL    HW218753   2.677   1.302   0.647  0.2901 -1.3586 -0.0431
 2432SOL     OW18754   0.445   0.631   9.192  0.0134 -0.1117 -0.0298
 2432SOL    HW118755   0.372   0.669   9.143 -1.7026 -2.2318  0.8682
 2432SOL    HW218756   0.516   0.682   9.153 -1.0373  0.4265 -1.2308
 2433SOL     OW18757   2.718   0.984   8.740 -0.2259 -0.0547  0.3501
 2433SOL    HW118758   2.677   0.960   8.823  1.4042 -0.9713  0.8793
 2433SOL    HW218759   2.754   1.070   8.758 -0.0374  0.0479 -0.4882
 2434SOL     OW18760   4.067   3.576   8.721 -0.1150 -0.0532 -0.3645
 2434SOL    HW118761   3.996   3.512   8.725 -2.3515  2.2756 -2.6093
 2434SOL    HW218762   4.144   3.524   8.742 -0.9257 -0.8424  0.6617
 2435SOL     OW18763   2.306   4.154  10.002  0.6120  0.2235  0.0370
 2435SOL    HW118764   2.390   4.108   9.995  0.8156  0.6123 -0.0934
 2435SOL    HW218765   2.272   4.164   9.913  2.6877  2.2980 -0.5398
 2436SOL     OW18766   2.752   2.772   6.030  0.5256  0.0112 -0.4335
 2436SOL    HW118767   2.781   2.827   5.957 -1.4770  0.8510 -0.6102
 2436SOL    HW218768   2.665   2.809   6.045  1.3790  1.0453  1.7612
 2437SOL     OW18769   0.021   1.610   2.915  0.2526 -0.0139  0.2193
 2437SOL    HW118770   4.669   1.658   2.880 -1.2338 -2.0168  0.6639
 2437SOL    HW218771   4.711   1.521   2.902 -1.7402  0.6556  0.6738
 2438SOL     OW18772   3.924   1.919   5.218  0.0252  0.3312  0.0512
 2438SOL    HW118773   3.851   1.964   5.175  1.1117  2.9318  0.8809
 2438SOL    HW218774   3.927   1.959   5.305 -2.5858  1.8490 -0.5409
 2439SOL     OW18775   3.175   2.761   3.808 -0.7155 -0.5113  0.1515
 2439SOL    HW118776   3.098   2.781   3.754 -1.8235 -0.7905  1.6124
 2439SOL    HW218777   3.174   2.665   3.816 -1.7458 -0.7428 -2.4736
 2440SOL     OW18778   3.029   1.135   3.743 -0.2868  0.3873  0.2132
 2440SOL    HW118779   2.966   1.154   3.814  1.7672  1.8034  1.6676
 2440SOL    HW218780   2.996   1.054   3.704  3.7580 -0.6272 -1.0013
 2441SOL     OW18781   4.139   0.948   8.035  0.5684  0.5855  0.2990
 2441SOL    HW118782   4.132   1.023   8.094 -0.2866 -0.0785  1.0301
 2441SOL    HW218783   4.123   0.867   8.083 -1.2850  0.6833 -0.1344
 2442SOL     OW18784   3.683   1.165   1.245 -0.0112 -0.1850 -0.8920
 2442SOL    HW118785   3.652   1.089   1.294  1.6738 -0.7634 -0.7286
 2442SOL    HW218786   3.624   1.228   1.287  1.8373  1.4640 -0.7661
 2443SOL     OW18787   3.604   0.901  16.088  0.3564  0.5499 -0.1513
 2443SOL    HW118788   3.617   0.994  16.103 -1.1486  0.5889  0.9178
 2443SOL    HW218789   3.644   0.900  16.001 -1.6702  0.6762 -1.0860
 2444SOL     OW18790   3.652   4.243   6.579  0.1529 -0.0012  0.0304
 2444SOL    HW118791   3.726   4.258   6.521  0.1323  0.6486  0.1710
 2444SOL    HW218792   3.684   4.264   6.667 -2.5067 -0.4466  1.1034
 2445SOL     OW18793   0.311   0.400   4.687 -0.4031  0.1396 -0.2470
 2445SOL    HW118794   0.264   0.317   4.696 -0.3251  0.3408  1.9302
 2445SOL    HW218795   0.341   0.385   4.597 -0.3168  1.3092 -0.4159
 2446SOL     OW18796   2.689   1.005   8.160 -0.0425  0.4681 -0.5228
 2446SOL    HW118797   2.776   1.022   8.125  0.5728  0.2921  0.9032
 2446SOL    HW218798   2.701   1.041   8.248  0.8751  3.1767 -1.7496
 2447SOL     OW18799   0.448   2.351   7.735 -0.1071  0.2117  0.4376
 2447SOL    HW118800   0.451   2.438   7.696  0.7986  0.0095  0.0596
 2447SOL    HW218801   0.510   2.307   7.676 -2.6422  0.7940 -2.6647
 2448SOL     OW18802   3.526   3.394   6.753  0.0027 -0.2042  0.1242
 2448SOL    HW118803   3.432   3.409   6.765  0.0460  2.0919 -2.4696
 2448SOL    HW218804   3.546   3.355   6.838 -0.2237 -0.1009  0.2241
 2449SOL     OW18805   0.879   3.119   5.712  0.4828  0.7520  0.2576
 2449SOL    HW118806   0.863   3.083   5.799 -1.8324  0.0160 -0.4714
 2449SOL    HW218807   0.806   3.088   5.659  0.7208 -1.3026  1.1331
 2450SOL     OW18808   1.117   2.495   1.941 -0.2934 -0.2847 -0.7154
 2450SOL    HW118809   1.046   2.548   1.905  0.6511 -0.2771 -2.5889
 2450SOL    HW218810   1.197   2.537   1.908  0.7205 -1.2345  0.5128
 2451SOL     OW18811   3.661   3.623  13.114  0.3691  0.3377 -0.1494
 2451SOL    HW118812   3.637   3.607  13.022  0.2578  0.8244 -0.2050
 2451SOL    HW218813   3.633   3.713  13.129 -0.2258  0.0310  0.5413
 2452SOL     OW18814   1.144   2.817   2.088  0.3348  0.1636  0.2065
 2452SOL    HW118815   1.072   2.759   2.110  0.9764  0.0740  2.0559
 2452SOL    HW218816   1.154   2.871   2.167 -2.7164  1.7757 -0.5161
 2453SOL     OW18817   4.452   1.966  15.599  0.5953  0.4986 -0.3920
 2453SOL    HW118818   4.398   1.978  15.520 -0.3029 -0.2514  0.1037
 2453SOL    HW218819   4.526   2.021  15.573  1.1091  0.6384  1.4111
 2454SOL     OW18820   1.513   0.824   4.359 -0.0507 -0.4211 -0.1401
 2454SOL    HW118821   1.476   0.827   4.447  0.7511  2.7701  0.1024
 2454SOL    HW218822   1.480   0.908   4.326 -0.7108  0.7155  3.4292
 2455SOL     OW18823   1.205   2.174  17.261  0.1255 -0.3938  0.2641
 2455SOL    HW118824   1.138   2.218  17.314  1.6591  1.1535  0.9193
 2455SOL    HW218825   1.191   2.088  17.301  1.7012 -1.0473 -0.6228
 2456SOL     OW18826   4.097   4.504  12.912  0.0136 -0.3017  0.3093
 2456SOL    HW118827   4.181   4.478  12.949 -0.8584 -1.6599  1.3326
 2456SOL    HW218828   4.113   4.489  12.819 -0.0464  0.9771  0.1047
 2457SOL     OW18829   3.392   2.967   4.808  0.1848 -0.0209 -0.2947
 2457SOL    HW118830   3.396   2.947   4.902 -1.2179  0.5007 -0.1335
 2457SOL    HW218831   3.486   2.964   4.788  0.6603 -1.1613  2.0364
 2458SOL     OW18832   0.813   3.097   6.832 -0.8857  0.0172 -0.4510
 2458SOL    HW118833   0.817   3.078   6.739 -0.6529  1.2378 -0.6813
 2458SOL    HW218834   0.736   3.043   6.852 -0.4780 -1.4479 -2.9783
 2459SOL     OW18835   4.496   1.267   1.607  0.3697  0.7672  0.0418
 2459SOL    HW118836   4.514   1.238   1.697 -0.7848 -0.8365 -0.2413
 2459SOL    HW218837   4.514   1.361   1.607  0.4884  0.7449 -0.2264
 2460SOL     OW18838   3.358   4.688  15.757 -0.0668  0.1029 -0.3325
 2460SOL    HW118839   3.401   4.605  15.781 -1.8406 -0.2907  1.4620
 2460SOL    HW218840   3.427   0.031  15.756 -1.3487  1.4231 -0.7311
 2461SOL     OW18841   1.106   3.767  11.676 -0.4413 -0.0890 -0.1718
 2461SOL    HW118842   1.109   3.838  11.740  0.3462  0.1571 -0.4795
 2461SOL    HW218843   1.166   3.797  11.607  0.0255 -0.7369 -0.0429
 2462SOL     OW18844   2.698   2.447   7.216 -0.2903 -0.0226  0.3133
 2462SOL    HW118845   2.746   2.518   7.258  2.0370 -0.8456 -0.9004
 2462SOL    HW218846   2.607   2.467   7.237  0.1044  0.8568  1.1740
 2463SOL     OW18847   4.493   0.570   7.113  0.1310  0.2501 -0.1017
 2463SOL    HW118848   4.497   0.620   7.031 -0.7389  1.5357  0.6382
 2463SOL    HW218849   4.564   0.622   7.151 -0.2786  1.5079 -1.0424
 2464SOL     OW18850   0.792   4.343   1.570  0.4472 -0.0175 -0.4577
 2464SOL    HW118851   0.854   4.351   1.643  0.7594 -1.2866 -0.5900
 2464SOL    HW218852   0.861   4.342   1.503  0.5611 -1.0611 -0.3208
 2465SOL     OW18853   2.307   0.336  11.017 -0.0077 -0.3952  0.3391
 2465SOL    HW118854   2.336   0.314  11.106  0.5224 -0.2085  0.2116
 2465SOL    HW218855   2.213   0.325  11.036 -0.4974 -2.3681 -3.2248
 2466SOL     OW18856   2.742   2.600   9.207 -0.1111  0.3156 -0.3577
 2466SOL    HW118857   2.738   2.613   9.302  0.1757 -0.9027 -0.1762
 2466SOL    HW218858   2.684   2.667   9.171 -3.2791 -0.8169  2.6743
 2467SOL     OW18859   3.019   4.205   6.317 -0.0612  0.0607 -0.4583
 2467SOL    HW118860   3.006   4.119   6.279  1.4184 -0.7850  0.9450
 2467SOL    HW218861   3.103   4.180   6.355 -0.2545 -0.6837 -0.5210
 2468SOL     OW18862   1.356   0.202   4.482  0.4938  0.6504 -0.5164
 2468SOL    HW118863   1.363   0.162   4.395  1.5093  0.1355 -0.1990
 2468SOL    HW218864   1.447   0.218   4.509  0.3621  1.6368 -0.6938
 2469SOL     OW18865   0.899   1.754   6.882 -0.2325  0.2546 -0.1297
 2469SOL    HW118866   0.858   1.724   6.801 -1.6255 -1.1774  1.1141
 2469SOL    HW218867   0.927   1.843   6.858  0.1304  0.3602  0.6907
 2470SOL     OW18868   2.571   0.303   5.487  0.2808 -0.4841 -0.5020
 2470SOL    HW118869   2.625   0.370   5.443  1.1034  0.1809  1.5049
 2470SOL    HW218870   2.523   0.358   5.549  0.0909  1.8481 -2.7268
 2471SOL     OW18871   1.846   4.648   2.227 -0.4678 -0.4323  0.7843
 2471SOL    HW118872   1.914   4.580   2.228 -0.5131 -0.4857 -0.0542
 2471SOL    HW218873   1.899   0.003   2.243  1.7690 -2.0739  1.3772
 2472SOL     OW18874   1.035   3.948   5.730  0.2320 -0.2523  0.8092
 2472SOL    HW118875   1.042   3.920   5.639 -2.4786 -0.5352  0.6890
 2472SOL    HW218876   1.104   3.894   5.770  1.2083  0.1629 -0.3210
 2473SOL     OW18877   0.478   3.969   8.277 -0.6591  0.4897  0.0182
 2473SOL    HW118878   0.522   3.885   8.285  1.0475  1.2824 -1.0622
 2473SOL    HW218879   0.383   3.956   8.272 -0.6208  1.4221 -3.2830
 2474SOL     OW18880   2.634   1.275   8.437  0.4425  0.3501  0.4992
 2474SOL    HW118881   2.599   1.333   8.505  1.1656  0.4689  0.7628
 2474SOL    HW218882   2.554   1.252   8.390  0.7227  1.4541 -0.5182
 2475SOL     OW18883   2.453   2.450   5.497  0.6725  0.3679 -0.1994
 2475SOL    HW118884   2.457   2.365   5.540  1.4759  0.2121 -0.5896
 2475SOL    HW218885   2.359   2.468   5.486  1.1130  2.1135 -1.1226
 2476SOL     OW18886   2.171   0.174   3.341  0.0258 -0.0568 -0.0925
 2476SOL    HW118887   2.154   0.255   3.389  0.0696  0.7161 -1.3920
 2476SOL    HW218888   2.213   0.214   3.266  0.1397 -1.3894 -0.7349
 2477SOL     OW18889   1.423   1.523   5.132 -0.1449 -0.5801  0.4049
 2477SOL    HW118890   1.347   1.540   5.186  0.9288 -0.7552  1.9676
 2477SOL    HW218891   1.398   1.562   5.048  0.1519 -0.0593  0.5520
 2478SOL     OW18892   1.433   0.617   7.396  0.3851 -0.3877  0.5651
 2478SOL    HW118893   1.404   0.659   7.315 -1.1901  0.5367  1.6056
 2478SOL    HW218894   1.433   0.522   7.380  1.8761 -0.5432  1.4683
 2479SOL     OW18895   1.734   2.322   1.036  0.2050 -0.0116  0.0529
 2479SOL    HW118896   1.771   2.406   1.011  0.7874 -0.9115 -2.1415
 2479SOL    HW218897   1.801   2.266   0.997 -0.5487  0.5986 -2.1104
 2480SOL     OW18898   4.173   2.275   7.858 -0.4835 -0.0520 -0.1179
 2480SOL    HW118899   4.121   2.354   7.841 -0.4662 -0.1695 -0.7077
 2480SOL    HW218900   4.243   2.272   7.793  1.0238 -0.6998  1.5285
 2481SOL     OW18901   3.555   1.623   0.035  0.4899 -0.4986  0.2461
 2481SOL    HW118902   3.573   1.557   0.102 -0.0148  0.3933  1.2666
 2481SOL    HW218903   3.517   1.685   0.098  0.0474 -2.1643  1.6114
 2482SOL     OW18904   4.326   2.646  16.407  0.1910  0.0006  0.3067
 2482SOL    HW118905   4.362   2.703  16.476  1.0419 -0.6422  0.3952
 2482SOL    HW218906   4.399   2.654  16.345  0.8884  0.9815  1.2575
 2483SOL     OW18907   1.196   2.670   3.540  0.2725  0.0036 -0.2324
 2483SOL    HW118908   1.170   2.633   3.625  0.8783  0.1845  0.0283
 2483SOL    HW218909   1.115   2.649   3.493  0.1315 -2.1289  0.9581
 2484SOL     OW18910   0.656   1.124   7.545  0.1781  0.6588  0.4546
 2484SOL    HW118911   0.698   1.172   7.473 -1.5837 -1.6381 -2.1412
 2484SOL    HW218912   0.566   1.157   7.549 -0.7025 -1.7548  0.6008
 2485SOL     OW18913   1.885   0.675   6.640  0.8914 -0.0667 -0.3364
 2485SOL    HW118914   1.905   0.584   6.660 -0.6856 -0.7824 -2.0486
 2485SOL    HW218915   1.790   0.674   6.650  0.9941  2.1895  0.8242
 2486SOL     OW18916   3.064   0.490   7.041  0.3575  0.8499  0.3303
 2486SOL    HW118917   3.102   0.574   7.014  1.4725  0.8518  1.9578
 2486SOL    HW218918   2.979   0.520   7.072  0.0141 -0.0389  0.2511
 2487SOL     OW18919   0.714   3.068   7.830 -0.2282 -0.0071  0.1178
 2487SOL    HW118920   0.628   3.109   7.837 -0.3168 -0.0644 -0.6500
 2487SOL    HW218921   0.770   3.121   7.886 -2.7893 -0.2647  2.9309
 2488SOL     OW18922   2.116   4.574   6.644  0.6345  0.4573  0.4081
 2488SOL    HW118923   2.180   4.543   6.708 -1.3931 -0.9298  1.7727
 2488SOL    HW218924   2.061   4.499   6.622  0.8682  0.0730  1.1270
 2489SOL     OW18925   2.015   2.973   7.322 -0.3634 -0.0354 -1.0621
 2489SOL    HW118926   1.965   2.915   7.379  0.3207  0.0494 -0.3841
 2489SOL    HW218927   1.999   2.937   7.234  0.0980 -0.3683 -1.0101
 2490SOL     OW18928   4.355   0.748   9.722  0.6027 -0.1093  0.3514
 2490SOL    HW118929   4.332   0.802   9.647  2.0842 -0.5317 -0.4047
 2490SOL    HW218930   4.294   0.673   9.717  1.4665 -0.6730 -1.7985
 2491SOL     OW18931   4.375   4.242   3.038  0.3890 -0.2522  0.0125
 2491SOL    HW118932   4.439   4.249   3.109  1.7782  0.5525 -1.3252
 2491SOL    HW218933   4.430   4.274   2.966 -0.5756  0.0036 -0.6215
 2492SOL     OW18934   1.340   0.689   7.138  0.4348 -0.3450 -0.0662
 2492SOL    HW118935   1.398   0.638   7.080  0.9538 -0.2257  0.3540
 2492SOL    HW218936   1.348   0.773   7.094 -0.7537 -0.8714 -1.3104
 2493SOL     OW18937   3.158   0.440   1.970  0.2018  0.5298  0.0958
 2493SOL    HW118938   3.193   0.384   2.039  1.5059  0.6665 -0.4388
 2493SOL    HW218939   3.237   0.443   1.914  1.5038  1.0709  1.9666
 2494SOL     OW18940   4.097   1.539   8.945 -0.1357  0.2507 -0.2017
 2494SOL    HW118941   4.142   1.596   9.006  0.6662  0.9176 -1.4242
 2494SOL    HW218942   4.023   1.590   8.911 -0.2517  0.5475  0.5100
 2495SOL     OW18943   2.188   3.121   9.445  0.2843  0.5142  0.2438
 2495SOL    HW118944   2.275   3.159   9.460  0.0291  1.5049 -0.8050
 2495SOL    HW218945   2.132   3.192   9.475 -2.8405 -2.6929  2.0552
 2496SOL     OW18946   0.904   2.200   3.111  0.3028  0.2612 -0.1475
 2496SOL    HW118947   0.943   2.120   3.074 -1.5575 -1.1511  0.9331
 2496SOL    HW218948   0.947   2.274   3.068  0.2251 -0.1216 -0.8860
 2497SOL     OW18949   2.696   2.759   6.783  0.5362 -0.1534 -0.1728
 2497SOL    HW118950   2.791   2.750   6.778  0.2012 -2.8700 -1.9460
 2497SOL    HW218951   2.658   2.675   6.757  1.5846 -0.4901 -0.6063
 2498SOL     OW18952   0.581   2.794   6.804  0.7661 -0.2268 -0.1787
 2498SOL    HW118953   0.579   2.764   6.713 -1.0878 -0.2944 -0.1162
 2498SOL    HW218954   0.672   2.775   6.826  1.5194  3.1873 -0.2478
 2499SOL     OW18955   1.581   0.090  14.521  0.7216 -0.5306 -0.1591
 2499SOL    HW118956   1.633   0.146  14.464  0.6423 -2.3088 -1.9945
 2499SOL    HW218957   1.620   0.002  14.514 -0.9521 -1.2345 -0.6306
 2500SOL     OW18958   3.859   1.292   8.061 -0.3137 -0.0179 -0.3244
 2500SOL    HW118959   3.783   1.301   8.118 -0.1324 -1.2268  0.1010
 2500SOL    HW218960   3.815   1.336   7.988 -0.5582 -1.7668 -1.2139
 2501SOL     OW18961   0.859   1.533   6.248 -0.6183 -0.1048 -1.0168
 2501SOL    HW118962   0.793   1.494   6.305  1.2861 -0.7283  0.7677
 2501SOL    HW218963   0.804   1.603   6.213 -0.6056 -0.1881 -1.2024
 2502SOL     OW18964   2.059   3.395  14.858 -0.4289 -0.1486 -0.1280
 2502SOL    HW118965   2.004   3.335  14.908 -2.3728  2.1450  0.4589
 2502SOL    HW218966   2.031   3.369  14.771  1.4826 -2.4541 -0.0724
 2503SOL     OW18967   3.410   3.538   5.169  0.0657  0.0898 -0.3587
 2503SOL    HW118968   3.401   3.605   5.237  0.9356  1.2195 -1.3476
 2503SOL    HW218969   3.505   3.544   5.159  0.3108  0.9708  2.5715
 2504SOL     OW18970   3.083   2.411   4.304  0.1177  0.8034  0.1351
 2504SOL    HW118971   3.060   2.416   4.397  0.0248  0.1658  0.1441
 2504SOL    HW218972   3.068   2.504   4.286  1.8776  0.5506 -2.5390
 2505SOL     OW18973   1.304   1.796   5.544 -0.1730  0.8107 -0.4327
 2505SOL    HW118974   1.319   1.708   5.578  0.9796  1.1566 -0.0584
 2505SOL    HW218975   1.377   1.799   5.482 -0.7053 -1.3560 -1.1550
 2506SOL     OW18976   1.314   1.938   6.040  0.1295  0.1088  0.4230
 2506SOL    HW118977   1.375   1.986   6.096 -1.3056 -0.3751  2.4248
 2506SOL    HW218978   1.370   1.861   6.030 -0.8610 -0.2521 -2.3166
 2507SOL     OW18979   3.179   3.775   7.247  0.3105 -0.0756 -0.3699
 2507SOL    HW118980   3.147   3.865   7.237 -0.9314 -0.2994  1.7092
 2507SOL    HW218981   3.208   3.754   7.158 -0.2834 -0.8769 -0.3773
 2508SOL     OW18982   0.390   2.014   2.698  0.5844 -0.9839 -0.0454
 2508SOL    HW118983   0.341   1.937   2.729 -0.2572  0.0058  1.0999
 2508SOL    HW218984   0.433   1.971   2.625  1.2918  0.0945 -0.2562
 2509SOL     OW18985   0.921   0.573  16.290  0.2897 -0.4589  0.4738
 2509SOL    HW118986   0.978   0.519  16.344  0.3259  0.1904  1.0797
 2509SOL    HW218987   0.925   0.653  16.342 -1.1656  1.2670 -2.0622
 2510SOL     OW18988   2.329   4.339  15.197  0.5382 -0.0057 -0.4102
 2510SOL    HW118989   2.237   4.316  15.209  1.0921 -2.4911 -0.9428
 2510SOL    HW218990   2.317   4.434  15.203  0.3864  0.1136 -2.6482
 2511SOL     OW18991   0.914   4.419   7.192  0.0339  0.2649  0.4627
 2511SOL    HW118992   0.905   4.504   7.234  0.2001 -0.1123  1.2491
 2511SOL    HW218993   0.859   4.434   7.115  0.8260 -1.9725 -0.5416
 2512SOL     OW18994   2.655   1.292   5.903  0.4076 -0.2706 -0.3947
 2512SOL    HW118995   2.686   1.229   5.837 -0.4635  0.0656 -1.1360
 2512SOL    HW218996   2.585   1.338   5.857 -0.4734 -0.8933  0.3283
 2513SOL     OW18997   3.961   0.805   4.851 -0.2026 -0.3510  0.4331
 2513SOL    HW118998   4.026   0.873   4.865 -0.5668  0.2555 -0.8590
 2513SOL    HW218999   4.009   0.742   4.798 -0.5259 -2.1644  2.2690
 2514SOL     OW19000   3.499   2.927   1.218 -0.1730 -0.0937  0.2257
 2514SOL    HW119001   3.490   2.956   1.127 -0.9324 -0.6462  0.1226
 2514SOL    HW219002   3.413   2.889   1.237 -0.9973  2.2093  1.0882
 2515SOL     OW19003   0.133   3.497   8.756  0.1788  0.1947 -0.6070
 2515SOL    HW119004   0.224   3.516   8.780 -1.9240  1.6773  6.0073
 2515SOL    HW219005   0.134   3.524   8.664 -0.9903 -2.5408 -1.4373
 2516SOL     OW19006   2.516   0.819   5.566  0.5160 -0.3708 -0.2603
 2516SOL    HW119007   2.562   0.844   5.486  1.5017 -0.8276  0.1709
 2516SOL    HW219008   2.582   0.771   5.615 -0.7866  1.3142  3.1059
 2517SOL     OW19009   4.671   0.254   5.481 -0.2004  0.0884 -0.0456
 2517SOL    HW119010   4.700   0.206   5.403  1.1255 -1.3226  1.3321
 2517SOL    HW219011   4.578   0.265   5.458  0.3329  1.3923 -1.5820
 2518SOL     OW19012   2.012   0.400  11.106 -0.4025 -0.0267  0.6151
 2518SOL    HW119013   1.996   0.361  11.192 -0.1931  0.1232  0.7223
 2518SOL    HW219014   1.984   0.490  11.118  1.1005  0.7283 -1.7007
 2519SOL     OW19015   2.008   0.058  14.864  0.5493  0.6264 -0.4636
 2519SOL    HW119016   1.944   0.007  14.814  1.4802  1.6704 -2.7293
 2519SOL    HW219017   2.094   0.034  14.828  0.3601 -1.0151  0.1590
 2520SOL     OW19018   1.155   3.876  14.524 -0.8505  0.0611  0.1396
 2520SOL    HW119019   1.164   3.959  14.477 -1.5224 -1.2047 -2.2490
 2520SOL    HW219020   1.070   3.848  14.491 -1.5294  0.0044  1.9645
 2521SOL     OW19021   0.232   4.369   6.808  0.2504  0.0930 -0.1741
 2521SOL    HW119022   0.244   4.303   6.740 -2.5266  0.4545 -1.0437
 2521SOL    HW219023   0.178   4.317   6.868 -1.9073  4.5478  1.7203
 2522SOL     OW19024   4.611   2.968  12.722  0.0890  0.6961 -0.2943
 2522SOL    HW119025   4.680   2.998  12.781 -0.3336  0.8469  0.1259
 2522SOL    HW219026   4.644   2.880  12.702 -2.2934 -0.3515  0.2611
 2523SOL     OW19027   1.327   4.246  12.205 -0.3571 -0.5384  0.1578
 2523SOL    HW119028   1.325   4.283  12.293  3.0180 -0.9866  0.3864
 2523SOL    HW219029   1.232   4.234  12.196  0.0728 -2.0435 -2.2901
 2524SOL     OW19030   2.959   4.433   6.775 -0.0404  0.4131 -0.5261
 2524SOL    HW119031   2.952   4.510   6.831  1.8261 -0.0814  0.3640
 2524SOL    HW219032   3.054   4.433   6.763  0.1251  1.9483  0.9326
 2525SOL     OW19033   2.219   1.645   9.810 -0.2532  0.2186  0.2328
 2525SOL    HW119034   2.250   1.734   9.827 -1.7767  0.3130  2.4360
 2525SOL    HW219035   2.295   1.591   9.833 -0.0833  0.1138 -0.5921
 2526SOL     OW19036   4.369   2.611   4.074  0.2022 -0.1116  0.4527
 2526SOL    HW119037   4.277   2.590   4.090 -0.0129 -0.2917 -1.0549
 2526SOL    HW219038   4.399   2.549   4.140  0.8728 -0.6804 -0.4014
 2527SOL     OW19039   3.095   0.371  16.431 -0.2472  0.3009  0.1514
 2527SOL    HW119040   3.001   0.354  16.442 -0.0046 -0.4788  1.0164
 2527SOL    HW219041   3.122   0.338  16.517 -0.8653 -1.4239 -0.3088
 2528SOL     OW19042   4.055   2.129   6.923 -0.2362 -0.0170  0.1421
 2528SOL    HW119043   3.977   2.099   6.876  0.5594 -1.0773 -0.5074
 2528SOL    HW219044   4.093   2.044   6.947  2.5311  0.9835 -0.6702
 2529SOL     OW19045   2.632   0.751   2.341  0.3787 -0.3241 -0.4377
 2529SOL    HW119046   2.633   0.681   2.408  1.2657  0.1189  0.0026
 2529SOL    HW219047   2.716   0.795   2.353  0.2437 -0.0576 -0.4685
 2530SOL     OW19048   4.409   1.964   9.685  0.2303  0.4691 -0.3852
 2530SOL    HW119049   4.371   2.041   9.642 -1.1683 -0.5440 -0.9442
 2530SOL    HW219050   4.367   1.959   9.771  0.8041 -3.0009 -0.3204
 2531SOL     OW19051   2.768   1.025   4.490  0.1671  0.1949  0.0649
 2531SOL    HW119052   2.850   0.993   4.450  0.8497  1.1646  0.6881
 2531SOL    HW219053   2.808   1.071   4.564 -0.6995 -0.2689  0.8259
 2532SOL     OW19054   2.423   1.098   0.591 -0.2820  0.5526 -0.0428
 2532SOL    HW119055   2.367   1.043   0.536 -1.1181  0.0410  1.3208
 2532SOL    HW219056   2.356   1.141   0.643  1.5795  1.6419  1.4480
 2533SOL     OW19057   2.518   3.583   3.388  0.4978  0.1826  0.6189
 2533SOL    HW119058   2.597   3.531   3.374  1.0536  1.1307  0.2337
 2533SOL    HW219059   2.555   3.664   3.422  1.8273  0.7845 -2.2665
 2534SOL     OW19060   2.263   3.502   3.965 -0.7466 -0.5940  0.1907
 2534SOL    HW119061   2.249   3.448   4.043  2.5068  0.3752  1.4447
 2534SOL    HW219062   2.187   3.479   3.911 -0.0143 -2.3794 -0.0703
 2535SOL     OW19063   3.378   3.760   3.427  0.0380  0.5937 -0.0718
 2535SOL    HW119064   3.441   3.693   3.403  0.5691  1.4854 -1.1551
 2535SOL    HW219065   3.414   3.839   3.386 -2.3180  1.6175 -0.1734
 2536SOL     OW19066   4.699   3.424   8.192  0.3106  0.0890  0.1170
 2536SOL    HW119067   4.679   3.486   8.262  0.5803 -0.4179  0.6428
 2536SOL    HW219068   4.632   3.430   8.124  2.1688 -1.3127 -1.8386
 2537SOL     OW19069   3.911   3.762   8.178 -0.3210  1.0352 -0.4301
 2537SOL    HW119070   4.002   3.739   8.159 -1.2378 -2.2916 -0.7147
 2537SOL    HW219071   3.869   3.713   8.108  0.1880 -1.4945  1.0223
 2538SOL     OW19072   3.372   2.838  16.508 -0.4545 -0.0957  1.1419
 2538SOL    HW119073   3.346   2.828  16.416 -0.2614 -1.1126  1.1960
 2538SOL    HW219074   3.414   2.924  16.509 -1.8289  0.6209 -3.0019
 2539SOL     OW19075   1.289   4.597   4.654 -0.2824 -0.2657  0.1321
 2539SOL    HW119076   1.325   4.660   4.716  1.6337  0.6801 -1.9166
 2539SOL    HW219077   1.207   4.638   4.628 -0.0041  0.2984  0.1636
 2540SOL     OW19078   1.376   2.453  16.010 -0.3319  0.2149 -0.2192
 2540SOL    HW119079   1.363   2.400  15.931 -1.2161 -0.0101  0.0820
 2540SOL    HW219080   1.297   2.507  16.004  1.0432  2.1156 -1.3542
 2541SOL     OW19081   4.000   4.077   7.620  0.0038 -0.1798 -0.0856
 2541SOL    HW119082   3.953   3.996   7.638 -1.0021  0.5442  0.4878
 2541SOL    HW219083   4.008   4.063   7.526 -2.7348 -2.2187  0.0025
 2542SOL     OW19084   1.378   0.136   6.464  0.2126 -0.0021 -0.0165
 2542SOL    HW119085   1.389   0.067   6.530 -1.6416  0.4505  0.7614
 2542SOL    HW219086   1.349   0.085   6.389 -0.4546 -0.3629  0.4845
 2543SOL     OW19087   2.152   3.032   6.851 -0.5717 -0.2822 -0.3022
 2543SOL    HW119088   2.155   2.958   6.791  0.9183 -0.0715 -0.4803
 2543SOL    HW219089   2.211   3.005   6.920 -0.5444 -1.3342 -0.7422
 2544SOL     OW19090   2.064   3.636   2.210 -0.0343 -0.1808 -0.3941
 2544SOL    HW119091   2.051   3.591   2.294 -0.9648 -0.6048 -0.7762
 2544SOL    HW219092   2.121   3.577   2.160 -0.4403 -0.1490 -0.8893
 2545SOL     OW19093   2.240   4.233  14.094  0.2840 -0.5643 -0.1765
 2545SOL    HW119094   2.230   4.146  14.055 -2.0083 -1.5733  2.6994
 2545SOL    HW219095   2.257   4.211  14.185 -1.4012 -1.6817 -0.1315
 2546SOL     OW19096   0.145   3.630   0.944  0.2726  0.3533  0.4332
 2546SOL    HW119097   0.080   3.615   1.013 -0.6781 -0.4218 -0.6220
 2546SOL    HW219098   0.208   3.559   0.961  0.2284  0.7459  2.1990
 2547SOL     OW19099   3.581   2.507  16.538 -0.2960 -0.0242 -0.6124
 2547SOL    HW119100   3.558   2.599  16.546  1.4189  0.4847 -1.4200
 2547SOL    HW219101   3.651   2.496  16.602 -1.7190  0.2135  0.9927
 2548SOL     OW19102   4.007   0.539  16.972 -0.2347  0.1518 -0.2600
 2548SOL    HW119103   3.915   0.543  16.947  0.2008 -0.4639 -1.9609
 2548SOL    HW219104   4.043   0.577  16.892  0.1370 -0.3684 -0.3415
 2549SOL     OW19105   1.682   0.817   5.248  0.0124  0.3864 -0.3236
 2549SOL    HW119106   1.708   0.726   5.262 -1.4519 -0.0116 -0.1656
 2549SOL    HW219107   1.768   0.856   5.236  0.8097 -1.8348 -1.7028
 2550SOL     OW19108   4.016   1.569   6.474  0.1208 -0.3350 -0.1512
 2550SOL    HW119109   4.097   1.548   6.520  0.4439  0.5388 -0.3256
 2550SOL    HW219110   3.960   1.501   6.513 -1.7184  2.0517  1.3973
 2551SOL     OW19111   2.755   3.903   7.073 -0.1925  0.4245  0.1390
 2551SOL    HW119112   2.837   3.943   7.101  0.6464 -1.1749 -0.0037
 2551SOL    HW219113   2.765   3.892   6.979 -3.4663  1.6063 -0.3557
 2552SOL     OW19114   0.786   3.258   8.225 -0.0551 -0.2889  0.0511
 2552SOL    HW119115   0.829   3.220   8.302  1.1949 -0.7260 -0.8410
 2552SOL    HW219116   0.711   3.199   8.217 -0.4857  0.3094 -0.3432
 2553SOL     OW19117   4.161   4.415   7.634 -0.3380  0.3417  0.1482
 2553SOL    HW119118   4.201   4.329   7.617  1.1471  0.5153  2.7168
 2553SOL    HW219119   4.165   4.462   7.551  1.2730  2.2834  1.3288
 2554SOL     OW19120   3.388   2.168   3.032 -0.2478  0.1739  0.8683
 2554SOL    HW119121   3.340   2.219   2.967 -0.1354  0.8908  1.3441
 2554SOL    HW219122   3.344   2.082   3.029  0.8034 -0.3174 -0.0475
 2555SOL     OW19123   0.246   2.607  11.378  0.3885 -0.1285  0.3153
 2555SOL    HW119124   0.190   2.546  11.329  0.0651  1.4958 -1.3519
 2555SOL    HW219125   0.257   2.678  11.315  3.3848 -0.2112  0.7480
 2556SOL     OW19126   3.701   4.315   2.373 -0.1263  0.2437  0.1009
 2556SOL    HW119127   3.785   4.353   2.347 -0.2189  0.3115 -0.1028
 2556SOL    HW219128   3.704   4.285   2.464  0.2446  0.9687  0.3273
 2557SOL     OW19129   3.234   1.685   8.450  0.1899  0.1803  0.0747
 2557SOL    HW119130   3.178   1.727   8.516 -0.9845  0.2502 -0.9571
 2557SOL    HW219131   3.319   1.692   8.494  0.2711 -0.4225  0.0156
 2558SOL     OW19132   0.126   3.184   7.352 -0.1561  0.7021  0.4560
 2558SOL    HW119133   0.125   3.248   7.423  1.5568  2.0789 -0.7667
 2558SOL    HW219134   0.065   3.119   7.388 -1.6766  1.8203 -0.1195
 2559SOL     OW19135   2.542   0.996  11.519  0.5749  0.1184 -0.4747
 2559SOL    HW119136   2.584   0.996  11.433 -0.0031  0.0214 -0.7616
 2559SOL    HW219137   2.618   0.982  11.576 -0.1297 -0.6720  0.2794
 2560SOL     OW19138   4.519   3.251   8.711 -0.2281 -0.1867 -0.1554
 2560SOL    HW119139   4.444   3.292   8.667 -0.4070 -1.3142 -0.9043
 2560SOL    HW219140   4.480   3.187   8.771 -1.9501  1.0126  0.0194
 2561SOL     OW19141   1.502   2.684   0.836  0.1338  0.5984 -0.1310
 2561SOL    HW119142   1.450   2.609   0.864  0.5420 -0.8698 -3.2745
 2561SOL    HW219143   1.547   2.642   0.763  1.5372  3.7943 -1.1193
 2562SOL     OW19144   0.057   3.463   7.047  0.0447  0.3169 -0.1110
 2562SOL    HW119145   0.064   3.545   6.999  1.0882  0.8420  0.9343
 2562SOL    HW219146   4.701   3.475   7.100  1.7645 -2.2676  3.0925
 2563SOL     OW19147   4.590   2.362   9.920 -0.3914  0.1914  0.1025
 2563SOL    HW119148   4.629   2.449   9.915  1.1098 -0.3603  2.1922
 2563SOL    HW219149   4.647   2.324   9.987  1.3546  2.3825 -0.1478
 2564SOL     OW19150   1.419   3.175   1.734  0.4421 -0.9840  0.6787
 2564SOL    HW119151   1.383   3.182   1.822 -0.9100  0.5769  0.0046
 2564SOL    HW219152   1.485   3.108   1.751 -0.0366 -1.0833  2.1317
 2565SOL     OW19153   1.822   1.845   2.308 -0.3384  0.1872 -0.1605
 2565SOL    HW119154   1.862   1.757   2.310 -0.6809  0.0566  1.2960
 2565SOL    HW219155   1.736   1.820   2.275 -0.9174  1.7862  0.1821
 2566SOL     OW19156   2.069   2.524   3.199 -0.2191  0.1360 -0.1455
 2566SOL    HW119157   2.051   2.486   3.285 -1.2888 -2.1053 -1.3586
 2566SOL    HW219158   2.148   2.474   3.178  0.0921  0.4829  0.1924
 2567SOL     OW19159   0.098   1.345   4.356  0.5257  0.1410 -0.2909
 2567SOL    HW119160   0.175   1.352   4.300  0.1632 -0.4863 -0.8758
 2567SOL    HW219161   0.141   1.325   4.439  0.5583  1.2273 -0.0478
 2568SOL     OW19162   2.960   3.703   7.718  0.3735 -0.0886 -0.1819
 2568SOL    HW119163   2.917   3.621   7.693 -1.1704  0.9235 -0.8053
 2568SOL    HW219164   2.994   3.724   7.630  0.1230  0.6429 -0.1017
 2569SOL     OW19165   0.865   0.854   2.632  0.1603  0.1511  0.0594
 2569SOL    HW119166   0.956   0.876   2.615 -0.4926  2.1578 -0.7225
 2569SOL    HW219167   0.874   0.792   2.705 -2.1116  1.2065  1.2590
 2570SOL     OW19168   4.320   2.298   1.007 -0.0438 -0.3046  0.0239
 2570SOL    HW119169   4.326   2.304   1.102  0.5361 -0.8693  0.0236
 2570SOL    HW219170   4.320   2.211   0.966 -2.8077  0.0364 -0.6835
 2571SOL     OW19171   1.231   0.776  13.383  0.0219  0.4450 -0.7003
 2571SOL    HW119172   1.227   0.788  13.289  0.9064  1.3933 -0.6198
 2571SOL    HW219173   1.144   0.799  13.417 -0.0581  0.1415 -0.6996
 2572SOL     OW19174   4.475   2.656  17.476 -0.1115 -0.4137 -0.5107
 2572SOL    HW119175   4.381   2.648  17.460 -0.2647  0.4540 -0.0830
 2572SOL    HW219176   4.492   2.727  17.414 -1.1112  0.3784  0.1063
 2573SOL     OW19177   1.856   4.473   6.687  0.3495 -0.3301 -0.2779
 2573SOL    HW119178   1.769   4.509   6.705  0.2981 -1.4347  1.6951
 2573SOL    HW219179   1.886   4.456   6.776  2.7072 -0.0397 -1.0319
 2574SOL     OW19180   4.441   1.412   2.462  0.1082 -0.4372 -0.0242
 2574SOL    HW119181   4.518   1.379   2.508  0.2184 -2.9364 -2.0488
 2574SOL    HW219182   4.370   1.379   2.518 -0.9885 -1.2173 -1.8976
 2575SOL     OW19183   3.800   3.720   0.958  0.1558 -0.1244  0.3723
 2575SOL    HW119184   3.865   3.765   1.012 -0.5005  0.5780  0.5720
 2575SOL    HW219185   3.761   3.661   1.022  0.2642 -2.1546 -1.3994
 2576SOL     OW19186   0.793   3.437  10.799 -0.1058 -0.2870  0.5630
 2576SOL    HW119187   0.885   3.415  10.815 -0.2593 -0.1144  1.7036
 2576SOL    HW219188   0.804   3.493  10.723 -2.8752 -2.0199 -1.1582
 2577SOL     OW19189   2.919   0.606   1.934 -0.2563  0.3477 -0.4540
 2577SOL    HW119190   2.981   0.532   1.935 -0.9361 -0.2431 -1.3687
 2577SOL    HW219191   2.970   0.684   1.910 -1.1490  0.6371 -1.3916
 2578SOL     OW19192   2.437   2.576   5.267 -0.2330  0.0919  0.8582
 2578SOL    HW119193   2.357   2.555   5.219  1.1139 -1.0003 -0.9384
 2578SOL    HW219194   2.433   2.522   5.345 -0.9049 -1.6027 -0.3318
 2579SOL     OW19195   0.073   4.087   4.130 -0.0700  0.6364  0.3779
 2579SOL    HW119196   0.002   4.058   4.186 -0.0196  0.3815  0.3083
 2579SOL    HW219197   0.125   4.008   4.117 -2.0801 -0.8096  1.2993
 2580SOL     OW19198   4.175   2.400   0.669  0.1467  0.7834 -0.6097
 2580SOL    HW119199   4.178   2.443   0.584 -1.6383 -0.1111 -1.1275
 2580SOL    HW219200   4.204   2.315   0.635  0.1571  0.8555 -0.7764
 2581SOL     OW19201   0.702   4.124  10.754  0.0686  0.7402 -0.1884
 2581SOL    HW119202   0.679   4.134  10.661 -0.5677  0.9665 -0.0037
 2581SOL    HW219203   0.797   4.123  10.738  0.3960  3.0651  1.6240
 2582SOL     OW19204   4.307   4.673  13.236  1.0263  0.1080  0.4749
 2582SOL    HW119205   4.236   4.635  13.288  1.1129 -1.2302 -0.3678
 2582SOL    HW219206   4.318   4.602  13.172  0.0025  0.7297 -0.3999
 2583SOL     OW19207   2.910   0.017   2.809  0.3983  0.1955  0.0882
 2583SOL    HW119208   2.922   0.110   2.791  0.6947  0.2508  0.5708
 2583SOL    HW219209   2.862   0.006   2.890 -1.0091  0.8167 -0.6702
 2584SOL     OW19210   1.189   4.504   9.721  0.7164 -0.5560  0.1796
 2584SOL    HW119211   1.136   4.473   9.794 -0.8971  1.2539 -0.2170
 2584SOL    HW219212   1.147   4.590   9.716  0.8121 -0.5420 -0.3761
 2585SOL     OW19213   1.989   2.271   7.027  0.4552  0.0203  0.1703
 2585SOL    HW119214   2.006   2.188   7.072  1.9387  0.1624 -0.1358
 2585SOL    HW219215   2.051   2.334   7.064 -0.6605  0.4422  1.3348
 2586SOL     OW19216   0.781   4.395   6.108 -0.2975  0.4133  0.1769
 2586SOL    HW119217   0.763   4.317   6.161  0.1294 -0.7913 -1.4198
 2586SOL    HW219218   0.762   4.361   6.020 -0.6950 -0.0614  0.4472
 2587SOL     OW19219   1.295   0.491   6.773  0.2124  0.3365 -0.0113
 2587SOL    HW119220   1.316   0.456   6.686 -0.4817  1.6520 -0.7204
 2587SOL    HW219221   1.266   0.581   6.758  0.5197  0.5240  0.5374
 2588SOL     OW19222   0.903   0.421   4.469  0.1860 -0.4823 -0.2114
 2588SOL    HW119223   0.993   0.419   4.503  0.5376  0.6028 -1.0975
 2588SOL    HW219224   0.867   0.341   4.509 -2.0936  0.3238 -0.7064
 2589SOL     OW19225   2.692   1.526   2.344  0.1338  0.8259  0.4662
 2589SOL    HW119226   2.686   1.511   2.250 -2.2745 -0.3607  0.8265
 2589SOL    HW219227   2.607   1.568   2.353  0.1713  1.2816 -1.2480
 2590SOL     OW19228   0.499   4.001   5.101 -0.3830  0.0505 -0.4011
 2590SOL    HW119229   0.504   4.064   5.029 -1.4108  1.3157  0.6122
 2590SOL    HW219230   0.421   3.952   5.074 -0.2998 -0.3456  0.0809
 2591SOL     OW19231   2.174   2.169   9.627  0.4890  0.3951  1.0468
 2591SOL    HW119232   2.161   2.237   9.560 -0.3510 -1.5215 -0.7210
 2591SOL    HW219233   2.082   2.153   9.648  0.1218 -0.0609 -0.8926
 2592SOL     OW19234   1.652   4.520  14.563 -0.0675  0.4295 -0.3285
 2592SOL    HW119235   1.605   4.449  14.605 -0.8761  0.9511 -0.3501
 2592SOL    HW219236   1.676   4.490  14.475 -0.9027 -1.2342  0.0136
 2593SOL     OW19237   3.167   3.834   8.323  0.0579 -0.5387  0.0065
 2593SOL    HW119238   3.226   3.909   8.330 -0.3858 -0.2543  0.6458
 2593SOL    HW219239   3.220   3.766   8.282  1.0641 -0.7701  1.6961
 2594SOL     OW19240   0.874   1.878   5.617 -0.0034 -0.4377  0.0019
 2594SOL    HW119241   0.960   1.899   5.653  0.1387 -1.5828  0.3273
 2594SOL    HW219242   0.874   1.901   5.524  0.1863  2.1719  0.6387
 2595SOL     OW19243   0.041   4.425   6.510 -0.2232 -0.1959  0.9161
 2595SOL    HW119244   4.691   4.433   6.447 -0.0290  0.8946  0.8249
 2595SOL    HW219245   0.079   4.341   6.485 -0.1800 -0.0208  0.3954
 2596SOL     OW19246   1.092   2.265   4.868  0.4192  0.0526  0.7854
 2596SOL    HW119247   1.187   2.260   4.881  0.5545  1.4912  0.2503
 2596SOL    HW219248   1.074   2.358   4.877  2.5357  0.7442 -2.2668
 2597SOL     OW19249   2.365   4.658   2.641 -0.0265 -0.6109  0.8339
 2597SOL    HW119250   2.381   4.654   2.546 -0.7710 -0.4479  0.7065
 2597SOL    HW219251   2.398   0.021   2.668  2.7390 -1.6064  0.6401
 2598SOL     OW19252   2.997   0.473   9.470 -0.0213  0.0296 -0.3649
 2598SOL    HW119253   2.974   0.406   9.534  0.3793  1.2529  1.0574
 2598SOL    HW219254   3.090   0.463   9.487  0.0395  0.6746 -0.2892
 2599SOL     OW19255   1.907   2.679   5.906  0.2556  0.3040 -0.4788
 2599SOL    HW119256   1.908   2.585   5.891  2.0969  0.1816  0.3658
 2599SOL    HW219257   1.964   2.685   5.982  1.5999  1.5435 -1.5777
 2600SOL     OW19258   0.466   0.860   0.645  0.0716 -0.0659  0.7303
 2600SOL    HW119259   0.541   0.859   0.585 -2.4927  0.4840 -2.4392
 2600SOL    HW219260   0.515   0.877   0.726  0.5415  0.0779  0.4206
 2601SOL     OW19261   3.427   3.845   2.950  0.4394 -1.1367  0.2896
 2601SOL    HW119262   3.512   3.802   2.937  0.5189 -1.0335  0.4765
 2601SOL    HW219263   3.450   3.912   3.014  1.4930 -0.3252 -0.9438
 2602SOL     OW19264   0.579   0.260  16.404 -0.0535 -0.2020  0.0789
 2602SOL    HW119265   0.606   0.297  16.320  3.5860  0.6397  1.6112
 2602SOL    HW219266   0.642   0.189  16.418  0.5870  0.0742 -1.3440
 2603SOL     OW19267   1.571   4.544   7.007 -0.0418  0.0814 -0.0437
 2603SOL    HW119268   1.579   4.608   6.936  1.6284 -1.0152 -0.8552
 2603SOL    HW219269   1.493   4.575   7.054  2.0409  0.8944  2.9038
 2604SOL     OW19270   4.160   3.407  14.189  0.6300 -0.0283  0.5243
 2604SOL    HW119271   4.105   3.478  14.155  0.8604 -0.8597 -1.5173
 2604SOL    HW219272   4.199   3.385  14.105 -0.1058 -0.1251  0.2057
 2605SOL     OW19273   1.845   3.450  16.987  0.4107  0.3127 -0.0783
 2605SOL    HW119274   1.924   3.465  16.935  1.1255 -1.6317  0.4393
 2605SOL    HW219275   1.836   3.529  17.040 -1.3498  0.3122 -0.3676
 2606SOL     OW19276   1.527   3.865  15.406  0.1158  0.1898  0.0744
 2606SOL    HW119277   1.440   3.830  15.386  0.0977  0.8198 -0.9593
 2606SOL    HW219278   1.569   3.850  15.321 -2.9225  1.3211 -1.6420
 2607SOL     OW19279   2.384   2.213   5.601 -0.2403  0.0665  0.5879
 2607SOL    HW119280   2.311   2.166   5.641  0.6649 -0.5195  1.5468
 2607SOL    HW219281   2.424   2.234   5.685 -1.4244  3.4841  0.3043
 2608SOL     OW19282   1.274   2.176  10.702 -0.2854 -0.3593  0.3479
 2608SOL    HW119283   1.301   2.085  10.702  1.5794  0.1794 -0.5129
 2608SOL    HW219284   1.278   2.188  10.797 -1.8796  0.0318  0.3662
 2609SOL     OW19285   3.426   1.014   8.984 -0.0620  0.0679  0.0248
 2609SOL    HW119286   3.337   1.034   9.012  0.1492  0.3926  0.4513
 2609SOL    HW219287   3.458   0.959   9.055  1.7590 -0.0767 -0.9113
 2610SOL     OW19288   3.525   4.526   8.339  0.2024 -0.5125  0.1974
 2610SOL    HW119289   3.444   4.527   8.389  1.0787 -0.9129  1.6211
 2610SOL    HW219290   3.540   4.432   8.332  3.6438 -0.2080  3.3837
 2611SOL     OW19291   0.306   3.504  13.231  0.9136  0.2581  0.0015
 2611SOL    HW119292   0.365   3.431  13.215  0.1052 -0.2114 -0.7966
 2611SOL    HW219293   0.236   3.477  13.171  0.5170  0.0082  0.5807
 2612SOL     OW19294   1.900   2.646   8.509 -0.3389 -0.1254  0.1376
 2612SOL    HW119295   1.952   2.660   8.430 -0.6885 -0.8231 -0.2154
 2612SOL    HW219296   1.889   2.551   8.506  0.4302 -0.2547  1.7083
 2613SOL     OW19297   0.069   0.251   4.459  0.7237  0.3494  0.3046
 2613SOL    HW119298   0.099   0.200   4.534 -0.6112 -0.1941  0.4735
 2613SOL    HW219299   0.159   0.256   4.429  0.4537  1.9073 -0.2346
 2614SOL     OW19300   3.344   2.671   5.064 -0.3797 -0.6211  0.0927
 2614SOL    HW119301   3.274   2.624   5.018 -0.4268 -1.0409  0.6032
 2614SOL    HW219302   3.321   2.764   5.061 -0.4613 -0.6150  1.1371
 2615SOL     OW19303   0.527   3.176   5.083  0.0285  0.0395  0.4107
 2615SOL    HW119304   0.532   3.269   5.064  1.9879 -0.2849 -0.7148
 2615SOL    HW219305   0.454   3.138   5.034 -0.9137  2.4146 -0.0038
 2616SOL     OW19306   1.633   3.849   2.459 -0.5136 -0.0492 -0.0907
 2616SOL    HW119307   1.717   3.854   2.504 -1.4776 -1.4418  1.8534
 2616SOL    HW219308   1.622   3.941   2.435  0.3620  0.4946  1.5968
 2617SOL     OW19309   1.815   3.198  15.204 -0.0715  0.1893 -0.0200
 2617SOL    HW119310   1.862   3.263  15.257  3.4264 -0.5505 -2.1809
 2617SOL    HW219311   1.729   3.235  15.184 -0.1955 -0.2568 -0.3220
 2618SOL     OW19312   2.658   3.441  14.906  0.2799 -0.7079 -0.2997
 2618SOL    HW119313   2.630   3.358  14.943 -0.0518 -0.3923  0.1561
 2618SOL    HW219314   2.709   3.479  14.978  0.2445  0.1154 -0.7147
 2619SOL     OW19315   0.247   0.708   0.703 -0.2990  0.5179 -0.3977
 2619SOL    HW119316   0.198   0.783   0.737 -0.3061  0.1736  0.3732
 2619SOL    HW219317   0.331   0.752   0.693  1.6503 -2.2040  3.6274
 2620SOL     OW19318   1.660   4.652   4.008  0.0931  0.2900 -0.1894
 2620SOL    HW119319   1.677   4.685   4.096 -2.0467  1.0818 -0.0915
 2620SOL    HW219320   1.573   4.690   3.995 -0.7630 -1.7926 -0.6304
 2621SOL     OW19321   0.113   4.505   3.647 -0.1476 -0.5134  0.2454
 2621SOL    HW119322   0.035   4.550   3.616  1.4311  1.5790 -0.6558
 2621SOL    HW219323   0.161   4.513   3.565 -1.2134 -1.4485 -0.4599
 2622SOL     OW19324   3.645   1.085   4.896  0.1702 -0.2555  0.2205
 2622SOL    HW119325   3.555   1.103   4.870  0.5924 -0.2473 -1.2158
 2622SOL    HW219326   3.677   1.093   4.806  0.1487  2.1666  0.4154
 2623SOL     OW19327   1.858   3.172   4.613  0.4030  0.0103  0.5347
 2623SOL    HW119328   1.785   3.211   4.565 -0.6219 -1.7961  0.6373
 2623SOL    HW219329   1.893   3.244   4.666 -1.7639  1.4970 -0.0455
 2624SOL     OW19330   1.697   3.019   4.778 -0.4268 -0.4287  0.2851
 2624SOL    HW119331   1.751   3.081   4.731 -3.1137  2.9980  1.6993
 2624SOL    HW219332   1.611   3.061   4.773  0.5973  1.7641  1.3025
 2625SOL     OW19333   0.178   2.055   1.406 -0.5637  0.0314  0.3388
 2625SOL    HW119334   0.190   2.025   1.495 -0.3752  2.6266  1.1911
 2625SOL    HW219335   0.232   2.134   1.399 -0.9238  0.1957 -0.6287
 2626SOL     OW19336   4.298   2.597   1.895 -0.8062 -0.7504  0.0751
 2626SOL    HW119337   4.330   2.519   1.941  0.9465  0.4056  0.8142
 2626SOL    HW219338   4.246   2.558   1.824  0.5852 -0.4259 -1.1397
 2627SOL     OW19339   0.346   3.692   1.189  0.1910 -0.2414  1.1379
 2627SOL    HW119340   0.437   3.667   1.178  1.3022  3.6072  1.3638
 2627SOL    HW219341   0.300   3.610   1.202 -1.2976  0.5239  0.7211
 2628SOL     OW19342   1.857   3.273   6.360 -0.2169 -0.0939 -0.3168
 2628SOL    HW119343   1.761   3.266   6.362 -0.1282 -1.6753 -1.4526
 2628SOL    HW219344   1.874   3.306   6.272  1.4287 -1.1715 -0.3957
 2629SOL     OW19345   2.244   1.770  10.097  0.0878 -0.2288  0.4073
 2629SOL    HW119346   2.150   1.755  10.105 -0.2705  1.6134 -0.2442
 2629SOL    HW219347   2.257   1.802  10.008 -0.0948 -2.2182 -0.3163
 2630SOL     OW19348   0.537   1.966  10.250  0.3808  0.0709 -0.1232
 2630SOL    HW119349   0.487   2.023  10.309  2.2699 -0.6559  2.1840
 2630SOL    HW219350   0.505   1.885  10.290 -1.3348 -0.1187 -1.9223
 2631SOL     OW19351   4.429   3.559   8.250  0.0648  0.1480  0.4014
 2631SOL    HW119352   4.439   3.654   8.250  1.2126  0.0382  0.4924
 2631SOL    HW219353   4.369   3.541   8.177 -2.4959  0.8206  2.3610
 2632SOL     OW19354   4.394   0.215   7.765  0.1239 -0.1120  0.5297
 2632SOL    HW119355   4.483   0.197   7.734 -0.1327  1.2934 -1.0680
 2632SOL    HW219356   4.343   0.154   7.711 -1.1151 -1.4276  3.1903
 2633SOL     OW19357   1.865   1.145   4.345  0.5187  0.0673  0.0456
 2633SOL    HW119358   1.805   1.072   4.360 -0.4998  0.7688 -0.6304
 2633SOL    HW219359   1.852   1.160   4.252  0.4874  1.7154  0.3156
 2634SOL     OW19360   1.196   1.707  14.535  0.0306  0.1927 -0.5462
 2634SOL    HW119361   1.210   1.788  14.487  1.4184  0.2617 -0.0337
 2634SOL    HW219362   1.141   1.650  14.481  0.9965 -1.0899 -0.1865
 2635SOL     OW19363   0.723   3.125   4.716  0.3482 -0.7242  0.5506
 2635SOL    HW119364   0.715   3.217   4.691  0.0971 -1.1231 -0.8395
 2635SOL    HW219365   0.665   3.084   4.653 -0.4731  0.5308  0.4981
 2636SOL     OW19366   1.227   1.085   2.451  0.6507  0.7342  0.3828
 2636SOL    HW119367   1.292   1.042   2.506  0.7678  0.7052  0.2197
 2636SOL    HW219368   1.294   1.128   2.398 -0.1716  0.4891 -0.8529
 2637SOL     OW19369   1.003   2.736   1.019 -0.4362  0.9473  0.0911
 2637SOL    HW119370   1.010   2.646   1.051  0.1880  1.4962  1.4754
 2637SOL    HW219371   0.908   2.732   1.012 -0.2698 -1.5117 -0.7524
 2638SOL     OW19372   0.259   2.379   8.858 -0.4547  0.2793 -0.1563
 2638SOL    HW119373   0.202   2.400   8.785 -2.6055  0.6731  1.6449
 2638SOL    HW219374   0.254   2.284   8.844  2.8830  0.1309 -0.3362
 2639SOL     OW19375   0.468   0.907  14.837  0.4918  0.2890  0.3874
 2639SOL    HW119376   0.394   0.870  14.884  0.3913  2.1093  1.6414
 2639SOL    HW219377   0.516   0.952  14.907  1.2246  1.3134 -0.7695
 2640SOL     OW19378   2.774   2.772   7.556 -0.6160  0.3532  0.7003
 2640SOL    HW119379   2.783   2.738   7.645 -1.1541  1.4445  1.1761
 2640SOL    HW219380   2.812   2.859   7.570 -0.0466  0.2786 -0.4193
 2641SOL     OW19381   0.695   0.782   2.424 -0.9594 -0.5937  0.1891
 2641SOL    HW119382   0.661   0.859   2.377 -0.0676  0.8240  1.8529
 2641SOL    HW219383   0.727   0.820   2.506 -0.5630 -0.7169  0.0884
 2642SOL     OW19384   0.579   1.712   5.463  0.4306  0.1099 -0.4009
 2642SOL    HW119385   0.608   1.678   5.378 -0.4414 -3.0151  0.5355
 2642SOL    HW219386   0.626   1.649   5.518 -1.2516 -0.5764  0.2554
 2643SOL     OW19387   3.577   0.796  15.682  0.5035  0.4624 -0.4591
 2643SOL    HW119388   3.629   0.852  15.739 -2.7062  2.5147  0.4333
 2643SOL    HW219389   3.540   0.737  15.747  0.0735  1.5275  0.2511
 2644SOL     OW19390   1.543   1.664   0.660 -0.2290 -0.1498 -0.7014
 2644SOL    HW119391   1.553   1.753   0.695  2.8567 -0.6868 -0.1717
 2644SOL    HW219392   1.532   1.615   0.742  0.0978  0.4309 -0.3102
 2645SOL     OW19393   3.718   1.526  12.946 -0.4500 -0.7990 -0.8406
 2645SOL    HW119394   3.628   1.534  12.913 -1.0829  1.8609  1.4511
 2645SOL    HW219395   3.760   1.543  12.862  2.2453  1.2400  0.9121
 2646SOL     OW19396   1.865   4.448  13.821  0.8243  0.3608 -0.9606
 2646SOL    HW119397   1.833   4.366  13.858  0.7474  0.6629 -0.3631
 2646SOL    HW219398   1.956   4.437  13.846 -0.0724 -2.1648  1.2332
 2647SOL     OW19399   2.904   0.352   3.912  0.0212 -0.2606  0.0627
 2647SOL    HW119400   2.873   0.263   3.894 -1.1553 -0.4540  2.9621
 2647SOL    HW219401   2.879   0.391   3.828  2.2444 -0.1729 -0.5413
 2648SOL     OW19402   1.154   2.974   1.820 -0.2366  0.9100 -0.6313
 2648SOL    HW119403   1.161   3.056   1.870  0.6379  0.9235 -0.7805
 2648SOL    HW219404   1.213   2.918   1.870 -0.5703  0.5000 -0.6992
 2649SOL     OW19405   4.182   1.880  13.393 -0.2623 -0.6816  0.8095
 2649SOL    HW119406   4.265   1.890  13.346  0.1312 -1.3449  1.3712
 2649SOL    HW219407   4.172   1.785  13.396  0.5227 -0.7740  0.4422
 2650SOL     OW19408   3.725   0.210   4.356 -0.4764  0.0843  0.4683
 2650SOL    HW119409   3.737   0.226   4.262  1.2697 -0.9711  0.5037
 2650SOL    HW219410   3.650   0.150   4.354  1.9135 -2.8594 -0.0136
 2651SOL     OW19411   4.215   2.149   0.529  0.6859  0.2538 -0.4250
 2651SOL    HW119412   4.243   2.073   0.478  3.0014  0.9351 -0.1795
 2651SOL    HW219413   4.127   2.173   0.499  1.0791 -0.6801 -2.3342
 2652SOL     OW19414   4.241   4.034  12.865 -0.1965 -0.1615  0.1819
 2652SOL    HW119415   4.268   3.943  12.879  2.1722  0.9607  3.0117
 2652SOL    HW219416   4.314   4.062  12.810  0.0454  0.7368  0.9688
 2653SOL     OW19417   4.647   2.207   5.420 -0.4821  0.0976 -0.6485
 2653SOL    HW119418   4.584   2.170   5.482 -0.7409  0.6502 -0.5881
 2653SOL    HW219419   4.590   2.231   5.347  1.2387 -0.7533 -2.2778
 2654SOL     OW19420   2.159   3.934   5.072  0.1080  0.0534 -0.1334
 2654SOL    HW119421   2.084   3.875   5.063  0.7007 -0.6018 -0.7258
 2654SOL    HW219422   2.165   3.971   4.984 -2.1975 -0.1333 -0.3810
 2655SOL     OW19423   2.768   0.016   6.123  0.3011 -0.0474  0.0170
 2655SOL    HW119424   2.725   0.066   6.192  0.0205 -1.3982  0.8332
 2655SOL    HW219425   2.683   0.006   6.080  1.2223 -0.1601 -1.7931
 2656SOL     OW19426   3.165   2.321  16.980 -0.0774  0.1617  0.2587
 2656SOL    HW119427   3.097   2.268  16.938  1.0302 -1.8222  1.0036
 2656SOL    HW219428   3.197   2.377  16.909  1.8365 -0.1648  0.8571
 2657SOL     OW19429   0.231   2.782  12.840  0.3614 -0.6457 -0.0478
 2657SOL    HW119430   0.309   2.836  12.825 -1.3318  1.3859 -1.6041
 2657SOL    HW219431   0.269   2.733  12.912  0.8970  0.1877  0.2367
 2658SOL     OW19432   4.274   2.581   8.271  0.2170 -0.6246 -0.2253
 2658SOL    HW119433   4.227   2.659   8.241  0.4997 -0.2788  0.2354
 2658SOL    HW219434   4.269   2.592   8.366  2.9884  0.5549 -0.2210
 2659SOL     OW19435   3.855   1.391   3.842 -0.4329  0.1727 -0.3098
 2659SOL    HW119436   3.887   1.478   3.863  2.5054 -1.2377  1.0340
 2659SOL    HW219437   3.773   1.420   3.803 -2.0146 -1.9864  1.3632
 2660SOL     OW19438   4.615   1.609   9.397  0.2083 -0.4462 -0.7205
 2660SOL    HW119439   4.666   1.556   9.335  2.0451 -0.2133  0.5688
 2660SOL    HW219440   4.620   1.697   9.360  0.7741 -0.2762 -0.2447
 2661SOL     OW19441   3.900   0.434   9.291  0.8740 -0.4132 -0.0980
 2661SOL    HW119442   3.912   0.347   9.253  0.5263 -0.7953  0.6744
 2661SOL    HW219443   3.989   0.460   9.314  0.4385 -0.6619  1.8606
 2662SOL     OW19444   1.965   3.380   6.122 -0.2425  0.3779 -0.4329
 2662SOL    HW119445   2.016   3.450   6.082 -2.5352  1.0383 -2.1429
 2662SOL    HW219446   2.000   3.300   6.082  0.2922 -0.3540  1.4967
 2663SOL     OW19447   0.835   2.328   9.019  0.4675 -0.1686  1.0030
 2663SOL    HW119448   0.875   2.363   8.939  0.4168 -2.3466  0.0011
 2663SOL    HW219449   0.896   2.255   9.030  1.7688  0.4047 -2.2645
 2664SOL     OW19450   3.393   2.483   8.050  0.3447 -0.0726 -0.2264
 2664SOL    HW119451   3.324   2.446   8.105 -2.3125  3.1613 -1.3617
 2664SOL    HW219452   3.463   2.433   8.091 -0.8982 -1.7064 -0.1138
 2665SOL     OW19453   0.320   1.509  16.705  0.4396  0.2845  0.3817
 2665SOL    HW119454   0.350   1.587  16.658 -0.8096  0.5300  0.0035
 2665SOL    HW219455   0.226   1.518  16.694  0.5854  0.8798 -0.3368
 2666SOL     OW19456   1.968   0.869  13.550  0.1154  0.4505 -0.1721
 2666SOL    HW119457   1.968   0.781  13.588  0.5559  1.7860  2.9140
 2666SOL    HW219458   1.876   0.891  13.536  0.1951  0.3951 -0.7673
 2667SOL     OW19459   0.859   2.581   1.823  0.1361 -0.3173 -0.3947
 2667SOL    HW119460   0.850   2.541   1.736  0.5118  0.3106 -0.7189
 2667SOL    HW219461   0.868   2.675   1.809 -1.2975 -0.0301  0.6501
 2668SOL     OW19462   2.443   4.682  13.988  0.1657 -0.0575  0.2613
 2668SOL    HW119463   2.364   4.691  13.935 -1.3793  1.2806  2.7943
 2668SOL    HW219464   2.427   4.602  14.038 -0.3346 -0.5606 -0.7029
 2669SOL     OW19465   1.990   2.354   2.336 -0.5988  0.4192 -0.3116
 2669SOL    HW119466   1.924   2.285   2.343  0.9340 -1.0822 -0.6322
 2669SOL    HW219467   1.936   2.423   2.297 -0.1939  0.5903 -0.5726
 2670SOL     OW19468   0.738   3.017   0.135  0.1708 -0.0294 -0.0744
 2670SOL    HW119469   0.783   3.068   0.068  1.1542  0.2812  0.8319
 2670SOL    HW219470   0.739   2.925   0.109 -0.3072 -0.4463  1.3487
 2671SOL     OW19471   1.178   1.819   9.095 -0.0759  0.3477 -0.1846
 2671SOL    HW119472   1.271   1.800   9.104 -0.0977  0.4927  0.3540
 2671SOL    HW219473   1.147   1.735   9.061 -0.4660 -0.3079  1.7985
 2672SOL     OW19474   3.631   2.149   0.884  1.0833 -0.3739  0.2693
 2672SOL    HW119475   3.724   2.170   0.880  1.1654 -0.5957  0.9166
 2672SOL    HW219476   3.621   2.158   0.979 -2.5573  1.9872 -0.3346
 2673SOL     OW19477   1.129   0.905  12.473 -0.0334  0.0777 -0.2575
 2673SOL    HW119478   1.076   0.914  12.394  0.9246 -0.5858 -0.9858
 2673SOL    HW219479   1.179   0.986  12.479  1.6950 -0.9752 -0.3449
 2674SOL     OW19480   0.956   3.511   1.945  0.8543 -0.1904 -0.6123
 2674SOL    HW119481   0.988   3.589   1.990  2.6453 -1.5204  0.4440
 2674SOL    HW219482   1.001   3.500   1.862  0.8898  0.0886 -0.6282
 2675SOL     OW19483   0.371   2.895   2.292 -0.1332  0.2544  0.3059
 2675SOL    HW119484   0.437   2.900   2.360 -2.1105 -1.4162  2.3506
 2675SOL    HW219485   0.370   2.985   2.259 -1.6383  0.4716  0.9463
 2676SOL     OW19486   4.658   3.390   4.087  0.1191  0.0928  0.5078
 2676SOL    HW119487   4.680   3.364   3.998 -1.4609  0.5849 -0.0388
 2676SOL    HW219488   4.583   3.333   4.106 -0.3012  0.5967  0.3571
 2677SOL     OW19489   0.613   2.612   3.143 -0.3801 -0.4879 -0.4822
 2677SOL    HW119490   0.572   2.544   3.196 -2.1033 -0.2644 -1.5279
 2677SOL    HW219491   0.573   2.596   3.058 -1.2276  0.0880 -0.1871
 2678SOL     OW19492   0.681   1.058  14.676 -0.7852  0.4635  0.0688
 2678SOL    HW119493   0.595   1.028  14.707 -0.6049 -0.9531 -0.7959
 2678SOL    HW219494   0.672   1.040  14.582  1.8648 -2.2022  0.3152
 2679SOL     OW19495   1.453   0.728   4.849  0.2599  0.0280 -0.1682
 2679SOL    HW119496   1.434   0.641   4.883  0.0293 -0.2073 -0.8939
 2679SOL    HW219497   1.382   0.731   4.785  1.6542 -0.6047 -1.7611
 2680SOL     OW19498   3.883   3.992   6.742  0.0135 -0.0365 -0.0241
 2680SOL    HW119499   3.791   3.986   6.768 -0.8699  1.4461 -2.8265
 2680SOL    HW219500   3.921   4.023   6.825  0.4638  0.1194 -0.2884
 2681SOL     OW19501   3.117   0.667   7.352 -0.1265  0.0327  0.6917
 2681SOL    HW119502   3.071   0.752   7.350 -2.0994 -1.0691 -1.2128
 2681SOL    HW219503   3.099   0.638   7.441  1.7506 -0.5336  0.8690
 2682SOL     OW19504   2.779   1.826  16.907  0.3336  0.4916 -0.0016
 2682SOL    HW119505   2.724   1.779  16.970 -0.1351 -0.6701 -1.2708
 2682SOL    HW219506   2.719   1.900  16.916 -0.8425 -0.4285 -0.3119
 2683SOL     OW19507   4.135   3.998   6.878 -0.0672 -0.4339 -0.1311
 2683SOL    HW119508   4.136   4.006   6.783 -0.8833  0.5926 -0.0509
 2683SOL    HW219509   4.226   3.984   6.902 -0.6771 -1.4854  1.6327
 2684SOL     OW19510   2.451   0.173   5.736 -0.0867 -0.3175 -0.0831
 2684SOL    HW119511   2.421   0.261   5.757  1.0515  0.4101 -1.5104
 2684SOL    HW219512   2.417   0.167   5.646 -0.2965  2.0350 -0.1594
 2685SOL     OW19513   3.762   4.288  11.372 -0.2968 -0.1883  0.5120
 2685SOL    HW119514   3.814   4.233  11.431 -1.2430 -0.6611  0.9160
 2685SOL    HW219515   3.684   4.232  11.372 -0.7546  0.4602 -0.6584
 2686SOL     OW19516   3.404   1.262   7.004  0.8144 -0.4149  0.4792
 2686SOL    HW119517   3.345   1.190   6.982  0.7888 -0.2280 -0.0720
 2686SOL    HW219518   3.469   1.249   6.935  1.6785  0.3954  1.1469
 2687SOL     OW19519   0.728   0.058  16.528  0.5415  0.0175 -0.5021
 2687SOL    HW119520   0.734   0.036  16.621 -2.3415 -1.2965 -0.6099
 2687SOL    HW219521   0.719   4.695  16.487  0.8431 -1.2629  2.1369
 2688SOL     OW19522   2.072   0.511   7.716 -0.4553 -0.3474 -0.0680
 2688SOL    HW119523   2.003   0.574   7.738 -0.1320 -0.2592  0.6774
 2688SOL    HW219524   2.030   0.430   7.746  0.6769 -0.4243  1.2449
 2689SOL     OW19525   0.970   2.581   3.406  0.2216  0.1226 -0.3755
 2689SOL    HW119526   0.926   2.627   3.334  0.4933  0.0639 -0.5793
 2689SOL    HW219527   0.888   2.545   3.438 -0.0544  0.2450 -0.9370
 2690SOL     OW19528   4.294   1.861   5.014 -0.1870  0.3096 -0.2475
 2690SOL    HW119529   4.357   1.791   5.032  0.0612  0.5885 -0.0289
 2690SOL    HW219530   4.350   1.933   5.045  1.5061 -1.0017 -0.2566
 2691SOL     OW19531   0.074   2.277  13.604 -0.4207  0.0701  0.1060
 2691SOL    HW119532   0.029   2.327  13.535  1.0823  0.3540 -0.6623
 2691SOL    HW219533   0.145   2.334  13.634 -0.6775  0.8907 -0.8198
 2692SOL     OW19534   3.894   1.088   9.050  0.1475 -0.1316  0.3850
 2692SOL    HW119535   3.944   1.162   9.086 -0.4243 -0.6744  2.3111
 2692SOL    HW219536   3.806   1.124   9.060  0.7270  0.8021  2.2113
 2693SOL     OW19537   1.021   2.477  11.531 -0.0261 -0.4928 -0.1550
 2693SOL    HW119538   1.025   2.545  11.465 -1.1705  0.4379  0.7521
 2693SOL    HW219539   0.932   2.484  11.563  0.6889  1.2994  1.4100
 2694SOL     OW19540   0.500   3.153  12.071 -0.5155  0.4214  0.5633
 2694SOL    HW119541   0.500   3.074  12.016 -1.3250  0.8363 -0.0247
 2694SOL    HW219542   0.498   3.119  12.160 -0.7243 -0.7067  0.1295
 2695SOL     OW19543   0.684   3.526   6.168 -0.5932 -0.2205  0.0788
 2695SOL    HW119544   0.649   3.522   6.079 -0.8341  0.6517  0.1311
 2695SOL    HW219545   0.667   3.617   6.194  0.3990 -0.4166  1.4286
 2696SOL     OW19546   1.805   1.129  12.605  0.3937 -0.3332 -0.0669
 2696SOL    HW119547   1.712   1.132  12.626  0.4875  1.1656  0.1849
 2696SOL    HW219548   1.846   1.155  12.688 -0.5601 -0.8179  0.5574
 2697SOL     OW19549   1.802   4.155   8.255  0.6433  0.3199  0.3202
 2697SOL    HW119550   1.741   4.146   8.182 -0.1565 -1.1932  1.1800
 2697SOL    HW219551   1.820   4.248   8.269 -3.0001  1.5013 -2.8267
 2698SOL     OW19552   1.235   3.150   3.318 -0.1040 -0.7566 -0.2384
 2698SOL    HW119553   1.277   3.213   3.259  0.0980 -0.9732 -0.3273
 2698SOL    HW219554   1.249   3.064   3.276 -1.3572 -0.3619 -1.4686
 2699SOL     OW19555   1.073   0.775   1.017 -0.6516  0.6203  0.3896
 2699SOL    HW119556   1.139   0.826   0.969  2.1175 -2.0261  1.3581
 2699SOL    HW219557   1.118   0.713   1.075 -2.4677 -0.4710  0.6063
 2700SOL     OW19558   4.316   3.311   6.781  0.5509  0.7710  0.1818
 2700SOL    HW119559   4.377   3.272   6.718 -1.6832 -0.5093 -1.2065
 2700SOL    HW219560   4.254   3.355   6.723  1.4153 -0.3740 -1.6202
 2701SOL     OW19561   1.158   3.577  17.471 -0.2865  0.6458  0.7544
 2701SOL    HW119562   1.246   3.540  17.469 -1.5721 -2.4144 -0.6106
 2701SOL    HW219563   1.178   3.652  17.415 -2.3397  0.8426  0.2811
 2702SOL     OW19564   2.744   2.155   5.250 -0.7875  0.5005  0.1127
 2702SOL    HW119565   2.655   2.124   5.263 -0.6479  0.7049  1.5245
 2702SOL    HW219566   2.785   2.153   5.337  1.6318  2.2927 -0.9703
 2703SOL     OW19567   1.708   4.173   7.451 -0.6616  0.2633  0.1919
 2703SOL    HW119568   1.638   4.238   7.458 -1.7888 -1.0332  0.8568
 2703SOL    HW219569   1.783   4.222   7.487  1.3596 -2.0016 -0.9284
 2704SOL     OW19570   4.509   3.870   2.794 -0.1658  0.0830 -0.0567
 2704SOL    HW119571   4.504   3.952   2.746 -1.6354  0.3095  0.4809
 2704SOL    HW219572   4.417   3.848   2.812 -0.5285  0.0286 -1.9554
 2705SOL     OW19573   4.162   4.426   8.040 -0.5130  0.2634  0.2478
 2705SOL    HW119574   4.152   4.419   8.135 -0.9465 -0.9272  0.1153
 2705SOL    HW219575   4.140   4.518   8.021  1.1332  0.5369 -0.3251
 2706SOL     OW19576   0.687   4.489  10.548 -0.3618 -0.3697  0.0732
 2706SOL    HW119577   0.698   4.475  10.642  1.2931 -3.2073 -0.5342
 2706SOL    HW219578   0.750   4.425  10.515  0.5391  1.6533 -2.1479
 2707SOL     OW19579   3.098   2.068  12.836  0.0271  0.2869  0.3449
 2707SOL    HW119580   3.157   2.027  12.773 -0.5193 -1.2685  0.8330
 2707SOL    HW219581   3.020   2.050  12.784 -1.0370 -0.3388  2.1517
 2708SOL     OW19582   1.341   4.594  10.776 -0.6300 -0.3682 -0.1834
 2708SOL    HW119583   1.264   4.597  10.833 -1.1453 -0.7236 -0.8525
 2708SOL    HW219584   1.310   4.533  10.709 -2.3932  1.1701 -0.7559
 2709SOL     OW19585   3.466   0.520  11.147 -0.3230  1.0069 -0.6569
 2709SOL    HW119586   3.407   0.445  11.156 -0.6889  1.6584  2.4415
 2709SOL    HW219587   3.541   0.477  11.106 -0.6984  1.2421 -1.5952
 2710SOL     OW19588   4.682   1.138   5.372 -0.2766 -0.1247  0.3501
 2710SOL    HW119589   4.618   1.091   5.319  0.9626 -2.1377  0.6556
 2710SOL    HW219590   0.042   1.110   5.334 -1.2767 -1.9854 -0.4628
 2711SOL     OW19591   3.049   0.961   7.449  0.2246 -0.5569  0.4076
 2711SOL    HW119592   2.998   1.029   7.491 -2.2224 -1.0954 -1.7146
 2711SOL    HW219593   3.137   0.993   7.468  0.7625 -1.2391 -0.9243
 2712SOL     OW19594   2.550   1.688   4.842 -0.4041 -0.3325 -0.2571
 2712SOL    HW119595   2.599   1.769   4.828 -1.2675  0.8121  3.3234
 2712SOL    HW219596   2.510   1.700   4.928  0.2631  0.2030 -0.0186
 2713SOL     OW19597   0.295   1.361   8.995 -0.3191 -0.3498 -0.0082
 2713SOL    HW119598   0.300   1.410   8.912 -2.0262  0.7175  0.5336
 2713SOL    HW219599   0.324   1.431   9.054 -0.5997  0.0846 -0.3904
 2714SOL     OW19600   4.456   0.027   6.773  0.2968 -0.4542 -0.3594
 2714SOL    HW119601   4.496   0.114   6.772 -0.7804  0.0610  0.7994
 2714SOL    HW219602   4.509   4.701   6.836 -0.3393  1.2359  1.4787
 2715SOL     OW19603   4.649   1.097  11.678 -0.0193 -1.1888 -0.1998
 2715SOL    HW119604   4.587   1.123  11.746  1.2389 -0.2423  0.5737
 2715SOL    HW219605   4.594   1.098  11.599 -0.9063 -0.2806  0.4264
 2716SOL     OW19606   4.186   1.738   5.500  0.2512 -0.8452  0.1207
 2716SOL    HW119607   4.097   1.703   5.489 -0.5099  0.9691  0.3689
 2716SOL    HW219608   4.240   1.660   5.493  1.7295  0.4915 -3.4937
 2717SOL     OW19609   0.224   0.166   3.433  0.1508  0.1033 -0.1763
 2717SOL    HW119610   0.261   0.247   3.469  1.8405 -0.9956  0.5117
 2717SOL    HW219611   0.160   0.211   3.378 -0.6623  0.4132  1.0119
 2718SOL     OW19612   4.469   4.276   3.489  0.4283 -0.4491 -0.0701
 2718SOL    HW119613   4.476   4.346   3.554 -2.2687 -0.3979  0.1535
 2718SOL    HW219614   4.386   4.299   3.448  0.2730  0.2427  0.6255
 2719SOL     OW19615   1.827   3.156  12.738 -0.3236  0.1957  0.5157
 2719SOL    HW119616   1.832   3.123  12.828 -1.2603 -0.3327  0.3673
 2719SOL    HW219617   1.752   3.215  12.745 -0.3000  0.1932  0.7948
 2720SOL     OW19618   0.481   1.416   1.198  0.0105 -0.4590 -0.3252
 2720SOL    HW119619   0.555   1.364   1.229  0.1443  0.6383  1.2252
 2720SOL    HW219620   0.499   1.503   1.234 -1.3346 -0.8897  1.3894
 2721SOL     OW19621   1.874   2.192   9.596  0.1827 -0.3631 -0.0827
 2721SOL    HW119622   1.843   2.239   9.519 -1.6102 -0.2750  0.6914
 2721SOL    HW219623   1.804   2.129   9.615 -1.3549  0.6134 -2.4284
 2722SOL     OW19624   4.630   3.586   8.877 -0.2542 -0.3504  0.8533
 2722SOL    HW119625   4.650   3.639   8.954 -0.0485 -0.5209  0.9181
 2722SOL    HW219626   4.712   3.571   8.829 -0.5230  1.0684 -0.0461
 2723SOL     OW19627   1.315   3.921   2.814 -0.4117  0.4306 -0.7866
 2723SOL    HW119628   1.330   3.838   2.859 -2.5048  0.0172 -0.8434
 2723SOL    HW219629   1.225   3.894   2.794 -0.0190 -0.2396 -1.6456
 2724SOL     OW19630   2.434   1.195  13.694  0.0081  0.4732  0.1241
 2724SOL    HW119631   2.440   1.250  13.772 -0.6947  2.2331 -1.0568
 2724SOL    HW219632   2.446   1.261  13.625  2.2120 -0.3988 -0.3295
 2725SOL     OW19633   2.978   1.906  12.476 -0.1188  0.2974 -1.1455
 2725SOL    HW119634   3.042   1.837  12.492 -1.1302 -0.1583  0.9472
 2725SOL    HW219635   3.009   1.933  12.389 -1.0181 -0.3951 -1.6868
 2726SOL     OW19636   2.785   1.583   9.420  0.1656  0.5460  0.2070
 2726SOL    HW119637   2.865   1.569   9.472 -0.4830  0.4742  1.1816
 2726SOL    HW219638   2.743   1.655   9.468  1.2064  0.8223  0.7153
 2727SOL     OW19639   2.310   4.623   9.257  0.6124  0.2535  0.0922
 2727SOL    HW119640   2.398   4.643   9.224  0.5913 -3.6936 -2.3348
 2727SOL    HW219641   2.256   4.679   9.201 -0.9635  1.3514  2.7262
 2728SOL     OW19642   0.907   2.043   9.009 -0.0076 -0.0331  0.2739
 2728SOL    HW119643   0.986   2.068   8.962  1.4346  0.0345  2.7498
 2728SOL    HW219644   0.926   2.053   9.102 -0.6079 -0.5897  0.4658
 2729SOL     OW19645   4.058   1.879   7.791  0.1247 -0.7768  0.6698
 2729SOL    HW119646   4.144   1.844   7.815  0.6446  0.3441  0.4239
 2729SOL    HW219647   4.013   1.798   7.815  1.7695 -1.2050  2.2374
 2730SOL     OW19648   0.858   0.145   4.999 -0.3352  0.0472  0.0741
 2730SOL    HW119649   0.876   0.052   5.014  0.3748  0.2053  0.2236
 2730SOL    HW219650   0.763   0.147   5.012 -0.3968  0.3328 -0.4017
 2731SOL     OW19651   2.042   4.484   4.916 -0.0434  0.0865  0.4837
 2731SOL    HW119652   2.071   4.474   5.007  0.2902 -0.6775  0.2971
 2731SOL    HW219653   1.992   4.404   4.901  1.5687 -1.0374  1.1753
 2732SOL     OW19654   3.143   1.016   2.511 -0.3100 -0.6487 -0.1103
 2732SOL    HW119655   3.142   1.039   2.603 -1.1055  0.7595 -0.4652
 2732SOL    HW219656   3.196   1.091   2.485 -0.2397  0.0288  2.0451
 2733SOL     OW19657   1.752   4.354   4.305 -0.1254  0.6038  0.2293
 2733SOL    HW119658   1.743   4.304   4.224  0.6048  2.1772 -0.8174
 2733SOL    HW219659   1.826   4.413   4.290  1.2569 -1.1627  0.1409
 2734SOL     OW19660   1.010   3.238   9.028  0.5143  0.2675  0.2094
 2734SOL    HW119661   0.928   3.233   9.079 -0.4742  2.9297 -1.1324
 2734SOL    HW219662   0.964   3.234   8.944 -0.0654 -2.5737  0.6500
 2735SOL     OW19663   2.082   4.172   2.418 -0.2631 -0.3509 -0.1496
 2735SOL    HW119664   2.008   4.142   2.367  0.5921 -1.5174 -0.7018
 2735SOL    HW219665   2.109   4.239   2.355 -4.3083  1.5758  0.1356
 2736SOL     OW19666   1.591   2.805   8.562  0.1632 -0.7330  0.0806
 2736SOL    HW119667   1.652   2.856   8.509 -2.5129  2.9448  0.4874
 2736SOL    HW219668   1.636   2.822   8.645  1.0262  1.1135 -0.7689
 2737SOL     OW19669   1.222   3.782  12.264 -0.0663  0.1124  0.5820
 2737SOL    HW119670   1.191   3.765  12.175 -2.7676 -0.5820  1.6464
 2737SOL    HW219671   1.279   3.857  12.250  0.5053 -0.6120 -0.9193
 2738SOL     OW19672   0.325   2.040  15.162 -0.0886  0.7801  0.2280
 2738SOL    HW119673   0.395   2.097  15.193  1.8159 -1.6574  0.3956
 2738SOL    HW219674   0.354   1.965  15.214 -0.2967  1.1197  0.8411
 2739SOL     OW19675   4.291   3.319   1.556 -0.2340 -0.2978 -0.1498
 2739SOL    HW119676   4.251   3.248   1.506  1.1602 -1.4225  0.3325
 2739SOL    HW219677   4.378   3.308   1.516 -1.2963 -1.8815 -2.0101
 2740SOL     OW19678   1.187   2.795   2.598  0.6505  0.1600 -0.3481
 2740SOL    HW119679   1.201   2.765   2.687  2.2380  2.0481  0.0300
 2740SOL    HW219680   1.160   2.711   2.561  1.2322  0.1943 -0.8488
 2741SOL     OW19681   2.418   0.149   7.738  0.4651  0.0484  0.0894
 2741SOL    HW119682   2.436   0.241   7.719  0.3099 -0.3716 -2.0524
 2741SOL    HW219683   2.376   0.160   7.823 -0.5689 -1.4476 -0.2278
 2742SOL     OW19684   1.828   2.190  17.501  0.0143 -0.2171 -0.3015
 2742SOL    HW119685   1.755   2.176  17.562 -0.5497 -0.5729 -1.0705
 2742SOL    HW219686   1.810   2.126  17.433 -0.4082 -1.1419  0.6685
 2743SOL     OW19687   0.107   3.371  10.340  0.5069  0.2389 -0.0204
 2743SOL    HW119688   0.054   3.423  10.279 -0.0260 -0.8302 -0.4595
 2743SOL    HW219689   0.160   3.340  10.267  0.3894  1.0193 -0.4376
 2744SOL     OW19690   2.449   0.172   7.274  0.1415 -0.6952  0.1080
 2744SOL    HW119691   2.412   0.245   7.323  0.2873 -0.8586  0.4602
 2744SOL    HW219692   2.544   0.177   7.282 -0.0925  0.8008  1.8508
 2745SOL     OW19693   3.987   3.252   6.588 -0.0830  0.6558  0.2274
 2745SOL    HW119694   3.997   3.165   6.626  0.4322 -0.4133 -2.3776
 2745SOL    HW219695   3.976   3.235   6.495 -1.8337  1.2771  0.3173
 2746SOL     OW19696   4.534   0.185  16.303 -0.2404  0.5421 -0.0434
 2746SOL    HW119697   4.474   0.234  16.359 -2.5219  0.5492 -2.4541
 2746SOL    HW219698   4.617   0.201  16.347  0.6299 -2.2140 -0.7019
 2747SOL     OW19699   2.988   1.801   5.433 -0.5169  0.0104  0.2713
 2747SOL    HW119700   2.955   1.887   5.460  0.1697 -0.1656  1.6914
 2747SOL    HW219701   3.020   1.769   5.517  0.9182  1.2098  0.1884
 2748SOL     OW19702   2.220   0.882  13.928  0.0287  0.2687 -0.5789
 2748SOL    HW119703   2.190   0.791  13.927  1.8490 -0.3265 -1.5792
 2748SOL    HW219704   2.259   0.880  14.016  1.9757  0.3177 -1.4349
 2749SOL     OW19705   4.337   3.966   8.729 -0.8124  0.3102 -0.2872
 2749SOL    HW119706   4.353   4.057   8.704 -0.6578  0.7891  1.5015
 2749SOL    HW219707   4.247   3.957   8.699 -0.7483  1.2302 -0.7466
 2750SOL     OW19708   0.664   2.040   8.159 -0.1265 -0.0178  0.3322
 2750SOL    HW119709   0.740   2.007   8.111  1.4366  2.1982  1.2987
 2750SOL    HW219710   0.652   2.120   8.108 -1.3307  0.2658  1.0827
 2751SOL     OW19711   0.583   2.244   8.698 -0.8124  0.0875 -0.4071
 2751SOL    HW119712   0.557   2.157   8.667 -1.0543 -0.5843  1.7037
 2751SOL    HW219713   0.567   2.230   8.791  1.3993 -1.2240 -0.2164
 2752SOL     OW19714   0.551   4.212   4.928  0.8829 -0.4987 -0.3381
 2752SOL    HW119715   0.553   4.297   4.971 -1.1473 -0.4309 -0.3633
 2752SOL    HW219716   0.508   4.226   4.844  2.1744  1.0496 -0.7371
 2753SOL     OW19717   2.864   0.166   2.070  0.1726 -0.1695  0.0150
 2753SOL    HW119718   2.914   0.142   1.992  0.7916 -3.3562  1.3994
 2753SOL    HW219719   2.791   0.215   2.033 -1.4946 -0.2552  3.2105
 2754SOL     OW19720   3.970   2.984   5.694 -0.1361 -0.3156 -0.1935
 2754SOL    HW119721   3.959   2.893   5.666 -2.6577  0.3259 -1.3384
 2754SOL    HW219722   3.901   3.027   5.643  0.9703  0.4258 -1.0544
 2755SOL     OW19723   3.459   2.554   8.650  0.0146 -0.2114  0.3294
 2755SOL    HW119724   3.424   2.465   8.643  1.2924 -0.6000 -1.3197
 2755SOL    HW219725   3.400   2.591   8.584  1.2748 -0.2888 -0.8590
 2756SOL     OW19726   4.109   3.967   2.032 -0.6400 -0.5469  0.4729
 2756SOL    HW119727   4.060   3.944   2.111  0.5122 -4.7516 -0.0395
 2756SOL    HW219728   4.150   3.882   2.015  1.4920  0.5524  0.0592
 2757SOL     OW19729   0.460   3.199   6.084 -0.0907 -0.1004 -0.2220
 2757SOL    HW119730   0.421   3.282   6.057  0.9825  0.4371 -0.1177
 2757SOL    HW219731   0.479   3.217   6.176  0.0095  0.1927 -0.3009
 2758SOL     OW19732   0.855   3.227  14.745 -0.0059  0.4151  1.0121
 2758SOL    HW119733   0.800   3.150  14.730  1.0120 -0.1598  0.3097
 2758SOL    HW219734   0.870   3.212  14.838 -0.1027  0.3637  1.0200
 2759SOL     OW19735   3.199   1.934   6.587  0.3153 -1.0117 -0.1794
 2759SOL    HW119736   3.118   1.985   6.579  0.3694 -0.7418  0.8745
 2759SOL    HW219737   3.194   1.859   6.647  2.4619  0.5310  1.9389
 2760SOL     OW19738   3.181   1.331   3.363 -0.2852 -0.8161  0.5081
 2760SOL    HW119739   3.158   1.393   3.432  0.7566  0.8957 -0.6705
 2760SOL    HW219740   3.100   1.280   3.356 -1.6558  1.1762  1.8944
 2761SOL     OW19741   4.342   1.603   6.986 -0.1950 -0.1598 -0.2660
 2761SOL    HW119742   4.254   1.587   6.951 -1.3284  1.6541  1.7555
 2761SOL    HW219743   4.398   1.582   6.912  2.0735  1.4776  1.0231
 2762SOL     OW19744   1.152   3.322   8.570  0.0200  0.7670  0.6114
 2762SOL    HW119745   1.174   3.340   8.479  1.4232  0.1645  0.8213
 2762SOL    HW219746   1.189   3.401   8.611  0.6878 -0.2560  1.9812
 2763SOL     OW19747   1.292   2.852  16.165 -0.5312  0.1485 -0.2550
 2763SOL    HW119748   1.283   2.845  16.070 -1.0736  0.0643 -0.1993
 2763SOL    HW219749   1.254   2.938  16.183  1.0049  0.9643 -0.9628
 2764SOL     OW19750   4.451   0.768   4.186 -0.3145 -0.0060 -0.6137
 2764SOL    HW119751   4.530   0.806   4.225 -0.5977  0.1913 -0.2429
 2764SOL    HW219752   4.411   0.845   4.146 -0.6002 -1.1031 -2.4571
 2765SOL     OW19753   3.016   4.608   7.597  0.0434  0.0097 -0.0066
 2765SOL    HW119754   2.979   4.684   7.642  0.9380 -0.4574  1.5067
 2765SOL    HW219755   2.981   4.619   7.509  0.5852  1.5859 -0.0168
 2766SOL     OW19756   0.507   1.618   0.246 -0.3071 -0.1157 -0.0070
 2766SOL    HW119757   0.530   1.676   0.173  1.1443  0.1493  0.6657
 2766SOL    HW219758   0.565   1.640   0.319 -1.0184 -0.7952  0.7588
 2767SOL     OW19759   3.614   0.024   8.173  0.5306 -0.0232  0.4693
 2767SOL    HW119760   3.585   4.683   8.238  0.5770 -0.3426  0.1755
 2767SOL    HW219761   3.689   4.712   8.125  0.3038 -2.0396  1.6065
 2768SOL     OW19762   1.650   2.855  10.457  0.1801  0.2854  0.1044
 2768SOL    HW119763   1.563   2.890  10.439 -0.4072 -0.2931  1.7892
 2768SOL    HW219764   1.678   2.844  10.366  1.0942  1.4107  0.2509
 2769SOL     OW19765   1.016   4.613   0.481 -0.1468 -0.3171 -0.1731
 2769SOL    HW119766   0.944   4.636   0.422 -0.8545 -0.4789  0.6188
 2769SOL    HW219767   1.087   4.620   0.417 -0.3052 -1.6572 -0.5065
 2770SOL     OW19768   1.435   3.802   7.961 -0.3977 -0.1564  0.1428
 2770SOL    HW119769   1.392   3.886   7.946 -1.1666 -0.1001  2.7716
 2770SOL    HW219770   1.420   3.798   8.055 -0.1133  0.4954  0.2155
 2771SOL     OW19771   3.381   4.680   7.859  0.1021 -0.8409  0.2762
 2771SOL    HW119772   3.310   4.619   7.882  1.1572 -1.1036  2.8221
 2771SOL    HW219773   3.444   4.621   7.819  2.6118  1.4544  0.8494
 2772SOL     OW19774   4.155   0.656   8.796 -0.2809 -0.0908 -0.5087
 2772SOL    HW119775   4.096   0.656   8.871  0.3559  1.0620  0.0095
 2772SOL    HW219776   4.089   0.665   8.728 -0.5369  1.4998 -0.0612
 2773SOL     OW19777   0.874   0.624   2.771  0.7059  0.4413  0.7241
 2773SOL    HW119778   0.833   0.548   2.730  1.2865  1.2312 -1.3063
 2773SOL    HW219779   0.966   0.609   2.752  0.3990  0.0015 -0.4160
 2774SOL     OW19780   0.912   3.784   7.143  0.3849  0.5149  0.0585
 2774SOL    HW119781   0.855   3.861   7.145  1.0422  0.9974  0.4126
 2774SOL    HW219782   0.870   3.723   7.082 -0.1169  2.8154 -1.9164
 2775SOL     OW19783   0.852   2.577  14.848  0.2669  0.2653  0.2970
 2775SOL    HW119784   0.841   2.595  14.941  1.3562 -1.6920  0.7958
 2775SOL    HW219785   0.872   2.665  14.816 -1.6100  1.0673  1.3250
 2776SOL     OW19786   1.179   3.413  10.002 -0.0464  0.4093 -0.1747
 2776SOL    HW119787   1.228   3.469   9.942 -0.7128 -0.2009 -1.2977
 2776SOL    HW219788   1.195   3.325   9.968 -0.9600 -0.3216  1.2930
 2777SOL     OW19789   0.099   2.614   7.169 -0.1905 -0.3252  0.3496
 2777SOL    HW119790   0.177   2.630   7.222 -0.9404 -1.3833  1.7845
 2777SOL    HW219791   0.115   2.661   7.087 -1.6720 -0.1740  0.1361
 2778SOL     OW19792   4.445   0.428   2.998  0.4725 -0.2720  0.1715
 2778SOL    HW119793   4.424   0.494   3.064  1.6976 -2.4035  2.6703
 2778SOL    HW219794   4.450   0.347   3.048 -2.2768 -1.2284 -1.0733
 2779SOL     OW19795   3.025   2.156   6.490  0.1411 -0.3082  0.5092
 2779SOL    HW119796   2.951   2.133   6.547  0.0495 -0.7771  0.1995
 2779SOL    HW219797   3.045   2.238   6.535  0.6514 -1.1893  1.9125
 2780SOL     OW19798   0.347   1.983  14.205 -0.0975 -0.8175 -0.2822
 2780SOL    HW119799   0.288   2.005  14.277 -0.6333 -0.5915 -0.7892
 2780SOL    HW219800   0.293   1.928  14.148  2.0289  0.1366 -3.2323
 2781SOL     OW19801   2.987   2.374   5.754  0.0961 -0.1094  0.2060
 2781SOL    HW119802   2.943   2.427   5.821  0.5240 -0.0949  0.4771
 2781SOL    HW219803   2.909   2.372   5.699  0.0407 -1.3690  0.3328
 2782SOL     OW19804   4.514   1.228   7.384 -0.4994 -0.4626 -0.0083
 2782SOL    HW119805   4.478   1.262   7.466 -1.0866  1.4945 -1.0780
 2782SOL    HW219806   4.470   1.295   7.333  0.3298  0.4034  0.4137
 2783SOL     OW19807   1.169   2.997  14.696  0.0907 -0.1107  0.1408
 2783SOL    HW119808   1.247   2.968  14.650  0.3334  0.9798 -0.1368
 2783SOL    HW219809   1.193   3.014  14.788 -0.6067  4.6427 -0.5396
 2784SOL     OW19810   2.175   1.982   2.889  0.0329 -0.5581 -0.3518
 2784SOL    HW119811   2.154   2.028   2.808  0.1464  1.7165  0.9258
 2784SOL    HW219812   2.124   1.901   2.890 -3.4945  1.6904  0.0846
 2785SOL     OW19813   1.982   3.994  15.315 -0.0697 -0.2440 -0.6008
 2785SOL    HW119814   1.897   3.975  15.276 -0.1420  0.3819 -0.7446
 2785SOL    HW219815   2.038   4.022  15.243  3.1963  0.1285  2.0335
 2786SOL     OW19816   1.548   3.137  13.269 -0.0873  0.2130 -0.0691
 2786SOL    HW119817   1.520   3.146  13.360  0.2408  2.0475 -0.1586
 2786SOL    HW219818   1.528   3.225  13.239  0.4333 -0.0953 -1.3040
 2787SOL     OW19819   0.067   0.012  16.228  0.4173 -0.0008  0.4590
 2787SOL    HW119820   0.132   0.058  16.281  0.6474  0.6821 -0.4097
 2787SOL    HW219821   0.114   4.662  16.187  0.8940  0.4047  0.2881
 2788SOL     OW19822   2.953   1.351   9.102  0.6394  0.0944  0.4134
 2788SOL    HW119823   3.043   1.379   9.090  0.2097  0.1074 -2.7365
 2788SOL    HW219824   2.916   1.425   9.151 -0.0301  1.3564 -2.0062
 2789SOL     OW19825   3.459   1.513   3.288 -0.0092 -0.1406  0.0500
 2789SOL    HW119826   3.508   1.536   3.209  1.4654 -0.9021  0.7296
 2789SOL    HW219827   3.511   1.446   3.333 -0.6662 -0.8106 -0.1893
 2790SOL     OW19828   4.527   4.334   4.088  0.1105 -0.3791  0.4352
 2790SOL    HW119829   4.622   4.339   4.080  0.0631  0.8034  0.5836
 2790SOL    HW219830   4.496   4.259   4.038 -2.5326  0.9095  0.1153
 2791SOL     OW19831   4.030   4.093   6.294 -0.0709 -0.2304 -0.4170
 2791SOL    HW119832   3.962   4.060   6.352  0.0196 -1.7783 -1.1967
 2791SOL    HW219833   4.103   4.120   6.351  0.3535  0.1706 -1.1529
 2792SOL     OW19834   1.189   2.019  11.349 -0.6016  0.3304  0.1802
 2792SOL    HW119835   1.098   2.008  11.323 -0.5717 -0.8036  0.5409
 2792SOL    HW219836   1.221   2.003  11.260 -0.8303 -1.9039  0.4861
 2793SOL     OW19837   2.676   3.107   1.976  0.1983 -0.3167  0.4047
 2793SOL    HW119838   2.676   3.013   1.996 -0.4205 -0.9246 -2.4511
 2793SOL    HW219839   2.684   3.108   1.881 -5.2495 -1.2076 -0.0123
 2794SOL     OW19840   1.136   2.978   6.456  0.4697  0.0064  0.0754
 2794SOL    HW119841   1.123   3.053   6.399 -1.0387  2.0120  3.0613
 2794SOL    HW219842   1.065   2.923   6.423  2.1235 -2.1217  0.0195
 2795SOL     OW19843   2.330   3.997  10.780  0.1887  0.4481  0.1520
 2795SOL    HW119844   2.397   4.062  10.759  0.5835  0.4119  1.2851
 2795SOL    HW219845   2.253   4.053  10.779 -1.5963 -1.9942  1.6602
 2796SOL     OW19846   1.135   3.833   2.574 -0.7847 -0.1782  0.0998
 2796SOL    HW119847   1.159   3.750   2.533  1.8939  1.4504 -1.6131
 2796SOL    HW219848   1.207   3.893   2.552 -1.0236  0.9522  2.3817
 2797SOL     OW19849   2.859   1.856   3.293  0.1757  0.4243 -0.2281
 2797SOL    HW119850   2.787   1.891   3.241  0.2147 -1.0568 -1.2784
 2797SOL    HW219851   2.906   1.833   3.213 -0.4544  1.5821 -0.9195
 2798SOL     OW19852   0.630   0.208   8.384 -0.2275  0.0578 -0.1985
 2798SOL    HW119853   0.561   0.268   8.411 -0.5515 -0.1768 -0.4996
 2798SOL    HW219854   0.586   0.167   8.309  1.0276 -2.8311  0.6291
 2799SOL     OW19855   3.196   4.313  16.414 -0.1009 -0.6072 -0.0460
 2799SOL    HW119856   3.233   4.371  16.481  0.0060  0.5369 -1.0884
 2799SOL    HW219857   3.258   4.242  16.398 -0.4546 -1.1806  1.1541
 2800SOL     OW19858   1.872   3.055   4.251 -0.2004 -0.6171  0.3138
 2800SOL    HW119859   1.845   3.062   4.160  0.4172 -3.3243 -0.0528
 2800SOL    HW219860   1.914   3.141   4.265  1.5740 -0.7807 -4.1060
 2801SOL     OW19861   1.217   0.360   1.266  0.3018  0.4419 -0.7135
 2801SOL    HW119862   1.239   0.451   1.243 -1.1714  0.8966 -0.3417
 2801SOL    HW219863   1.240   0.316   1.185 -0.7974 -1.1986 -0.1356
 2802SOL     OW19864   2.441   2.787   0.008 -0.0844  0.2023 -0.3711
 2802SOL    HW119865   2.430   2.708   0.061  0.7737  0.1134 -0.3157
 2802SOL    HW219866   2.515   2.760  17.645 -0.6695  0.2101 -1.1524
 2803SOL     OW19867   3.126   4.237   8.538 -0.4700  0.4092  0.0811
 2803SOL    HW119868   3.036   4.204   8.535 -0.0079 -0.7271 -0.9194
 2803SOL    HW219869   3.133   4.270   8.628 -0.1554 -3.7762  1.5510
 2804SOL     OW19870   0.994   1.406   2.738 -0.1738 -0.0445  0.0826
 2804SOL    HW119871   0.913   1.388   2.786 -1.2002 -1.6314 -2.2867
 2804SOL    HW219872   1.034   1.471   2.796  3.6189 -2.2094 -0.0726
 2805SOL     OW19873   1.239   2.026   7.107  0.5213  0.4708 -0.0683
 2805SOL    HW119874   1.244   1.936   7.076  1.3652  0.5259 -0.0730
 2805SOL    HW219875   1.239   2.075   7.025 -1.0128  0.4496 -0.0830
 2806SOL     OW19876   0.480   3.743   6.621  0.4657  0.0461 -0.2031
 2806SOL    HW119877   0.494   3.655   6.587  1.0218  0.2788 -0.5880
 2806SOL    HW219878   0.459   3.710   6.708 -2.1903 -1.7274 -1.5237
 2807SOL     OW19879   0.193   0.264   7.653 -0.4267  0.1316 -0.4210
 2807SOL    HW119880   0.169   0.307   7.735  0.1932  0.1132 -0.2319
 2807SOL    HW219881   0.254   0.323   7.611  0.3968 -1.0646 -0.9177
 2808SOL     OW19882   1.825   3.032  10.868  0.5044 -0.3487  0.2811
 2808SOL    HW119883   1.773   2.951  10.859  1.3943 -0.5113 -3.1011
 2808SOL    HW219884   1.846   3.058  10.778 -0.3646  2.1677  0.8082
 2809SOL     OW19885   4.618   4.051  11.246 -0.3797 -0.4337 -0.1863
 2809SOL    HW119886   4.582   4.085  11.164 -0.6066 -0.0406  0.0760
 2809SOL    HW219887   4.535   4.039  11.291 -0.9871 -0.9035 -1.4121
 2810SOL     OW19888   2.318   2.353  12.347 -0.3154  0.7705  0.4987
 2810SOL    HW119889   2.288   2.272  12.386 -0.1092  0.8123  0.7423
 2810SOL    HW219890   2.391   2.319  12.294 -0.7703  0.8744 -0.1898
 2811SOL     OW19891   1.483   0.812  13.198  0.7100  0.4133  0.4832
 2811SOL    HW119892   1.469   0.907  13.193  0.6101  0.2750 -1.8306
 2811SOL    HW219893   1.572   0.801  13.163 -0.4516 -0.5853 -2.1039
 2812SOL     OW19894   2.053   4.193   8.666 -0.5555 -0.2905 -0.0471
 2812SOL    HW119895   1.976   4.146   8.637 -0.9153  1.0061 -1.1550
 2812SOL    HW219896   2.091   4.190   8.578  0.5992  0.3452  0.4284
 2813SOL     OW19897   0.566   0.207   3.212 -0.4284  0.8901 -0.0936
 2813SOL    HW119898   0.520   0.207   3.129  1.3248  0.3656 -1.0544
 2813SOL    HW219899   0.628   0.138   3.187 -0.3358  0.9779 -0.1046
 2814SOL     OW19900   1.038   2.930   1.202  0.0858  0.8279  0.3967
 2814SOL    HW119901   1.058   2.909   1.293  1.5644 -1.4919 -0.4487
 2814SOL    HW219902   1.041   2.843   1.162  2.0949  1.0790  0.0097
 2815SOL     OW19903   4.206   2.789  11.348  0.7254 -0.7974 -0.0292
 2815SOL    HW119904   4.211   2.758  11.438 -1.6221 -2.8288 -0.6110
 2815SOL    HW219905   4.289   2.836  11.355  1.2772 -1.3721 -2.6308
 2816SOL     OW19906   3.509   1.514  13.339  0.0947 -0.3544 -0.1835
 2816SOL    HW119907   3.427   1.501  13.387  1.1913 -0.6599  1.6267
 2816SOL    HW219908   3.475   1.573  13.271 -0.6092 -1.6911 -0.9831
 2817SOL     OW19909   4.233   4.332   1.081 -0.3323  0.3951 -0.0581
 2817SOL    HW119910   4.270   4.405   1.030 -1.6384  0.4847 -0.8963
 2817SOL    HW219911   4.189   4.285   1.010 -2.4015  2.2938 -0.0423
 2818SOL     OW19912   1.056   2.044   2.521 -0.1431 -0.4476 -0.1805
 2818SOL    HW119913   1.048   2.087   2.606 -0.8865 -3.3379  1.1961
 2818SOL    HW219914   1.116   1.973   2.542 -0.2113 -0.5046 -0.1774
 2819SOL     OW19915   0.493   1.440  10.478 -0.4035 -0.0511  0.1258
 2819SOL    HW119916   0.478   1.390  10.398 -0.8363  1.6369 -0.8488
 2819SOL    HW219917   0.565   1.386  10.510  0.4024  0.1764 -1.2787
 2820SOL     OW19918   2.395   1.668   3.005 -0.4451  0.1584  0.3126
 2820SOL    HW119919   2.330   1.693   2.940 -2.6788 -0.3224  2.3782
 2820SOL    HW219920   2.351   1.597   3.053  1.2640 -2.0159 -1.3389
 2821SOL     OW19921   0.552   2.050   6.033 -0.3005  0.5940 -0.2206
 2821SOL    HW119922   0.592   1.989   5.971  0.3471  0.3882  0.4070
 2821SOL    HW219923   0.617   2.120   6.024 -1.1919  1.5178  0.5713
 2822SOL     OW19924   0.705   3.328   6.511 -0.1721 -0.7973 -0.2095
 2822SOL    HW119925   0.730   3.390   6.579 -1.4488 -1.3915  0.8021
 2822SOL    HW219926   0.765   3.359   6.443 -0.3181 -2.5702 -1.1547
 2823SOL     OW19927   2.461   0.449   2.975 -0.2190 -0.0152 -0.0608
 2823SOL    HW119928   2.524   0.519   2.959  0.6385 -1.2990 -2.3604
 2823SOL    HW219929   2.395   0.501   3.019 -0.5582  0.5012 -1.1849
 2824SOL     OW19930   1.140   2.231   9.633 -0.2902  0.2935  0.6134
 2824SOL    HW119931   1.153   2.296   9.564 -1.1260 -0.2897 -0.0880
 2824SOL    HW219932   1.223   2.243   9.679 -0.7039  0.5702  1.3072
 2825SOL     OW19933   3.133   2.974   8.850 -0.6787  0.3663  0.0954
 2825SOL    HW119934   3.195   2.905   8.828 -1.2055 -1.0770  3.2128
 2825SOL    HW219935   3.166   3.012   8.931  0.5306  0.7792 -0.5839
 2826SOL     OW19936   0.768   4.619   0.359 -0.2137 -0.4744 -0.0298
 2826SOL    HW119937   0.802   4.648   0.275  1.4593 -0.1652  0.7625
 2826SOL    HW219938   0.704   4.690   0.367 -1.5548 -1.6770 -0.1227
 2827SOL     OW19939   1.944   1.729   3.451 -1.2230  0.2951  0.1964
 2827SOL    HW119940   1.882   1.801   3.462 -2.3101 -1.1131  3.1632
 2827SOL    HW219941   2.029   1.774   3.449 -0.1600 -1.7105  0.3037
 2828SOL     OW19942   2.999   3.683   6.017  0.5101 -0.1885  0.1632
 2828SOL    HW119943   2.994   3.723   5.930  0.6118  2.6589  1.4928
 2828SOL    HW219944   3.032   3.595   5.998 -1.9095 -0.8633 -0.8849
 2829SOL     OW19945   0.492   2.961   8.547  0.7000  0.1599  0.2159
 2829SOL    HW119946   0.424   2.919   8.599 -0.1237  0.5384 -0.5524
 2829SOL    HW219947   0.503   2.894   8.479  3.4310  1.7928 -0.9607
 2830SOL     OW19948   2.091   4.282   6.257  0.2954 -0.2238  0.0750
 2830SOL    HW119949   2.016   4.296   6.314  0.6667 -0.3856  0.6065
 2830SOL    HW219950   2.161   4.282   6.322 -0.8849 -0.9413  1.3527
 2831SOL     OW19951   0.601   0.448   7.970  0.4211  0.1403 -0.0834
 2831SOL    HW119952   0.645   0.369   7.939  1.1267  0.3714  0.3295
 2831SOL    HW219953   0.553   0.412   8.044 -0.7382  1.6833 -0.0909
 2832SOL     OW19954   2.946   1.397   2.119  0.3965  0.4924  0.0339
 2832SOL    HW119955   3.011   1.391   2.049 -0.6772  1.6127 -1.0687
 2832SOL    HW219956   2.895   1.471   2.087 -1.4829 -0.8439 -0.0365
 2833SOL     OW19957   2.649   0.332   3.126 -0.5349 -0.2929  0.0066
 2833SOL    HW119958   2.724   0.374   3.084 -0.4959  1.4111  1.7580
 2833SOL    HW219959   2.574   0.373   3.083  1.7350  4.0156  0.1572
 2834SOL     OW19960   1.897   0.086  17.282 -0.0534 -0.1525  0.5615
 2834SOL    HW119961   1.953   0.011  17.301  1.4718  0.1368 -2.8845
 2834SOL    HW219962   1.917   0.132  17.363  0.2977  0.1043  0.3255
 2835SOL     OW19963   3.889   2.968   3.991 -0.0656 -0.7188 -0.2079
 2835SOL    HW119964   3.919   2.940   3.905 -1.4058 -1.2703 -0.5043
 2835SOL    HW219965   3.805   2.922   3.996 -0.2567 -0.4687 -1.1856
 2836SOL     OW19966   0.819   2.926   8.294 -0.5056  0.2589 -0.1789
 2836SOL    HW119967   0.725   2.934   8.281 -0.8252 -1.8459  0.9017
 2836SOL    HW219968   0.828   2.935   8.389  0.1650  2.3721 -0.4412
 2837SOL     OW19969   3.409   2.870   4.320 -0.6801 -0.2368 -0.3499
 2837SOL    HW119970   3.321   2.904   4.303 -0.8400 -0.5019 -0.0522
 2837SOL    HW219971   3.454   2.898   4.240  2.9356 -0.2229  1.7111
 2838SOL     OW19972   2.142   3.258  11.619 -0.1067  0.1403  0.0738
 2838SOL    HW119973   2.097   3.336  11.589 -1.0397 -0.5482 -0.3199
 2838SOL    HW219974   2.072   3.203  11.655 -0.8052 -1.1296 -3.2032
 2839SOL     OW19975   1.682   2.937   2.641  0.5153 -0.6890  0.1422
 2839SOL    HW119976   1.622   2.867   2.615 -1.1758  0.6502  0.3534
 2839SOL    HW219977   1.746   2.888   2.692  1.7521  0.4817 -0.2754
 2840SOL     OW19978   2.387   2.469   1.698  0.1943 -0.3176  0.2663
 2840SOL    HW119979   2.435   2.386   1.697  1.1494  0.2282 -0.0207
 2840SOL    HW219980   2.295   2.447   1.686 -0.0116 -0.3748  1.9174
 2841SOL     OW19981   0.757   4.048  15.233 -0.4680  0.3525 -0.3161
 2841SOL    HW119982   0.671   4.009  15.248  0.3691 -0.8940  1.3322
 2841SOL    HW219983   0.822   3.977  15.236 -0.1380  0.5723 -2.2539
 2842SOL     OW19984   0.722   2.399   1.202  0.4408 -0.4229 -0.2243
 2842SOL    HW119985   0.797   2.421   1.147  0.7283 -1.8199 -0.3792
 2842SOL    HW219986   0.712   2.468   1.268 -1.1261 -1.2023  0.3443
 2843SOL     OW19987   1.371   0.034   8.656 -0.0456 -0.4446 -0.2508
 2843SOL    HW119988   1.312   0.009   8.585  1.3815  0.3448 -1.7168
 2843SOL    HW219989   1.428   4.681   8.667  1.0548  0.9166  3.2016
 2844SOL     OW19990   3.072   2.415  15.677  0.2530 -0.1464  0.3116
 2844SOL    HW119991   3.014   2.471  15.624  0.0646  0.2157  0.8996
 2844SOL    HW219992   3.085   2.339  15.620 -1.0222 -1.3803  1.6743
 2845SOL     OW19993   3.629   4.048   6.837 -0.0073  0.9625 -0.2940
 2845SOL    HW119994   3.596   4.033   6.926  0.4493 -0.2941 -0.3403
 2845SOL    HW219995   3.647   4.141   6.851 -0.2165  1.0429 -0.5772
 2846SOL     OW19996   2.866   0.547   0.618  0.2013  0.4568 -0.3126
 2846SOL    HW119997   2.912   0.524   0.699 -3.0027  3.0338  2.2516
 2846SOL    HW219998   2.807   0.613   0.654  0.2144  0.0181  0.5251
 2847SOL     OW19999   3.024   4.654   8.985 -0.1643 -0.3684 -0.1243
 2847SOL    HW120000   3.118   4.649   9.007 -0.6191 -1.7167  1.5469
 2847SOL    HW220001   3.021   4.577   8.928 -0.7476 -1.0015  0.7650
 2848SOL     OW20002   2.072   1.375   3.828  0.4849  0.8751 -0.3417
 2848SOL    HW120003   1.981   1.349   3.816 -0.3136  3.4232  0.0914
 2848SOL    HW220004   2.123   1.296   3.810 -1.0553  0.1111 -1.2802
 2849SOL     OW20005   2.799   4.369   1.071  0.0548 -0.2960  0.0951
 2849SOL    HW120006   2.708   4.392   1.089  0.7311  2.6449 -0.1577
 2849SOL    HW220007   2.851   4.432   1.121 -0.1420  1.4391 -1.8637
 2850SOL     OW20008   3.355   2.297   3.656 -0.1872 -0.6292  0.6383
 2850SOL    HW120009   3.334   2.206   3.636 -0.2625 -0.3873 -0.3622
 2850SOL    HW220010   3.444   2.277   3.687 -0.6867 -1.3896  1.5878
 2851SOL     OW20011   4.403   1.718  17.102 -0.2128 -0.4581  0.4563
 2851SOL    HW120012   4.339   1.648  17.089 -1.5180  0.5908  1.2291
 2851SOL    HW220013   4.480   1.695  17.049 -0.8897 -1.3870 -0.1151
 2852SOL     OW20014   3.705   1.895   8.391  0.3162  0.8008 -0.9724
 2852SOL    HW120015   3.641   1.923   8.456 -0.3570  1.9504 -2.1515
 2852SOL    HW220016   3.773   1.849   8.442 -1.0368  0.1172  0.2383
 2853SOL     OW20017   4.490   1.380   3.634 -0.2784 -0.0556  0.3302
 2853SOL    HW120018   4.538   1.460   3.655  1.0055  0.1465 -3.3226
 2853SOL    HW220019   4.554   1.314   3.610  1.0906  2.7336 -3.7987
 2854SOL     OW20020   3.026   0.753   9.166 -0.5379 -0.1465 -0.3713
 2854SOL    HW120021   3.009   0.769   9.259 -1.7736 -0.4717 -0.5392
 2854SOL    HW220022   2.953   0.797   9.124 -2.0130 -1.3653  0.9469
 2855SOL     OW20023   1.934   0.661  11.134  0.6236 -0.7800  0.0904
 2855SOL    HW120024   1.891   0.687  11.052  1.8744 -1.5603 -0.8029
 2855SOL    HW220025   1.866   0.618  11.186  0.1144  1.7502  1.5331
 2856SOL     OW20026   0.486   4.589   7.581  0.4747  0.2744 -0.5338
 2856SOL    HW120027   0.479   4.643   7.660  0.0813  0.2161 -0.5274
 2856SOL    HW220028   0.478   4.651   7.509 -2.5506 -0.5988 -0.9168
 2857SOL     OW20029   1.532   1.092   2.990 -0.0340  0.3418  0.0801
 2857SOL    HW120030   1.484   1.162   2.946 -1.5240 -1.3708 -0.9866
 2857SOL    HW220031   1.464   1.036   3.028 -1.8911  1.7659 -1.1790
 2858SOL     OW20032   0.466   4.123   4.696  0.7510 -0.6323 -0.0395
 2858SOL    HW120033   0.464   4.039   4.650 -0.1672 -0.3844 -0.4414
 2858SOL    HW220034   0.507   4.182   4.633  0.5803 -0.2251  0.2312
 2859SOL     OW20035   2.064   4.163   3.174  0.0198 -0.2896 -0.0799
 2859SOL    HW120036   2.028   4.248   3.198 -1.1970 -0.8114 -0.0546
 2859SOL    HW220037   2.136   4.195   3.120  0.6907  3.0093  2.7391
 2860SOL     OW20038   0.736   3.389   5.637  0.1594 -0.3627 -0.0867
 2860SOL    HW120039   0.652   3.371   5.595  0.7028  1.6600 -2.0370
 2860SOL    HW220040   0.758   3.307   5.682 -0.9352 -0.6692 -0.1240
 2861SOL     OW20041   2.758   0.367   7.004 -0.1351  0.2153 -0.1745
 2861SOL    HW120042   2.804   0.427   6.945  0.5267  0.6386  0.7669
 2861SOL    HW220043   2.671   0.406   6.999 -0.0080  0.3910 -1.0307
 2862SOL     OW20044   2.804   3.514   7.195  0.5121  0.5413  0.3292
 2862SOL    HW120045   2.760   3.594   7.224 -0.7002 -0.7057  1.9198
 2862SOL    HW220046   2.753   3.457   7.252  1.4225  1.6080  2.2288
 2863SOL     OW20047   0.380   1.113   7.183 -0.3202  0.4290  0.0319
 2863SOL    HW120048   0.372   1.028   7.140 -0.0699  0.7073 -0.5796
 2863SOL    HW220049   0.356   1.175   7.114 -2.6891  0.8911  1.2846
 2864SOL     OW20050   3.656   3.665   5.685 -0.4278 -0.0181 -0.0353
 2864SOL    HW120051   3.741   3.675   5.642 -0.1375 -0.1424  0.5198
 2864SOL    HW220052   3.666   3.619   5.768 -0.6593  0.8885  0.4962
 2865SOL     OW20053   3.742   1.122  16.926 -0.1756 -0.2774 -0.0615
 2865SOL    HW120054   3.793   1.048  16.893 -0.6502 -0.5843 -0.1080
 2865SOL    HW220055   3.807   1.142  16.993 -0.0837  2.2381 -0.8830
 2866SOL     OW20056   4.133   0.033   1.872  0.0510  0.2222  0.3233
 2866SOL    HW120057   4.069   0.020   1.802  1.4441  0.3983 -0.9648
 2866SOL    HW220058   4.207   4.709   1.833 -0.0254 -1.6460  2.3925
 2867SOL     OW20059   0.634   3.009   7.567 -0.0582 -0.0056  0.8247
 2867SOL    HW120060   0.662   3.049   7.650  3.5074 -1.3974  0.2943
 2867SOL    HW220061   0.710   2.955   7.548  0.6310  1.0985  0.3995
 2868SOL     OW20062   1.266   1.246  12.949 -0.4479  0.0070 -0.3692
 2868SOL    HW120063   1.308   1.331  12.936 -2.7701  1.1454 -0.3916
 2868SOL    HW220064   1.280   1.197  12.867 -0.8184  1.7019 -1.4377
 2869SOL     OW20065   3.394   3.179  16.015 -0.5064 -0.1034 -0.4370
 2869SOL    HW120066   3.454   3.206  16.084  0.9380 -0.5608 -1.5087
 2869SOL    HW220067   3.309   3.201  16.051 -1.0100 -1.3184 -0.8696
 2870SOL     OW20068   0.742   4.186   6.322  0.4503 -0.3607 -0.0443
 2870SOL    HW120069   0.767   4.118   6.385  2.5830 -0.7058 -1.2703
 2870SOL    HW220070   0.662   4.221   6.362  1.3898  0.3181  1.2559
 2871SOL     OW20071   0.176   1.123   8.962 -0.4726  0.0844 -0.9535
 2871SOL    HW120072   0.204   1.078   9.042 -0.1686 -1.3436 -1.8714
 2871SOL    HW220073   0.213   1.210   8.971  1.1371 -0.4312 -2.8127
 2872SOL     OW20074   2.717   2.754  12.386 -0.0618  0.2560  0.1293
 2872SOL    HW120075   2.715   2.849  12.382  0.5105  0.1748 -1.8316
 2872SOL    HW220076   2.622   2.749  12.390 -0.0761  0.4221 -0.0509
 2873SOL     OW20077   3.182   0.870  10.623  0.7411 -0.2705 -0.0985
 2873SOL    HW120078   3.195   0.890  10.716 -2.0213  2.5864 -0.3645
 2873SOL    HW220079   3.184   0.775  10.611 -3.2515 -0.3221 -0.1971
 2874SOL     OW20080   3.468   4.365  12.590  0.5379 -0.0867  0.5031
 2874SOL    HW120081   3.392   4.356  12.532  0.7813 -0.3472  0.2222
 2874SOL    HW220082   3.537   4.373  12.525  0.1542 -0.3328  0.0630
 2875SOL     OW20083   3.560   2.950   8.608 -0.0525  0.3290 -0.1042
 2875SOL    HW120084   3.571   2.962   8.702 -0.2246  1.2799 -0.2104
 2875SOL    HW220085   3.550   3.042   8.583 -1.5837 -0.0747 -0.9766
 2876SOL     OW20086   0.085   4.001   8.500 -0.1240  0.8689 -0.1443
 2876SOL    HW120087   4.713   4.005   8.496  0.0164  1.7142 -2.4656
 2876SOL    HW220088   0.118   4.089   8.519  5.7362 -1.8144  2.3409
 2877SOL     OW20089   2.527   3.301  12.389  0.3354  0.1554  0.1626
 2877SOL    HW120090   2.521   3.386  12.346  2.1465  0.2260  0.0333
 2877SOL    HW220091   2.550   3.327  12.478  0.1314  2.4922 -0.4560
 2878SOL     OW20092   0.266   2.758   9.325  0.1658  0.2790  0.1672
 2878SOL    HW120093   0.351   2.738   9.285 -0.0187 -0.0837 -0.0496
 2878SOL    HW220094   0.263   2.736   9.418  4.1142 -0.0868  0.1844
 2879SOL     OW20095   1.262   1.501   4.336 -0.1595  0.2268  0.3670
 2879SOL    HW120096   1.255   1.529   4.427 -2.2156 -0.8443  0.5281
 2879SOL    HW220097   1.353   1.475   4.320 -0.1891  0.4758 -0.1992
 2880SOL     OW20098   0.382   1.790  10.976  0.0900  0.3789 -0.5805
 2880SOL    HW120099   0.454   1.852  10.976  0.2496  0.1957 -2.2837
 2880SOL    HW220100   0.407   1.738  10.899 -2.0632  0.0142 -1.0328
 2881SOL     OW20101   4.149   1.191  14.038  0.3848  0.3220 -0.2410
 2881SOL    HW120102   4.209   1.192  14.112 -1.8581  0.3897  1.5943
 2881SOL    HW220103   4.183   1.260  13.981  0.0085  1.4627  0.8996
 2882SOL     OW20104   1.086   1.160   6.450  0.2152 -0.2610  0.5796
 2882SOL    HW120105   1.081   1.247   6.489 -1.7279 -0.4379  0.7276
 2882SOL    HW220106   0.996   1.131   6.440  0.1914 -0.5784  1.7673
 2883SOL     OW20107   2.731   4.250   8.280 -0.3542  0.3965  0.1943
 2883SOL    HW120108   2.695   4.330   8.319  1.9926  1.6542 -0.1990
 2883SOL    HW220109   2.810   4.282   8.237 -1.5149  0.8813 -1.5805
 2884SOL     OW20110   1.166   1.114   3.740 -0.0290 -0.0038 -0.4147
 2884SOL    HW120111   1.257   1.138   3.758  0.1292  0.8190 -2.2768
 2884SOL    HW220112   1.132   1.143   3.824  1.4191  2.5101 -0.6621
 2885SOL     OW20113   1.693   3.785   3.511 -0.3038  0.2117 -0.0384
 2885SOL    HW120114   1.630   3.755   3.576 -1.0274 -1.2432 -1.4033
 2885SOL    HW220115   1.736   3.702   3.490  0.0946  0.8565 -1.8100
 2886SOL     OW20116   0.977   4.660   5.851  0.5478 -0.3551 -0.1359
 2886SOL    HW120117   0.893   4.634   5.813 -0.4651 -0.9975  2.5564
 2886SOL    HW220118   1.035   4.593   5.816 -0.9659 -1.4219 -0.5851
 2887SOL     OW20119   0.796   1.531   8.189 -0.3531 -0.3048  0.1852
 2887SOL    HW120120   0.867   1.595   8.183 -0.3830 -0.0348  2.5917
 2887SOL    HW220121   0.821   1.500   8.276  1.4161  0.0655 -0.1928
 2888SOL     OW20122   2.220   2.984  14.522 -0.2672 -0.4904  0.4658
 2888SOL    HW120123   2.223   3.012  14.614  1.4673  1.1165 -0.0928
 2888SOL    HW220124   2.199   2.892  14.538  0.7614 -0.6955  0.6463
 2889SOL     OW20125   1.792   3.187   7.926  0.2551  0.6451 -0.0061
 2889SOL    HW120126   1.884   3.169   7.907  0.3815  0.6520  0.5970
 2889SOL    HW220127   1.751   3.102   7.935 -0.3407  0.8488 -0.8399
 2890SOL     OW20128   0.318   0.386   7.238 -0.1581  0.1349 -1.0661
 2890SOL    HW120129   0.255   0.437   7.289 -1.6378 -1.6786 -1.0430
 2890SOL    HW220130   0.391   0.447   7.248  0.4860 -0.8068 -0.0443
 2891SOL     OW20131   1.482   2.398   5.110 -0.5909  0.0736  0.2345
 2891SOL    HW120132   1.438   2.407   5.026 -1.0524  0.7246  0.5396
 2891SOL    HW220133   1.411   2.410   5.173 -2.1778 -2.3590 -1.1279
 2892SOL     OW20134   4.704   3.854  10.239  0.4074  0.4802  0.7727
 2892SOL    HW120135   0.007   3.931  10.187 -0.6593  0.2843 -0.0422
 2892SOL    HW220136   4.609   3.866  10.238  0.3927  0.4191  2.1227
 2893SOL     OW20137   0.030   0.680   5.218  0.1444  0.0565  0.2922
 2893SOL    HW120138   0.089   0.633   5.276  0.5558  1.5527  1.1021
 2893SOL    HW220139   0.082   0.758   5.197 -1.8528  1.4435  0.4771
 2894SOL     OW20140   1.650   1.542   5.691  0.1484  0.1061  0.0200
 2894SOL    HW120141   1.669   1.466   5.745  1.0426 -1.0136 -1.8581
 2894SOL    HW220142   1.705   1.530   5.613  0.4348 -1.7964  0.5117
 2895SOL     OW20143   0.592   0.922   7.251 -0.5328  0.0087  0.3397
 2895SOL    HW120144   0.646   0.902   7.327 -0.1969 -0.5819 -0.0507
 2895SOL    HW220145   0.585   1.017   7.258 -1.3325  0.1516 -2.2611
 2896SOL     OW20146   4.612   2.578  14.202  0.2491  0.2691  0.3399
 2896SOL    HW120147   4.588   2.490  14.233 -1.6730  0.7314  0.1722
 2896SOL    HW220148   4.658   2.555  14.121 -0.8882 -0.7085 -0.0368
 2897SOL     OW20149   4.291   1.449  14.467  0.0353 -0.4133  0.3735
 2897SOL    HW120150   4.208   1.496  14.457  0.7938  0.5450 -1.4688
 2897SOL    HW220151   4.271   1.369  14.517 -1.3392  0.5309  1.3289
 2898SOL     OW20152   3.968   2.151   2.410 -0.0349 -0.4682 -0.0085
 2898SOL    HW120153   4.026   2.083   2.443  0.7450 -0.5247 -1.5052
 2898SOL    HW220154   4.031   2.221   2.391 -1.4388  0.8060  0.0429
 2899SOL     OW20155   2.792   3.444  12.777  0.1014 -0.2908 -0.0875
 2899SOL    HW120156   2.876   3.429  12.736  0.7022  1.9629  0.3243
 2899SOL    HW220157   2.739   3.390  12.718  1.7155 -0.5444 -1.2858
 2900SOL     OW20158   1.682   1.953   7.841 -0.5765  0.5695 -0.3909
 2900SOL    HW120159   1.684   1.916   7.752  0.0071 -0.3806  0.0180
 2900SOL    HW220160   1.614   1.896   7.878  0.8259 -1.9596 -1.6767
 2901SOL     OW20161   3.371   2.325   4.930  0.5496  0.1278  0.6877
 2901SOL    HW120162   3.292   2.323   4.875 -1.1767 -1.6785  3.2692
 2901SOL    HW220163   3.331   2.324   5.017  1.1954 -1.8756  0.9566
 2902SOL     OW20164   2.923   1.473   5.138 -0.4731 -0.4257  0.0168
 2902SOL    HW120165   2.979   1.450   5.213  1.5228  1.4333 -0.9111
 2902SOL    HW220166   2.963   1.552   5.101 -1.5351  1.6673  3.2999
 2903SOL     OW20167   2.136   2.452   1.156 -0.1872 -0.0365  0.0820
 2903SOL    HW120168   2.126   2.458   1.061 -0.1827  2.5471  0.2599
 2903SOL    HW220169   2.182   2.369   1.171  1.6832  1.4486  2.5593
 2904SOL     OW20170   1.621   3.173   2.806  0.1293  0.3808  0.4351
 2904SOL    HW120171   1.704   3.202   2.767 -0.2901  0.4641 -0.3886
 2904SOL    HW220172   1.597   3.112   2.737  1.0297 -0.8456  1.2105
 2905SOL     OW20173   1.158   1.604   1.203 -0.0852  0.2787  0.2586
 2905SOL    HW120174   1.153   1.633   1.112  2.0293 -1.6784 -0.4641
 2905SOL    HW220175   1.251   1.581   1.213 -0.8978 -2.8490  0.5614
 2906SOL     OW20176   4.721   1.782   4.334  0.0196  0.1934  0.3533
 2906SOL    HW120177   4.653   1.725   4.299  3.1381 -1.6790 -2.6834
 2906SOL    HW220178   0.051   1.804   4.256  0.2155 -0.4412  0.3082
 2907SOL     OW20179   1.774   2.353   4.665 -0.1887  0.2598  0.0650
 2907SOL    HW120180   1.697   2.375   4.613  0.7166 -0.5876 -1.6416
 2907SOL    HW220181   1.735   2.374   4.750  1.4357  2.3422  0.3135
 2908SOL     OW20182   0.734   3.725   0.439  0.2542  0.7459  0.1909
 2908SOL    HW120183   0.779   3.775   0.372 -2.2216  0.4228 -1.6818
 2908SOL    HW220184   0.755   3.767   0.523  0.4677  1.7688 -0.3849
 2909SOL     OW20185   3.422   3.729   7.365 -0.0482  0.1327 -0.0434
 2909SOL    HW120186   3.338   3.757   7.328 -0.0708  0.0487 -0.0560
 2909SOL    HW220187   3.471   3.810   7.375  0.8232 -0.6504  2.0366
 2910SOL     OW20188   4.241   4.582   1.279  0.1650  0.2214  0.5837
 2910SOL    HW120189   4.202   4.669   1.280 -0.5867 -0.1035 -1.4784
 2910SOL    HW220190   4.285   4.602   1.196 -1.9821  0.7433 -0.4259
 2911SOL     OW20191   0.738   1.765   7.591 -0.2762  0.1571  0.4830
 2911SOL    HW120192   0.654   1.797   7.558  0.0387 -0.3305 -0.8121
 2911SOL    HW220193   0.807   1.826   7.569  0.8448 -1.2262  0.1531
 2912SOL     OW20194   2.651   3.069   7.657 -0.2120  0.1821  0.1866
 2912SOL    HW120195   2.642   3.045   7.749 -0.1068  0.7108  0.3325
 2912SOL    HW220196   2.612   3.156   7.654 -1.1707 -0.3344 -2.2788
 2913SOL     OW20197   1.615   1.940   9.390  0.1146  0.2718 -0.1788
 2913SOL    HW120198   1.700   1.924   9.430  1.1339 -1.1600 -2.8809
 2913SOL    HW220199   1.558   1.880   9.437 -1.5993  1.2686 -0.9883
 2914SOL     OW20200   4.640   2.351   6.898 -0.5708 -0.5302  0.6300
 2914SOL    HW120201   4.629   2.320   6.808 -3.3861 -0.1138  0.8146
 2914SOL    HW220202   4.554   2.327   6.934 -1.2247 -0.3573 -0.7862
 2915SOL     OW20203   1.672   1.511  10.375 -0.1678 -0.1545 -0.1221
 2915SOL    HW120204   1.753   1.516  10.425  1.0571  0.4995 -2.1959
 2915SOL    HW220205   1.621   1.568  10.434  1.1999 -1.6298  2.4908
 2916SOL     OW20206   1.020   2.149  13.592  0.3071 -0.2906  0.0704
 2916SOL    HW120207   1.003   2.111  13.678 -1.4234  1.6260  0.5670
 2916SOL    HW220208   0.967   2.229  13.600 -0.5841 -0.8148 -0.5744
 2917SOL     OW20209   2.188   1.114   3.781  0.3653 -0.3662 -0.4386
 2917SOL    HW120210   2.157   1.094   3.692  1.7694 -1.0536 -0.7866
 2917SOL    HW220211   2.161   1.036   3.830 -0.4641  1.1890  1.5414
 2918SOL     OW20212   4.523   0.351   4.052  0.3202 -0.1059  0.8561
 2918SOL    HW120213   4.453   0.410   4.081  1.0800 -0.0762  2.6380
 2918SOL    HW220214   4.541   0.311   4.137 -2.9916 -0.4799  1.3820
 2919SOL     OW20215   4.420   4.676   2.045 -0.6595 -0.1155  0.3120
 2919SOL    HW120216   4.482   4.607   2.021 -0.9893 -0.7496  1.3106
 2919SOL    HW220217   4.462   0.027   2.000 -0.3324  0.4920  1.6101
 2920SOL     OW20218   0.582   4.062  11.968 -0.0550  0.4275 -0.1080
 2920SOL    HW120219   0.537   3.978  11.979  1.1540 -0.1785  0.2708
 2920SOL    HW220220   0.634   4.043  11.890  1.8044 -0.6811  1.3941
 2921SOL     OW20221   2.405   2.316   3.705 -0.2124  0.1567 -0.1538
 2921SOL    HW120222   2.467   2.324   3.778 -0.0543 -0.7746 -0.1927
 2921SOL    HW220223   2.435   2.391   3.654 -0.2894  0.3944  0.1492
 2922SOL     OW20224   1.665   2.567   9.818 -0.2621 -0.0525  0.3921
 2922SOL    HW120225   1.719   2.646   9.810 -1.0921  0.2941 -1.8627
 2922SOL    HW220226   1.625   2.561   9.731 -0.3250  3.0732  0.2110
 2923SOL     OW20227   0.095   1.551   7.399 -0.1834 -0.5170 -0.7558
 2923SOL    HW120228   0.001   1.541   7.414  0.3820  0.5554  3.3895
 2923SOL    HW220229   0.099   1.559   7.304 -0.9315 -1.2642 -0.8468
 2924SOL     OW20230   1.149   0.813  14.478 -0.1238 -0.1753 -0.4478
 2924SOL    HW120231   1.165   0.798  14.571  1.7229 -0.8732 -0.8942
 2924SOL    HW220232   1.173   0.727  14.443  1.4329  0.2414 -0.3632
 2925SOL     OW20233   1.356   4.158   4.069 -0.0830 -0.1128 -0.5680
 2925SOL    HW120234   1.289   4.199   4.123 -0.1181 -2.2654  1.0114
 2925SOL    HW220235   1.405   4.102   4.129 -1.1963  1.1258  1.4661
 2926SOL     OW20236   1.881   3.834   1.831  0.5409  0.1932 -0.5742
 2926SOL    HW120237   1.936   3.758   1.812  1.9952  1.0132  0.2930
 2926SOL    HW220238   1.885   3.854   1.925 -1.2406  0.1037 -0.4948
 2927SOL     OW20239   0.347   1.429   3.845  0.2561 -0.1329 -0.2632
 2927SOL    HW120240   0.293   1.507   3.832 -0.6464 -0.4488  1.5268
 2927SOL    HW220241   0.351   1.386   3.759  1.6397 -0.5186 -0.0035
 2928SOL     OW20242   0.651   2.246   1.589  0.1457 -0.1431 -0.8206
 2928SOL    HW120243   0.693   2.174   1.541  3.5747  0.7277  0.9043
 2928SOL    HW220244   0.559   2.219   1.592  0.3585 -0.7207  0.6076
 2929SOL     OW20245   3.988   4.098   9.837  0.2270  0.4028 -0.3360
 2929SOL    HW120246   3.984   4.189   9.807 -0.0853  0.4225 -0.2393
 2929SOL    HW220247   4.083   4.095   9.844  0.0929  0.1633  1.4518
 2930SOL     OW20248   1.434   0.450   4.918  0.1086  0.2755 -0.3195
 2930SOL    HW120249   1.521   0.442   4.879 -0.7999  0.5812 -2.3523
 2930SOL    HW220250   1.406   0.360   4.900 -3.2358  0.7526  2.4256
 2931SOL     OW20251   1.368   2.520   9.231  0.2968 -0.8918 -0.6086
 2931SOL    HW120252   1.289   2.518   9.177 -1.2548  0.1291  1.6186
 2931SOL    HW220253   1.370   2.429   9.260  1.2508 -0.3862  0.8852
 2932SOL     OW20254   2.068   0.983  15.666  0.7183 -0.0091  0.4429
 2932SOL    HW120255   2.136   0.916  15.671  2.2767  1.6380  1.0304
 2932SOL    HW220256   2.083   1.023  15.580 -1.5548  0.3280  0.2016
 2933SOL     OW20257   2.470   2.809   3.264  0.0960  0.2246 -0.2374
 2933SOL    HW120258   2.530   2.736   3.281 -1.4528 -0.8550  0.6381
 2933SOL    HW220259   2.393   2.765   3.229 -0.4628  0.5477  0.5755
 2934SOL     OW20260   3.069   4.014   7.735  0.7176  0.0327 -0.1168
 2934SOL    HW120261   3.080   3.921   7.757  0.2349 -0.0413 -0.1846
 2934SOL    HW220262   3.122   4.050   7.807 -3.0834  0.9971  2.1709
 2935SOL     OW20263   3.803   0.246   4.083 -0.1326 -0.5942  1.0920
 2935SOL    HW120264   3.716   0.228   4.047 -0.5182  0.7800  1.3449
 2935SOL    HW220265   3.848   0.207   4.008  0.9355 -1.7582  2.3233
 2936SOL     OW20266   2.863   1.337   3.220  0.2195  0.0240  0.2725
 2936SOL    HW120267   2.895   1.258   3.264  1.2058  1.7791  2.7051
 2936SOL    HW220268   2.782   1.358   3.267  1.0501  3.2411  0.3074
 2937SOL     OW20269   3.292   2.752   8.849  0.2651 -0.1469 -0.2616
 2937SOL    HW120270   3.375   2.744   8.802  1.5562 -0.4750  2.1213
 2937SOL    HW220271   3.300   2.675   8.905 -0.6350  0.6028  0.9060
 2938SOL     OW20272   0.405   3.991   2.922 -0.1306  0.2906  0.2234
 2938SOL    HW120273   0.347   3.927   2.881  1.9685 -0.6606 -1.2579
 2938SOL    HW220274   0.443   4.024   2.841 -0.6906 -0.1357 -0.2076
 2939SOL     OW20275   0.555   2.332   8.309 -0.5474 -0.0121  0.3327
 2939SOL    HW120276   0.565   2.381   8.390  2.5669  0.8653 -0.5844
 2939SOL    HW220277   0.489   2.264   8.326  0.4294 -0.7810  1.0640
 2940SOL     OW20278   0.527   3.199   6.340  0.1882 -0.1895  0.6509
 2940SOL    HW120279   0.442   3.236   6.364  0.5368  0.8171  0.3592
 2940SOL    HW220280   0.580   3.244   6.406  0.3738  0.4467  0.0677
 2941SOL     OW20281   2.386   4.437   7.558 -0.8402  0.6878  0.4739
 2941SOL    HW120282   2.454   4.393   7.609  0.1633 -2.1255 -3.3475
 2941SOL    HW220283   2.435   4.499   7.504 -0.1920 -0.7643 -0.5819
 2942SOL     OW20284   2.080   0.038   5.124  0.1999  0.1993 -0.2766
 2942SOL    HW120285   2.027   0.045   5.203  1.4272  0.1409  0.5649
 2942SOL    HW220286   2.119   4.673   5.132 -0.9487 -0.2195  0.6534
 2943SOL     OW20287   3.733   1.565   9.871  0.4184 -0.2271 -0.1543
 2943SOL    HW120288   3.743   1.608   9.956  0.0943  1.1266 -0.7999
 2943SOL    HW220289   3.826   1.577   9.856 -0.0310 -1.4578 -3.8202
 2944SOL     OW20290   0.798   4.637   2.876  0.0629 -0.7276  0.1999
 2944SOL    HW120291   0.862   4.674   2.815  0.5689  0.3408  1.3694
 2944SOL    HW220292   0.764   4.568   2.820 -0.6159  0.2761 -0.6124
 2945SOL     OW20293   2.754   4.441   2.879 -0.0639  0.4511  0.0496
 2945SOL    HW120294   2.731   4.479   2.795  2.5864 -0.8429 -1.2483
 2945SOL    HW220295   2.686   4.478   2.936 -0.8259  1.8028 -1.7504
 2946SOL     OW20296   1.445   3.526   8.219  0.5186 -0.2095 -0.7748
 2946SOL    HW120297   1.349   3.519   8.219  0.4490  0.7460 -0.3734
 2946SOL    HW220298   1.456   3.570   8.304  1.3520 -1.0507 -0.4501
 2947SOL     OW20299   1.346   0.944   2.781 -0.4510  0.3383 -0.0200
 2947SOL    HW120300   1.302   0.880   2.837 -1.8644  1.6452  0.3573
 2947SOL    HW220301   1.300   0.915   2.702 -1.5062  0.8483  0.3997
 2948SOL     OW20302   0.167   0.565   1.847 -0.7722 -0.2595 -0.4364
 2948SOL    HW120303   0.248   0.570   1.796 -2.0807  0.5104 -2.4294
 2948SOL    HW220304   0.118   0.506   1.790 -0.9752 -0.9417  0.4597
 2949SOL     OW20305   2.396   1.233   7.383 -0.4980  0.2462  0.6400
 2949SOL    HW120306   2.476   1.216   7.434 -0.3330  0.3465  0.4138
 2949SOL    HW220307   2.340   1.278   7.447  0.2586  0.2982  1.2687
 2950SOL     OW20308   3.281   3.366   2.487 -0.0930 -0.1224  0.3476
 2950SOL    HW120309   3.345   3.331   2.425  0.6311 -0.0095  1.0327
 2950SOL    HW220310   3.199   3.327   2.456 -0.1563 -0.6072  1.1433
 2951SOL     OW20311   1.468   0.577   2.329 -0.4571 -0.4505  0.2606
 2951SOL    HW120312   1.498   0.631   2.255 -0.5218  0.4321  0.8834
 2951SOL    HW220313   1.487   0.492   2.288  0.0850  0.3305 -1.1051
 2952SOL     OW20314   0.532   3.024   0.315  0.1508 -0.0083  0.4410
 2952SOL    HW120315   0.547   2.930   0.328 -0.9693 -0.2127  0.2414
 2952SOL    HW220316   0.609   3.029   0.258  0.5406  1.4710  1.1023
 2953SOL     OW20317   1.360   1.356   9.056 -0.2508 -0.4182 -0.0554
 2953SOL    HW120318   1.438   1.388   9.101 -0.1796  1.2987 -1.4270
 2953SOL    HW220319   1.377   1.264   9.035 -0.3962 -0.1821 -1.1722
 2954SOL     OW20320   4.417   2.513   8.601  0.4374  0.2931  0.2638
 2954SOL    HW120321   4.454   2.477   8.681 -1.3531  0.7607  1.2929
 2954SOL    HW220322   4.323   2.496   8.610  1.3248 -2.8383  3.2802
 2955SOL     OW20323   2.663   4.207   2.255  0.0754  0.0202  0.1875
 2955SOL    HW120324   2.718   4.285   2.247 -0.4034  0.2603 -0.7582
 2955SOL    HW220325   2.697   4.158   2.330  0.8145 -0.5786 -0.5304
 2956SOL     OW20326   0.028   0.409   1.644 -0.4004 -0.1855  0.4327
 2956SOL    HW120327   4.702   0.427   1.564 -0.0840 -0.6108  0.1442
 2956SOL    HW220328   0.034   0.314   1.649  4.6982  0.0577 -0.8404
 2957SOL     OW20329   2.223   1.169  15.056 -0.1939  0.1738 -0.3822
 2957SOL    HW120330   2.317   1.160  15.071 -0.6709 -3.0504  0.6483
 2957SOL    HW220331   2.221   1.186  14.961 -1.8077 -2.3253 -0.7762
 2958SOL     OW20332   1.027   4.080   7.608 -0.1017  0.0955 -0.0936
 2958SOL    HW120333   1.008   4.038   7.524 -1.9640 -0.5390  0.6433
 2958SOL    HW220334   0.999   4.167   7.579  0.9963  0.8245  1.0404
 2959SOL     OW20335   3.374   1.020   5.238 -0.1914  0.0961  0.0495
 2959SOL    HW120336   3.361   0.989   5.328 -0.8288 -0.7730 -0.3434
 2959SOL    HW220337   3.469   1.021   5.227 -0.0254 -2.6908  1.2998
 2960SOL     OW20338   4.108   2.481   4.169 -0.0761  0.2432 -0.2817
 2960SOL    HW120339   4.088   2.505   4.078 -3.0195 -0.1060  0.2765
 2960SOL    HW220340   4.147   2.395   4.156  0.8950  0.5040  0.9994
 2961SOL     OW20341   0.929   1.525   1.309 -0.0288  0.4718 -0.3257
 2961SOL    HW120342   0.937   1.433   1.335 -2.5705 -0.1956 -1.8521
 2961SOL    HW220343   1.017   1.555   1.286  0.9711 -2.1668  0.1066
 2962SOL     OW20344   2.608   1.015   7.453 -0.1653  0.7569  0.3203
 2962SOL    HW120345   2.573   1.020   7.364  2.2670  0.4319 -0.6669
 2962SOL    HW220346   2.536   0.965   7.492 -1.3508  0.7295 -1.8952
 2963SOL     OW20347   0.274   4.176   6.644  0.3654 -0.3089  0.1403
 2963SOL    HW120348   0.360   4.134   6.633  0.2055  0.1765 -2.7791
 2963SOL    HW220349   0.234   4.170   6.558 -0.4594  0.0741  0.4962
 2964SOL     OW20350   0.460   1.697  10.717  0.9945  0.1717 -0.6747
 2964SOL    HW120351   0.520   1.632  10.754 -1.6101 -3.2358 -2.4138
 2964SOL    HW220352   0.385   1.644  10.690  0.3823  1.1082 -0.8195
 2965SOL     OW20353   2.894   1.455   1.350  0.4175  0.1304 -0.5040
 2965SOL    HW120354   2.899   1.452   1.254 -2.6190  0.6988 -0.6909
 2965SOL    HW220355   2.833   1.525   1.373  1.1658  0.1068  1.5045
 2966SOL     OW20356   3.507   1.889   4.061  0.0941 -0.5149  0.6586
 2966SOL    HW120357   3.473   1.813   4.108  0.7610 -2.3950 -1.9167
 2966SOL    HW220358   3.435   1.935   4.020  0.2366  0.8298  1.9097
 2967SOL     OW20359   1.322   1.720   3.012 -0.2171 -0.7365  0.1027
 2967SOL    HW120360   1.392   1.661   3.040 -0.2343 -1.3968 -1.2365
 2967SOL    HW220361   1.275   1.748   3.090 -0.1691 -1.5440  0.4194
 2968SOL     OW20362   2.922   3.683   3.485  0.1980 -0.1003 -0.1127
 2968SOL    HW120363   2.975   3.709   3.410  1.3957  1.0455  1.1402
 2968SOL    HW220364   2.982   3.690   3.559  0.6553  0.1230 -0.5070
 2969SOL     OW20365   1.285   3.450  14.338  0.5067  0.9869 -0.3411
 2969SOL    HW120366   1.316   3.380  14.396  0.3801  0.4047 -0.9644
 2969SOL    HW220367   1.326   3.519  14.389 -1.7114  1.5573  0.6720
 2970SOL     OW20368   4.568   3.536  16.539  0.3344  0.3812 -0.2994
 2970SOL    HW120369   4.536   3.626  16.538 -2.0352 -0.4436  1.3190
 2970SOL    HW220370   4.486   3.489  16.553 -0.5635  2.1146  0.3860
 2971SOL     OW20371   4.544   2.087   9.210  0.3669  0.3408 -0.4716
 2971SOL    HW120372   4.521   2.117   9.298  1.2175  0.6102 -0.3426
 2971SOL    HW220373   4.561   2.174   9.174 -0.1509  0.5427 -0.2364
 2972SOL     OW20374   1.503   2.413   4.600 -0.4820  0.1849 -0.3663
 2972SOL    HW120375   1.440   2.485   4.598 -0.3566  0.2395 -3.5540
 2972SOL    HW220376   1.449   2.344   4.562 -0.6384  0.0145  0.1747
 2973SOL     OW20377   4.018   2.217   1.235  0.0572  0.7612 -0.0616
 2973SOL    HW120378   4.094   2.199   1.180  1.0195 -0.5360  1.7207
 2973SOL    HW220379   3.985   2.302   1.204 -1.3846  0.6771  1.2159
 2974SOL     OW20380   1.261   0.236   8.432 -0.3819 -0.4092 -0.1573
 2974SOL    HW120381   1.248   0.218   8.338 -0.6945 -1.3591  0.0699
 2974SOL    HW220382   1.231   0.153   8.468  0.1518  0.5195  2.4043
 2975SOL     OW20383   4.706   2.245   1.400 -0.0178  0.0086 -0.4668
 2975SOL    HW120384   4.671   2.233   1.312 -0.7335  0.6921 -0.2696
 2975SOL    HW220385   0.040   2.168   1.412 -0.4663 -0.1044  0.9086
 2976SOL     OW20386   0.459   0.095   7.769 -0.0559  0.1041  0.2992
 2976SOL    HW120387   0.498   0.176   7.735 -0.1685  0.0196 -0.0387
 2976SOL    HW220388   0.404   0.130   7.839 -0.9356 -1.4837  0.4056
 2977SOL     OW20389   2.790   4.414   3.253 -0.0085  0.2200  0.3661
 2977SOL    HW120390   2.750   4.418   3.341  0.4221  1.3129  0.5090
 2977SOL    HW220391   2.874   4.456   3.265 -1.9204  3.5660  1.8925
 2978SOL     OW20392   3.830   1.819  13.701  0.2030 -0.2644  0.1776
 2978SOL    HW120393   3.784   1.796  13.620 -2.1032 -0.7378  1.6222
 2978SOL    HW220394   3.902   1.871  13.667 -0.8298  0.3419 -1.0612
 2979SOL     OW20395   2.978   2.092   5.725  0.2285  0.1672  0.0160
 2979SOL    HW120396   3.046   2.025   5.731  2.1296  2.1517  0.6484
 2979SOL    HW220397   2.995   2.165   5.785 -0.5832  3.2659 -3.5381
 2980SOL     OW20398   3.176   0.875   8.180  0.0424 -0.6503 -0.0317
 2980SOL    HW120399   3.092   0.891   8.224  0.3071  0.2199  0.1509
 2980SOL    HW220400   3.237   0.854   8.250  0.2245  0.1590  0.0569
 2981SOL     OW20401   0.263   3.670  16.417 -0.3154  0.2968  0.5025
 2981SOL    HW120402   0.274   3.718  16.335  0.1367  0.9197  0.9259
 2981SOL    HW220403   0.290   3.581  16.395 -0.1785  1.0197 -2.2570
 2982SOL     OW20404   0.734   0.657  11.634  0.9630 -0.5507  0.0227
 2982SOL    HW120405   0.694   0.590  11.580  1.2816 -0.8814  0.1953
 2982SOL    HW220406   0.731   0.737  11.582 -2.4837 -0.2026  0.7926
 2983SOL     OW20407   0.412   2.833   2.813 -0.4680 -0.2810 -0.0539
 2983SOL    HW120408   0.358   2.851   2.736 -0.3097 -0.9417 -0.3243
 2983SOL    HW220409   0.354   2.880   2.873  0.9791 -0.4936  1.5230
 2984SOL     OW20410   1.671   2.093   9.169 -0.1512  0.1014 -0.1859
 2984SOL    HW120411   1.734   2.022   9.174  1.0142  1.2401  1.3013
 2984SOL    HW220412   1.635   2.080   9.257 -0.8641 -0.5014 -0.5677
 2985SOL     OW20413   4.439   4.664   6.269 -0.1419  0.9166  0.1713
 2985SOL    HW120414   4.449   4.662   6.364  0.9740 -0.9974  0.0093
 2985SOL    HW220415   4.346   4.680   6.251 -0.4599 -1.4379 -0.3139
 2986SOL     OW20416   4.041   4.124   3.283  0.1466 -1.1370 -0.0345
 2986SOL    HW120417   4.073   4.100   3.196  1.1613 -2.1693  0.6133
 2986SOL    HW220418   3.956   4.082   3.275  0.2161 -1.3785  0.5095
 2987SOL     OW20419   4.595   2.002   6.624  0.1500  0.3286  0.5087
 2987SOL    HW120420   4.566   2.089   6.597  3.0491  1.3568  0.6801
 2987SOL    HW220421   4.623   1.971   6.538  0.4894  1.7665  0.1027
 2988SOL     OW20422   0.281   1.012   3.929 -0.1228  0.3890  0.2678
 2988SOL    HW120423   0.252   1.044   3.844  1.8916  1.4935 -0.0061
 2988SOL    HW220424   0.224   0.938   3.949  0.3166  0.2335  0.9479
 2989SOL     OW20425   4.577   2.488   2.798  0.1274 -0.1476 -0.0257
 2989SOL    HW120426   4.607   2.559   2.855  0.4030 -0.8635  0.7138
 2989SOL    HW220427   4.490   2.526   2.784  0.8724  1.5754 -0.0211
 2990SOL     OW20428   3.458   3.357   3.472  0.4546  0.2921 -0.1252
 2990SOL    HW120429   3.401   3.313   3.534  0.8349 -0.1112 -0.0644
 2990SOL    HW220430   3.545   3.318   3.481 -0.7522 -2.3696 -0.0223
 2991SOL     OW20431   3.740   4.338   6.060  0.2847  0.4572 -0.2676
 2991SOL    HW120432   3.809   4.283   6.023 -0.1855 -0.3235  0.0141
 2991SOL    HW220433   3.683   4.373   5.992  0.5484 -1.0913 -1.2765
 2992SOL     OW20434   1.017   3.305   5.364 -0.6351 -0.4063  0.0315
 2992SOL    HW120435   0.939   3.288   5.310  0.0388  0.7052 -1.2927
 2992SOL    HW220436   1.086   3.262   5.313 -0.6900 -2.4794  1.6893
 2993SOL     OW20437   0.101   0.750   9.871  0.2846  0.4413  0.0107
 2993SOL    HW120438   0.159   0.708   9.935 -0.0041 -0.7225 -0.4944
 2993SOL    HW220439   0.161   0.804   9.819 -1.0485  2.0359  0.1152
 2994SOL     OW20440   1.484   0.841   3.614 -0.4977 -0.3982  0.6928
 2994SOL    HW120441   1.418   0.773   3.620 -0.6706 -0.1935  1.0846
 2994SOL    HW220442   1.487   0.849   3.519  0.2629  1.7821  0.8896
 2995SOL     OW20443   2.495   1.430  15.018  0.8746  0.3808  0.3881
 2995SOL    HW120444   2.434   1.420  14.945  0.7995  0.7559  0.3957
 2995SOL    HW220445   2.504   1.343  15.057  1.3537 -0.3466 -1.3632
 2996SOL     OW20446   1.535   0.353   4.277  0.1002 -0.3993  0.0717
 2996SOL    HW120447   1.503   0.428   4.226 -0.7843 -0.0508  1.1182
 2996SOL    HW220448   1.571   0.403   4.351  1.7446 -1.7105  0.1250
 2997SOL     OW20449   1.395   1.339   2.932 -0.4117 -0.4488  0.0514
 2997SOL    HW120450   1.451   1.410   2.964 -1.1797 -1.2567  3.1431
 2997SOL    HW220451   1.319   1.340   2.990  0.7677 -1.0715  1.5922
 2998SOL     OW20452   2.416   3.923   6.765  0.5166 -0.0414  0.5731
 2998SOL    HW120453   2.392   4.010   6.734 -0.2337  0.0084  1.3078
 2998SOL    HW220454   2.330   3.881   6.773  0.0243  0.4901 -1.9690
 2999SOL     OW20455   4.104   2.667   2.577 -0.4720  0.6085  0.2137
 2999SOL    HW120456   4.109   2.686   2.484 -1.1101 -0.4447 -0.0260
 2999SOL    HW220457   4.011   2.684   2.585 -0.7948 -0.5424 -1.0925
 3000SOL     OW20458   0.316   0.949   5.935 -0.2628 -0.2651 -0.8230
 3000SOL    HW120459   0.340   0.915   6.021  2.1963  0.8545 -1.0679
 3000SOL    HW220460   0.253   0.882   5.907  0.2940 -0.9708 -0.3936
 3001SOL     OW20461   3.501   3.097   3.757 -0.6838  0.0462 -0.1825
 3001SOL    HW120462   3.461   3.105   3.671  1.8872  0.3677 -1.3445
 3001SOL    HW220463   3.589   3.064   3.740  0.8185  2.2931  3.0986
 3002SOL     OW20464   1.079   2.009  14.671  0.0014  0.1310  0.3726
 3002SOL    HW120465   1.115   1.977  14.588 -0.4944  2.3216 -0.6697
 3002SOL    HW220466   1.117   1.946  14.733 -1.1311  0.3407  1.2732
 3003SOL     OW20467   2.134   0.492   8.881 -0.6679  0.5309  0.1924
 3003SOL    HW120468   2.115   0.452   8.797  0.5483  0.9025 -0.2597
 3003SOL    HW220469   2.152   0.420   8.941 -0.1489  2.0962  1.9289
 3004SOL     OW20470   1.586   3.003   7.449 -0.1037 -0.5227 -0.3419
 3004SOL    HW120471   1.500   3.032   7.478  0.3791 -0.6979  1.2905
 3004SOL    HW220472   1.637   3.003   7.531  2.4463  1.5418 -1.9368
 3005SOL     OW20473   2.377   2.999   2.364  0.2285 -0.2900 -0.2950
 3005SOL    HW120474   2.431   3.060   2.314 -0.3376  0.4888  0.0328
 3005SOL    HW220475   2.449   2.938   2.379 -0.4236 -1.2606 -1.0985
 3006SOL     OW20476   3.422   3.508  17.163  0.7763 -0.3196  0.0756
 3006SOL    HW120477   3.405   3.584  17.219  2.2596  1.1221 -1.4419
 3006SOL    HW220478   3.517   3.516  17.152  1.1266 -0.6199  2.7660
 3007SOL     OW20479   0.441   3.834  11.919 -0.2700  0.1006 -0.3601
 3007SOL    HW120480   0.498   3.761  11.897 -1.2969 -0.1063 -2.2970
 3007SOL    HW220481   0.390   3.867  11.845  0.7662  0.7567 -0.7807
 3008SOL     OW20482   3.538   1.824   7.205  0.3887 -0.0284 -0.5969
 3008SOL    HW120483   3.449   1.822   7.171 -0.0679 -0.5794  0.6162
 3008SOL    HW220484   3.548   1.740   7.248  0.9650 -1.1174 -2.8794
 3009SOL     OW20485   2.367   1.661  13.535 -0.2102 -0.1921 -0.0659
 3009SOL    HW120486   2.407   1.575  13.521  0.6485 -0.0391  1.4263
 3009SOL    HW220487   2.442   1.712  13.567  0.3030 -0.5506 -0.6780
 3010SOL     OW20488   0.921   3.531   9.188  0.2844 -0.2800 -0.7217
 3010SOL    HW120489   0.899   3.444   9.221 -1.8613  0.3187 -0.6034
 3010SOL    HW220490   0.885   3.553   9.102 -0.0059 -1.8004 -0.9785
 3011SOL     OW20491   2.473   1.542   6.098  0.2576  0.9973 -0.3664
 3011SOL    HW120492   2.437   1.629   6.114 -1.1378  0.2728  0.3540
 3011SOL    HW220493   2.404   1.506   6.043 -0.5084 -0.2788  1.4537
 3012SOL     OW20494   1.531   2.591   1.662  0.7691 -0.0319 -0.1038
 3012SOL    HW120495   1.444   2.625   1.642  1.6386  2.0503 -0.4191
 3012SOL    HW220496   1.532   2.607   1.756  2.5592  1.2463 -0.3274
 3013SOL     OW20497   4.440   2.116   2.442 -0.4584 -0.0793  0.3013
 3013SOL    HW120498   4.424   2.059   2.518 -1.2084 -2.5124 -1.6787
 3013SOL    HW220499   4.381   2.079   2.377  1.3681  1.0789 -1.9993
 3014SOL     OW20500   0.120   0.055  11.905 -0.3685 -0.8434  0.1361
 3014SOL    HW120501   0.176   0.051  11.982 -2.4428 -0.8700  1.6516
 3014SOL    HW220502   0.148   4.700  11.858  1.0640 -0.1387 -0.1730
 3015SOL     OW20503   2.338   0.816   1.872  0.0164 -0.7455 -0.4565
 3015SOL    HW120504   2.388   0.839   1.794  0.8337  2.3318  0.9871
 3015SOL    HW220505   2.382   0.732   1.886 -3.3959 -2.2775  1.0835
 3016SOL     OW20506   0.534   3.660   2.121  0.4832 -0.1450 -0.7458
 3016SOL    HW120507   0.546   3.635   2.030 -0.5955 -0.2867 -0.8551
 3016SOL    HW220508   0.603   3.608   2.162  2.6222  3.2503 -0.0714
 3017SOL     OW20509   4.499   2.359   7.416 -0.3599 -0.3727 -0.1963
 3017SOL    HW120510   4.529   2.416   7.345  2.2688 -0.9853  0.4175
 3017SOL    HW220511   4.419   2.409   7.434 -0.5009 -0.6370 -0.0945
 3018SOL     OW20512   1.466   3.310   2.037  0.1729  0.1174  0.7270
 3018SOL    HW120513   1.556   3.278   2.029 -0.9725 -2.7539 -0.4255
 3018SOL    HW220514   1.473   3.403   2.062 -0.0147  0.1116  0.8018
 3019SOL     OW20515   3.338   2.326   1.091  0.0825  0.3752 -0.6258
 3019SOL    HW120516   3.302   2.239   1.108  2.0989  0.2952  3.2183
 3019SOL    HW220517   3.359   2.357   1.179 -0.6149  0.7460 -0.5860
 3020SOL     OW20518   3.799   2.190   4.235  0.1258  0.1110  0.3242
 3020SOL    HW120519   3.714   2.161   4.200 -0.1543  0.3155  0.8438
 3020SOL    HW220520   3.793   2.285   4.238  0.8314  0.2415 -1.8581
 3021SOL     OW20521   1.424   2.123   8.641  0.0830 -0.0199 -0.2358
 3021SOL    HW120522   1.482   2.155   8.571  1.3576 -0.2868  0.6972
 3021SOL    HW220523   1.452   2.176   8.716  0.6436  2.2541 -2.0339
 3022SOL     OW20524   4.631   2.747   8.858 -0.0937  0.2521  0.2710
 3022SOL    HW120525   4.541   2.763   8.830  0.3720  3.1036  0.3424
 3022SOL    HW220526   4.619   2.668   8.910  0.4080  0.1686  0.2575
 3023SOL     OW20527   1.370   0.014   7.038 -0.0566 -0.4586  0.4172
 3023SOL    HW120528   1.338   4.701   6.955 -0.5764 -2.5146  1.4934
 3023SOL    HW220529   1.434   0.079   7.011 -0.6583 -0.1489 -0.2572
 3024SOL     OW20530   4.212   4.645   6.001 -0.4033 -0.1184 -0.7088
 3024SOL    HW120531   4.236   0.013   5.984  0.9803 -0.2407  0.5406
 3024SOL    HW220532   4.119   4.645   6.023  0.2961  0.4068  2.1563
 3025SOL     OW20533   1.699   0.415  14.568 -0.0472  0.9367 -0.0853
 3025SOL    HW120534   1.633   0.388  14.504 -0.0368 -1.0162  0.7491
 3025SOL    HW220535   1.772   0.380  14.517  0.9706 -0.8924  2.6443
 3026SOL     OW20536   3.105   0.202   4.924  0.3695  0.5609  0.2465
 3026SOL    HW120537   3.149   0.217   4.840  1.5697 -1.0615  0.5930
 3026SOL    HW220538   3.023   0.237   4.889  0.8100  2.1518  0.8183
 3027SOL     OW20539   1.900   3.787   5.345 -0.1040 -0.1287  0.0067
 3027SOL    HW120540   1.963   3.757   5.279 -1.3315  2.3923 -2.3359
 3027SOL    HW220541   1.942   3.873   5.347  0.9221 -0.6030 -0.9425
 3028SOL     OW20542   0.177   3.624   2.620  0.0723  0.5000  0.1093
 3028SOL    HW120543   0.175   3.568   2.542 -0.5539 -0.9179  1.1368
 3028SOL    HW220544   0.085   3.625   2.646 -0.2022  0.4825 -0.8685
 3029SOL     OW20545   0.170   3.908   6.155  0.0519  0.2929 -0.0305
 3029SOL    HW120546   0.126   3.823   6.158  2.1492 -0.6297  5.5833
 3029SOL    HW220547   0.091   3.959   6.172 -0.5966 -0.3768 -1.0404
 3030SOL     OW20548   0.947   1.441   3.081 -0.1564  0.0984  0.5117
 3030SOL    HW120549   0.871   1.384   3.077 -0.0212 -0.1575  1.6956
 3030SOL    HW220550   0.932   1.461   3.174  0.3444 -0.5461  0.7295
 3031SOL     OW20551   0.350   2.836  11.519 -0.8347 -0.2808  0.0921
 3031SOL    HW120552   0.372   2.928  11.501 -2.0190  0.0935  0.5749
 3031SOL    HW220553   0.322   2.814  11.430  2.9232 -2.0020 -0.6687
 3032SOL     OW20554   1.211   0.348  13.844  0.2613  0.2309 -0.5279
 3032SOL    HW120555   1.215   0.364  13.750 -1.1814 -0.9065 -0.7962
 3032SOL    HW220556   1.304   0.365  13.857  0.0653 -0.3355  1.6352
 3033SOL     OW20557   3.564   2.623  11.876 -0.2333 -0.3769 -0.2275
 3033SOL    HW120558   3.642   2.581  11.912  0.7152  0.0759 -1.7399
 3033SOL    HW220559   3.587   2.714  11.855  0.8252 -0.7025 -0.4901
 3034SOL     OW20560   1.036   0.271   8.710 -0.1967  0.6065  0.3815
 3034SOL    HW120561   0.979   0.324   8.655 -1.4672  0.5678  1.6855
 3034SOL    HW220562   0.970   0.209   8.741  0.3120  0.8550  1.9384
 3035SOL     OW20563   3.134   3.692  10.766 -1.0911 -0.3876  0.1523
 3035SOL    HW120564   3.205   3.689  10.830 -0.6070  1.5395 -0.3099
 3035SOL    HW220565   3.165   3.612  10.723 -0.0735  0.3581 -0.5231
 3036SOL     OW20566   1.596   4.448   3.144 -0.4749 -0.6038 -0.5860
 3036SOL    HW120567   1.680   4.452   3.189  0.3083  0.6072 -2.1774
 3036SOL    HW220568   1.626   4.405   3.065  0.9363  0.8227 -0.8275
 3037SOL     OW20569   2.669   0.922  16.411  0.4278 -0.4239 -0.3092
 3037SOL    HW120570   2.716   0.959  16.335 -0.5263  1.9818  0.2691
 3037SOL    HW220571   2.628   0.848  16.367  1.4373 -1.1420 -0.0414
 3038SOL     OW20572   0.650   0.777  16.159  0.1133  0.1864  0.2979
 3038SOL    HW120573   0.635   0.870  16.173 -2.4341 -0.0695 -0.8611
 3038SOL    HW220574   0.711   0.771  16.086 -0.6533  0.0095 -0.3255
 3039SOL     OW20575   1.085   2.101   5.463  0.0850 -0.0085 -0.2341
 3039SOL    HW120576   1.128   2.103   5.377  0.0396  1.5233 -0.2085
 3039SOL    HW220577   1.060   2.009   5.475  1.4137 -0.6787 -2.3878
 3040SOL     OW20578   3.579   3.548   0.825 -0.2703 -0.0264 -0.2164
 3040SOL    HW120579   3.515   3.612   0.855 -1.0641 -2.6213  3.5607
 3040SOL    HW220580   3.535   3.465   0.807 -2.0010  0.8794 -0.1912
 3041SOL     OW20581   3.200   1.851  11.432 -0.0116  0.1060 -0.5066
 3041SOL    HW120582   3.170   1.942  11.426  0.2312  0.2653  0.5677
 3041SOL    HW220583   3.158   1.813  11.509  0.6506 -1.1612 -0.7750
 3042SOL     OW20584   1.085   0.563  14.001 -0.0764 -0.1221  0.8372
 3042SOL    HW120585   1.079   0.517  14.084 -2.3615 -0.5506  0.4380
 3042SOL    HW220586   1.119   0.498  13.939  0.7393  1.5817 -0.5174
 3043SOL     OW20587   0.924   1.759   9.229  0.4271 -0.8062 -0.3217
 3043SOL    HW120588   0.939   1.758   9.324 -1.4246 -0.0288 -0.0165
 3043SOL    HW220589   1.006   1.795   9.195  0.6400 -0.1251  0.9314
 3044SOL     OW20590   3.820   3.974   3.221 -0.3792 -0.0451 -0.2768
 3044SOL    HW120591   3.788   3.886   3.206 -0.0680 -0.0806 -0.7212
 3044SOL    HW220592   3.777   4.022   3.150  0.5337 -1.0642 -1.5203
 3045SOL     OW20593   4.147   3.237   5.588 -1.0336  0.1517  0.0833
 3045SOL    HW120594   4.197   3.187   5.653 -0.1722 -0.0129 -0.6975
 3045SOL    HW220595   4.064   3.195   5.610  0.0644 -1.8294  0.4576
 3046SOL     OW20596   2.968   1.434   1.097  0.9155 -0.0127  0.1012
 3046SOL    HW120597   3.027   1.495   1.053  0.2507 -0.5457 -1.5295
 3046SOL    HW220598   2.977   1.355   1.044 -0.9649 -0.7385  0.8604
 3047SOL     OW20599   1.681   3.482  15.918  0.2951  0.3724 -0.6525
 3047SOL    HW120600   1.594   3.481  15.959 -1.0419 -2.4342 -3.5116
 3047SOL    HW220601   1.663   3.533  15.838 -2.7454  0.0825 -0.1686
 3048SOL     OW20602   3.875   3.436   4.557 -0.1719 -0.0413 -0.1651
 3048SOL    HW120603   3.885   3.446   4.462 -0.5031  1.2881 -0.0519
 3048SOL    HW220604   3.897   3.343   4.567 -1.6371 -0.1533  2.1229
 3049SOL     OW20605   4.552   4.698   7.230  0.0437  0.3634  0.0293
 3049SOL    HW120606   4.571   4.646   7.152 -0.7036 -0.4739  0.3985
 3049SOL    HW220607   4.509   0.051   7.189  2.9687  1.5841 -0.7765
 3050SOL     OW20608   1.803   3.290  16.338 -0.2938 -0.1161 -0.0643
 3050SOL    HW120609   1.775   3.373  16.376 -0.4765 -0.2225  0.0361
 3050SOL    HW220610   1.725   3.238  16.358  0.4234 -1.6279 -1.1987
 3051SOL     OW20611   3.949   1.023  14.584 -0.3346 -0.2190  0.0107
 3051SOL    HW120612   3.971   0.950  14.643  1.5937 -0.4454 -0.9940
 3051SOL    HW220613   3.898   1.083  14.639 -0.5373 -0.3619 -0.0200
 3052SOL     OW20614   0.879   2.808   5.592  0.2269 -0.1446  0.2725
 3052SOL    HW120615   0.850   2.838   5.678  0.3657 -0.1586  0.3253
 3052SOL    HW220616   0.973   2.823   5.605  0.5049 -0.1728 -1.6074
 3053SOL     OW20617   2.848   1.373  14.612 -0.9444  0.4382  0.2117
 3053SOL    HW120618   2.830   1.452  14.562  1.6558 -0.7378 -2.5926
 3053SOL    HW220619   2.944   1.378  14.615 -0.8513 -0.3599 -1.4857
 3054SOL     OW20620   3.439   1.701   8.613  0.1882 -1.0932 -0.4791
 3054SOL    HW120621   3.528   1.736   8.603  0.0166 -0.8075 -1.0309
 3054SOL    HW220622   3.404   1.736   8.695  1.9243 -0.7207  0.1186
 3055SOL     OW20623   2.393   1.282   4.094  0.0793  0.1790  0.2259
 3055SOL    HW120624   2.364   1.358   4.044  0.2744 -1.4743 -2.3547
 3055SOL    HW220625   2.402   1.319   4.182 -3.1178 -2.0126  1.4775
 3056SOL     OW20626   4.603   4.049   6.445  0.3067  0.1106  0.3465
 3056SOL    HW120627   4.600   4.020   6.536  1.7646  1.8126  0.9339
 3056SOL    HW220628   4.535   4.116   6.443 -1.3479 -1.5735  0.7061
 3057SOL     OW20629   1.498   2.756   4.052  0.1241  0.0121 -0.0685
 3057SOL    HW120630   1.460   2.747   4.140  1.4213  3.2537  0.8241
 3057SOL    HW220631   1.495   2.849   4.028  3.9115 -0.3710 -2.1592
 3058SOL     OW20632   1.635   2.830   0.089 -0.2743 -0.3721  0.3292
 3058SOL    HW120633   1.549   2.788   0.087  0.6077 -2.2949  2.7707
 3058SOL    HW220634   1.690   2.752   0.087  0.7945  0.4359 -2.1116
 3059SOL     OW20635   2.481   0.745   6.490 -0.1217  0.0570  0.2726
 3059SOL    HW120636   2.446   0.660   6.517 -0.6387  0.1142 -0.2083
 3059SOL    HW220637   2.562   0.750   6.539 -1.4437 -1.3349  2.6012
 3060SOL     OW20638   0.259   2.036   6.105 -0.2680  0.6584  0.1336
 3060SOL    HW120639   0.241   2.091   6.028 -0.8903 -1.7408 -1.4452
 3060SOL    HW220640   0.353   2.020   6.105 -0.5278 -0.9350 -2.0457
 3061SOL     OW20641   0.319   2.314   2.786  0.2301 -0.0738  0.6671
 3061SOL    HW120642   0.268   2.239   2.753 -0.2849  0.4363  0.3065
 3061SOL    HW220643   0.357   2.344   2.703  1.0869  0.6942  1.3488
 3062SOL     OW20644   4.722   4.223   4.500  0.3139 -0.2260  0.3157
 3062SOL    HW120645   0.086   4.261   4.486  0.2780  0.5351  2.0770
 3062SOL    HW220646   4.667   4.292   4.464 -1.8045 -1.5330  1.0861
 3063SOL     OW20647   3.433   2.069   3.393  0.2233  0.4515  0.3466
 3063SOL    HW120648   3.489   1.992   3.394  0.1594  0.3905 -0.3970
 3063SOL    HW220649   3.497   2.137   3.373  0.9120 -0.6829 -1.3574
 3064SOL     OW20650   0.808   0.001   8.510  0.0519  0.0636  0.1210
 3064SOL    HW120651   0.767   0.002   8.423 -1.8669  0.4115  1.0206
 3064SOL    HW220652   0.735   0.022   8.568 -0.8746  0.7137 -1.2818
 3065SOL     OW20653   4.627   3.842   6.254 -0.5182  0.9599 -0.1598
 3065SOL    HW120654   4.539   3.844   6.217 -0.7257  0.6853  0.3203
 3065SOL    HW220655   4.612   3.910   6.319 -0.0876 -0.7355  1.7144
 3066SOL     OW20656   0.029   1.654   1.897  0.3362 -0.2291  0.0185
 3066SOL    HW120657   0.076   1.732   1.867  1.5660 -2.2018 -3.1671
 3066SOL    HW220658   0.083   1.636   1.973  0.8211  1.0699 -0.0136
 3067SOL     OW20659   2.623   4.385   7.697 -0.5114  0.8328 -0.5016
 3067SOL    HW120660   2.713   4.362   7.674 -0.2713 -0.4479  1.7925
 3067SOL    HW220661   2.628   4.367   7.790  0.5168  1.7931 -0.3672
 3068SOL     OW20662   1.395   0.570  17.281  0.7201 -0.3108  0.0275
 3068SOL    HW120663   1.379   0.523  17.199 -3.1075 -0.1106  0.6567
 3068SOL    HW220664   1.429   0.653  17.248  1.0962 -0.2745  0.5034
 3069SOL     OW20665   0.372   1.423  12.246  0.0603  0.2541  0.5095
 3069SOL    HW120666   0.377   1.346  12.189  0.7090 -0.4487  1.5223
 3069SOL    HW220667   0.351   1.390  12.333  0.3968 -0.2360  0.3988
 3070SOL     OW20668   0.427   1.679   3.658 -0.2941 -0.1160 -0.2728
 3070SOL    HW120669   0.457   1.764   3.689  0.8456 -1.1530  1.4856
 3070SOL    HW220670   0.510   1.643   3.625 -0.3006 -0.2400 -0.1545
 3071SOL     OW20671   4.601   3.933   4.295  0.3905  0.5106  0.0713
 3071SOL    HW120672   4.596   3.840   4.274 -0.0331  0.0245  2.3282
 3071SOL    HW220673   4.581   3.926   4.388  0.1472 -2.1470 -0.1778
 3072SOL     OW20674   2.136   0.222   6.051 -0.0156  0.6382 -0.3160
 3072SOL    HW120675   2.060   0.250   6.001 -0.8857  0.4797  0.9016
 3072SOL    HW220676   2.211   0.248   5.999  0.0507 -2.4575 -1.7662
 3073SOL     OW20677   3.944   4.551   5.565 -0.1679 -0.1175 -0.0662
 3073SOL    HW120678   3.993   4.631   5.547 -2.0950  0.9672 -0.3992
 3073SOL    HW220679   4.011   4.482   5.555 -0.2247  0.2656 -3.1404
 3074SOL     OW20680   3.673   2.806   3.991  0.2552  0.2078  0.4307
 3074SOL    HW120681   3.608   2.865   4.029  0.1012  0.1272  0.2893
 3074SOL    HW220682   3.672   2.730   4.050 -2.5794 -0.1890 -0.1704
 3075SOL     OW20683   2.533   0.391   2.445 -0.0228 -0.2142  0.2180
 3075SOL    HW120684   2.609   0.441   2.414  0.5568 -2.0832 -1.3482
 3075SOL    HW220685   2.543   0.406   2.539  2.5813 -0.9134  0.0628
 3076SOL     OW20686   2.521   3.849   2.423 -0.0241  0.5391  0.1676
 3076SOL    HW120687   2.502   3.758   2.445 -1.7130  0.8113 -0.1957
 3076SOL    HW220688   2.573   3.877   2.498 -1.4260  1.2849  0.8581
 3077SOL     OW20689   0.602   1.228   1.963  0.4547 -0.2240 -0.3872
 3077SOL    HW120690   0.674   1.255   2.020 -0.2450 -1.7274  1.2162
 3077SOL    HW220691   0.572   1.314   1.935 -0.5320 -0.4775 -0.1016
 3078SOL     OW20692   4.021   4.077   2.661  0.5437  0.5114  0.2170
 3078SOL    HW120693   4.046   3.993   2.622 -0.0539 -0.6221  2.2584
 3078SOL    HW220694   4.104   4.124   2.671  1.5925 -1.3904  0.4019
 3079SOL     OW20695   4.243   4.153  13.138 -0.3469  0.0863 -0.2238
 3079SOL    HW120696   4.268   4.098  13.063 -1.8080 -0.2061 -0.4853
 3079SOL    HW220697   4.319   4.127  13.190 -2.0471 -2.0608  1.1420
 3080SOL     OW20698   2.428   4.500   5.612 -0.3276 -0.3857 -0.4861
 3080SOL    HW120699   2.439   4.583   5.566 -0.5514  0.1024  0.3315
 3080SOL    HW220700   2.477   4.499   5.695  1.1988 -0.9823 -1.3917
 3081SOL     OW20701   4.333   3.306   8.506 -0.2041  0.3651 -0.4965
 3081SOL    HW120702   4.267   3.375   8.506  0.6655  1.1652 -3.0287
 3081SOL    HW220703   4.365   3.314   8.417 -0.8721 -0.3316 -0.8007
 3082SOL     OW20704   0.720   0.769   5.147 -0.5613  0.1734 -0.0737
 3082SOL    HW120705   0.705   0.859   5.176 -2.0696  0.9126 -3.1007
 3082SOL    HW220706   0.737   0.778   5.053  0.7606 -0.6607  0.0920
 3083SOL     OW20707   3.648   3.239   9.948 -0.0490 -0.1879  0.3219
 3083SOL    HW120708   3.648   3.190  10.030  0.0314 -0.1348  0.3537
 3083SOL    HW220709   3.570   3.212   9.900  0.7642 -1.8859 -0.0574
 3084SOL     OW20710   3.138   2.564   1.424 -0.0654 -0.2439 -0.7016
 3084SOL    HW120711   3.121   2.588   1.515 -1.7685 -0.6647 -0.9002
 3084SOL    HW220712   3.186   2.481   1.424  1.4053  0.6032 -1.8671
 3085SOL     OW20713   2.885   4.330   9.214  0.6526  0.3311  0.0393
 3085SOL    HW120714   2.867   4.320   9.121 -0.5513 -1.2130  0.4487
 3085SOL    HW220715   2.792   4.327   9.236  0.3529 -1.8971 -1.6251
 3086SOL     OW20716   0.775   3.635   6.973 -0.0649 -0.0335 -0.2888
 3086SOL    HW120717   0.734   3.549   6.976  0.7626 -0.3943  0.7581
 3086SOL    HW220718   0.696   3.689   6.964  0.0333  0.3998  1.5805
 3087SOL     OW20719   3.709   4.123   4.885  0.4232  0.1114  0.5040
 3087SOL    HW120720   3.649   4.126   4.811 -0.5407 -1.2932  1.2254
 3087SOL    HW220721   3.797   4.136   4.850  0.1825  0.1174 -0.0983
 3088SOL     OW20722   0.281   2.894  14.040 -0.1549 -0.2575  0.1508
 3088SOL    HW120723   0.271   2.956  13.968  1.3827 -2.0064 -1.5544
 3088SOL    HW220724   0.260   2.810  14.000 -0.2262  0.6124 -1.6381
 3089SOL     OW20725   4.426   4.098   2.115 -0.1907  0.4831 -0.2470
 3089SOL    HW120726   4.508   4.103   2.067  1.5160 -3.1527  2.3083
 3089SOL    HW220727   4.393   4.009   2.100 -1.3521  0.9107 -0.2635
 3090SOL     OW20728   3.994   4.278  13.168  0.1160  0.2372 -0.1800
 3090SOL    HW120729   3.941   4.219  13.114  0.4256 -0.1844 -0.0235
 3090SOL    HW220730   4.081   4.241  13.152 -0.1321 -0.1989 -0.5378
 3091SOL     OW20731   0.223   0.421  11.177 -0.3786  0.8633 -0.4704
 3091SOL    HW120732   0.161   0.375  11.120 -0.0196 -0.3407  0.1037
 3091SOL    HW220733   0.188   0.408  11.265 -0.8976  2.5364 -0.4456
 3092SOL     OW20734   3.719   1.718  13.476  0.3963 -1.0045  0.0584
 3092SOL    HW120735   3.756   1.739  13.390 -1.4535  0.6516 -0.3464
 3092SOL    HW220736   3.633   1.681  13.457  0.1753 -0.5936  0.2687
 3093SOL     OW20737   1.522   3.044  17.318  0.2114  0.3468  0.6098
 3093SOL    HW120738   1.611   3.044  17.351  0.6534 -0.1746 -0.5724
 3093SOL    HW220739   1.546   3.060  17.227 -1.0366 -0.5413  0.1197
 3094SOL     OW20740   0.098   3.779   7.719  0.4578  0.0862 -0.0640
 3094SOL    HW120741   0.154   3.853   7.741 -0.3249  0.8596 -0.6552
 3094SOL    HW220742   0.158   3.704   7.714  1.2565  0.7621 -0.5648
 3095SOL     OW20743   4.540   3.012   4.371  0.0390 -0.2460  0.3078
 3095SOL    HW120744   4.560   3.070   4.297 -2.1044  0.7021  0.4552
 3095SOL    HW220745   4.478   2.954   4.326 -1.1388 -0.1403  1.8177
 3096SOL     OW20746   1.409   0.107   3.480 -0.0435  1.0660  0.6877
 3096SOL    HW120747   1.494   0.072   3.506  0.2571 -0.2943 -2.1188
 3096SOL    HW220748   1.440   0.171   3.416  1.2692 -0.5381 -0.2761
 3097SOL     OW20749   3.053   1.575   9.508 -0.4871 -0.2347  0.2247
 3097SOL    HW120750   3.074   1.651   9.452 -0.5390 -0.9497 -0.7630
 3097SOL    HW220751   3.139   1.533   9.509 -0.2402  0.3159  2.9515
 3098SOL     OW20752   0.779   2.059   9.529  0.6023  0.1702 -0.1215
 3098SOL    HW120753   0.794   2.087   9.619  1.3010 -4.1015  1.1202
 3098SOL    HW220754   0.696   2.011   9.539  0.6429 -0.3121 -2.1114
 3099SOL     OW20755   3.861   1.124   6.001 -0.0999 -0.3585 -0.4374
 3099SOL    HW120756   3.770   1.156   6.004 -0.6280 -2.0997  1.5707
 3099SOL    HW220757   3.853   1.070   5.923 -2.5182 -0.8356  0.1519
 3100SOL     OW20758   2.492   3.949   5.802 -0.5837  0.4476  0.0198
 3100SOL    HW120759   2.460   3.945   5.892 -2.1404 -1.6673 -0.6311
 3100SOL    HW220760   2.489   4.043   5.781 -1.8543  0.2998 -0.4775
 3101SOL     OW20761   2.889   1.834   5.015 -0.1456  0.2173  0.6523
 3101SOL    HW120762   2.966   1.889   5.029 -0.1404 -0.0209  1.5823
 3101SOL    HW220763   2.911   1.787   4.934  0.4348 -2.5942  2.4443
 3102SOL     OW20764   4.624   0.514   2.133  0.2279  0.2636 -0.3242
 3102SOL    HW120765   4.626   0.604   2.100  2.0365  1.0146  1.7884
 3102SOL    HW220766   4.614   0.461   2.054  0.9986  1.3576 -1.1636
 3103SOL     OW20767   2.073   0.504   4.181  0.2918 -0.1112 -0.3311
 3103SOL    HW120768   2.067   0.438   4.112 -1.5817  1.1279 -1.3823
 3103SOL    HW220769   2.005   0.479   4.243  0.1741 -0.0730 -0.4450
 3104SOL     OW20770   1.569   2.097   0.265 -0.8026  0.0705 -0.2042
 3104SOL    HW120771   1.638   2.069   0.326 -1.7323  0.0714  0.8489
 3104SOL    HW220772   1.487   2.078   0.310 -2.5601  1.1366 -2.9409
 3105SOL     OW20773   4.186   0.111   8.582  0.4613 -0.2640  0.0151
 3105SOL    HW120774   4.248   0.075   8.646  1.3351  0.7171 -0.2790
 3105SOL    HW220775   4.126   0.037   8.577  1.9234 -1.3651 -1.3171
 3106SOL     OW20776   2.829   3.735   4.682  0.0901 -0.0946  0.2880
 3106SOL    HW120777   2.859   3.818   4.720 -0.6832 -0.4681  1.7154
 3106SOL    HW220778   2.880   3.676   4.737  2.4532  2.2926  0.6884
 3107SOL     OW20779   1.040   3.278   7.185  0.1035 -0.0128 -0.5287
 3107SOL    HW120780   1.120   3.329   7.179 -0.4232  1.0921  1.8426
 3107SOL    HW220781   1.075   3.192   7.208  0.3168 -0.1942 -1.5554
 3108SOL     OW20782   1.685   1.607   6.157 -0.7348 -0.5630  0.1851
 3108SOL    HW120783   1.753   1.658   6.201  0.4268 -0.3531 -1.8531
 3108SOL    HW220784   1.735   1.529   6.133 -0.8321 -0.6263  0.1858
 3109SOL     OW20785   0.129   2.058   0.653 -0.7665 -0.4203  0.2087
 3109SOL    HW120786   0.201   2.035   0.594  0.5863  0.4508  1.5318
 3109SOL    HW220787   0.141   2.153   0.655 -2.9804 -0.1628  1.6529
 3110SOL     OW20788   0.076   0.252   8.808 -0.0676  0.5568 -0.2018
 3110SOL    HW120789   4.707   0.226   8.799  0.2401 -0.5299 -0.2247
 3110SOL    HW220790   0.065   0.345   8.791 -0.3998  0.3887 -0.9380
 3111SOL     OW20791   3.542   1.750   5.907  0.0939 -0.5362  0.2515
 3111SOL    HW120792   3.601   1.728   5.979  1.7047  0.7511 -0.6944
 3111SOL    HW220793   3.514   1.833   5.945 -0.4395 -0.6316  0.0638
 3112SOL     OW20794   1.710   3.093   6.979  0.1095  0.2425  0.0256
 3112SOL    HW120795   1.667   3.109   7.063  1.1047  1.3420  0.3187
 3112SOL    HW220796   1.717   2.999   6.995 -2.7541  0.0148  0.0537
 3113SOL     OW20797   1.294   4.242   5.211  0.0139 -0.4113 -0.0116
 3113SOL    HW120798   1.304   4.258   5.117 -1.8722 -2.7591 -0.6029
 3113SOL    HW220799   1.328   4.154   5.222  2.0172  0.5075  1.1287
 3114SOL     OW20800   1.675   1.319   2.589  0.3120 -0.4932 -0.2306
 3114SOL    HW120801   1.611   1.391   2.584 -0.9166 -1.7486 -2.4762
 3114SOL    HW220802   1.618   1.259   2.637  2.1000 -2.4899 -0.6358
 3115SOL     OW20803   2.496   0.396  15.357  0.0321 -0.1633  0.8232
 3115SOL    HW120804   2.427   0.347  15.313  0.0979 -0.1444  0.7011
 3115SOL    HW220805   2.558   0.324  15.363  1.5675  1.1665  0.9397
 3116SOL     OW20806   0.343   3.871   2.418  0.6533 -0.4111 -0.3172
 3116SOL    HW120807   0.282   3.865   2.491 -0.7306  3.4684 -1.1771
 3116SOL    HW220808   0.292   3.840   2.343  1.2065 -2.1667  0.0207
 3117SOL     OW20809   0.323   3.625   7.640 -0.1586  0.0817 -0.7178
 3117SOL    HW120810   0.367   3.662   7.563 -0.7163  1.9093 -0.1660
 3117SOL    HW220811   0.395   3.583   7.686 -1.7186  0.6321  2.2358
 3118SOL     OW20812   4.499   0.714   5.289  0.3759  0.5888 -0.9076
 3118SOL    HW120813   4.592   0.705   5.267  0.1969 -1.2005 -0.9492
 3118SOL    HW220814   4.461   0.642   5.238  0.6311 -0.2488  0.0752
 3119SOL     OW20815   3.890   0.354   3.253 -0.1679 -0.3028 -0.5163
 3119SOL    HW120816   3.947   0.347   3.177  1.3154 -1.1935  0.6809
 3119SOL    HW220817   3.909   0.281   3.312 -0.9138 -0.6802 -0.7427
 3120SOL     OW20818   1.815   4.606   0.386 -0.0101 -0.2008  0.8087
 3120SOL    HW120819   1.859   4.689   0.366  1.6189 -0.9599  1.2558
 3120SOL    HW220820   1.870   4.570   0.456  3.0146 -0.7264 -1.8307
 3121SOL     OW20821   2.911   1.128  15.934  0.4800  0.6709 -0.4313
 3121SOL    HW120822   2.969   1.064  15.892 -0.4427 -0.8326  0.5749
 3121SOL    HW220823   2.824   1.097  15.908  1.1411 -0.8372 -0.8332
 3122SOL     OW20824   3.483   2.853   6.411  0.0098  0.7651 -0.7265
 3122SOL    HW120825   3.437   2.811   6.484  0.9961  2.7743  1.0588
 3122SOL    HW220826   3.423   2.856   6.337  0.2477 -1.8460 -1.0429
 3123SOL     OW20827   3.025   3.397  16.218  0.0100 -0.3605  0.1722
 3123SOL    HW120828   2.941   3.405  16.263  0.7121  3.2744  0.8114
 3123SOL    HW220829   3.054   3.488  16.218 -0.7655 -0.1229 -1.2281
 3124SOL     OW20830   3.223   1.992  15.628 -0.3870  0.0861 -0.2376
 3124SOL    HW120831   3.173   1.919  15.589 -1.3073  0.6417 -0.1050
 3124SOL    HW220832   3.188   2.062  15.573 -2.6855 -1.2378 -0.4885
 3125SOL     OW20833   3.551   2.119   7.271  0.0742 -0.0606 -0.5834
 3125SOL    HW120834   3.623   2.133   7.209 -0.6384 -0.0352 -1.4141
 3125SOL    HW220835   3.541   2.024   7.272 -2.4067  0.1622 -3.5678
 3126SOL     OW20836   3.724   2.162   5.135  0.4929 -0.6014 -0.0577
 3126SOL    HW120837   3.663   2.211   5.190  0.1165 -1.8858  0.6689
 3126SOL    HW220838   3.800   2.220   5.141 -1.5718  2.0802  0.2798
 3127SOL     OW20839   3.160   2.275  17.638 -0.4967  0.1228 -0.6995
 3127SOL    HW120840   3.198   2.256   0.031 -0.1968  0.1598 -0.8271
 3127SOL    HW220841   3.199   2.361  17.627  0.2826 -0.2102 -0.5228
 3128SOL     OW20842   0.451   0.834   2.611 -0.1259 -0.9949 -0.0738
 3128SOL    HW120843   0.374   0.777   2.613 -0.8519  0.1181  3.3832
 3128SOL    HW220844   0.516   0.786   2.561 -1.1391 -1.6120 -0.7913
 3129SOL     OW20845   2.274   3.577   1.763 -0.2578  0.8005 -0.1604
 3129SOL    HW120846   2.283   3.657   1.814 -1.4312  0.0731  1.1895
 3129SOL    HW220847   2.223   3.607   1.689  0.5780  0.1241 -1.0146
 3130SOL     OW20848   0.479   4.687  17.637 -0.8269  0.5590 -0.4312
 3130SOL    HW120849   0.506   0.048  17.600 -0.8733  0.1235 -1.4615
 3130SOL    HW220850   0.563   4.670  17.679 -0.7978  1.2172 -0.2310
 3131SOL     OW20851   2.608   0.119   1.780 -0.1124 -0.6123 -0.3632
 3131SOL    HW120852   2.540   0.180   1.753 -0.1456 -0.1554  0.7746
 3131SOL    HW220853   2.684   0.165   1.744 -0.3526 -0.1784 -0.3054
 3132SOL     OW20854   4.335   2.664  10.537  0.2037 -0.0344  0.0381
 3132SOL    HW120855   4.403   2.694  10.598 -0.1867  1.8052 -0.4382
 3132SOL    HW220856   4.303   2.588  10.585  0.3762  0.4778  0.9739
 3133SOL     OW20857   3.611   2.327   9.165 -0.0694 -0.0558  0.1070
 3133SOL    HW120858   3.538   2.268   9.145 -1.8364  1.4276  2.1321
 3133SOL    HW220859   3.678   2.267   9.196  1.2453  1.4244  0.1223
 3134SOL     OW20860   3.420   0.675   6.045  0.3291 -0.3742 -0.3850
 3134SOL    HW120861   3.366   0.753   6.036  0.6927 -0.1016 -0.2232
 3134SOL    HW220862   3.380   0.611   5.986  0.5817 -1.1719  0.3158
 3135SOL     OW20863   4.617   2.493  10.232 -0.2764 -0.2758  0.3504
 3135SOL    HW120864   4.620   2.399  10.215 -0.1821 -0.2946  0.4671
 3135SOL    HW220865   4.645   2.495  10.323  0.5921  0.3750  0.0688
 3136SOL     OW20866   3.615   2.844   7.958  0.2908 -0.1369  0.3298
 3136SOL    HW120867   3.605   2.815   8.048 -1.6698  0.1856  0.2113
 3136SOL    HW220868   3.599   2.762   7.911  1.7825 -1.2822  1.8458
 3137SOL     OW20869   2.334   4.239   9.304 -0.3626 -0.2996 -0.2260
 3137SOL    HW120870   2.392   4.179   9.351  1.4212  1.8318  0.2777
 3137SOL    HW220871   2.343   4.219   9.211 -0.6393  0.3093 -0.3860
 3138SOL     OW20872   0.935   2.023  11.281  0.2348  0.3032 -0.0896
 3138SOL    HW120873   0.855   2.021  11.333 -0.0298 -0.0255 -0.5118
 3138SOL    HW220874   0.894   2.052  11.199 -0.1165 -2.6676 -0.9565
 3139SOL     OW20875   3.661   1.917   8.950 -0.3693  0.1477 -0.4052
 3139SOL    HW120876   3.628   1.903   9.039  1.8593  1.7791  0.6863
 3139SOL    HW220877   3.664   1.828   8.916  2.7655  0.1952 -0.3073
 3140SOL     OW20878   2.966   2.728  16.188 -0.1144  0.3284  0.0504
 3140SOL    HW120879   2.907   2.662  16.152 -0.7729  0.2015  1.3611
 3140SOL    HW220880   2.931   2.813  16.160  0.3329  1.2686  2.3025
 3141SOL     OW20881   3.941   3.160  15.536 -0.4762 -0.1790 -0.0684
 3141SOL    HW120882   4.008   3.095  15.515  0.9061  0.4551  2.4225
 3141SOL    HW220883   3.901   3.100  15.599  0.6210 -1.5799 -0.7021
 3142SOL     OW20884   4.095   0.478   5.503 -0.0018  0.4224 -0.3877
 3142SOL    HW120885   4.168   0.539   5.494 -0.4476  0.4469 -3.9579
 3142SOL    HW220886   4.126   0.409   5.443  0.6429 -0.1489  0.6001
 3143SOL     OW20887   2.576   4.423   8.419 -0.5366  0.5546  0.3257
 3143SOL    HW120888   2.499   4.371   8.443 -0.6211  1.3527  1.8177
 3143SOL    HW220889   2.608   4.451   8.505  0.0246 -2.8428  1.2049
 3144SOL     OW20890   1.608   4.629   8.400  0.5452  0.6627 -0.1620
 3144SOL    HW120891   1.579   4.603   8.488  0.2761 -0.1307 -0.4814
 3144SOL    HW220892   1.602   4.546   8.354  2.5514 -0.2169  1.1809
 3145SOL     OW20893   1.952   4.058   2.661  0.4548 -0.8351 -0.5140
 3145SOL    HW120894   2.036   4.040   2.703  1.2144  3.2600 -0.2877
 3145SOL    HW220895   1.975   4.095   2.576  0.3673  0.1717 -0.0927
 3146SOL     OW20896   4.020   0.630   4.632  0.2064  0.3060 -0.2422
 3146SOL    HW120897   3.988   0.626   4.541 -0.3846 -0.7328  0.0062
 3146SOL    HW220898   4.059   0.545   4.653 -0.0061 -0.1319 -1.5742
 3147SOL     OW20899   3.807   3.426   8.792  0.0149  0.1362  0.0338
 3147SOL    HW120900   3.743   3.497   8.787  0.0766  0.1926  0.0368
 3147SOL    HW220901   3.767   3.350   8.834  2.4247 -1.8276 -1.2446
 3148SOL     OW20902   2.098   3.524  16.930  0.2399  0.2356  0.1967
 3148SOL    HW120903   2.183   3.509  16.890 -0.0622  0.9789 -0.7125
 3148SOL    HW220904   2.119   3.484  17.015 -1.5450 -0.0936  0.4892
 3149SOL     OW20905   1.177   3.387   6.659 -0.4644 -0.2796 -0.3371
 3149SOL    HW120906   1.252   3.331   6.638  0.1036  0.1651  0.5008
 3149SOL    HW220907   1.122   3.336   6.719 -0.1077  0.5127  0.6694
 3150SOL     OW20908   4.642   0.744   3.466  0.0477 -0.0673 -0.0436
 3150SOL    HW120909   4.689   0.824   3.443  1.3912 -0.7318  0.4052
 3150SOL    HW220910   4.652   0.739   3.561  0.1559  0.7191 -0.0169
 3151SOL     OW20911   0.711   0.725   3.132 -0.3889  0.1940 -0.8579
 3151SOL    HW120912   0.676   0.778   3.061 -1.0144  2.3059  1.0122
 3151SOL    HW220913   0.680   0.638   3.107 -1.0997 -0.1776  1.3611
 3152SOL     OW20914   2.226   2.547   8.876  0.6184 -0.1480 -0.1222
 3152SOL    HW120915   2.147   2.497   8.894  0.1713  0.9996  1.0850
 3152SOL    HW220916   2.285   2.519   8.946  0.0811 -0.5862  0.1503
 3153SOL     OW20917   0.783   1.389   4.156  0.2476 -0.1317  0.0991
 3153SOL    HW120918   0.853   1.453   4.165  0.6026 -0.3390 -1.1164
 3153SOL    HW220919   0.716   1.437   4.106  0.6977  0.7656  0.3570
 3154SOL     OW20920   1.857   3.883   1.558 -0.1905 -0.2596 -0.0555
 3154SOL    HW120921   1.884   3.899   1.648  1.6908  0.6520 -0.7856
 3154SOL    HW220922   1.785   3.819   1.562 -1.6010  1.3328  0.1918
 3155SOL     OW20923   0.485   2.449   3.318  0.3404  0.3947 -0.2280
 3155SOL    HW120924   0.508   2.359   3.343 -1.3612  0.1932  0.6479
 3155SOL    HW220925   0.411   2.445   3.258  0.5764 -0.1109 -0.4816
 3156SOL     OW20926   0.504   4.344   0.061  0.5760 -0.4043 -0.3957
 3156SOL    HW120927   0.463   4.360  17.668 -0.3173 -1.6745 -0.2138
 3156SOL    HW220928   0.597   4.365   0.053  0.8905 -1.5119  0.3899
 3157SOL     OW20929   3.530   1.663   6.628 -0.2441  0.2148 -0.1677
 3157SOL    HW120930   3.563   1.721   6.697  0.2944  0.1199 -0.3428
 3157SOL    HW220931   3.594   1.594   6.649  1.8218  1.3288 -2.8020
 3158SOL     OW20932   0.976   3.665  16.247 -0.3684  0.0162 -0.0666
 3158SOL    HW120933   0.997   3.740  16.192 -0.2864  1.2139  1.5934
 3158SOL    HW220934   1.027   3.599  16.200 -2.1335 -0.0849 -1.8477
 3159SOL     OW20935   0.883   4.035   5.231 -0.0273  0.1120  0.5315
 3159SOL    HW120936   0.791   4.020   5.252  0.4292 -2.7378  0.4530
 3159SOL    HW220937   0.889   4.130   5.246 -1.3204  0.4684 -1.1633
 3160SOL     OW20938   1.956   2.639   7.790  0.4516  0.0075  0.1631
 3160SOL    HW120939   1.916   2.667   7.872  0.5595  1.5236 -0.3049
 3160SOL    HW220940   1.898   2.567   7.764  0.5081  0.3937 -1.0365
 3161SOL     OW20941   1.127   0.846   6.970 -0.3849 -0.0671  0.0072
 3161SOL    HW120942   1.113   0.761   6.930  0.2449  0.3988 -1.2151
 3161SOL    HW220943   1.046   0.842   7.021 -0.7094  2.2020 -0.3075
 3162SOL     OW20944   0.938   0.905   7.148 -0.0400 -0.1548  0.2221
 3162SOL    HW120945   0.946   0.853   7.228  0.3859 -1.5016 -0.7084
 3162SOL    HW220946   0.867   0.961   7.179 -0.0679  0.7271 -1.4316
 3163SOL     OW20947   2.797   0.438   5.373 -0.2146 -0.8137 -0.7373
 3163SOL    HW120948   2.834   0.496   5.440  1.3103 -2.6693  0.0400
 3163SOL    HW220949   2.817   0.492   5.296 -1.7943  0.0092 -0.5641
 3164SOL     OW20950   1.804   2.111   2.348  0.1404  0.1698  0.1016
 3164SOL    HW120951   1.831   2.019   2.350 -1.2063 -0.2357 -0.2404
 3164SOL    HW220952   1.737   2.116   2.415 -0.2168  1.3795 -0.3534
 3165SOL     OW20953   0.951   2.809  11.696 -0.1907  0.2361 -0.0812
 3165SOL    HW120954   0.957   2.903  11.683  0.4492 -0.0618 -2.0790
 3165SOL    HW220955   0.958   2.818  11.791 -0.9999 -0.2207  0.0222
 3166SOL     OW20956   0.007   1.389   6.960 -0.6110 -0.5248 -0.2052
 3166SOL    HW120957   0.037   1.454   7.023 -1.2113 -0.8542  0.4164
 3166SOL    HW220958   4.700   1.434   6.881 -0.2428 -2.5768 -1.5179
 3167SOL     OW20959   4.418   0.639   2.688  0.0265  0.2201 -0.1487
 3167SOL    HW120960   4.456   0.561   2.648  1.6187  1.3194 -0.7689
 3167SOL    HW220961   4.489   0.700   2.673  0.0101  0.2190 -0.2292
 3168SOL     OW20962   1.564   1.353   8.141 -0.3033 -0.6111 -0.6596
 3168SOL    HW120963   1.552   1.414   8.215  1.2312 -0.7624 -0.2809
 3168SOL    HW220964   1.483   1.303   8.139 -0.3590 -0.5954  0.8016
 3169SOL     OW20965   3.042   2.885   5.586 -0.3413  0.8797  0.2856
 3169SOL    HW120966   3.111   2.938   5.546  0.5115 -0.9108 -0.6088
 3169SOL    HW220967   2.980   2.954   5.610 -0.1403  0.7127  1.2802
 3170SOL     OW20968   3.077   0.094   6.458 -0.9797  0.3343  0.3489
 3170SOL    HW120969   3.024   0.016   6.443 -1.1026  0.4729  0.0700
 3170SOL    HW220970   3.137   0.058   6.523 -1.6450  1.4045  1.5588
 3171SOL     OW20971   3.510   1.465   9.783  0.2440  0.1915  0.0227
 3171SOL    HW120972   3.587   1.505   9.823  2.2960 -1.8536 -1.8496
 3171SOL    HW220973   3.514   1.374   9.812 -0.1758 -0.0169 -0.5643
 3172SOL     OW20974   3.814   1.537   2.203  0.5560  0.3967 -0.3582
 3172SOL    HW120975   3.790   1.622   2.239 -2.5073 -1.0518  0.9794
 3172SOL    HW220976   3.900   1.553   2.164  0.9733 -0.8492  0.0258
 3173SOL     OW20977   2.480   4.481   2.197  0.0299 -0.1585 -0.1926
 3173SOL    HW120978   2.464   4.506   2.106 -0.3208  2.5720  0.6153
 3173SOL    HW220979   2.396   4.440   2.217  0.8654 -1.3713  0.8366
 3174SOL     OW20980   3.964   2.076   7.539 -0.2713  0.1367  0.5507
 3174SOL    HW120981   3.889   2.122   7.576 -0.0228  0.7206  0.3285
 3174SOL    HW220982   4.002   2.037   7.618  1.4444  0.0032 -0.3453
 3175SOL     OW20983   4.218   0.704   4.380  0.5224  0.6085 -0.1130
 3175SOL    HW120984   4.305   0.730   4.351 -0.3036  3.3121 -0.1545
 3175SOL    HW220985   4.167   0.782   4.404 -1.0403 -0.8068  1.2230
 3176SOL     OW20986   4.424   3.759   7.247  0.3169  0.1976 -0.1434
 3176SOL    HW120987   4.477   3.792   7.320  0.5517 -0.0925 -0.1801
 3176SOL    HW220988   4.469   3.682   7.211 -0.3366  0.1740 -0.9019
 3177SOL     OW20989   0.176   3.408   2.434  0.3912 -0.3074 -0.1639
 3177SOL    HW120990   0.167   3.330   2.489  1.4449  0.5804  1.2648
 3177SOL    HW220991   0.271   3.417   2.433  0.2764  0.9517 -0.2152
 3178SOL     OW20992   1.570   0.039  12.846 -0.2288  0.4938 -0.3007
 3178SOL    HW120993   1.589   0.059  12.755  1.7140 -0.9387 -0.2306
 3178SOL    HW220994   1.647   0.071  12.894 -2.0429  4.3714  0.0096
 3179SOL     OW20995   3.892   0.193   7.663  0.1308  0.8656  0.1274
 3179SOL    HW120996   3.980   0.228   7.653  1.1677 -2.0530 -1.0577
 3179SOL    HW220997   3.898   0.187   7.758  1.1648 -2.1516 -0.1235
 3180SOL     OW20998   1.232   1.091   6.829  0.1548  0.0740 -0.0739
 3180SOL    HW120999   1.189   1.013   6.865 -1.6854  0.9937 -0.2666
 3180SOL    HW221000   1.153   1.132   6.795  1.1283  2.4290  0.5527
 3181SOL     OW21001   3.754   1.304  13.244  0.0619 -0.3553  0.2068
 3181SOL    HW121002   3.804   1.382  13.219  0.4237 -1.3531 -2.1243
 3181SOL    HW221003   3.665   1.338  13.245 -0.1713 -0.9669 -0.4934
 3182SOL     OW21004   0.230   1.190  10.551 -0.4184  0.0347 -0.1273
 3182SOL    HW121005   0.313   1.218  10.590 -0.2282 -0.6881 -0.0146
 3182SOL    HW221006   0.226   1.247  10.474  0.5023  1.3151  0.7766
 3183SOL     OW21007   3.744   3.095  17.491 -0.0656  0.2204  0.4118
 3183SOL    HW121008   3.761   3.086  17.585  0.0203  0.4663  0.4200
 3183SOL    HW221009   3.689   3.171  17.502  1.7316  1.6242 -0.2799
 3184SOL     OW21010   1.411   1.625   8.194 -0.0449 -0.2837  0.3581
 3184SOL    HW121011   1.366   1.704   8.226  0.7155  1.6188 -3.2694
 3184SOL    HW221012   1.462   1.603   8.272  3.3971  3.0159 -0.9424
 3185SOL     OW21013   0.464   3.478   7.077  0.3270 -0.0212 -0.0707
 3185SOL    HW121014   0.396   3.418   7.107 -0.5757 -0.0154 -2.0701
 3185SOL    HW221015   0.458   3.552   7.137 -0.4263  0.3318 -0.5833
 3186SOL     OW21016   2.669   2.409   7.903 -0.3886 -0.2073  0.4309
 3186SOL    HW121017   2.588   2.369   7.936 -0.0079 -2.3667 -1.2445
 3186SOL    HW221018   2.730   2.398   7.976  0.6784  2.1913 -0.1041
 3187SOL     OW21019   2.153   3.525   4.741  0.3027  0.1117 -0.3937
 3187SOL    HW121020   2.173   3.582   4.815 -0.3758 -0.2263  0.0456
 3187SOL    HW221021   2.237   3.483   4.723  0.5667  0.2350  0.5382
 3188SOL     OW21022   1.334   3.298   2.798 -0.3726  0.3086  0.6677
 3188SOL    HW121023   1.326   3.393   2.795 -0.1044  0.3016 -0.3563
 3188SOL    HW221024   1.273   3.270   2.867 -0.8407 -0.6876 -0.1376
 3189SOL     OW21025   3.505   3.119  14.656 -0.2056  0.2592 -0.0246
 3189SOL    HW121026   3.586   3.082  14.621 -0.6909 -1.1711  0.3562
 3189SOL    HW221027   3.448   3.044  14.641 -0.5179  0.5107 -0.1148
 3190SOL     OW21028   1.557   3.258   3.512 -0.6906  0.5041 -0.4554
 3190SOL    HW121029   1.558   3.310   3.431 -0.4567 -0.0780 -0.8234
 3190SOL    HW221030   1.651   3.254   3.528 -0.8931 -0.9846  0.3006
 3191SOL     OW21031   2.755   0.013   2.462 -0.2714 -0.0882  0.6501
 3191SOL    HW121032   2.808   0.084   2.428 -0.2557 -1.3264 -1.9227
 3191SOL    HW221033   2.805   4.655   2.444 -0.4079 -0.3451  1.4058
 3192SOL     OW21034   1.211   4.662  14.118 -0.5252  0.2658 -0.8548
 3192SOL    HW121035   1.283   4.672  14.181  0.9096  2.0398 -2.7696
 3192SOL    HW221036   1.142   4.642  14.181  0.4427 -1.2019 -0.2629
 3193SOL     OW21037   3.979   1.369  14.569  0.3125 -0.7775  0.2968
 3193SOL    HW121038   4.023   1.320  14.638 -0.5956  0.8380  2.0226
 3193SOL    HW221039   3.887   1.354  14.590  0.1501 -0.2328 -0.0400
 3194SOL     OW21040   4.202   4.466   3.480 -0.0457 -0.2603 -0.1069
 3194SOL    HW121041   4.175   4.502   3.565  0.0928 -1.6180  0.5136
 3194SOL    HW221042   4.128   4.407   3.464  1.0665 -1.6006 -0.2958
 3195SOL     OW21043   3.092   1.320   1.481 -0.5998 -0.0418  0.0111
 3195SOL    HW121044   3.046   1.376   1.417  1.9122  0.2446 -1.5410
 3195SOL    HW221045   3.031   1.336   1.553 -0.6528  1.8044 -0.4344
 3196SOL     OW21046   4.502   3.558  17.245 -0.9713  0.0861 -0.0561
 3196SOL    HW121047   4.435   3.609  17.199  0.6272  2.7968  0.6444
 3196SOL    HW221048   4.508   3.615  17.322  0.3492 -1.0381  0.6853
 3197SOL     OW21049   0.911   0.040   2.100 -0.5633  0.0025 -0.2132
 3197SOL    HW121050   0.941   4.689   2.046  1.1612  1.2657 -0.9738
 3197SOL    HW221051   0.859   4.714   2.163  0.7181  0.5830  1.2904
 3198SOL     OW21052   1.930   4.165   7.746  0.1206 -0.1389 -0.4871
 3198SOL    HW121053   1.872   4.241   7.755  2.1580  1.2484  0.8501
 3198SOL    HW221054   1.883   4.100   7.798 -1.5101 -0.4059 -2.2951
 3199SOL     OW21055   2.144   1.935   2.574  0.1905  0.6659  0.1161
 3199SOL    HW121056   2.120   1.842   2.569  1.4482  0.4117 -1.0235
 3199SOL    HW221057   2.061   1.972   2.606 -1.1952 -0.7486 -1.8318
 3200SOL     OW21058   3.463   1.507  11.293  0.7232 -0.4631 -0.0745
 3200SOL    HW121059   3.450   1.574  11.360 -0.0934 -2.2054  1.4893
 3200SOL    HW221060   3.445   1.556  11.213  3.9646  2.9730  1.3047
 3201SOL     OW21061   3.634   3.790   6.507  0.2567  0.2575  0.3787
 3201SOL    HW121062   3.680   3.734   6.570  2.0293 -1.2865 -2.3121
 3201SOL    HW221063   3.590   3.729   6.448 -0.8918  1.0009  0.4838
 3202SOL     OW21064   2.875   4.301  13.473 -0.3409  0.4341 -0.1728
 3202SOL    HW121065   2.887   4.213  13.435  0.9881  0.4337  0.2528
 3202SOL    HW221066   2.919   4.291  13.558 -1.9617  0.3301  0.6549
 3203SOL     OW21067   3.089   1.131   4.087 -0.6013 -0.0923 -0.0380
 3203SOL    HW121068   3.125   1.060   4.033 -1.9873 -1.3295  0.6497
 3203SOL    HW221069   3.025   1.097   4.149  1.3706  2.1751  3.2619
 3204SOL     OW21070   4.677   0.940  13.788 -0.0118  0.2248 -0.4764
 3204SOL    HW121071   4.655   0.888  13.865 -3.3217 -0.0417 -1.5727
 3204SOL    HW221072   4.591   0.977  13.769 -1.3102 -2.0010  0.9247
 3205SOL     OW21073   2.542   3.927   2.931  0.1255  0.3030  0.7612
 3205SOL    HW121074   2.616   3.904   2.988  1.4840 -2.0991 -1.9484
 3205SOL    HW221075   2.512   4.006   2.975 -0.8153  0.6186 -0.4539
 3206SOL     OW21076   0.273   1.283   3.424  0.7519  0.4219 -0.2053
 3206SOL    HW121077   0.204   1.347   3.405 -1.3288 -1.7247  0.1561
 3206SOL    HW221078   0.345   1.339   3.452  1.6524 -1.3856  1.0556
 3207SOL     OW21079   2.412   1.847   4.583 -0.1356 -0.2562 -0.4503
 3207SOL    HW121080   2.416   1.844   4.679 -0.1989  1.1949 -0.4130
 3207SOL    HW221081   2.409   1.752   4.572  0.5221 -0.1873 -1.2456
 3208SOL     OW21082   2.788   3.383   8.852 -0.1241 -0.0443 -0.4466
 3208SOL    HW121083   2.709   3.431   8.878  2.3959  3.1684  1.2781
 3208SOL    HW221084   2.841   3.455   8.819  0.2957  0.0856  0.4958
 3209SOL     OW21085   2.080   2.341  17.447  0.0116 -0.2042 -0.0536
 3209SOL    HW121086   1.999   2.297  17.470 -0.7402  1.8727  1.3336
 3209SOL    HW221087   2.055   2.434  17.451  1.9455  0.2312  2.0530
 3210SOL     OW21088   0.509   0.425   4.309  0.3120  0.3132  0.0533
 3210SOL    HW121089   0.592   0.471   4.318  1.4082 -1.3650 -1.2378
 3210SOL    HW221090   0.511   0.412   4.214 -1.1336  1.4919 -0.1382
 3211SOL     OW21091   3.679   2.094   9.764 -0.4251  0.2059  0.3028
 3211SOL    HW121092   3.751   2.036   9.789  0.3315  1.9890  2.2341
 3211SOL    HW221093   3.631   2.087   9.847  0.7408 -0.0940  0.9513
 3212SOL     OW21094   2.109   4.492   5.185 -0.4735  0.1236 -0.1563
 3212SOL    HW121095   2.017   4.479   5.207 -0.7393  0.7883 -0.8783
 3212SOL    HW221096   2.143   4.403   5.171  0.2195  0.4145 -0.2984
 3213SOL     OW21097   1.932   3.698   2.929  0.1377  0.0745  0.3905
 3213SOL    HW121098   1.905   3.606   2.923 -0.0286  0.0923  0.8861
 3213SOL    HW221099   1.904   3.708   3.020 -0.4308  1.4717  0.0565
 3214SOL     OW21100   2.995   3.939   2.099 -0.2601  0.2808  0.3088
 3214SOL    HW121101   2.954   3.875   2.157 -0.3136 -1.3927 -1.5855
 3214SOL    HW221102   2.930   3.940   2.029 -0.6962 -2.0008  0.7051
 3215SOL     OW21103   3.688   0.229   3.615 -0.1611 -0.0857 -0.0875
 3215SOL    HW121104   3.629   0.169   3.659  0.3145  0.0695  0.7544
 3215SOL    HW221105   3.706   0.298   3.679 -1.0289 -1.2592  1.4118
 3216SOL     OW21106   3.807   2.115   1.366 -0.3201 -0.2133  0.2144
 3216SOL    HW121107   3.885   2.140   1.316 -1.3974  2.0459 -0.3344
 3216SOL    HW221108   3.817   2.176   1.439  1.4458  1.4256 -1.3655
 3217SOL     OW21109   0.989   3.677   2.162  0.2646  0.1725  0.3235
 3217SOL    HW121110   1.074   3.644   2.192 -0.4064 -1.3343  0.5550
 3217SOL    HW221111   1.013   3.763   2.126 -0.5532  0.4958  0.5518
 3218SOL     OW21112   1.606   2.357   8.030  0.1630 -0.4111 -0.3846
 3218SOL    HW121113   1.604   2.318   7.943 -1.2239  2.5830 -1.6880
 3218SOL    HW221114   1.603   2.283   8.091  4.4060 -1.2547 -1.1982
 3219SOL     OW21115   2.271   3.452   7.857 -0.2871  0.3501  0.2447
 3219SOL    HW121116   2.320   3.515   7.804 -1.6802  0.1389 -1.2768
 3219SOL    HW221117   2.277   3.482   7.948 -1.4419 -1.7320  1.0130
 3220SOL     OW21118   0.406   1.017   9.948 -0.1503 -0.2760  0.0019
 3220SOL    HW121119   0.488   0.971   9.967 -0.0506 -0.1613 -0.1501
 3220SOL    HW221120   0.430   1.108   9.960 -0.0433 -0.3448  0.2983
 3221SOL     OW21121   0.767   1.092   3.617  0.1582  0.2128  0.0577
 3221SOL    HW121122   0.839   1.048   3.662  0.3261  0.1626 -0.2588
 3221SOL    HW221123   0.767   1.170   3.672 -2.0563 -1.8307  2.9185
 3222SOL     OW21124   0.043   4.566   2.259 -0.3769 -0.2359 -0.0823
 3222SOL    HW121125   0.067   4.651   2.222  1.3066 -0.4288  0.5511
 3222SOL    HW221126   0.056   4.510   2.183 -1.1782  1.9591 -1.8448
 3223SOL     OW21127   1.250   1.767   3.694  0.1782 -0.5199 -0.2348
 3223SOL    HW121128   1.188   1.755   3.623  1.1744 -1.0983 -0.9912
 3223SOL    HW221129   1.194   1.751   3.770  0.7059  0.5867  0.4030
 3224SOL     OW21130   0.976   2.234   2.738 -0.5270 -0.5013  0.0852
 3224SOL    HW121131   1.070   2.225   2.747 -0.6651 -0.9537  1.0563
 3224SOL    HW221132   0.957   2.305   2.799 -1.3748 -1.1258  0.5560
 3225SOL     OW21133   1.537   1.449   8.397 -0.1204 -0.7185  0.1894
 3225SOL    HW121134   1.529   1.375   8.457  0.6152 -0.0699  1.0953
 3225SOL    HW221135   1.492   1.512   8.452 -2.2908  0.5161 -2.9839
 3226SOL     OW21136   0.135   1.189  11.518 -0.0986  0.4554  0.3630
 3226SOL    HW121137   0.085   1.152  11.591  1.2175 -0.5157  0.7625
 3226SOL    HW221138   0.169   1.269  11.557  1.2222  0.3690 -0.5957
 3227SOL     OW21139   1.017   2.504   9.978 -0.1350 -0.1327  0.1905
 3227SOL    HW121140   0.988   2.417   9.951 -1.1958 -0.2896  1.8927
 3227SOL    HW221141   1.037   2.552   9.898  2.2525  0.0400  0.8883
 3228SOL     OW21142   1.895   4.227   3.694 -0.2644 -0.1893  0.2633
 3228SOL    HW121143   1.833   4.160   3.665  1.4759 -0.2296 -3.3551
 3228SOL    HW221144   1.867   4.312   3.660 -0.0756 -0.2725 -0.0991
 3229SOL     OW21145   1.597   3.060   8.706 -0.4077  0.1231  0.3593
 3229SOL    HW121146   1.639   3.123   8.647  0.0190 -0.1593  0.3623
 3229SOL    HW221147   1.664   3.056   8.774  1.1424  1.4015 -1.1003
 3230SOL     OW21148   3.656   1.395   4.978  0.1106 -0.0338 -0.4893
 3230SOL    HW121149   3.652   1.491   4.977 -1.4999 -0.1110 -0.6041
 3230SOL    HW221150   3.571   1.374   4.941  0.1316 -4.6088  2.0154
 3231SOL     OW21151   3.468   2.833   7.522 -0.1863  0.2827  0.6737
 3231SOL    HW121152   3.472   2.881   7.605  0.8370 -1.6217  1.7034
 3231SOL    HW221153   3.493   2.743   7.538 -0.9802 -0.0938 -0.1810
 3232SOL     OW21154   2.377   4.584   9.842  0.0961  0.2391  0.1977
 3232SOL    HW121155   2.447   4.556   9.901  1.2118  2.2494 -0.1761
 3232SOL    HW221156   2.431   4.599   9.765 -0.0251  0.2450  0.1144
 3233SOL     OW21157   2.166   3.278  17.088 -0.0820 -0.6849 -0.1392
 3233SOL    HW121158   2.156   3.196  17.039 -2.1070  0.3844 -1.5041
 3233SOL    HW221159   2.144   3.253  17.178 -0.5120  0.8637  0.1720
 3234SOL     OW21160   1.768   1.135   8.550  0.1521  0.9356 -0.4126
 3234SOL    HW121161   1.722   1.218   8.537  0.4388  1.1056 -0.3509
 3234SOL    HW221162   1.817   1.149   8.631 -0.6517 -0.0983  0.2526
 3235SOL     OW21163   2.006   1.502   9.455 -0.2338  0.1453  0.4316
 3235SOL    HW121164   1.945   1.529   9.523  0.3466 -1.7300  1.6987
 3235SOL    HW221165   2.073   1.453   9.503  1.5044  0.3274 -1.7763
 3236SOL     OW21166   0.181   2.176   6.323 -0.0358  0.3503  0.0100
 3236SOL    HW121167   0.213   2.117   6.255 -0.7831 -1.0309  0.8502
 3236SOL    HW221168   0.257   2.230   6.343  2.1096 -1.8482 -2.3101
 3237SOL     OW21169   4.723   1.838   3.137  0.4255 -0.3891 -0.2113
 3237SOL    HW121170   4.705   1.764   3.079 -0.8219 -0.9282  0.8690
 3237SOL    HW221171   4.632   1.861   3.160  0.5651  0.7878 -0.8060
 3238SOL     OW21172   3.295   1.085   8.597 -0.0904  0.0697  0.0555
 3238SOL    HW121173   3.312   1.009   8.541 -2.4607 -0.1974 -0.3018
 3238SOL    HW221174   3.290   1.156   8.533  0.2356  1.3635  1.4771
 3239SOL     OW21175   2.231   0.279  16.040 -0.0225 -0.9291  0.1213
 3239SOL    HW121176   2.244   0.344  16.110 -2.3747 -0.2490 -0.0756
 3239SOL    HW221177   2.324   0.260  16.027  0.6854  2.1339  0.6284
 3240SOL     OW21178   3.353   3.449   7.599 -0.0804  0.3606 -0.7001
 3240SOL    HW121179   3.300   3.461   7.520 -1.7230  1.6321  0.6116
 3240SOL    HW221180   3.435   3.414   7.563 -0.1062  0.2026 -0.6019
 3241SOL     OW21181   0.120   4.242   8.623  0.2056  0.0026  0.0565
 3241SOL    HW121182   0.184   4.240   8.694 -0.3518  0.7049  0.5732
 3241SOL    HW221183   0.045   4.289   8.659 -0.8019  0.0065 -2.0658
 3242SOL     OW21184   1.752   0.978   6.274  0.1608 -1.1142 -0.7374
 3242SOL    HW121185   1.741   0.884   6.264 -1.2094 -0.9253 -1.0729
 3242SOL    HW221186   1.662   0.993   6.303 -0.3732 -0.0544 -2.9277
 3243SOL     OW21187   1.738   3.891   3.248  0.1856  0.1508  0.0254
 3243SOL    HW121188   1.729   3.895   3.343 -0.0286  0.5978 -0.0165
 3243SOL    HW221189   1.673   3.953   3.215 -0.2777 -0.4958 -0.2832
 3244SOL     OW21190   0.067   0.538   8.800 -0.1485  0.5726  0.5720
 3244SOL    HW121191   4.723   0.602   8.823 -1.4734 -0.8904  0.8031
 3244SOL    HW221192   0.119   0.581   8.732 -1.9757  0.1025 -1.1177
 3245SOL     OW21193   0.732   1.797   2.231  0.9401 -0.0907  0.0742
 3245SOL    HW121194   0.824   1.793   2.206  1.0109  0.8486  0.1862
 3245SOL    HW221195   0.718   1.871   2.290  0.8811  0.4083 -0.5709
 3246SOL     OW21196   0.618   0.060   5.113  0.8356  0.5939 -0.1496
 3246SOL    HW121197   0.571   0.046   5.196 -1.2963  0.9705 -1.2913
 3246SOL    HW221198   0.580   4.711   5.061 -0.1890  1.4108 -0.5298
 3247SOL     OW21199   2.256   0.537   5.433 -0.0990  0.1981 -0.3636
 3247SOL    HW121200   2.214   0.615   5.398 -0.4984  0.1404 -0.0032
 3247SOL    HW221201   2.188   0.471   5.418 -2.2054  1.9088  1.8262
 3248SOL     OW21202   1.135   3.691   8.502  0.5616  0.3981  0.1599
 3248SOL    HW121203   1.199   3.705   8.571 -1.7193  1.7604  2.0255
 3248SOL    HW221204   1.180   3.621   8.456  0.4509 -0.4170  1.2857
 3249SOL     OW21205   4.374   2.987   1.551 -0.6406 -0.2385 -0.0564
 3249SOL    HW121206   4.464   3.018   1.550 -0.6918 -0.1325 -1.0658
 3249SOL    HW221207   4.377   2.922   1.622 -1.3881 -0.3733 -0.1425
 3250SOL     OW21208   1.174   3.874  17.076  0.5436  0.5131 -0.3713
 3250SOL    HW121209   1.164   3.967  17.056  2.4861  0.9487  0.7087
 3250SOL    HW221210   1.116   3.844  17.006  1.1461 -0.4475 -0.4518
 3251SOL     OW21211   3.450   0.166  16.202 -1.1487 -0.0430 -1.0094
 3251SOL    HW121212   3.503   0.215  16.265  0.3880 -1.1835 -1.4092
 3251SOL    HW221213   3.517   0.114  16.157  1.9287  1.1500  2.1832
 3252SOL     OW21214   2.540   2.912   1.385  0.3937  0.2150 -0.9599
 3252SOL    HW121215   2.578   2.857   1.453  1.2163  0.1623 -1.4659
 3252SOL    HW221216   2.556   2.851   1.314  0.4664 -0.0940 -0.6766
 3253SOL     OW21217   2.409   3.194   3.971 -0.8835 -0.5740 -0.0735
 3253SOL    HW121218   2.355   3.248   4.029  0.7519  0.2610  0.6680
 3253SOL    HW221219   2.361   3.204   3.888 -0.6454 -0.2777 -0.1745
 3254SOL     OW21220   3.319   0.681   7.177  0.3894  0.1026  0.6822
 3254SOL    HW121221   3.392   0.637   7.221 -0.5711 -1.5961  0.6011
 3254SOL    HW221222   3.247   0.651   7.233 -1.4636  2.0882 -0.6463
 3255SOL     OW21223   1.420   3.337   6.374 -0.7054  0.2795 -0.0362
 3255SOL    HW121224   1.454   3.390   6.446 -1.6713  0.6784  0.1317
 3255SOL    HW221225   1.341   3.388   6.353 -1.2428 -0.9458 -0.9584
 3256SOL     OW21226   4.191   2.008   9.278  0.4494  0.1553  0.0642
 3256SOL    HW121227   4.230   2.095   9.288  0.4794  0.1133  0.3021
 3256SOL    HW221228   4.244   1.953   9.335  0.3355 -1.2798 -1.2073
 3257SOL     OW21229   4.293   2.916   3.876  0.0490  0.5148  0.5841
 3257SOL    HW121230   4.316   2.835   3.923 -0.5951 -0.0643 -0.1136
 3257SOL    HW221231   4.361   2.977   3.907  0.4417  0.7926 -0.8367
 3258SOL     OW21232   0.438   3.571  16.934  0.2606 -0.4675  0.4304
 3258SOL    HW121233   0.499   3.629  16.888 -1.3634 -0.0150 -1.1530
 3258SOL    HW221234   0.370   3.570  16.867 -0.1041  0.9381  0.7875
 3259SOL     OW21235   2.044   3.198   6.532  0.2032  0.1816  0.1512
 3259SOL    HW121236   1.978   3.204   6.463 -0.2632 -2.3243  0.3740
 3259SOL    HW221237   1.999   3.135   6.589 -0.5636 -0.4360 -1.1297
 3260SOL     OW21238   4.303   3.926   5.249  0.4902 -0.1062  0.2733
 3260SOL    HW121239   4.269   3.980   5.177 -1.7969 -1.7501  0.1002
 3260SOL    HW221240   4.234   3.859   5.244  1.1440 -0.7062 -0.6983
 3261SOL     OW21241   0.090   3.057   5.204 -0.2991 -0.0737 -0.5142
 3261SOL    HW121242   0.007   3.045   5.250  1.0022  1.6615  2.3034
 3261SOL    HW221243   0.103   3.151   5.192 -1.6509  0.2233  0.3842
 3262SOL     OW21244   1.039   3.456   7.953 -0.6392 -0.3107  0.1504
 3262SOL    HW121245   0.987   3.502   7.886  1.1921  1.7839  0.1977
 3262SOL    HW221246   1.128   3.483   7.934 -0.6092  1.0193  2.1823
 3263SOL     OW21247   2.123   3.322   9.606 -0.2076  0.3172 -0.0528
 3263SOL    HW121248   2.182   3.393   9.584 -0.8105  0.6646 -0.5581
 3263SOL    HW221249   2.174   3.278   9.674 -2.4667 -0.1604  1.3643
 3264SOL     OW21250   3.498   1.239  10.562  0.6298  0.1684  0.0173
 3264SOL    HW121251   3.593   1.245  10.553  0.5389  0.6447 -0.6496
 3264SOL    HW221252   3.467   1.314  10.512  0.1944  0.4873  0.7658
 3265SOL     OW21253   3.627   0.527   4.877  0.0463  0.5255 -0.4246
 3265SOL    HW121254   3.609   0.477   4.956  0.8285  0.7108 -0.1332
 3265SOL    HW221255   3.719   0.547   4.892  0.4399 -1.3943 -0.3358
 3266SOL     OW21256   4.090   2.033  16.815 -0.3841 -0.1944  0.0356
 3266SOL    HW121257   4.086   2.128  16.815  1.7019 -0.1019  0.0569
 3266SOL    HW221258   4.065   2.016  16.906  3.6821 -1.2685  0.9757
 3267SOL     OW21259   2.397   0.624   8.623  0.1809 -0.0800  0.8326
 3267SOL    HW121260   2.443   0.686   8.566 -0.4752 -0.7266 -0.3922
 3267SOL    HW221261   2.356   0.576   8.552  1.5468 -2.2813  1.5592
 3268SOL     OW21262   3.797   4.349  17.338  0.0044  0.1788 -0.3368
 3268SOL    HW121263   3.863   4.324  17.402 -0.8273  1.9574  1.2187
 3268SOL    HW221264   3.731   4.392  17.392 -1.8417 -0.2308 -2.2548
 3269SOL     OW21265   3.090   4.542   8.277  0.0215  0.0807  0.1509
 3269SOL    HW121266   3.118   4.627   8.243  0.0203  0.4941  1.1704
 3269SOL    HW221267   3.024   4.590   8.327 -1.2207  0.4504 -1.8512
 3270SOL     OW21268   4.259   1.447   6.629 -0.4335  0.2297 -0.1307
 3270SOL    HW121269   4.240   1.368   6.578  0.7952 -1.6136  2.2926
 3270SOL    HW221270   4.327   1.495   6.581  0.4541  0.4874  1.3959
 3271SOL     OW21271   3.969   0.004  12.985  0.4167 -0.1237  0.8420
 3271SOL    HW121272   4.021   4.668  12.931 -3.6469 -3.2657  0.2790
 3271SOL    HW221273   4.036   0.059  13.026  0.5289  1.4719 -1.4504
 3272SOL     OW21274   0.450   3.312   2.833 -0.1383 -0.0944 -0.1307
 3272SOL    HW121275   0.362   3.275   2.828 -0.2396  0.0445  0.6691
 3272SOL    HW221276   0.506   3.249   2.788 -0.4455  0.1487 -0.8512
 3273SOL     OW21277   3.514   2.031  11.675  0.2157 -0.5324 -0.2276
 3273SOL    HW121278   3.449   1.979  11.721 -0.7875 -0.0477 -1.1115
 3273SOL    HW221279   3.577   1.961  11.658 -0.3797 -1.0708 -0.2057
 3274SOL     OW21280   3.175   2.345  12.913  0.3718 -0.4467  0.1079
 3274SOL    HW121281   3.263   2.308  12.916 -0.1772 -1.6779  0.9854
 3274SOL    HW221282   3.116   2.274  12.888 -1.7233  1.3607 -0.0429
 3275SOL     OW21283   4.425   1.148   3.304  0.0259 -0.0015 -0.1078
 3275SOL    HW121284   4.340   1.191   3.298 -2.0428 -3.2224  5.5809
 3275SOL    HW221285   4.420   1.071   3.248 -1.9923 -0.3725  0.6027
 3276SOL     OW21286   2.884   2.308   2.159  0.1389  0.2400  0.6375
 3276SOL    HW121287   2.842   2.261   2.231  0.2360  1.3928  1.4486
 3276SOL    HW221288   2.975   2.278   2.159  0.3156  0.8038 -2.4836
 3277SOL     OW21289   2.603   2.569   6.488  0.5025  0.1804  0.6073
 3277SOL    HW121290   2.681   2.624   6.492  2.0957 -2.0390  0.2419
 3277SOL    HW221291   2.550   2.623   6.430  4.1573  1.6508 -1.3741
 3278SOL     OW21292   0.119   2.557   7.749 -0.4147 -0.8091  0.3445
 3278SOL    HW121293   0.043   2.533   7.802 -1.3904 -0.1029 -0.7055
 3278SOL    HW221294   0.092   2.535   7.659  1.4470 -0.6090 -0.2585
 3279SOL     OW21295   0.863   4.623   8.782  0.3031  0.0729  0.7632
 3279SOL    HW121296   0.848   4.717   8.775 -1.9510 -0.4693 -1.8048
 3279SOL    HW221297   0.951   4.626   8.820  0.8244 -0.3364 -0.4218
 3280SOL     OW21298   3.269   2.413  15.970 -0.6659 -0.2704 -0.4457
 3280SOL    HW121299   3.363   2.402  15.985 -0.3044  0.1183 -2.3439
 3280SOL    HW221300   3.260   2.473  15.895  0.1892 -0.6470 -0.8455
 3281SOL     OW21301   1.642   2.101   3.751 -0.1978  0.1002  0.1197
 3281SOL    HW121302   1.613   2.035   3.814 -0.4329  0.3675  0.2934
 3281SOL    HW221303   1.559   2.140   3.724 -0.1080 -0.3702 -0.8325
 3282SOL     OW21304   2.995   0.558   6.438  0.0408 -0.6117  0.8357
 3282SOL    HW121305   3.008   0.479   6.491  0.0446 -0.7562  0.6199
 3282SOL    HW221306   3.071   0.606   6.470 -0.1612 -0.2610  0.7840
 3283SOL     OW21307   3.770   0.946   3.427  0.5262 -0.5250 -0.3333
 3283SOL    HW121308   3.682   0.982   3.416  1.5252  1.8863 -0.4471
 3283SOL    HW221309   3.780   0.968   3.519  0.2312 -1.6461 -0.0337
 3284SOL     OW21310   2.066   2.385   4.354 -0.0266 -0.5526  0.0016
 3284SOL    HW121311   2.090   2.451   4.290  2.0948 -1.3020  0.0398
 3284SOL    HW221312   2.154   2.349   4.365  0.7852  1.3540 -0.3548
 3285SOL     OW21313   0.654   1.872   0.504 -0.4811 -0.2733  0.1728
 3285SOL    HW121314   0.702   1.941   0.458  0.6342 -1.5422 -0.5191
 3285SOL    HW221315   0.715   1.799   0.502 -0.1448  0.0370 -0.8694
 3286SOL     OW21316   1.961   4.003   6.387 -0.2209  0.0870  0.1146
 3286SOL    HW121317   1.991   4.054   6.311 -0.7320 -1.3104 -1.0352
 3286SOL    HW221318   1.995   4.055   6.460  1.3013 -0.0228 -0.5044
 3287SOL     OW21319   2.829   4.559   7.839  0.2961 -0.4381 -0.4119
 3287SOL    HW121320   2.839   4.648   7.805 -0.0213 -0.4276 -0.4821
 3287SOL    HW221321   2.736   4.567   7.862  0.3884 -3.2519  0.9486
 3288SOL     OW21322   2.309   3.527   4.348 -0.1894 -0.2793  0.5539
 3288SOL    HW121323   2.349   3.517   4.434 -1.1647  0.2501  1.0648
 3288SOL    HW221324   2.223   3.490   4.367  0.3704 -0.5230  2.6263
 3289SOL     OW21325   2.106   3.912   6.071  0.0831 -1.3463  0.3779
 3289SOL    HW121326   2.049   3.865   6.010  0.4312 -2.3816  0.8545
 3289SOL    HW221327   2.053   3.990   6.090 -0.7623 -2.0410  0.8334
 3290SOL     OW21328   3.937   1.026   2.801  0.0844 -0.4325 -0.4008
 3290SOL    HW121329   4.011   0.989   2.849 -0.9551 -0.8509  0.8727
 3290SOL    HW221330   3.925   0.962   2.731  1.2783  0.0768 -1.0590
 3291SOL     OW21331   1.593   1.919  10.463 -0.3306 -0.0192  0.3869
 3291SOL    HW121332   1.652   1.989  10.438  0.0315  0.5082  2.7116
 3291SOL    HW221333   1.608   1.911  10.557  3.3523 -2.3524 -0.4111
 3292SOL     OW21334   0.724   3.069  14.992 -0.1443 -0.0367  0.4398
 3292SOL    HW121335   0.641   3.114  15.000  0.8254  1.8806 -0.4408
 3292SOL    HW221336   0.700   2.981  14.962 -1.6783  1.2338 -2.0784
 3293SOL     OW21337   3.705   1.304  14.510 -0.3227 -0.0086 -0.4482
 3293SOL    HW121338   3.642   1.373  14.532 -0.1495  0.5010 -1.5506
 3293SOL    HW221339   3.725   1.313  14.417  2.4854  0.4583  0.2064
 3294SOL     OW21340   2.529   2.388   1.969 -0.1629  0.1450  0.0667
 3294SOL    HW121341   2.520   2.359   2.059 -2.6246  1.2124  0.1569
 3294SOL    HW221342   2.450   2.440   1.953  0.8168  1.5468 -0.1959
 3295SOL     OW21343   1.283   0.563   7.878  0.3634  0.5535 -0.1691
 3295SOL    HW121344   1.290   0.599   7.967  0.9336 -2.0909  0.8724
 3295SOL    HW221345   1.373   0.555   7.846  1.0168  0.6423  1.6289
 3296SOL     OW21346   1.127   0.147   0.039  0.2784 -0.0152  0.6177
 3296SOL    HW121347   1.066   0.215   0.070  0.8247  0.6647  0.2010
 3296SOL    HW221348   1.208   0.187   0.068 -0.8705  1.5627  1.6638
 3297SOL     OW21349   4.426   0.060   2.341  0.3831  0.1506 -0.1986
 3297SOL    HW121350   4.425   0.038   2.248  0.9336 -0.3714 -0.0849
 3297SOL    HW221351   4.470   4.707   2.379  1.7919 -0.3486 -2.8585
 3298SOL     OW21352   3.461   0.397   7.324  0.7323 -0.0856 -0.1778
 3298SOL    HW121353   3.499   0.310   7.328 -1.1169 -0.8988 -0.0698
 3298SOL    HW221354   3.450   0.401   7.419  1.0366  0.2946 -0.1567
 3299SOL     OW21355   3.519   1.994   8.607 -0.0540 -0.1304 -0.5873
 3299SOL    HW121356   3.548   1.947   8.686 -0.0067  0.6252 -0.1521
 3299SOL    HW221357   3.558   2.081   8.618  1.6953 -1.0979  1.0914
 3300SOL     OW21358   1.971   0.142   4.875 -0.1105 -0.2041 -0.1293
 3300SOL    HW121359   2.028   0.201   4.924  1.1470 -1.2170 -0.3784
 3300SOL    HW221360   2.007   0.056   4.898  0.4715  0.2543  0.6710
 3301SOL     OW21361   4.186   1.855   8.852 -0.0412  0.1903 -0.2000
 3301SOL    HW121362   4.158   1.938   8.814 -0.4392  0.6213  1.0318
 3301SOL    HW221363   4.103   1.811   8.866  0.2607  0.2300  1.7292
 3302SOL     OW21364   2.477   2.669   7.798 -0.5022  0.0765 -0.1237
 3302SOL    HW121365   2.504   2.578   7.781 -0.2369  0.2141 -0.4394
 3302SOL    HW221366   2.560   2.716   7.796 -0.9068  0.7182 -2.7314
 3303SOL     OW21367   3.023   1.052   7.152 -0.4508 -0.5309 -0.5252
 3303SOL    HW121368   3.049   1.132   7.197  1.8171 -0.8262 -1.2874
 3303SOL    HW221369   3.103   1.000   7.158  0.0132  0.3324  0.5299
 3304SOL     OW21370   2.056   2.290   8.297  0.7740 -0.1105  0.1573
 3304SOL    HW121371   2.003   2.304   8.218  0.9654  1.0417  0.2288
 3304SOL    HW221372   2.070   2.195   8.296  0.2511 -0.1884 -0.4083
 3305SOL     OW21373   3.425   1.383  12.652 -0.0942 -0.1087  0.3027
 3305SOL    HW121374   3.434   1.436  12.731  2.4369  1.5543 -1.1193
 3305SOL    HW221375   3.494   1.321  12.677 -1.3729 -0.5519  2.7686
 3306SOL     OW21376   0.944   4.414  10.777  0.3157 -0.0675 -0.0651
 3306SOL    HW121377   0.913   4.365  10.700 -0.0898 -0.5875  0.4268
 3306SOL    HW221378   0.866   4.413  10.832  1.8142  0.1086  2.0579
 3307SOL     OW21379   4.068   0.607   5.903 -0.0528  0.3626  0.4593
 3307SOL    HW121380   3.987   0.597   5.853  1.6764 -0.9964 -2.0639
 3307SOL    HW221381   4.110   0.683   5.862 -0.9981  0.3833 -0.4680
 3308SOL     OW21382   1.819   0.419   3.372  0.0439 -0.0626  0.1884
 3308SOL    HW121383   1.900   0.373   3.394 -0.5794 -0.2303  2.1560
 3308SOL    HW221384   1.857   0.492   3.322  0.9802 -1.1833 -0.7220
 3309SOL     OW21385   2.968   2.324   7.515  0.5478  0.2682 -0.4814
 3309SOL    HW121386   2.989   2.394   7.453  0.7412  0.9535  0.3589
 3309SOL    HW221387   2.881   2.353   7.542  0.6091  1.4800 -1.5801
 3310SOL     OW21388   2.304   0.366  13.749  0.1410  0.0396  0.5287
 3310SOL    HW121389   2.395   0.336  13.742 -0.2293 -1.1611  0.8645
 3310SOL    HW221390   2.266   0.310  13.817 -0.3460  0.0373  0.2519
 3311SOL     OW21391   2.508   2.057   2.422  0.2342  0.8270 -0.0636
 3311SOL    HW121392   2.505   2.117   2.496 -1.7147  0.6026  0.0425
 3311SOL    HW221393   2.426   2.085   2.381  0.6805  0.4049 -1.2588
 3312SOL     OW21394   1.283   2.599   7.565  0.0036  0.1540  0.4683
 3312SOL    HW121395   1.340   2.634   7.634 -1.2948  1.4618  0.9059
 3312SOL    HW221396   1.212   2.663   7.574 -0.5515 -0.6012  1.4874
 3313SOL     OW21397   2.858   0.862   2.800  0.7363 -0.0185  0.6400
 3313SOL    HW121398   2.819   0.843   2.715 -0.9222  3.1380  0.6927
 3313SOL    HW221399   2.829   0.952   2.810  2.5207  0.6399 -0.1789
 3314SOL     OW21400   3.571   0.759   4.706  0.0759  0.3586  0.2530
 3314SOL    HW121401   3.662   0.763   4.676  0.1607 -0.5334  0.3836
 3314SOL    HW221402   3.594   0.771   4.798 -0.1435  1.3136  0.1777
 3315SOL     OW21403   2.195   2.334   6.783  0.4021 -0.3490  0.0184
 3315SOL    HW121404   2.218   2.267   6.847 -1.0118  0.0514  0.9301
 3315SOL    HW221405   2.169   2.283   6.707  1.7922  0.4489 -1.0008
 3316SOL     OW21406   1.861   2.870  17.376 -0.4539 -0.1829  0.4300
 3316SOL    HW121407   1.909   2.941  17.334  0.5713 -0.6117  0.8945
 3316SOL    HW221408   1.815   2.919  17.445  0.9289 -0.6155  1.6591
 3317SOL     OW21409   4.124   3.933   6.101  0.1793  0.4730  0.5203
 3317SOL    HW121410   4.037   3.905   6.074  0.1111  1.0299  0.1574
 3317SOL    HW221411   4.106   4.006   6.159 -0.6534  2.1088 -1.8182
 3318SOL     OW21412   3.426   4.655  17.099  1.1835 -0.1385 -0.5115
 3318SOL    HW121413   3.411   4.623  17.010 -2.9824 -3.3398  1.3681
 3318SOL    HW221414   3.385   4.583  17.146  0.9440  0.2595 -0.1117
 3319SOL     OW21415   0.935   2.882   6.697 -0.0025  0.2849 -0.0876
 3319SOL    HW121416   1.021   2.922   6.701  1.0113 -1.8144 -0.6086
 3319SOL    HW221417   0.896   2.921   6.618 -1.9085 -1.3283  0.0362
 3320SOL     OW21418   2.020   1.643   3.756  0.1283  0.0577 -0.0387
 3320SOL    HW121419   2.060   1.558   3.774 -0.8676  0.4654  4.1531
 3320SOL    HW221420   1.941   1.611   3.713  0.1411  1.5795 -1.1906
 3321SOL     OW21421   0.625   3.438   5.033 -0.1804 -0.4355  0.2054
 3321SOL    HW121422   0.665   3.525   5.031  0.0260 -0.5214  0.5120
 3321SOL    HW221423   0.541   3.464   5.072 -0.3277 -0.0885 -0.3491
 3322SOL     OW21424   4.304   3.435   5.893 -0.3177  0.2119 -0.2120
 3322SOL    HW121425   4.296   3.530   5.907  0.8049  0.3252 -0.3278
 3322SOL    HW221426   4.224   3.397   5.931 -1.7268  2.3762 -0.9985
 3323SOL     OW21427   3.853   3.824   6.135  0.0674 -0.3342 -0.2286
 3323SOL    HW121428   3.777   3.880   6.152 -0.8088 -1.1460 -1.4678
 3323SOL    HW221429   3.813   3.737   6.135  1.6674 -1.0573  3.0300
 3324SOL     OW21430   3.261   0.462  13.242  0.1456  0.2305  0.2685
 3324SOL    HW121431   3.331   0.498  13.187  1.6095 -0.4051  1.7280
 3324SOL    HW221432   3.317   0.408  13.299  0.7571 -0.9875 -1.4920
 3325SOL     OW21433   2.750   3.052   3.301  0.1178 -0.3791 -0.3277
 3325SOL    HW121434   2.673   3.108   3.292 -0.1693 -0.5943  0.7109
 3325SOL    HW221435   2.823   3.111   3.281 -0.4674  0.2437 -0.6180
 3326SOL     OW21436   1.152   1.810   4.509 -0.1721 -0.0354  0.3990
 3326SOL    HW121437   1.085   1.838   4.572 -0.9120  0.1420 -0.4544
 3326SOL    HW221438   1.117   1.847   4.428 -0.8304  0.6022  0.9711
 3327SOL     OW21439   3.645   3.840   7.672 -0.6809 -0.0888 -0.3195
 3327SOL    HW121440   3.634   3.748   7.694 -0.3670  0.5896  2.5722
 3327SOL    HW221441   3.736   3.835   7.643 -0.4997 -2.0534  0.6268
 3328SOL     OW21442   2.882   1.845   4.080  0.0050  0.0131  0.1918
 3328SOL    HW121443   2.953   1.866   4.021 -0.3036 -0.7471 -0.4507
 3328SOL    HW221444   2.849   1.762   4.044 -1.0258  0.4554  0.1264
 3329SOL     OW21445   2.709   0.733   6.645 -0.0659  0.1229 -0.1927
 3329SOL    HW121446   2.698   0.747   6.739  0.6923  0.0551 -0.0921
 3329SOL    HW221447   2.749   0.646   6.647 -1.0580 -0.2777  1.5155
 3330SOL     OW21448   3.680   3.647   5.202 -0.2756  0.0071  0.0018
 3330SOL    HW121449   3.730   3.569   5.177 -2.0945 -1.6972  1.6199
 3330SOL    HW221450   3.735   3.683   5.272 -1.6102  0.1323  0.9849
 3331SOL     OW21451   1.646   2.431   2.769  0.2953 -0.8036  0.4646
 3331SOL    HW121452   1.736   2.404   2.755  0.7290  0.6874  0.3720
 3331SOL    HW221453   1.653   2.509   2.824  0.3013  0.8399 -1.8756
 3332SOL     OW21454   1.682   0.144   8.468 -0.8139 -0.3145  0.4117
 3332SOL    HW121455   1.669   0.054   8.437 -0.5259 -0.1206 -0.2728
 3332SOL    HW221456   1.628   0.191   8.404 -1.4194 -1.3745  0.1377
 3333SOL     OW21457   1.683   1.301   0.511 -0.5132 -0.5591  0.4338
 3333SOL    HW121458   1.587   1.291   0.511 -0.6903  1.1947 -0.9076
 3333SOL    HW221459   1.703   1.367   0.445 -0.4007 -0.5956  0.4317
 3334SOL     OW21460   4.670   3.742   1.230  1.3709  0.4203  0.8892
 3334SOL    HW121461   4.586   3.762   1.190  0.8607 -1.4153  1.0092
 3334SOL    HW221462   4.714   3.805   1.174 -1.5235  3.5262  2.1817
 3335SOL     OW21463   1.713   4.597   7.486  0.4758 -0.9573 -0.1220
 3335SOL    HW121464   1.647   4.666   7.488  1.0801 -0.3777 -0.1264
 3335SOL    HW221465   1.742   4.611   7.396 -1.5619  0.2924 -0.5795
 3336SOL     OW21466   0.585   3.346  17.046  0.2515 -0.6917 -0.2749
 3336SOL    HW121467   0.659   3.401  17.073 -1.3207 -0.4707  3.4472
 3336SOL    HW221468   0.552   3.399  16.974  0.7086 -1.4052 -1.0128
 3337SOL     OW21469   1.178   4.043  14.897 -0.0149 -0.3376 -0.3066
 3337SOL    HW121470   1.186   4.066  14.805  1.0788 -1.3882 -0.4649
 3337SOL    HW221471   1.247   4.095  14.938 -0.8640  0.5822 -0.0504
 3338SOL     OW21472   2.743   1.673   4.360 -0.1170 -0.5491  0.5430
 3338SOL    HW121473   2.741   1.694   4.266  1.9632 -1.4127  0.3299
 3338SOL    HW221474   2.687   1.595   4.369 -0.5985 -0.1566  1.0191
 3339SOL     OW21475   0.601   2.263   4.109  0.1283 -0.4423 -0.6807
 3339SOL    HW121476   0.532   2.328   4.125 -2.0675 -2.4559 -1.9181
 3339SOL    HW221477   0.656   2.275   4.186  0.2461 -0.3231 -0.7847
 3340SOL     OW21478   4.076   2.993   8.982  0.5691 -0.4104  0.1254
 3340SOL    HW121479   4.170   2.974   8.975 -0.0710 -2.9833 -1.6713
 3340SOL    HW221480   4.063   3.078   8.939  0.2416  0.3566  1.7469
 3341SOL     OW21481   3.057   0.236   9.595 -0.4464 -0.0233  0.0049
 3341SOL    HW121482   3.136   0.183   9.587  0.4937  1.2978  0.6107
 3341SOL    HW221483   2.987   0.171   9.589  0.1552 -0.7606  0.9761
 3342SOL     OW21484   4.640   0.910   4.315 -0.2754  0.2861  0.2840
 3342SOL    HW121485   0.010   0.920   4.333 -0.1618  0.8469 -0.5956
 3342SOL    HW221486   4.628   0.998   4.279 -0.7338 -0.8385 -2.3273
 3343SOL     OW21487   3.026   1.601   2.744 -0.1915  0.1946  0.5994
 3343SOL    HW121488   2.962   1.567   2.681  0.9078 -0.2238 -0.2835
 3343SOL    HW221489   2.965   1.653   2.796  0.0182  1.7934 -0.7416
 3344SOL     OW21490   1.365   0.455   5.188 -0.8257 -0.9603  0.1214
 3344SOL    HW121491   1.384   0.482   5.098  2.2376 -1.2242  0.6745
 3344SOL    HW221492   1.362   0.361   5.171 -0.0307 -1.1344  0.9474
 3345SOL     OW21493   4.678   3.607  17.565  0.3282 -0.3757 -0.6758
 3345SOL    HW121494   4.596   3.648  17.538 -0.4107 -0.9167  0.7694
 3345SOL    HW221495   0.006   3.629  17.486 -0.2466  1.8777 -0.4205
 3346SOL     OW21496   1.711   3.015   2.366  0.2847 -1.3468 -0.2556
 3346SOL    HW121497   1.720   2.953   2.439  2.2507  1.1223  1.6068
 3346SOL    HW221498   1.802   3.034   2.343 -0.5084  3.5147  0.5859
 3347SOL     OW21499   1.943   3.820  16.189  0.1061  0.0081  0.4025
 3347SOL    HW121500   1.912   3.892  16.133 -1.9016 -0.5370  0.8002
 3347SOL    HW221501   1.926   3.858  16.276  3.4065  3.6290 -0.5159
 3348SOL     OW21502   0.020   3.721   6.905  0.0715 -0.4493  0.2130
 3348SOL    HW121503   4.648   3.717   6.899 -0.0322  1.8892  0.3501
 3348SOL    HW221504   0.043   3.741   6.814  1.1978  0.2846  0.6620
 3349SOL     OW21505   0.333   3.279   3.388  0.1837 -0.0962  0.2615
 3349SOL    HW121506   0.417   3.234   3.400  0.2019 -0.6467 -1.8882
 3349SOL    HW221507   0.358   3.366   3.358  1.2597 -0.3671  0.3620
 3350SOL     OW21508   0.088   0.832   7.460  0.2482  0.6327 -0.2564
 3350SOL    HW121509   0.021   0.892   7.490 -0.0064 -0.2514  0.9391
 3350SOL    HW221510   0.175   0.869   7.478  1.2742 -2.5027  1.2602
 3351SOL     OW21511   2.462   1.913  13.615 -0.2897 -0.3476  0.4510
 3351SOL    HW121512   2.550   1.931  13.584 -1.0850  2.8104  0.0567
 3351SOL    HW221513   2.437   2.005  13.610 -2.7419 -1.0418 -0.2534
 3352SOL     OW21514   1.421   3.560  14.676 -0.3222 -0.2941 -0.2480
 3352SOL    HW121515   1.425   3.633  14.739  0.1663  1.5952 -2.4586
 3352SOL    HW221516   1.389   3.613  14.603  0.1902 -0.8406 -0.8585
 3353SOL     OW21517   0.353   3.483  17.500 -0.4239  0.4081 -0.0543
 3353SOL    HW121518   0.435   3.445  17.532 -0.1534  1.1839  0.1810
 3353SOL    HW221519   0.361   3.458  17.408 -1.4115  0.7074 -0.2206
 3354SOL     OW21520   1.003   4.539  16.538  0.2604 -0.4070  0.2331
 3354SOL    HW121521   1.014   4.478  16.611 -0.3846  1.4699  1.9035
 3354SOL    HW221522   0.913   4.521  16.510  0.0119 -0.5416  1.1014
 3355SOL     OW21523   0.899   4.385  14.942 -0.3992  0.0132  0.3203
 3355SOL    HW121524   0.906   4.480  14.933  0.7225 -0.0831  0.1341
 3355SOL    HW221525   0.862   4.379  15.030  0.1230  1.1972  0.6277
 3356SOL     OW21526   3.480   4.024   5.579 -0.2688 -0.3317 -0.0802
 3356SOL    HW121527   3.385   4.037   5.570  0.0723  2.3229  0.1591
 3356SOL    HW221528   3.512   4.051   5.493  0.7759 -0.7618  0.1738
 3357SOL     OW21529   2.551   0.602  15.147 -0.0560  0.1296 -0.5610
 3357SOL    HW121530   2.515   0.550  15.219 -1.0450  2.3602  0.5579
 3357SOL    HW221531   2.644   0.586  15.163 -0.8455 -2.9083  1.0610
 3358SOL     OW21532   4.720   1.224   5.662 -0.1665 -0.1457 -0.3259
 3358SOL    HW121533   4.701   1.209   5.569 -1.2378 -0.2450 -0.0816
 3358SOL    HW221534   0.090   1.251   5.663 -0.6253  1.4184 -0.4758
 3359SOL     OW21535   4.417   2.656  10.181  0.0231 -0.2733  0.3670
 3359SOL    HW121536   4.508   2.636  10.200 -0.2093 -0.1622  1.6003
 3359SOL    HW221537   4.366   2.646  10.261 -2.5717 -0.5850 -1.2963
 3360SOL     OW21538   2.810   4.298   5.533  0.1795 -0.1787 -0.7309
 3360SOL    HW121539   2.777   4.248   5.608 -0.3688  1.1063 -0.1027
 3360SOL    HW221540   2.865   4.358   5.584 -2.4381  0.0425  1.8332
 3361SOL     OW21541   2.142   3.202  15.502  0.0008 -0.2565  0.2196
 3361SOL    HW121542   2.163   3.263  15.431 -1.4666  1.1936  1.0339
 3361SOL    HW221543   2.215   3.140  15.505 -1.5975 -2.1468  0.0571
 3362SOL     OW21544   1.176   4.474  13.907  0.3376 -0.7688 -0.0494
 3362SOL    HW121545   1.084   4.458  13.885  0.5503 -1.2041 -0.6129
 3362SOL    HW221546   1.172   4.541  13.975 -0.8508 -1.1671  0.2709
 3363SOL     OW21547   2.665   0.987   9.849  0.0506 -0.0291  0.0292
 3363SOL    HW121548   2.758   0.970   9.832  1.1525  2.8437  3.1610
 3363SOL    HW221549   2.629   0.899   9.840  1.3638 -0.8094  2.2699
 3364SOL     OW21550   3.748   3.649   9.800  0.2879 -0.2323 -0.0882
 3364SOL    HW121551   3.805   3.587   9.847  0.4500 -0.9214 -1.1995
 3364SOL    HW221552   3.772   3.735   9.835 -3.3817  2.1673 -3.5318
 3365SOL     OW21553   4.442   3.236   1.779  1.0812  0.0217 -0.1366
 3365SOL    HW121554   4.503   3.307   1.801 -0.8075  1.2495  1.1373
 3365SOL    HW221555   4.409   3.266   1.694 -3.6917  1.1541  2.1065
 3366SOL     OW21556   4.379   1.700   6.092 -0.1667 -0.3124 -0.2716
 3366SOL    HW121557   4.349   1.633   6.030 -1.5919 -0.3625  0.4681
 3366SOL    HW221558   4.428   1.759   6.034 -0.6512 -0.9627 -1.3524
 3367SOL     OW21559   1.048   3.569   2.799 -0.1386 -0.1418 -0.1242
 3367SOL    HW121560   1.108   3.606   2.733  0.2226 -0.5433 -0.0188
 3367SOL    HW221561   1.026   3.490   2.749 -0.1580 -0.3495  0.2144
 3368SOL     OW21562   1.652   2.626  15.012 -0.3577 -0.4392 -0.4952
 3368SOL    HW121563   1.706   2.639  14.935  0.1960  0.2070  0.0025
 3368SOL    HW221564   1.661   2.713  15.052 -1.0948 -0.3510 -0.5216
 3369SOL     OW21565   0.948   0.692  15.684  0.6021 -0.2437 -0.3616
 3369SOL    HW121566   0.887   0.620  15.701 -0.8499  1.0348 -0.1302
 3369SOL    HW221567   0.922   0.733  15.602  0.5550  0.1412 -0.1582
 3370SOL     OW21568   4.693   1.986   6.374  0.6014  0.7818  0.4609
 3370SOL    HW121569   0.049   2.017   6.331 -0.6416 -0.2678 -2.5457
 3370SOL    HW221570   4.685   1.900   6.334  1.5843  1.3140 -0.8621
 3371SOL     OW21571   0.712   2.969   3.674  0.3321 -0.5074 -0.3297
 3371SOL    HW121572   0.718   2.979   3.769  1.8606 -0.8406 -0.3917
 3371SOL    HW221573   0.646   3.038   3.669  1.3774  0.3797 -1.9718
 3372SOL     OW21574   0.479   1.903   5.197  0.0396  0.1612 -0.2025
 3372SOL    HW121575   0.493   1.992   5.165  1.9921  0.5040  1.5893
 3372SOL    HW221576   0.566   1.865   5.189 -1.2699 -2.3668 -2.2108
 3373SOL     OW21577   1.266   3.250  10.201 -0.2287  0.4558  0.2376
 3373SOL    HW121578   1.359   3.251  10.181  0.0804 -1.4644  1.5688
 3373SOL    HW221579   1.227   3.305  10.134 -0.8830  0.0459  0.2814
 3374SOL     OW21580   3.602   2.761   9.101 -0.0022 -0.5660 -0.0416
 3374SOL    HW121581   3.557   2.686   9.140 -1.4420  0.7762  0.8805
 3374SOL    HW221582   3.599   2.817   9.178  2.4528 -2.2018  1.2859
 3375SOL     OW21583   1.161   3.309   5.705  0.2424 -0.1563  0.5963
 3375SOL    HW121584   1.077   3.352   5.723  0.8831  1.6761 -0.7863
 3375SOL    HW221585   1.137   3.219   5.728  2.4388 -0.1770  2.8470
 3376SOL     OW21586   0.179   4.684   9.549 -0.1972 -0.3360  0.2861
 3376SOL    HW121587   0.206   0.053   9.558  4.0282 -1.4660 -0.7635
 3376SOL    HW221588   0.212   4.646   9.631  0.1273 -0.5079  0.0716
 3377SOL     OW21589   1.408   1.734  17.634  0.2866  0.1365  0.5248
 3377SOL    HW121590   1.375   1.666   0.001 -0.4042 -0.5066 -0.5960
 3377SOL    HW221591   1.497   1.731  17.668  0.3994  0.7968  0.2960
 3378SOL     OW21592   0.201   2.665  10.091 -0.0034 -0.2096  0.0789
 3378SOL    HW121593   0.278   2.720  10.081 -0.3493  0.3406  0.4764
 3378SOL    HW221594   0.154   2.714  10.158 -1.9703 -2.1219  0.1205
 3379SOL     OW21595   2.833   0.279   8.622 -0.1680  0.6240  0.0475
 3379SOL    HW121596   2.877   0.219   8.683 -1.0967  0.5870  0.6723
 3379SOL    HW221597   2.915   0.317   8.590  1.2028 -1.1714  1.3765
 3380SOL     OW21598   3.937   2.009   9.179 -0.0134 -0.3211  0.0931
 3380SOL    HW121599   3.903   2.084   9.228 -1.7587 -0.5591 -0.7612
 3380SOL    HW221600   4.026   2.010   9.214 -0.0095  0.1019  0.0622
 3381SOL     OW21601   2.724   0.569   2.580  0.5250 -0.0108 -0.1299
 3381SOL    HW121602   2.819   0.563   2.573  0.6309  0.2267  1.1525
 3381SOL    HW221603   2.719   0.617   2.663  1.5912 -0.1785  0.0259
 3382SOL     OW21604   3.088   2.624  11.324 -0.5433  0.0884 -0.7286
 3382SOL    HW121605   3.071   2.647  11.416  0.2912 -2.5469  0.1055
 3382SOL    HW221606   3.047   2.695  11.275  2.4589  1.4964 -1.1819
 3383SOL     OW21607   0.399   2.175   1.723 -0.2680 -0.6913  0.0297
 3383SOL    HW121608   0.380   2.246   1.785  1.7584  0.0038 -0.1391
 3383SOL    HW221609   0.312   2.140   1.704 -0.0529 -1.2613  0.0946
 3384SOL     OW21610   1.862   1.192   4.048 -0.2289 -0.3363 -0.3608
 3384SOL    HW121611   1.821   1.243   3.978 -0.8704 -0.5462 -0.1314
 3384SOL    HW221612   1.839   1.102   4.026 -1.0917 -0.2421  0.1637
 3385SOL     OW21613   0.321   3.083   4.915 -0.3591  0.6241 -0.4668
 3385SOL    HW121614   0.298   3.173   4.890 -1.5925  0.7823  1.2174
 3385SOL    HW221615   0.321   3.048   4.825  0.9661  3.5842 -1.6147
 3386SOL     OW21616   0.617   1.054  16.098  0.3136 -0.0844 -0.3850
 3386SOL    HW121617   0.574   1.048  16.183  3.7186 -0.0860  1.3408
 3386SOL    HW221618   0.570   1.129  16.061 -0.6500 -1.3811 -1.7777
 3387SOL     OW21619   0.748   1.859  12.771  0.4237 -0.3458 -0.1699
 3387SOL    HW121620   0.685   1.818  12.830 -1.3850 -0.0834 -1.9425
 3387SOL    HW221621   0.826   1.809  12.795 -0.2716 -1.2570  0.1705
 3388SOL     OW21622   3.387   2.100   6.919  0.2769  0.2861  0.4697
 3388SOL    HW121623   3.426   2.129   7.001 -1.9502 -0.2577  1.7155
 3388SOL    HW221624   3.358   2.185   6.887  0.1215  0.3301  0.7271
 3389SOL     OW21625   3.755   1.414   9.531 -0.3929 -0.2507  0.5844
 3389SOL    HW121626   3.749   1.376   9.619  0.1157 -0.1741  0.6509
 3389SOL    HW221627   3.818   1.486   9.537  1.1715 -1.7307  1.8353
 3390SOL     OW21628   3.644   4.331   3.338 -0.2856  0.4625  0.3072
 3390SOL    HW121629   3.621   4.306   3.249 -0.9822  0.2225  0.5480
 3390SOL    HW221630   3.551   4.351   3.355 -0.7139 -0.8653 -0.4252
 3391SOL     OW21631   3.627   2.682   4.232 -0.0992  0.1994 -0.1798
 3391SOL    HW121632   3.645   2.723   4.316  1.3259 -0.3186 -0.2431
 3391SOL    HW221633   3.541   2.641   4.240 -0.2922  0.5419 -0.4779
 3392SOL     OW21634   3.517   1.778   3.325  0.0067  0.8344 -0.2535
 3392SOL    HW121635   3.474   1.693   3.320 -0.7171  1.2117 -0.4458
 3392SOL    HW221636   3.561   1.770   3.240 -1.4300 -1.4934 -0.7906
 3393SOL     OW21637   0.951   0.665   4.899 -0.3109 -0.3937  0.3544
 3393SOL    HW121638   1.032   0.639   4.856  1.8466  0.0264  4.0983
 3393SOL    HW221639   0.904   0.584   4.878  0.2847 -0.4710 -0.6239
 3394SOL     OW21640   1.811   0.725  10.236 -0.7944 -0.8597  0.1808
 3394SOL    HW121641   1.723   0.725  10.197 -2.1475 -1.5835  3.2056
 3394SOL    HW221642   1.785   0.699  10.325  0.7634 -0.7508  0.6566
 3395SOL     OW21643   3.506   0.699   5.678 -0.1770  0.0024 -0.3350
 3395SOL    HW121644   3.437   0.679   5.742  0.7544 -2.0526  0.0458
 3395SOL    HW221645   3.456   0.729   5.602  0.5880  0.7106 -0.5570
 3396SOL     OW21646   0.847   0.269   2.722 -0.4171 -0.2552  0.5061
 3396SOL    HW121647   0.923   0.242   2.773 -1.3500 -0.9681  1.5231
 3396SOL    HW221648   0.874   0.286   2.632  0.0067  0.7959  0.8381
 3397SOL     OW21649   1.802   4.646  14.745  0.4578 -0.1050 -0.4068
 3397SOL    HW121650   1.768   4.609  14.663  0.1441 -1.7664  0.4718
 3397SOL    HW221651   1.722   4.647  14.797 -0.4455  2.3945 -1.8211
 3398SOL     OW21652   3.995   1.159   7.840  0.3292 -0.8386  0.6547
 3398SOL    HW121653   4.069   1.220   7.843  0.0632 -0.4064 -1.8572
 3398SOL    HW221654   3.919   1.214   7.860  0.5370 -0.0815 -0.6906
 3399SOL     OW21655   2.831   3.291   2.237 -0.1506 -0.5468  1.0388
 3399SOL    HW121656   2.769   3.348   2.192 -0.4003 -1.6606 -0.0310
 3399SOL    HW221657   2.905   3.287   2.176 -0.9291 -0.3388  0.0827
 3400SOL     OW21658   2.211   1.450   6.791 -0.2167 -0.1962 -0.0496
 3400SOL    HW121659   2.230   1.384   6.724 -2.0644 -1.3957  0.5798
 3400SOL    HW221660   2.125   1.426   6.826 -0.6279  1.2897 -0.0378
 3401SOL     OW21661   3.920   0.690  16.498 -0.7658 -0.1886 -0.3881
 3401SOL    HW121662   3.934   0.782  16.522 -1.1573 -0.7243  1.8460
 3401SOL    HW221663   3.842   0.706  16.445 -0.7384  0.9692 -0.0948
 3402SOL     OW21664   3.644   0.391   5.685  0.1545 -0.4873  0.0546
 3402SOL    HW121665   3.637   0.433   5.599  2.1150 -0.2968 -0.0095
 3402SOL    HW221666   3.550   0.379   5.698  0.3455  0.5959  2.3413
 3403SOL     OW21667   1.412   1.568  15.604  0.1610  0.0664 -0.3220
 3403SOL    HW121668   1.419   1.475  15.581  1.3145 -0.0777  0.6529
 3403SOL    HW221669   1.415   1.598  15.513 -0.4356 -2.1277 -1.0675
 3404SOL     OW21670   1.060   3.080   7.558  0.1119  0.4546 -0.2676
 3404SOL    HW121671   1.030   3.054   7.645 -1.1646 -0.3583 -0.9577
 3404SOL    HW221672   1.018   3.016   7.501 -1.3957  0.9279  0.3144
 3405SOL     OW21673   1.772   1.742   4.917 -0.3362  0.5862 -0.2122
 3405SOL    HW121674   1.748   1.721   5.007  1.5255  1.7458  0.5468
 3405SOL    HW221675   1.861   1.708   4.906 -1.4828 -2.0585 -1.3351
 3406SOL     OW21676   2.567   3.683   0.852  0.4901  0.3726 -0.0011
 3406SOL    HW121677   2.625   3.629   0.906 -1.0307 -1.4855 -0.1899
 3406SOL    HW221678   2.619   3.755   0.819  1.2407 -0.2264 -0.1176
 3407SOL     OW21679   4.639   2.804   0.970  0.6412  0.0867  0.0694
 3407SOL    HW121680   4.553   2.770   0.945  0.8690 -0.9972  0.7469
 3407SOL    HW221681   4.619   2.817   1.063  3.0313  1.2894  0.3998
 3408SOL     OW21682   2.580   0.006  10.854 -0.3580 -0.4360  0.1421
 3408SOL    HW121683   2.616   0.029  10.768 -0.3628  1.7903  0.7210
 3408SOL    HW221684   2.609   4.642  10.881  3.0385  0.7436  0.2977
 3409SOL     OW21685   0.065   3.973   8.923  0.0674 -0.5878  0.1179
 3409SOL    HW121686   0.102   3.935   8.843 -1.7947 -0.9186 -0.6004
 3409SOL    HW221687   0.146   3.995   8.969  0.0643  0.3374 -0.3243
 3410SOL     OW21688   2.179   4.399   9.872 -0.2542  0.0916 -0.6056
 3410SOL    HW121689   2.269   4.434   9.872 -1.3595  2.8860  1.1593
 3410SOL    HW221690   2.154   4.425   9.783  0.6743  1.4344 -0.4687
 3411SOL     OW21691   1.575   1.398  13.317 -0.3971  0.5956 -0.3385
 3411SOL    HW121692   1.489   1.425  13.286 -1.3582 -1.0972  0.8062
 3411SOL    HW221693   1.625   1.404  13.235  1.1453  0.4391  0.5750
 3412SOL     OW21694   2.647   0.088   9.550 -1.0253  0.2450 -0.0359
 3412SOL    HW121695   2.700   0.145   9.605  1.2384  0.6521 -2.6561
 3412SOL    HW221696   2.617   0.024   9.615  1.6225 -1.2243 -0.2695
 3413SOL     OW21697   1.647   3.233   5.415 -0.0625 -0.3631  0.0278
 3413SOL    HW121698   1.632   3.140   5.432 -1.2734 -0.0958  0.4824
 3413SOL    HW221699   1.610   3.234   5.326 -1.8761 -0.6280  0.7754
 3414SOL     OW21700   2.311   3.644   6.328 -0.2254  0.5767  0.5596
 3414SOL    HW121701   2.322   3.668   6.236 -1.6370  1.3301  0.5910
 3414SOL    HW221702   2.216   3.652   6.337 -0.5433 -2.6599 -0.0825
 3415SOL     OW21703   2.934   3.488   3.143 -0.0518 -0.4618  0.0691
 3415SOL    HW121704   2.847   3.514   3.115 -0.4689 -0.9517  0.9025
 3415SOL    HW221705   2.968   3.450   3.062  1.5614 -1.1522  1.0569
 3416SOL     OW21706   3.924   0.410   3.748 -0.2148  0.2071  0.3141
 3416SOL    HW121707   3.865   0.484   3.759  0.4631  0.3677  2.9783
 3416SOL    HW221708   4.000   0.446   3.795 -0.9054 -0.1870  1.7499
 3417SOL     OW21709   0.579   1.722  12.020 -0.0672  0.2503  0.1808
 3417SOL    HW121710   0.610   1.812  12.009  1.0889 -0.1734  0.0186
 3417SOL    HW221711   0.528   1.729  12.101 -1.8087  2.1680 -1.0846
 3418SOL     OW21712   3.959   4.598   9.609  0.0928 -0.4553 -0.4367
 3418SOL    HW121713   3.863   4.594   9.614  0.0197 -1.3195 -2.9947
 3418SOL    HW221714   3.965   4.678   9.556 -0.1103 -0.9214 -1.1543
 3419SOL     OW21715   2.195   1.146   8.526 -0.7851 -0.5926 -0.1378
 3419SOL    HW121716   2.195   1.213   8.595  1.4770  0.7876 -1.4884
 3419SOL    HW221717   2.244   1.078   8.573 -2.2791 -0.9445  0.9310
 3420SOL     OW21718   2.674   4.224   4.613 -0.3567  0.5387 -0.0552
 3420SOL    HW121719   2.620   4.258   4.542 -0.8243 -0.4935 -0.1968
 3420SOL    HW221720   2.673   4.296   4.676  0.0946  0.6831 -0.2087
 3421SOL     OW21721   2.640   2.773   1.593  0.4740 -0.2510  0.3017
 3421SOL    HW121722   2.669   2.768   1.684  2.3645  0.1799 -0.2661
 3421SOL    HW221723   2.702   2.710   1.556  0.7316  0.6840 -0.8548
 3422SOL     OW21724   1.213   0.303  14.133 -0.0194 -0.4674 -0.0769
 3422SOL    HW121725   1.184   0.378  14.185 -2.1155 -2.9652  2.3355
 3422SOL    HW221726   1.308   0.311  14.129  0.0569 -0.7811  1.0795
 3423SOL     OW21727   1.846   2.795   9.535 -0.6747 -0.4094 -0.5557
 3423SOL    HW121728   1.858   2.889   9.549  1.0237 -0.9705  1.7269
 3423SOL    HW221729   1.936   2.768   9.516 -0.9258 -0.3588 -1.7986
 3424SOL     OW21730   3.640   0.599   8.333  0.2762  0.0590  0.0030
 3424SOL    HW121731   3.662   0.570   8.245  2.4791 -1.5495  1.0632
 3424SOL    HW221732   3.545   0.590   8.327  0.1561  0.4615  1.2522
 3425SOL     OW21733   2.323   1.921   8.524 -0.2905  0.5598  0.4598
 3425SOL    HW121734   2.391   1.972   8.569  1.9506 -0.5387 -1.6579
 3425SOL    HW221735   2.351   1.936   8.433 -1.9291  0.5164 -0.0490
 3426SOL     OW21736   0.402   1.284  11.725 -0.1563  0.4170  0.3813
 3426SOL    HW121737   0.423   1.330  11.806 -1.4840 -0.4103  1.2125
 3426SOL    HW221738   0.345   1.345  11.678  1.8915  1.2069 -1.0422
 3427SOL     OW21739   3.876   2.965   8.748 -0.8444 -0.3754 -0.5520
 3427SOL    HW121740   3.848   3.053   8.773 -0.5089 -0.5594  0.4912
 3427SOL    HW221741   3.918   2.940   8.831 -1.5160  1.6038  0.3712
 3428SOL     OW21742   0.461   1.700   0.616 -0.1280  0.0293 -1.1239
 3428SOL    HW121743   0.481   1.615   0.579 -1.1610 -0.3165 -0.8829
 3428SOL    HW221744   0.527   1.759   0.578  2.7853  0.3152  4.4255
 3429SOL     OW21745   3.124   2.215  15.486 -0.1009 -0.0819  0.0783
 3429SOL    HW121746   3.186   2.268  15.436  0.6045 -0.5920  0.4077
 3429SOL    HW221747   3.049   2.200  15.429 -0.8257  1.7610  0.5761
 3430SOL     OW21748   1.402   2.316  15.782  0.1694  0.2521 -0.2409
 3430SOL    HW121749   1.425   2.287  15.694  0.4806 -1.0085  0.2520
 3430SOL    HW221750   1.389   2.227  15.816 -0.9582 -0.2407 -2.0137
 3431SOL     OW21751   1.551   2.638   1.923  0.2992  0.0013  0.2921
 3431SOL    HW121752   1.552   2.571   1.992 -1.0032 -1.6429 -1.2688
 3431SOL    HW221753   1.623   2.686   1.963  1.1360 -1.2252  0.2693
 3432SOL     OW21754   1.693   3.803   6.703  0.8030 -0.2321  0.1209
 3432SOL    HW121755   1.611   3.815   6.750 -0.0896  0.4708 -1.6217
 3432SOL    HW221756   1.735   3.736   6.756  0.7157 -0.5406 -0.1988
 3433SOL     OW21757   3.631   2.213  17.199 -0.2438  0.1855 -0.0465
 3433SOL    HW121758   3.567   2.246  17.136 -0.4108 -1.9749 -0.9883
 3433SOL    HW221759   3.714   2.246  17.163 -0.4357 -0.7560 -1.3465
 3434SOL     OW21760   2.690   1.012   8.463  0.0927 -0.2191  0.6740
 3434SOL    HW121761   2.697   0.994   8.556  1.7905  3.3216  1.2374
 3434SOL    HW221762   2.666   1.105   8.467  0.5678 -0.1600  1.8818
 3435SOL     OW21763   2.141   2.312   9.398 -0.2964 -0.2742  0.2007
 3435SOL    HW121764   2.077   2.317   9.328  1.5900  2.5439 -1.3094
 3435SOL    HW221765   2.220   2.360   9.374  0.4542 -1.9740 -0.6878
 3436SOL     OW21766   4.003   0.183  16.079  0.0609  0.0214  0.1061
 3436SOL    HW121767   3.951   0.127  16.137  0.6526  0.0970  0.7106
 3436SOL    HW221768   4.074   0.213  16.136 -1.4198  1.5709  1.1250
 3437SOL     OW21769   2.243   0.527   8.412 -0.0364  0.4157 -0.5306
 3437SOL    HW121770   2.248   0.434   8.437  1.3147 -0.1363 -2.8316
 3437SOL    HW221771   2.150   0.540   8.398 -0.1244 -0.0532 -0.3805
 3438SOL     OW21772   4.682   4.419   7.834  0.5247 -0.1789 -0.3819
 3438SOL    HW121773   4.658   4.370   7.912  3.0871  1.3137  1.3126
 3438SOL    HW221774   4.592   4.434   7.804  1.8928  1.4683 -3.7539
 3439SOL     OW21775   2.633   4.248   6.173 -0.5312 -0.0809  0.3514
 3439SOL    HW121776   2.659   4.258   6.264  1.6351 -1.9779 -0.0475
 3439SOL    HW221777   2.539   4.264   6.181 -0.6373 -0.2155 -0.5343
 3440SOL     OW21778   3.941   0.166   3.865 -0.3540 -0.0152  0.2992
 3440SOL    HW121779   3.928   0.227   3.793 -0.1802 -0.6186 -0.2492
 3440SOL    HW221780   4.026   0.130   3.838 -0.7934 -0.7160 -0.1366
 3441SOL     OW21781   0.971   0.315   2.453  0.4344  0.4365  0.3934
 3441SOL    HW121782   1.013   0.360   2.379  1.3244 -0.2777  0.4577
 3441SOL    HW221783   1.026   0.237   2.463 -1.5183 -0.9927 -0.0270
 3442SOL     OW21784   4.714   3.260   8.500  0.1211  0.4667  0.4067
 3442SOL    HW121785   4.697   3.353   8.486  0.8589  0.5871  0.3265
 3442SOL    HW221786   4.630   3.237   8.540 -0.0549 -0.5886 -0.5604
 3443SOL     OW21787   0.241   0.147   7.069 -0.2609  0.1093 -0.2298
 3443SOL    HW121788   0.309   0.110   7.013 -0.3745 -0.5220  0.0538
 3443SOL    HW221789   0.285   0.218   7.116  0.1992 -0.5830  0.3789
 3444SOL     OW21790   1.273   2.855   5.165 -0.3865 -0.1667  0.1162
 3444SOL    HW121791   1.241   2.866   5.075  1.2426 -1.9258 -0.6668
 3444SOL    HW221792   1.234   2.770   5.185 -0.7197  0.2705  1.3476
 3445SOL     OW21793   0.838   1.029   3.126 -0.2406 -0.4092  0.6202
 3445SOL    HW121794   0.820   1.068   3.041  1.6356  1.4775  1.1020
 3445SOL    HW221795   0.797   0.942   3.133  0.1894 -0.6491  0.1389
 3446SOL     OW21796   1.447   2.210   9.385 -0.2979  0.1580 -0.0435
 3446SOL    HW121797   1.357   2.219   9.354  0.2676  0.8135 -1.4910
 3446SOL    HW221798   1.459   2.124   9.346 -1.4339 -0.0994  0.1524
 3447SOL     OW21799   4.297   4.287   1.998 -0.5671 -0.1467  0.2069
 3447SOL    HW121800   4.324   4.209   2.046  2.4095  1.0924  0.5560
 3447SOL    HW221801   4.212   4.253   1.969  0.0450 -0.3963 -1.3024
 3448SOL     OW21802   3.106   1.455  13.252  0.5243 -0.2085 -0.2218
 3448SOL    HW121803   3.114   1.531  13.194  0.7975 -0.8662 -1.0573
 3448SOL    HW221804   3.021   1.420  13.227  1.0520 -1.7677  0.1979
 3449SOL     OW21805   1.664   1.797   7.015 -0.0327  0.2920  0.2189
 3449SOL    HW121806   1.603   1.870   7.006 -1.2219 -0.8000 -0.6763
 3449SOL    HW221807   1.727   1.807   6.945 -2.1904  1.5784 -1.5418
 3450SOL     OW21808   4.361   0.054   8.180 -0.4468 -0.1567  0.6924
 3450SOL    HW121809   4.280   0.004   8.191 -1.2318  0.7365 -0.9851
 3450SOL    HW221810   4.388   0.011   8.099 -1.9284  1.5711 -0.7352
 3451SOL     OW21811   1.062   1.515  12.950  0.2311 -0.3464 -0.3651
 3451SOL    HW121812   1.157   1.528  12.943  0.3441 -0.5066  0.8169
 3451SOL    HW221813   1.055   1.431  12.904 -1.8075  0.2291 -1.0812
 3452SOL     OW21814   4.491   2.778   6.082 -0.3940 -0.0788  0.1326
 3452SOL    HW121815   4.504   2.684   6.072 -1.2351 -0.1002 -0.7071
 3452SOL    HW221816   4.409   2.778   6.131 -0.1009 -0.0895  0.6273
 3453SOL     OW21817   2.542   0.467   7.394 -0.7654  0.2708 -0.6559
 3453SOL    HW121818   2.604   0.394   7.400 -1.9908 -0.6384  1.1114
 3453SOL    HW221819   2.478   0.443   7.462 -1.6297 -1.8650 -2.2006
 3454SOL     OW21820   4.563   2.876   1.225  0.0886 -0.0737 -0.1236
 3454SOL    HW121821   4.474   2.882   1.190  1.1653 -1.4444 -3.0187
 3454SOL    HW221822   4.543   2.844   1.314  2.3756  0.9640  0.7664
 3455SOL     OW21823   4.151   1.302  17.285  0.2763  0.6374 -0.3194
 3455SOL    HW121824   4.149   1.276  17.377  3.2379 -2.3108 -1.0610
 3455SOL    HW221825   4.084   1.369  17.295 -0.8640 -0.5735  0.1202
 3456SOL     OW21826   0.425   0.603  11.226 -0.5331  0.0940  0.1436
 3456SOL    HW121827   0.359   0.533  11.234 -1.6183  0.5040 -5.5522
 3456SOL    HW221828   0.477   0.554  11.162  0.1996 -0.5184  1.2080
 3457SOL     OW21829   2.472   0.834  10.125  0.2100  0.2686 -0.2378
 3457SOL    HW121830   2.447   0.745  10.152  1.8382 -0.2079 -0.3108
 3457SOL    HW221831   2.385   0.873  10.125 -0.3311 -0.9350  0.5887
 3458SOL     OW21832   1.186   1.820  10.477 -0.6525 -0.1217  0.2134
 3458SOL    HW121833   1.225   1.899  10.440  0.0499 -0.0822  1.0433
 3458SOL    HW221834   1.101   1.836  10.437 -0.3822 -1.0670 -0.7410
 3459SOL     OW21835   4.599   4.248   3.220  0.1164  0.4252 -0.5804
 3459SOL    HW121836   4.575   4.245   3.312  0.2472 -0.2329 -0.5655
 3459SOL    HW221837   4.676   4.305   3.219 -0.0131  0.5480 -2.9330
 3460SOL     OW21838   2.359   2.896   4.015 -0.1728  0.1626 -0.3153
 3460SOL    HW121839   2.452   2.908   4.034  0.4794 -2.2310 -1.9127
 3460SOL    HW221840   2.338   2.980   3.975 -2.3528 -0.8597 -1.3430
 3461SOL     OW21841   3.446   3.343   6.064 -0.4018 -0.2493  0.3585
 3461SOL    HW121842   3.352   3.352   6.078 -1.0709 -2.3036 -2.7531
 3461SOL    HW221843   3.467   3.436   6.063  0.3941 -0.4662 -2.0573
 3462SOL     OW21844   2.408   3.163   2.622 -0.4127  0.5212  0.1043
 3462SOL    HW121845   2.313   3.152   2.624 -0.4333  0.7212  0.1589
 3462SOL    HW221846   2.431   3.113   2.543 -3.0855 -0.6170  0.0331
 3463SOL     OW21847   3.553   0.710  11.345  0.3090 -0.2490 -0.0530
 3463SOL    HW121848   3.567   0.627  11.390  0.1825  0.5262  1.3953
 3463SOL    HW221849   3.512   0.669  11.268 -2.9355 -1.5070  2.3547
 3464SOL     OW21850   0.380   1.911  16.006  0.1304 -0.5526  0.2081
 3464SOL    HW121851   0.414   1.981  16.062 -1.3441  0.4190 -0.1158
 3464SOL    HW221852   0.312   1.873  16.062 -0.1950  0.2170  0.3338
 3465SOL     OW21853   0.389   4.548  14.780  0.2720 -0.0599 -0.3228
 3465SOL    HW121854   0.401   4.603  14.857  0.6005 -0.4651 -0.0809
 3465SOL    HW221855   0.324   4.589  14.725  2.1248  0.8673 -1.8169
 3466SOL     OW21856   0.298   3.950   7.792  0.5985  0.4296  0.2804
 3466SOL    HW121857   0.357   3.951   7.717  1.1346 -0.7265  0.6783
 3466SOL    HW221858   0.357   3.899   7.848 -0.1868 -0.9494 -0.1635
 3467SOL     OW21859   0.302   2.993   9.123  0.5528  0.1365  0.3984
 3467SOL    HW121860   0.278   3.034   9.040 -0.1432  0.9023  0.9784
 3467SOL    HW221861   0.376   2.936   9.102 -0.6568 -1.4646  0.4216
 3468SOL     OW21862   0.318   0.330   1.358  0.0245 -0.0762 -0.3528
 3468SOL    HW121863   0.369   0.335   1.438 -1.9761 -0.7802  0.9592
 3468SOL    HW221864   0.358   0.410   1.323 -2.5812  1.0158 -0.8495
 3469SOL     OW21865   4.096   3.531   7.041 -0.1338  0.1360  0.2683
 3469SOL    HW121866   4.063   3.495   6.958 -2.2397  0.3812  1.0231
 3469SOL    HW221867   4.021   3.527   7.100 -2.0364 -1.9307 -2.2967
 3470SOL     OW21868   2.513   4.652   3.331 -0.1015 -0.0247  0.3337
 3470SOL    HW121869   2.484   4.662   3.240 -3.3665 -1.3376  1.2205
 3470SOL    HW221870   2.433   4.648   3.384  0.3378  0.2062  1.0172
 3471SOL     OW21871   3.382   1.322   7.454 -0.1311  0.1269  0.1469
 3471SOL    HW121872   3.359   1.403   7.408  0.2465 -0.3010 -0.7862
 3471SOL    HW221873   3.391   1.369   7.537 -1.3102 -1.3339  1.0898
 3472SOL     OW21874   1.369   1.986   0.445 -0.5032 -0.5351 -0.0123
 3472SOL    HW121875   1.412   1.903   0.468  1.5091 -0.6024 -3.9592
 3472SOL    HW221876   1.277   1.968   0.428 -1.0507 -0.0547  2.5130
 3473SOL     OW21877   3.341   0.380   4.141  0.5668 -0.3126 -0.1051
 3473SOL    HW121878   3.404   0.336   4.083  1.5101 -0.2232  0.8466
 3473SOL    HW221879   3.396   0.414   4.211 -0.4025 -0.9608  0.9568
 3474SOL     OW21880   0.466   3.368   4.122  0.2264  0.8820 -0.1235
 3474SOL    HW121881   0.402   3.369   4.193  0.4272  0.2596  0.0644
 3474SOL    HW221882   0.458   3.458   4.090  0.3455  0.5118 -1.1832
 3475SOL     OW21883   2.346   3.551  15.568 -0.0857  0.3354 -0.0316
 3475SOL    HW121884   2.375   3.587  15.485  0.9782  1.3966  0.7885
 3475SOL    HW221885   2.429   3.563  15.615 -0.1722 -0.2051  0.2639
 3476SOL     OW21886   0.547   1.462   4.013 -0.1290  0.2346  0.0867
 3476SOL    HW121887   0.483   1.481   3.944 -0.9045 -1.4104  0.3531
 3476SOL    HW221888   0.526   1.535   4.072 -1.9574 -0.2665  0.0580
 3477SOL     OW21889   4.426   4.066   7.984  0.0098  0.4320  0.0378
 3477SOL    HW121890   4.468   4.069   7.898  0.3122  0.1816  0.1717
 3477SOL    HW221891   4.376   4.147   7.977  0.6164  0.8944  0.9866
 3478SOL     OW21892   3.250   4.357  16.678  0.2269 -0.0845  0.0130
 3478SOL    HW121893   3.160   4.325  16.667 -0.0192  0.3890  0.6623
 3478SOL    HW221894   3.297   4.277  16.702  2.1383  0.9991 -0.1914
 3479SOL     OW21895   4.262   0.539   1.231  0.7234  0.1064 -0.5245
 3479SOL    HW121896   4.266   0.608   1.297 -0.2926 -0.0016 -0.3540
 3479SOL    HW221897   4.207   0.586   1.169  0.1613 -0.6950 -0.6374
 3480SOL     OW21898   4.580   0.236   4.271  0.3912 -0.1857  0.3031
 3480SOL    HW121899   4.663   0.213   4.313 -0.0590 -2.5666 -0.0873
 3480SOL    HW221900   4.554   0.319   4.311  0.0706  0.4599 -1.2481
 3481SOL     OW21901   2.215   4.164   1.219 -0.4422 -0.1238 -0.5995
 3481SOL    HW121902   2.240   4.093   1.160  0.9377  1.5942 -2.0940
 3481SOL    HW221903   2.268   4.239   1.191  0.9095 -1.3517 -1.2994
 3482SOL     OW21904   1.886   3.762   6.217 -0.3322 -0.3030 -0.3746
 3482SOL    HW121905   1.907   3.680   6.262  0.6834 -0.4091 -1.0299
 3482SOL    HW221906   1.875   3.821   6.292  3.5464 -0.5571  0.4330
 3483SOL     OW21907   1.696   1.101   2.072 -0.6671 -0.0546  0.0587
 3483SOL    HW121908   1.719   1.186   2.034 -2.0869  0.5328  0.5486
 3483SOL    HW221909   1.781   1.057   2.084 -0.5324  1.1867  3.6644
 3484SOL     OW21910   4.552   4.043   4.838 -0.0320  0.4468  0.3978
 3484SOL    HW121911   4.503   4.095   4.901  0.5109  0.4136  0.8484
 3484SOL    HW221912   4.558   3.960   4.886 -1.7565 -0.1920 -0.4783
 3485SOL     OW21913   3.441   1.721  11.462 -0.0302 -0.1790  0.2260
 3485SOL    HW121914   3.499   1.791  11.431  1.2551 -0.4280  2.1185
 3485SOL    HW221915   3.354   1.754  11.440 -0.2633 -0.7287  0.3445
 3486SOL     OW21916   3.275   2.216  11.881  0.0642 -0.0107  0.3319
 3486SOL    HW121917   3.340   2.273  11.922  0.4308 -0.9244  1.0481
 3486SOL    HW221918   3.298   2.223  11.788  0.1854  0.3510  0.3920
 3487SOL     OW21919   1.231   2.059   8.450 -0.1964 -0.1766 -0.3041
 3487SOL    HW121920   1.165   1.991   8.462 -0.4652  0.3320  1.1669
 3487SOL    HW221921   1.315   2.027   8.485 -1.5927 -2.1007  1.2859
 3488SOL     OW21922   4.169   3.456   6.600 -0.0417 -0.2314 -0.1231
 3488SOL    HW121923   4.113   3.381   6.580  0.0905  0.1143 -1.8134
 3488SOL    HW221924   4.106   3.528   6.604 -0.0546 -0.1820 -1.2872
 3489SOL     OW21925   3.483   1.835  14.184 -0.0213  0.0497  0.9615
 3489SOL    HW121926   3.549   1.900  14.160 -0.7924  0.1056 -1.0172
 3489SOL    HW221927   3.403   1.884  14.163  0.1500 -1.2219 -2.6905
 3490SOL     OW21928   4.459   3.686   0.805  0.7033  0.4165  0.0508
 3490SOL    HW121929   4.423   3.643   0.727  3.5601 -1.5756 -0.1554
 3490SOL    HW221930   4.397   3.643   0.864  0.1811  0.8564 -0.1712
 3491SOL     OW21931   1.683   1.560   8.969 -0.1608  0.2880 -0.3285
 3491SOL    HW121932   1.682   1.502   8.893  1.4328 -0.3390  0.1301
 3491SOL    HW221933   1.672   1.501   9.043  2.5424 -1.1404 -1.0678
 3492SOL     OW21934   3.575   2.520   4.623  0.1844  0.2595 -0.3249
 3492SOL    HW121935   3.496   2.573   4.623  0.0932  0.1462  1.9773
 3492SOL    HW221936   3.545   2.435   4.590  2.0399 -0.4081 -0.3274
 3493SOL     OW21937   0.859   1.991  15.550 -0.1382  0.2633  0.1959
 3493SOL    HW121938   0.801   1.919  15.572 -1.1357  0.4499 -1.8584
 3493SOL    HW221939   0.937   1.972  15.604 -0.7932 -1.1833  0.6320
 3494SOL     OW21940   3.002   0.920   3.564 -0.3254  0.7208  0.5111
 3494SOL    HW121941   2.920   0.870   3.570 -0.2909  0.6940  0.7338
 3494SOL    HW221942   3.070   0.856   3.584 -2.1305 -1.0334  1.1457
 3495SOL     OW21943   2.539   2.253   6.821 -0.1043 -0.0234 -0.1799
 3495SOL    HW121944   2.591   2.221   6.894  0.4360  2.1483  0.3764
 3495SOL    HW221945   2.450   2.238   6.853 -0.2644  0.1255 -0.5463
 3496SOL     OW21946   2.715   4.454   3.936  0.2388  0.2689  0.2566
 3496SOL    HW121947   2.624   4.447   3.964  0.1576 -0.5310 -0.2014
 3496SOL    HW221948   2.759   4.500   4.007  1.8399 -0.5202 -0.2211
 3497SOL     OW21949   1.898   1.614   3.200  0.0166 -0.9394  0.0651
 3497SOL    HW121950   1.803   1.626   3.205  0.0880 -0.1618 -0.4815
 3497SOL    HW221951   1.926   1.651   3.284 -0.6763  1.2761 -0.6743
 3498SOL     OW21952   1.374   1.577   5.675  0.5999  0.3424 -0.0751
 3498SOL    HW121953   1.371   1.482   5.688 -0.0161  0.3758  0.0064
 3498SOL    HW221954   1.468   1.592   5.669  0.5091  1.5295  1.5432
 3499SOL     OW21955   3.911   4.381   9.789  0.6201 -0.2107  0.6945
 3499SOL    HW121956   3.964   4.420   9.720  0.1630 -0.1208  0.3915
 3499SOL    HW221957   3.830   4.429   9.772 -1.0579 -2.0797  3.3693
 3500SOL     OW21958   1.928   3.820   4.928 -0.0380 -0.6120 -0.1327
 3500SOL    HW121959   1.958   3.825   4.837  3.1129  1.0860  0.9942
 3500SOL    HW221960   1.847   3.870   4.922 -0.8864 -1.9900  0.0574
 3501SOL     OW21961   3.258   3.757   1.322 -0.3439  0.1548 -0.2207
 3501SOL    HW121962   3.297   3.845   1.327 -0.8427  0.4730 -2.1275
 3501SOL    HW221963   3.285   3.716   1.404  0.5884 -1.3769 -1.2997
 3502SOL     OW21964   2.149   1.113  16.801 -0.6089 -0.3685  0.2384
 3502SOL    HW121965   2.154   1.142  16.710  0.6291 -0.3305  0.3190
 3502SOL    HW221966   2.238   1.097  16.831 -1.1662 -2.1803  0.9701
 3503SOL     OW21967   2.103   3.183   1.922 -0.3877  0.0026 -0.3171
 3503SOL    HW121968   2.101   3.278   1.908  0.3898  0.0312 -0.2753
 3503SOL    HW221969   2.177   3.171   1.981 -0.2923 -0.9207 -0.6257
 3504SOL     OW21970   2.705   4.134   7.545  0.4883 -0.2292 -0.0927
 3504SOL    HW121971   2.685   4.094   7.461 -1.9341 -2.2469  1.4851
 3504SOL    HW221972   2.623   4.180   7.564  1.8244  1.6707  1.1281
 3505SOL     OW21973   3.604   3.374  13.491 -0.1219  0.0086  0.2853
 3505SOL    HW121974   3.538   3.437  13.462 -0.8605 -1.6737 -1.7058
 3505SOL    HW221975   3.591   3.305  13.426 -0.7941  1.8479 -1.5399
 3506SOL     OW21976   4.023   2.894   3.739 -0.1616 -0.4087 -0.6972
 3506SOL    HW121977   4.105   2.924   3.777 -0.5095 -0.0172 -0.2604
 3506SOL    HW221978   4.061   2.827   3.682  0.7436 -2.0498  1.8090
 3507SOL     OW21979   2.669   4.046   5.379  0.2295 -0.5172  0.3713
 3507SOL    HW121980   2.757   4.046   5.342  0.3627 -0.4224  0.6905
 3507SOL    HW221981   2.674   4.106   5.453  0.0423  1.4596 -1.2229
 3508SOL     OW21982   4.250   1.505  17.113 -0.2543 -0.6680  0.0512
 3508SOL    HW121983   4.168   1.544  17.082  0.4798  2.6502  2.2769
 3508SOL    HW221984   4.221   1.443  17.180  1.0693 -0.1300  1.1166
 3509SOL     OW21985   2.811   0.038   4.639 -0.4995 -0.4957 -0.2492
 3509SOL    HW121986   2.878   0.083   4.587 -1.9681  1.3972 -0.5004
 3509SOL    HW221987   2.790   0.109   4.699 -1.1083  0.0620 -1.1245
 3510SOL     OW21988   1.505   1.530   2.729 -0.7724  0.5872  0.1545
 3510SOL    HW121989   1.422   1.507   2.688  0.0618 -0.6461 -0.8466
 3510SOL    HW221990   1.498   1.491   2.816 -2.2718 -0.5717 -0.4987
 3511SOL     OW21991   2.555   0.496   6.337  0.5397 -0.3323 -0.0616
 3511SOL    HW121992   2.533   0.416   6.385  0.0276 -0.4921 -0.5586
 3511SOL    HW221993   2.607   0.470   6.261  1.8289  1.3591  0.2563
 3512SOL     OW21994   1.612   4.350   3.674 -0.1179  0.6649  0.5115
 3512SOL    HW121995   1.553   4.286   3.713  0.4189 -0.6823 -0.8654
 3512SOL    HW221996   1.663   4.387   3.746 -1.6514 -0.2869  2.0803
 3513SOL     OW21997   3.752   0.489  10.502 -0.0690 -0.3863 -0.3350
 3513SOL    HW121998   3.685   0.533  10.449  0.1687 -1.8014 -1.8087
 3513SOL    HW221999   3.830   0.526  10.460  0.3090 -0.1551  0.5695
 3514SOL     OW22000   4.225   1.922  10.593 -0.2244  0.5440 -0.4017
 3514SOL    HW122001   4.233   1.832  10.562  0.7508  0.5935 -0.2926
 3514SOL    HW222002   4.274   1.910  10.674 -0.5329  2.0738  0.0151
 3515SOL     OW22003   3.449   1.481   2.665 -0.3879  0.3596  0.0716
 3515SOL    HW122004   3.381   1.508   2.727 -0.7523  1.4413 -0.8081
 3515SOL    HW222005   3.405   1.493   2.581  0.2169 -0.6404 -0.3791
 3516SOL     OW22006   4.098   1.304   9.434 -0.4470  0.2145  0.4650
 3516SOL    HW122007   4.115   1.397   9.417 -0.3100  0.1097  0.0420
 3516SOL    HW222008   4.184   1.265   9.449  0.4291  1.2614 -1.8150
 3517SOL     OW22009   1.316   3.539   7.911  0.4536 -0.5797  0.2976
 3517SOL    HW122010   1.358   3.619   7.941 -2.2773  1.0424 -0.2009
 3517SOL    HW222011   1.390   3.496   7.868  1.5390  0.2837  1.3043
 3518SOL     OW22012   2.301   2.619   3.558  0.1198  0.0467 -0.2080
 3518SOL    HW122013   2.279   2.618   3.652  2.5934 -0.6488  0.3709
 3518SOL    HW222014   2.384   2.572   3.549  0.7193  0.9796  0.3301
 3519SOL     OW22015   0.107   3.468  16.597 -0.2073 -0.1443  0.2137
 3519SOL    HW122016   0.130   3.429  16.513 -0.6745  0.0049  0.0154
 3519SOL    HW222017   0.039   3.526  16.562  0.7744  0.6335 -0.4144
 3520SOL     OW22018   4.039   1.975  13.610  0.0945 -0.1993 -0.2316
 3520SOL    HW122019   4.092   1.952  13.534  2.6157  0.7678  1.2473
 3520SOL    HW222020   4.073   2.062  13.630 -0.8185 -0.0060  0.4852
 3521SOL     OW22021   4.171   2.531   9.672 -0.0435 -0.1267  0.2815
 3521SOL    HW122022   4.186   2.621   9.644 -1.1469 -0.3872 -1.1689
 3521SOL    HW222023   4.137   2.547   9.760 -0.6740 -2.6184  0.4934
 3522SOL     OW22024   4.683   0.876  14.074  0.3574  0.4231 -0.2118
 3522SOL    HW122025   4.683   0.781  14.078 -0.3727  0.4534  0.5657
 3522SOL    HW222026   4.593   0.895  14.100 -0.6976 -2.0895 -2.1240
 3523SOL     OW22027   4.555   3.033   4.768  0.1779 -0.5574 -0.6536
 3523SOL    HW122028   4.496   2.979   4.716  1.9750 -0.6060 -2.6507
 3523SOL    HW222029   4.563   2.981   4.849 -0.1056 -0.1568 -0.3708
 3524SOL     OW22030   1.723   0.208   9.309  0.5006 -0.3121  0.1736
 3524SOL    HW122031   1.817   0.204   9.323  0.1570 -1.1956  2.3355
 3524SOL    HW222032   1.702   0.118   9.336  0.2997 -0.6461 -1.1029
 3525SOL     OW22033   0.780   0.011   5.643 -0.3657  0.4493 -0.3264
 3525SOL    HW122034   0.783   0.049   5.555  0.6966  0.7507 -0.1608
 3525SOL    HW222035   0.803   0.089   5.694 -0.8589  0.5610 -0.2700
 3526SOL     OW22036   3.740   2.744   8.534  0.1181 -0.0845  0.3705
 3526SOL    HW122037   3.812   2.797   8.501 -0.2070 -0.9644 -1.7327
 3526SOL    HW222038   3.674   2.812   8.552 -0.8101 -1.1932  1.1747
 3527SOL     OW22039   0.040   3.363   5.224 -0.3243 -0.0676 -0.5686
 3527SOL    HW122040   4.693   3.351   5.160 -2.2165  1.8417  1.1052
 3527SOL    HW222041   0.044   3.459   5.222 -1.3422  0.0509  2.6714
 3528SOL     OW22042   3.817   0.773  10.907 -0.0904  0.2813 -0.0493
 3528SOL    HW122043   3.787   0.725  10.830  0.6473  0.2541 -0.3273
 3528SOL    HW222044   3.911   0.766  10.891 -0.0706 -1.7941  1.0178
 3529SOL     OW22045   1.192   1.343   8.277 -0.1369  0.3659 -0.3392
 3529SOL    HW122046   1.170   1.299   8.359  1.6015 -0.3338 -0.2344
 3529SOL    HW222047   1.238   1.416   8.318 -0.2577  0.9809 -1.3147
 3530SOL     OW22048   3.725   2.187   7.054  0.0294  0.4920 -0.1554
 3530SOL    HW122049   3.680   2.266   7.023  0.2553  1.4072  1.8351
 3530SOL    HW222050   3.754   2.151   6.970  0.4811  0.3667  0.0564
 3531SOL     OW22051   1.200   1.156   1.430 -0.0822  0.0539  0.7842
 3531SOL    HW122052   1.193   1.109   1.513  0.5279  0.7455  1.2266
 3531SOL    HW222053   1.214   1.080   1.373  2.2958 -0.5127  2.1029
 3532SOL     OW22054   1.396   0.069  13.068 -0.1502  0.1999  0.3265
 3532SOL    HW122055   1.321   0.031  13.022 -0.2066  1.1399 -0.3668
 3532SOL    HW222056   1.459   0.061  12.997  0.2780  0.9502  0.6244
 3533SOL     OW22057   0.957   3.178  13.356  0.5769 -0.0293 -0.2103
 3533SOL    HW122058   1.022   3.174  13.427  1.0018 -1.7087 -0.6842
 3533SOL    HW222059   0.999   3.132  13.284 -2.5957 -2.0053 -0.7711
 3534SOL     OW22060   0.699   1.249   1.630 -0.0440 -0.0186  0.1925
 3534SOL    HW122061   0.644   1.295   1.693 -0.1208 -2.4849  1.9050
 3534SOL    HW222062   0.782   1.284   1.664  1.0378 -1.0482 -1.3591
 3535SOL     OW22063   4.559   0.212   3.640 -0.0763  0.1650 -0.6527
 3535SOL    HW122064   4.617   0.260   3.700  0.2114  0.6757 -1.3359
 3535SOL    HW222065   4.613   0.133   3.636 -0.1012  0.1340 -0.3545
 3536SOL     OW22066   3.476   1.459   2.176  0.4187  0.2558 -0.2867
 3536SOL    HW122067   3.457   1.456   2.082  0.5461 -0.2269 -0.2991
 3536SOL    HW222068   3.568   1.481   2.164  0.5982  0.2430  1.1402
 3537SOL     OW22069   0.850   2.293   8.617  0.1746 -0.1864 -0.6032
 3537SOL    HW122070   0.903   2.224   8.657 -2.3287 -1.6564  0.2348
 3537SOL    HW222071   0.759   2.263   8.628  0.2801 -0.4697 -0.4832
 3538SOL     OW22072   0.195   0.505   5.394  0.1589 -0.6782 -0.5044
 3538SOL    HW122073   0.130   0.439   5.417  4.0936 -3.6805  2.2218
 3538SOL    HW222074   0.242   0.472   5.318  1.3379 -1.6335  0.6295
 3539SOL     OW22075   2.779   3.048   3.833  0.6915 -0.1963  0.1207
 3539SOL    HW122076   2.830   3.058   3.754 -0.5832 -1.9395 -0.9233
 3539SOL    HW222077   2.844   3.049   3.903  2.2234  0.3951 -1.3279
 3540SOL     OW22078   3.646   0.127   1.768  0.3693  0.1300 -0.0355
 3540SOL    HW122079   3.632   0.070   1.843 -2.1776 -1.2818 -1.6053
 3540SOL    HW222080   3.601   0.203   1.805  1.3873  1.5097 -1.6344
 3541SOL     OW22081   3.947   3.842   5.059  0.7198  0.0709  0.3096
 3541SOL    HW122082   3.886   3.779   5.021  0.0229 -0.3746  2.1726
 3541SOL    HW222083   3.898   3.911   5.106 -0.8122  0.2541 -1.5341
 3542SOL     OW22084   4.115   1.245   8.153  0.1043 -0.5216 -0.1976
 3542SOL    HW122085   4.029   1.278   8.130  0.7883  0.2983 -1.5801
 3542SOL    HW222086   4.126   1.268   8.246 -1.0947  1.0261 -0.4542
 3543SOL     OW22087   2.658   1.920   4.812 -0.5346 -0.3243  0.5697
 3543SOL    HW122088   2.701   1.936   4.896  1.7122 -0.1856 -0.6177
 3543SOL    HW222089   2.642   2.012   4.788 -0.5549 -0.6996 -0.8621
 3544SOL     OW22090   2.200   3.875   2.181  0.2413 -0.4714  0.2942
 3544SOL    HW122091   2.140   3.804   2.200  1.0141 -0.9997  0.7582
 3544SOL    HW222092   2.214   3.866   2.086 -0.6659  1.9544 -0.0715
 3545SOL     OW22093   3.676   2.190  12.763 -0.2371 -0.1316  0.1301
 3545SOL    HW122094   3.696   2.106  12.803 -0.7506 -0.4387 -0.2710
 3545SOL    HW222095   3.756   2.199  12.712 -0.3661  0.9500  0.1139
 3546SOL     OW22096   2.644   3.916   2.650 -0.6943 -0.3017  0.1333
 3546SOL    HW122097   2.598   3.917   2.734  3.7542  1.1826  2.5834
 3546SOL    HW222098   2.722   3.960   2.685  0.4943 -1.6275 -0.8384
 3547SOL     OW22099   0.777   0.763  13.632  0.1587  0.0151 -0.1809
 3547SOL    HW122100   0.813   0.692  13.686  1.2037 -0.2286 -1.1772
 3547SOL    HW222101   0.808   0.835  13.686  0.9666  0.0222 -0.6484
 3548SOL     OW22102   1.929   0.897   3.390 -0.0372 -0.1157 -0.2589
 3548SOL    HW122103   1.884   0.853   3.462 -1.5165  0.5053 -0.7971
 3548SOL    HW222104   1.850   0.905   3.336  1.0902 -1.6193 -2.1518
 3549SOL     OW22105   1.167   4.717   7.952 -0.3114  0.2198 -0.5106
 3549SOL    HW122106   1.226   0.058   7.912 -0.5220  0.5421 -0.3023
 3549SOL    HW222107   1.215   4.663   8.015 -0.4800  0.4505 -0.1881
 3550SOL     OW22108   0.234   4.590   3.916  0.1109 -0.4922  0.0659
 3550SOL    HW122109   0.318   4.613   3.955  0.1858  3.1545 -2.2927
 3550SOL    HW222110   0.216   4.675   3.876  0.7600 -0.4140 -0.0602
 3551SOL     OW22111   1.736   4.072  15.155 -0.3680 -0.4542  0.9189
 3551SOL    HW122112   1.777   4.030  15.079  2.3457  0.4197  1.8945
 3551SOL    HW222113   1.646   4.079  15.124  0.5260  1.7505 -1.2456
 3552SOL     OW22114   2.589   1.289  13.264 -0.0043  0.2124  0.2843
 3552SOL    HW122115   2.533   1.220  13.226 -0.2587  0.4599  0.2134
 3552SOL    HW222116   2.666   1.259  13.216  0.2162 -1.1629  1.5130
 3553SOL     OW22117   0.531   1.360   4.475  0.7000  0.0845 -0.3051
 3553SOL    HW122118   0.577   1.342   4.393  1.4099 -2.4486  0.6586
 3553SOL    HW222119   0.551   1.278   4.518 -2.6707  0.1104  1.2614
 3554SOL     OW22120   2.359   3.966   6.074  1.2355  0.8255 -0.6201
 3554SOL    HW122121   2.264   3.969   6.078  1.2222  1.5120 -1.4923
 3554SOL    HW222122   2.372   3.974   6.169 -0.9070 -1.8311 -0.1102
 3555SOL     OW22123   3.733   4.534  14.150  0.6620 -0.3074  0.1444
 3555SOL    HW122124   3.824   4.540  14.177  0.7484  0.9961 -0.4318
 3555SOL    HW222125   3.701   4.458  14.198  2.3825 -1.1321 -0.0092
 3556SOL     OW22126   0.676   1.738  12.500  0.3354 -0.1223 -0.0654
 3556SOL    HW122127   0.733   1.667  12.530  1.6660  0.5817 -0.9320
 3556SOL    HW222128   0.618   1.683  12.447  1.7616 -0.6802 -1.0571
 3557SOL     OW22129   3.356   0.184   2.012  0.0010 -0.8039  0.3502
 3557SOL    HW122130   3.299   0.151   2.081 -0.9101 -1.9192 -0.9217
 3557SOL    HW222131   3.436   0.138   2.036  1.4061  1.7002  0.4707
 3558SOL     OW22132   2.153   3.783   8.012  0.3966  0.7070 -0.9536
 3558SOL    HW122133   2.070   3.755   7.974  0.1692  0.6632 -0.4279
 3558SOL    HW222134   2.120   3.864   8.050 -0.5337  0.8876 -2.1570
 3559SOL     OW22135   3.479   1.489   8.792 -0.0632 -0.2798  0.2233
 3559SOL    HW122136   3.477   1.405   8.746  0.5156 -0.1251 -0.0881
 3559SOL    HW222137   3.444   1.536   8.715 -0.6882 -1.1889 -0.0408
 3560SOL     OW22138   3.205   0.542   9.234 -0.1967  0.0870  1.0586
 3560SOL    HW122139   3.126   0.493   9.212 -0.7469  1.6737 -0.4499
 3560SOL    HW222140   3.165   0.626   9.212  2.0447  1.1356  0.9302
 3561SOL     OW22141   3.337   1.889  11.834  0.5099  0.1959  0.2606
 3561SOL    HW122142   3.357   1.870  11.926 -1.4882 -0.1040  0.6345
 3561SOL    HW222143   3.249   1.924  11.847  0.2449 -1.2089  2.2572
 3562SOL     OW22144   4.681   0.619  11.448  0.0524 -0.0588 -0.4623
 3562SOL    HW122145   0.016   0.691  11.424 -0.9149  0.8672 -0.0166
 3562SOL    HW222146   4.609   0.657  11.499  0.0926  0.5186 -0.8363
 3563SOL     OW22147   1.712   1.300   3.163  0.3457 -0.1521 -0.1762
 3563SOL    HW122148   1.631   1.292   3.214 -0.5753  0.7870 -1.4682
 3563SOL    HW222149   1.682   1.288   3.073 -1.1093 -2.0136  0.5440
 3564SOL     OW22150   1.274   4.278   9.300 -0.2295 -0.0236  0.1322
 3564SOL    HW122151   1.257   4.356   9.353  1.8639  0.8378 -0.4388
 3564SOL    HW222152   1.190   4.233   9.297  0.3759 -1.1812  0.6199
 3565SOL     OW22153   2.213   0.557   3.098 -0.1247 -0.5666  0.2038
 3565SOL    HW122154   2.207   0.578   3.191  0.9125  3.1749 -0.5473
 3565SOL    HW222155   2.166   0.629   3.055 -0.6466  0.2612  2.1603
 3566SOL     OW22156   2.211   2.827   1.481 -0.0272 -0.2433  0.0542
 3566SOL    HW122157   2.243   2.864   1.563 -0.1458 -1.7563  0.7731
 3566SOL    HW222158   2.292   2.784   1.453 -1.5998 -1.9878 -1.7915
 3567SOL     OW22159   2.596   0.615  13.744  0.8018 -0.2086  0.2005
 3567SOL    HW122160   2.591   0.576  13.657 -1.0959 -0.3595  0.3646
 3567SOL    HW222161   2.578   0.545  13.808 -0.0001 -2.6484 -2.7162
 3568SOL     OW22162   4.669   0.598   4.071  0.2361 -0.1268  0.5327
 3568SOL    HW122163   4.600   0.591   4.137  1.5213 -0.1015  1.8778
 3568SOL    HW222164   0.005   0.535   4.112  1.2027 -0.1339 -0.8686
 3569SOL     OW22165   0.570   0.917   1.856 -0.2476 -0.5046  0.2901
 3569SOL    HW122166   0.490   0.929   1.907  0.1485 -0.1078  0.8176
 3569SOL    HW222167   0.603   1.007   1.860 -2.0525  0.2698 -2.2024
 3570SOL     OW22168   1.927   3.408  16.115  0.0176  0.0095 -0.5387
 3570SOL    HW122169   1.886   3.348  16.177  0.7826 -1.6825 -1.6638
 3570SOL    HW222170   1.968   3.339  16.063  0.1179 -0.2294 -0.1495
 3571SOL     OW22171   4.136   0.019   2.546 -0.0674 -0.3494 -0.6186
 3571SOL    HW122172   4.165   0.107   2.572 -0.3050 -0.0220 -1.4568
 3571SOL    HW222173   4.142   0.014   2.451 -0.9052 -0.1681 -0.6812
 3572SOL     OW22174   1.072   3.557   0.944  0.1108  0.0960 -1.2908
 3572SOL    HW122175   1.109   3.472   0.920  0.2939 -0.2175  0.0971
 3572SOL    HW222176   1.140   3.587   1.004 -1.3380 -0.6607  0.7380
 3573SOL     OW22177   4.421   3.360   3.219  0.4051 -0.2647  0.4229
 3573SOL    HW122178   4.503   3.343   3.173  0.7519  0.1840  0.8705
 3573SOL    HW222179   4.369   3.280   3.210 -0.5921  0.7725 -2.8420
 3574SOL     OW22180   4.348   1.590   2.260 -0.1347 -0.2259 -0.0261
 3574SOL    HW122181   4.382   1.541   2.335 -0.5271 -1.8991 -0.9333
 3574SOL    HW222182   4.423   1.646   2.240 -0.6981  0.5450 -0.0077
 3575SOL     OW22183   3.363   4.162   7.721 -0.5668 -0.0504  0.6129
 3575SOL    HW122184   3.454   4.192   7.724 -1.0527  1.7319 -1.9989
 3575SOL    HW222185   3.368   4.086   7.778  0.8505 -0.1173  0.4115
 3576SOL     OW22186   0.791   3.195  14.434 -0.0973 -0.5797 -0.3822
 3576SOL    HW122187   0.872   3.162  14.394 -1.1230 -2.1507 -1.1260
 3576SOL    HW222188   0.791   3.152  14.519 -0.3753  0.9423  0.3772
 3577SOL     OW22189   0.108   2.533   5.671 -0.2104  0.0437  0.0646
 3577SOL    HW122190   0.043   2.597   5.698  0.5183 -0.1773  2.3688
 3577SOL    HW222191   0.119   2.499   5.760  0.5944  1.7846  0.6177
 3578SOL     OW22192   2.457   2.199   2.633  0.3661  0.0115 -0.3831
 3578SOL    HW122193   2.394   2.181   2.703 -0.5065  0.7795 -0.9757
 3578SOL    HW222194   2.535   2.211   2.687 -0.2295 -1.9500  0.9170
 3579SOL     OW22195   3.533   1.351   1.400  0.1190 -0.4046 -0.7246
 3579SOL    HW122196   3.468   1.292   1.439  1.1790  0.1362  1.8268
 3579SOL    HW222197   3.477   1.428   1.389  1.1536  0.5339  0.5600
 3580SOL     OW22198   1.030   0.369   3.032 -0.0648 -0.0734  0.1201
 3580SOL    HW122199   1.011   0.316   3.110 -2.1430  2.2420  1.2155
 3580SOL    HW222200   0.954   0.427   3.029 -1.8572 -2.3379  1.7556
 3581SOL     OW22201   0.636   1.765  13.233 -0.2488 -0.0639 -0.6587
 3581SOL    HW122202   0.627   1.758  13.138  0.2443  0.0914 -0.7146
 3581SOL    HW222203   0.581   1.692  13.262  0.4211 -0.9096 -1.5113
 3582SOL     OW22204   3.973   0.286   7.948  0.4160  0.5078  0.3154
 3582SOL    HW122205   4.066   0.307   7.950  0.3812  0.6974 -0.1304
 3582SOL    HW222206   3.957   0.304   8.041 -1.8352  1.2240 -0.2170
 3583SOL     OW22207   3.447   0.916   6.906 -0.0220  0.5238  0.5591
 3583SOL    HW122208   3.368   0.970   6.902  0.1907  0.9701  2.0412
 3583SOL    HW222209   3.505   0.967   6.963  1.2143 -0.4572  0.1802
 3584SOL     OW22210   0.948   0.689   1.797  0.5565 -0.2777 -0.0102
 3584SOL    HW122211   0.914   0.668   1.710  1.1874  0.1175 -0.3541
 3584SOL    HW222212   1.043   0.684   1.788  0.5058 -0.1100 -0.6460
 3585SOL     OW22213   0.548   0.300   4.852  0.1774  0.5977 -0.3801
 3585SOL    HW122214   0.485   0.325   4.784 -1.1915 -0.2465  0.5983
 3585SOL    HW222215   0.543   0.205   4.857 -0.8692  0.5893 -1.6276
 3586SOL     OW22216   2.466   2.064   4.418 -0.7107 -0.1327 -0.5806
 3586SOL    HW122217   2.426   2.014   4.489 -1.6747  0.2400 -0.8535
 3586SOL    HW222218   2.475   1.993   4.354 -0.2563 -1.5673  1.0938
 3587SOL     OW22219   0.232   4.409   9.454  0.0142 -0.0944  0.2668
 3587SOL    HW122220   0.166   4.359   9.407 -2.1566  0.9846  2.1702
 3587SOL    HW222221   0.211   4.499   9.429 -1.1926  0.1743  2.2560
 3588SOL     OW22222   4.010   3.320   3.782  0.1363  0.1621  0.3973
 3588SOL    HW122223   4.025   3.402   3.735 -1.0880 -0.0181 -0.2888
 3588SOL    HW222224   4.096   3.280   3.766  0.4793  0.9555  0.2672
 3589SOL     OW22225   1.759   2.652  10.616 -0.4659 -0.2750  0.4922
 3589SOL    HW122226   1.720   2.588  10.556 -0.4606  0.5217 -0.3613
 3589SOL    HW222227   1.717   2.725  10.571 -0.0067 -0.7145 -0.6629
 3590SOL     OW22228   2.726   3.253   0.399 -0.3901 -0.7677  0.0570
 3590SOL    HW122229   2.688   3.212   0.321  0.5335  0.9484 -1.2985
 3590SOL    HW222230   2.789   3.185   0.426  0.4248 -0.1279 -0.2361
 3591SOL     OW22231   4.638   1.451   4.071 -0.3080  0.5543 -0.1181
 3591SOL    HW122232   4.649   1.409   4.156 -1.6599 -1.0672 -0.7430
 3591SOL    HW222233   4.636   1.377   4.011  1.2006  0.3895  0.0312
 3592SOL     OW22234   0.694   0.848   6.395  0.0040  0.3571  0.0234
 3592SOL    HW122235   0.657   0.760   6.389 -1.4040  0.9275  0.4837
 3592SOL    HW222236   0.614   0.896   6.416  0.6314  2.1691 -1.7466
 3593SOL     OW22237   3.084   1.641   0.942 -0.2283 -0.2274 -0.0253
 3593SOL    HW122238   3.158   1.699   0.959  1.8951 -2.8167 -0.4804
 3593SOL    HW222239   3.076   1.641   0.847  1.3739  0.3368 -0.1688
 3594SOL     OW22240   2.424   1.050   8.771  0.7702  0.9774 -0.6630
 3594SOL    HW122241   2.482   0.982   8.736 -0.5555 -0.3585 -0.3003
 3594SOL    HW222242   2.481   1.078   8.843  2.4291 -0.6882 -1.3245
 3595SOL     OW22243   1.349   2.150   5.328 -0.0612 -0.1818 -0.3622
 3595SOL    HW122244   1.388   2.132   5.413 -1.2376  0.4498  0.3088
 3595SOL    HW222245   1.322   2.241   5.335  2.5617  0.4441  1.3390
 3596SOL     OW22246   3.684   3.760   2.893 -0.1899  0.4581 -0.2089
 3596SOL    HW122247   3.707   3.679   2.849 -2.5909 -0.7028  0.6525
 3596SOL    HW222248   3.700   3.741   2.986  1.6518 -1.7716 -0.9969
 3597SOL     OW22249   0.770   1.802   8.987  0.1982  0.0678 -0.1674
 3597SOL    HW122250   0.804   1.781   9.074  2.0716 -1.4742 -1.2780
 3597SOL    HW222251   0.798   1.893   8.981  1.4760 -0.3139  0.0760
 3598SOL     OW22252   2.315   2.372   8.274 -0.2677 -0.3403  0.2987
 3598SOL    HW122253   2.357   2.351   8.358  0.0060  2.4291  0.8789
 3598SOL    HW222254   2.222   2.350   8.283 -0.7368  0.2531 -3.4906
 3599SOL     OW22255   0.754   3.561   8.261  0.3535  0.1209 -0.0954
 3599SOL    HW122256   0.786   3.474   8.238 -0.4478 -0.1045 -0.3660
 3599SOL    HW222257   0.777   3.558   8.354  0.5936  1.1230 -0.1230
 3600SOL     OW22258   2.072   0.326   8.661 -0.6762  0.3301  0.1185
 3600SOL    HW122259   2.013   0.274   8.715 -0.9650  1.3252  0.7700
 3600SOL    HW222260   2.016   0.379   8.604 -0.1413 -0.7198 -1.3890
 3601SOL     OW22261   1.193   1.576   8.985  0.5608  0.2002 -0.4992
 3601SOL    HW122262   1.265   1.604   8.928  0.2519 -0.5836 -1.2947
 3601SOL    HW222263   1.239   1.505   9.030  0.3127  0.6832  0.5067
 3602SOL     OW22264   1.029   2.217   1.797  0.0721  0.1901 -0.1935
 3602SOL    HW122265   1.089   2.287   1.771 -0.9819  1.0661 -0.2966
 3602SOL    HW222266   1.060   2.206   1.887 -0.2881 -1.1025 -0.2251
 3603SOL     OW22267   1.901   0.006   6.513 -0.0510  0.3603 -0.3526
 3603SOL    HW122268   1.942   4.692   6.592 -2.2883  0.9911  1.0850
 3603SOL    HW222269   1.815   0.028   6.548 -0.3369 -1.6080  0.1794
 3604SOL     OW22270   2.295   3.406   6.763 -0.2178 -0.1559  0.4948
 3604SOL    HW122271   2.226   3.357   6.808 -0.6115 -0.7231 -0.7103
 3604SOL    HW222272   2.348   3.434   6.837 -1.0995  0.8980  0.7148
 3605SOL     OW22273   4.538   1.150   5.837 -0.2396 -0.1559 -0.4158
 3605SOL    HW122274   4.596   1.180   5.768  0.1735 -0.5696 -0.2463
 3605SOL    HW222275   4.537   1.222   5.900  1.9988  0.0026 -0.5900
 3606SOL     OW22276   1.200   2.181   9.283 -0.3368  0.1705  0.2368
 3606SOL    HW122277   1.170   2.262   9.324 -0.5691 -0.6380  1.6730
 3606SOL    HW222278   1.125   2.133   9.319 -0.3932 -0.8073 -1.2140
 3607SOL     OW22279   3.286   4.151   1.565 -0.0694  0.2186 -0.6257
 3607SOL    HW122280   3.240   4.200   1.633  2.5157 -0.7978  1.8411
 3607SOL    HW222281   3.359   4.121   1.619  1.4986  3.1972 -1.1010
 3608SOL     OW22282   0.325   2.057   7.537 -0.5396  0.0143 -0.5108
 3608SOL    HW122283   0.413   2.094   7.538 -0.1511 -0.9306  0.3097
 3608SOL    HW222284   0.317   2.017   7.624  2.0050 -0.9066 -0.6850
 3609SOL     OW22285   3.226   0.877   5.952  1.3033  0.3222 -0.2315
 3609SOL    HW122286   3.294   0.924   5.904  0.5073  1.3735 -0.3222
 3609SOL    HW222287   3.154   0.940   5.951  0.8482 -0.2127 -1.3079
 3610SOL     OW22288   4.242   4.668   7.142 -0.2618 -0.1712  0.2655
 3610SOL    HW122289   4.176   0.013   7.155 -0.1779 -0.2155  0.9276
 3610SOL    HW222290   4.325   4.715   7.132  0.4131 -1.5438 -0.6320
 3611SOL     OW22291   2.570   2.343  17.644 -0.3764 -0.2359  0.3931
 3611SOL    HW122292   2.604   2.295   0.027 -1.0971 -1.3421  0.0189
 3611SOL    HW222293   2.481   2.354  17.677 -0.0882  3.7023 -0.1820
 3612SOL     OW22294   3.120   2.030   5.004 -0.1823  0.2818  0.1984
 3612SOL    HW122295   3.203   2.008   4.963 -0.9820 -2.4161  0.0131
 3612SOL    HW222296   3.152   2.084   5.077  0.3059  0.2894 -0.0229
 3613SOL     OW22297   1.167   3.168   4.619 -0.7606 -0.1141 -0.9119
 3613SOL    HW122298   1.092   3.110   4.620 -0.9252  0.1497  0.9461
 3613SOL    HW222299   1.226   3.123   4.558  0.5153 -1.2082  1.1437
 3614SOL     OW22300   4.433   2.805   5.813 -0.0629  0.5286  0.1595
 3614SOL    HW122301   4.460   2.848   5.894  0.7141  0.2452  0.0561
 3614SOL    HW222302   4.456   2.713   5.826  2.2158  0.5788 -3.5034
 3615SOL     OW22303   2.847   0.800   7.358  0.1521 -0.2806 -0.8426
 3615SOL    HW122304   2.894   0.884   7.366  0.7469 -0.6755 -0.1609
 3615SOL    HW222305   2.790   0.791   7.435  1.2435  0.4958  0.0643
 3616SOL     OW22306   1.073   1.111  11.412  0.2039 -0.6844  0.2036
 3616SOL    HW122307   1.145   1.168  11.438  0.2990 -0.0807 -1.3774
 3616SOL    HW222308   1.083   1.037  11.472  1.8695  0.8796  1.8660
 3617SOL     OW22309   3.887   3.352   8.530 -0.5055 -0.1281  0.1698
 3617SOL    HW122310   3.799   3.354   8.491  0.3658  1.7200 -1.6557
 3617SOL    HW222311   3.855   3.385   8.614  0.5691  1.3117  0.0061
 3618SOL     OW22312   4.693   1.924   5.034 -0.0640 -0.4087  0.1878
 3618SOL    HW122313   4.643   1.916   5.115 -1.1832  3.1077 -0.1287
 3618SOL    HW222314   4.650   1.995   4.985  1.8638  0.8112  0.2647
 3619SOL     OW22315   0.725   4.653   4.523 -0.7819 -0.4103 -0.1385
 3619SOL    HW122316   0.735   4.643   4.618  1.3179 -0.8774 -0.4073
 3619SOL    HW222317   0.777   4.576   4.501  0.3440  1.1713 -2.9954
 3620SOL     OW22318   4.662   1.797   6.176  0.1136  0.3662  0.3596
 3620SOL    HW122319   0.031   1.803   6.150  1.0128  1.4535  3.7818
 3620SOL    HW222320   4.619   1.803   6.090 -0.8375 -0.0200  0.8102
 3621SOL     OW22321   1.867   3.560   0.200  0.3536 -0.1621  0.6744
 3621SOL    HW122322   1.793   3.573   0.260  0.1248 -2.0836  0.8017
 3621SOL    HW222323   1.901   3.473   0.218 -1.7146 -1.0013  0.5516
 3622SOL     OW22324   0.444   1.790  11.743  0.1812 -0.4097  0.4073
 3622SOL    HW122325   0.422   1.759  11.830 -1.0527  2.4945  1.1281
 3622SOL    HW222326   0.387   1.738  11.686  0.9426 -1.6357  0.7549
 3623SOL     OW22327   4.040   4.334   7.070 -0.8099  0.1031  0.1494
 3623SOL    HW122328   4.018   4.396   7.001 -1.7934  1.3146  1.5418
 3623SOL    HW222329   4.009   4.381   7.147 -0.3565  0.8000 -0.0945
 3624SOL     OW22330   3.971   1.996   3.919 -0.6846 -0.1767  0.2125
 3624SOL    HW122331   4.022   2.063   3.965  2.8870 -1.5666 -1.7377
 3624SOL    HW222332   3.968   1.925   3.982  0.3830  1.0386  1.6385
 3625SOL     OW22333   2.847   2.010  12.687 -0.1142  0.4276  0.4538
 3625SOL    HW122334   2.762   2.045  12.661  0.4647  2.2372  0.9218
 3625SOL    HW222335   2.881   1.966  12.609 -1.4012 -1.6162  1.0520
 3626SOL     OW22336   2.005   2.471   3.727  0.4975 -0.0514  0.4461
 3626SOL    HW122337   2.023   2.437   3.815 -0.0348 -1.4262  0.0208
 3626SOL    HW222338   2.030   2.562   3.741 -0.2599  0.6030 -2.3866
 3627SOL     OW22339   0.895   4.098   3.396  0.6613  0.2776 -0.0519
 3627SOL    HW122340   0.877   4.043   3.320 -1.6189 -0.4460  1.0283
 3627SOL    HW222341   0.949   4.032   3.439  1.6648  0.0582 -1.6280
 3628SOL     OW22342   3.351   4.108   8.896 -0.0530 -0.0855  0.0527
 3628SOL    HW122343   3.380   4.113   8.805  2.3510  2.4504  0.9519
 3628SOL    HW222344   3.373   4.194   8.932 -0.9190  0.6276 -1.1228
 3629SOL     OW22345   3.937   4.438   0.167 -0.4074  0.2639 -0.1580
 3629SOL    HW122346   3.921   4.387   0.246  2.5751 -0.8589 -0.2570
 3629SOL    HW222347   3.854   4.435   0.120 -0.2817 -0.2856 -0.3435
 3630SOL     OW22348   4.574   1.864   5.915  0.6895 -0.0448  0.3918
 3630SOL    HW122349   4.488   1.890   5.881  0.4088 -0.4795  0.7619
 3630SOL    HW222350   4.630   1.926   5.869  2.5411 -2.5913 -0.7525
 3631SOL     OW22351   4.065   0.967   5.524  0.4977  0.4651  0.3995
 3631SOL    HW122352   3.986   0.995   5.571 -0.4627  0.0040 -0.9280
 3631SOL    HW222353   4.112   1.049   5.513  0.3536  0.4110 -0.6065
 3632SOL     OW22354   1.504   0.309   3.022  0.2550 -0.1227  0.3871
 3632SOL    HW122355   1.514   0.395   2.982 -0.8462  0.5554  1.5504
 3632SOL    HW222356   1.594   0.279   3.017  0.5355  0.7744 -0.0038
 3633SOL     OW22357   0.009   0.141  16.517 -0.2647  0.3376 -0.1472
 3633SOL    HW122358   0.099   0.170  16.509  0.8498 -2.6055  1.7760
 3633SOL    HW222359   4.716   0.128  16.611  1.2406 -1.8356 -0.2124
 3634SOL     OW22360   2.793   3.872   0.095  0.0478 -0.8554 -0.1608
 3634SOL    HW122361   2.809   3.911   0.181 -0.8240 -1.2728  0.1961
 3634SOL    HW222362   2.881   3.838   0.078  0.5551  0.8588 -0.9072
 3635SOL     OW22363   1.595   1.743  15.729  0.2317  0.5617 -0.1054
 3635SOL    HW122364   1.527   1.698  15.679 -0.6227 -1.3860  2.7777
 3635SOL    HW222365   1.616   1.671  15.788 -1.2139 -1.1087 -1.6269
 3636SOL     OW22366   1.570   1.268   4.976  0.2002 -0.2040 -0.0450
 3636SOL    HW122367   1.580   1.248   5.069  1.5981  2.0717  0.2879
 3636SOL    HW222368   1.503   1.337   4.973  0.1347 -0.2832 -0.4219
 3637SOL     OW22369   1.227   2.928  16.825 -0.2660 -0.4186  0.3801
 3637SOL    HW122370   1.268   2.933  16.911  1.6383  1.2406 -0.6294
 3637SOL    HW222371   1.229   2.834  16.810 -0.0474 -0.4563  0.6702
 3638SOL     OW22372   0.303   3.433   1.955  0.8679 -0.2588  0.3345
 3638SOL    HW122373   0.269   3.479   2.031  0.1253  2.1203 -1.4529
 3638SOL    HW222374   0.339   3.509   1.910  0.6449 -0.4090 -0.0977
 3639SOL     OW22375   2.862   4.442  17.411  0.7153 -0.2660  0.2002
 3639SOL    HW122376   2.928   4.388  17.368 -0.6136 -0.5920 -1.4039
 3639SOL    HW222377   2.804   4.469  17.340 -1.0636  0.4316  1.9177
 3640SOL     OW22378   4.046   2.833   6.880  0.5618  0.2282  0.1987
 3640SOL    HW122379   4.089   2.748   6.884 -0.9233 -0.5736 -0.9847
 3640SOL    HW222380   4.113   2.898   6.903  2.4224 -1.7328  0.3121
 3641SOL     OW22381   4.408   2.212   6.969 -0.1562 -0.2210  0.5579
 3641SOL    HW122382   4.416   2.128   6.924  0.0181  0.0846  0.0243
 3641SOL    HW222383   4.437   2.191   7.058 -0.7150  1.9270  1.2657
 3642SOL     OW22384   0.299   0.195   4.108 -0.2926  0.6613  0.1623
 3642SOL    HW122385   0.291   0.225   4.018 -0.2509  0.8620  0.2249
 3642SOL    HW222386   0.389   0.171   4.127  0.2008  1.8852 -0.6015
 3643SOL     OW22387   4.650   4.649   7.498  0.4919 -0.3533  0.1251
 3643SOL    HW122388   0.014   4.688   7.486  0.1446  0.5481  0.5310
 3643SOL    HW222389   4.632   4.671   7.407  1.4233  0.9515  0.2493
 3644SOL     OW22390   2.666   0.332  12.185 -0.2360 -0.0837 -0.1572
 3644SOL    HW122391   2.600   0.347  12.252 -1.3317 -2.1709 -0.7592
 3644SOL    HW222392   2.685   0.241  12.209  2.2327 -0.0657 -1.9963
 3645SOL     OW22393   3.832   3.354  15.131  0.6548  0.0950 -0.1742
 3645SOL    HW122394   3.896   3.379  15.198  1.3637  0.2894 -0.9352
 3645SOL    HW222395   3.828   3.440  15.088 -3.3913 -0.5771 -1.1931
 3646SOL     OW22396   3.334   2.741   3.528 -0.0753  0.1337  0.0684
 3646SOL    HW122397   3.393   2.784   3.589  0.0447  0.8670 -0.5623
 3646SOL    HW222398   3.263   2.805   3.527 -0.0423  0.1661 -0.1126
 3647SOL     OW22399   0.716   1.624  11.222  0.3609  0.2814 -0.0321
 3647SOL    HW122400   0.623   1.623  11.244  0.5790 -0.2443  0.8662
 3647SOL    HW222401   0.726   1.691  11.154  0.7593 -0.1523 -0.3933
 3648SOL     OW22402   4.355   3.420  10.255  0.0144  0.5507  0.3041
 3648SOL    HW122403   4.319   3.492  10.306 -1.6836  1.3977 -2.1000
 3648SOL    HW222404   4.438   3.461  10.230  0.4904 -0.1139  0.7733
 3649SOL     OW22405   3.184   3.152  16.477  0.4251 -0.7617 -0.0311
 3649SOL    HW122406   3.120   3.102  16.426  1.1329 -1.5229 -0.1661
 3649SOL    HW222407   3.205   3.098  16.553  2.1115  0.5409  0.4413
 3650SOL     OW22408   1.397   2.694   2.211  0.1543  0.0425  1.1231
 3650SOL    HW122409   1.317   2.658   2.249 -0.0766  0.2850  0.8662
 3650SOL    HW222410   1.425   2.608   2.181 -1.9271  0.1446 -1.0909
 3651SOL     OW22411   1.403   1.388  12.099  0.5924 -0.1195  0.4612
 3651SOL    HW122412   1.482   1.335  12.106 -1.5007 -3.3968 -0.6263
 3651SOL    HW222413   1.332   1.325  12.110  2.2928 -1.9608  0.7669
 3652SOL     OW22414   2.873   1.983   2.583 -0.0309  0.1844  0.2857
 3652SOL    HW122415   2.862   1.903   2.530 -1.2035  2.4106 -2.8288
 3652SOL    HW222416   2.968   1.976   2.595  0.0192  0.9133  0.2740
 3653SOL     OW22417   3.450   2.265  16.996 -0.2233  0.5711  0.3442
 3653SOL    HW122418   3.456   2.284  16.903  0.7647  0.5796  0.4091
 3653SOL    HW222419   3.355   2.266  17.013 -0.5821 -3.5651 -1.2571
 3654SOL     OW22420   4.527   2.037   3.576 -0.2773  0.2074  0.1752
 3654SOL    HW122421   4.587   1.983   3.526  1.5149  3.8560 -1.6202
 3654SOL    HW222422   4.583   2.113   3.591 -1.2810  1.3466 -1.7839
 3655SOL     OW22423   3.685   1.857   2.810 -0.0112 -0.6065 -0.5596
 3655SOL    HW122424   3.694   1.762   2.814 -0.3398 -0.5936  0.5824
 3655SOL    HW222425   3.718   1.877   2.898  1.3722 -2.6385 -0.6266
 3656SOL     OW22426   2.288   4.498  11.021  0.3709 -0.0252 -0.0693
 3656SOL    HW122427   2.300   4.579  11.070  2.4192  0.3639 -1.2008
 3656SOL    HW222428   2.276   4.446  11.101 -0.3261 -1.3334 -1.0207
 3657SOL     OW22429   3.587   3.473  14.573  0.4892 -0.1759  0.1162
 3657SOL    HW122430   3.521   3.419  14.530  0.6254  0.3329 -0.7248
 3657SOL    HW222431   3.612   3.519  14.493  0.4643  0.1485  0.2953
 3658SOL     OW22432   0.195   2.682   4.225 -0.0611  0.0688  0.1778
 3658SOL    HW122433   0.176   2.644   4.139 -1.6888 -1.4252  1.1992
 3658SOL    HW222434   0.181   2.777   4.216 -1.1806 -0.2516 -1.4923
 3659SOL     OW22435   0.206   2.926   2.987  0.0985 -0.1429  0.4882
 3659SOL    HW122436   0.117   2.903   2.961 -0.7685  1.0547  2.3824
 3659SOL    HW222437   0.221   2.865   3.059 -1.0763  0.3112  1.1216
 3660SOL     OW22438   4.019   2.676  12.799 -0.3445  0.1711 -0.3776
 3660SOL    HW122439   4.017   2.758  12.850 -0.4305 -0.2528  0.2970
 3660SOL    HW222440   3.986   2.613  12.863  0.0667 -0.7037 -1.0476
 3661SOL     OW22441   1.973   1.211   8.389  0.7192  0.1386 -0.2407
 3661SOL    HW122442   2.056   1.199   8.435  1.7997  1.4932 -1.8085
 3661SOL    HW222443   1.906   1.177   8.447 -0.1233  0.2192 -1.1646
 3662SOL     OW22444   4.092   4.593  11.498 -0.3734  0.3746 -0.0392
 3662SOL    HW122445   4.117   4.652  11.568  1.8737 -0.4076 -0.1785
 3662SOL    HW222446   4.168   4.585  11.440 -0.7517  1.6466 -0.7046
 3663SOL     OW22447   3.700   4.056   2.986 -0.3999 -0.1340 -0.0769
 3663SOL    HW122448   3.710   4.146   2.956 -1.6750 -0.0117 -0.1522
 3663SOL    HW222449   3.714   4.009   2.904  0.7785 -1.0076  0.6315
 3664SOL     OW22450   4.369   4.107  11.360  0.0470  0.0680 -0.2911
 3664SOL    HW122451   4.278   4.120  11.335  0.2471 -1.0630 -1.6262
 3664SOL    HW222452   4.359   4.085  11.453 -2.5802  2.6139  0.0045
 3665SOL     OW22453   2.408   2.622   4.053 -0.0029 -0.3139  0.1601
 3665SOL    HW122454   2.375   2.709   4.030 -0.4616  0.0244  2.0808
 3665SOL    HW222455   2.502   2.638   4.050  0.1003 -0.3235  2.9481
 3666SOL     OW22456   4.715   1.747   7.978 -0.2163 -0.1931 -0.1336
 3666SOL    HW122457   0.012   1.802   8.054 -1.8645 -1.0553  0.9215
 3666SOL    HW222458   0.034   1.792   7.904 -0.2328  2.0252  1.1863
 3667SOL     OW22459   2.070   3.536  15.662  0.3867 -0.4336  0.0984
 3667SOL    HW122460   2.152   3.538  15.612 -0.7563  0.5215 -1.7364
 3667SOL    HW222461   2.009   3.585  15.606  0.1048 -0.7833  0.0985
 3668SOL     OW22462   1.434   0.142  13.963  0.2930  0.4412  0.1758
 3668SOL    HW122463   1.490   0.072  13.929 -0.5303 -0.1420  0.0330
 3668SOL    HW222464   1.486   0.159  14.041 -2.5104 -0.2416  2.1864
 3669SOL     OW22465   0.630   3.671   5.643 -0.2672 -0.0422 -0.5700
 3669SOL    HW122466   0.653   3.648   5.553  0.1701 -0.8346 -0.2567
 3669SOL    HW222467   0.665   3.590   5.682  0.3311  0.6621  0.3515
 3670SOL     OW22468   1.505   0.464   7.704  0.4544  0.0249 -0.0069
 3670SOL    HW122469   1.525   0.557   7.690 -1.7571  0.4022 -0.7078
 3670SOL    HW222470   1.482   0.429   7.618  0.1786 -0.9304  0.4602
 3671SOL     OW22471   4.025   0.348  14.025  0.0280 -0.4568 -0.0903
 3671SOL    HW122472   4.024   0.396  13.942 -0.8083 -0.1804  0.0841
 3671SOL    HW222473   3.936   0.361  14.056  0.0673  1.4104 -0.7141
 3672SOL     OW22474   0.215   1.546   3.088 -0.2205 -0.1954  0.6631
 3672SOL    HW122475   0.135   1.561   3.038  0.4048 -0.0341 -0.2897
 3672SOL    HW222476   0.179   1.533   3.176 -0.3749  0.5021  0.7044
 3673SOL     OW22477   4.271   4.708   8.836  0.0118  0.1910  0.6862
 3673SOL    HW122478   4.350   4.654   8.839  1.1680  1.9391  1.2619
 3673SOL    HW222479   4.203   4.655   8.879 -2.1237 -0.2330 -3.2264
 3674SOL     OW22480   2.906   0.823   2.455  0.1676 -0.0397  1.0392
 3674SOL    HW122481   2.985   0.877   2.458 -1.5052  2.4326  0.8080
 3674SOL    HW222482   2.945   0.736   2.459 -1.7154 -0.9019  0.3493
 3675SOL     OW22483   1.611   0.509   8.790 -0.0357 -0.2863 -0.4571
 3675SOL    HW122484   1.614   0.506   8.886 -0.6038  0.5169 -0.4061
 3675SOL    HW222485   1.613   0.414   8.780 -0.8385 -0.4571  0.9110
 3676SOL     OW22486   3.506   1.811   2.152  0.2380 -0.3837  0.0632
 3676SOL    HW122487   3.452   1.732   2.152 -0.6393  0.2181  0.4584
 3676SOL    HW222488   3.454   1.869   2.096 -1.0518 -0.0127  1.6550
 3677SOL     OW22489   0.190   1.721   0.665  0.0924  0.1714 -0.4992
 3677SOL    HW122490   0.192   1.717   0.761  2.3907  0.0059 -0.5532
 3677SOL    HW222491   0.284   1.708   0.651  0.2959  0.6690  0.4383
 3678SOL     OW22492   0.749   4.709   7.712  0.3733  0.5392 -0.3231
 3678SOL    HW122493   0.725   0.017   7.625 -3.5182 -2.3750 -0.2821
 3678SOL    HW222494   0.818   4.647   7.688 -2.8307 -2.5799 -1.6079
 3679SOL     OW22495   4.262   1.703   9.076 -0.1385  0.7960  0.4486
 3679SOL    HW122496   4.233   1.791   9.051  1.7674  1.2302 -0.2506
 3679SOL    HW222497   4.355   1.707   9.056 -0.1792 -0.8555  0.0063
 3680SOL     OW22498   1.512   0.139   4.125 -0.7448  0.3099 -0.2819
 3680SOL    HW122499   1.529   0.206   4.191  0.5297 -0.6256  0.3469
 3680SOL    HW222500   1.439   0.170   4.071 -1.4015 -1.2303 -0.2776
 3681SOL     OW22501   1.302   3.335  13.702 -0.4374 -0.2784 -0.2726
 3681SOL    HW122502   1.364   3.360  13.633 -0.2548  1.1905  0.4237
 3681SOL    HW222503   1.281   3.424  13.732 -0.0670  0.1107 -1.1590
 3682SOL     OW22504   4.478   4.297   7.175 -0.3427  0.6257  0.1336
 3682SOL    HW122505   4.513   4.223   7.225 -2.0242  0.7949  1.5846
 3682SOL    HW222506   4.392   4.271   7.144 -0.6785 -0.2100  1.7391
 3683SOL     OW22507   1.550   0.158   6.913 -0.5105  0.1716 -0.2727
 3683SOL    HW122508   1.553   0.254   6.910  0.4365  0.0669 -2.4423
 3683SOL    HW222509   1.623   0.145   6.974  0.2346 -1.2043 -1.4664
 3684SOL     OW22510   1.638   1.407   7.312  0.6168 -0.5200  0.0937
 3684SOL    HW122511   1.652   1.402   7.407  1.5890  0.3103 -0.0038
 3684SOL    HW222512   1.688   1.487   7.295 -2.1072  1.4432  1.2798
 3685SOL     OW22513   2.158   1.435   7.256  0.4452 -0.0252  0.9851
 3685SOL    HW122514   2.128   1.468   7.341  0.5174  1.8204  0.2806
 3685SOL    HW222515   2.168   1.341   7.274 -0.4064 -0.3485 -0.2869
 3686SOL     OW22516   0.504   1.829   2.086 -0.2227  0.5278  0.7971
 3686SOL    HW122517   0.586   1.815   2.133  1.7949 -0.1977 -2.9678
 3686SOL    HW222518   0.510   1.918   2.049  1.1249  0.5382  1.0496
 3687SOL     OW22519   2.667   4.600  11.073  0.3993 -0.5050  0.5352
 3687SOL    HW122520   2.622   4.565  11.150 -1.0786  2.8509  1.1722
 3687SOL    HW222521   2.617   4.681  11.065  0.5265 -0.3862  0.9731
 3688SOL     OW22522   2.030   4.061  10.352 -0.3581 -0.4838  0.4243
 3688SOL    HW122523   2.029   3.968  10.376  1.4774 -0.5096  0.4096
 3688SOL    HW222524   1.938   4.072  10.330 -0.3754  1.8760  1.6816
 3689SOL     OW22525   3.526   1.142   6.458  0.0819 -0.3604 -0.2683
 3689SOL    HW122526   3.517   1.115   6.366  0.2403 -0.6933 -0.1822
 3689SOL    HW222527   3.435   1.146   6.487 -0.5786 -2.1919 -2.0741
 3690SOL     OW22528   0.100   4.034  11.560 -0.6136  0.2630 -0.0580
 3690SOL    HW122529   0.018   3.994  11.589 -0.8824  2.1321  1.7585
 3690SOL    HW222530   0.120   3.994  11.475  1.0808 -0.6566  0.7697
 3691SOL     OW22531   1.679   0.658   5.987 -0.9906  0.7212 -0.0813
 3691SOL    HW122532   1.739   0.584   5.998 -3.0933 -1.0505 -0.6882
 3691SOL    HW222533   1.721   0.726   6.041  0.8437 -1.6519  1.5233
 3692SOL     OW22534   0.976   3.150   3.181 -0.3276 -0.0837  0.0605
 3692SOL    HW122535   1.043   3.168   3.247  0.0657  0.0586 -0.3800
 3692SOL    HW222536   0.925   3.092   3.238  0.6738 -1.3467 -0.3260
 3693SOL     OW22537   0.581   0.778   4.399 -0.5375  0.1507  0.9544
 3693SOL    HW122538   0.635   0.705   4.367  0.3906  2.0727 -1.8633
 3693SOL    HW222539   0.513   0.776   4.332  0.6554 -4.5513 -0.1321
 3694SOL     OW22540   1.413   3.417   5.647  0.3351  0.0824  0.3337
 3694SOL    HW122541   1.364   3.491   5.612 -2.0908 -1.4879  0.4306
 3694SOL    HW222542   1.338   3.368   5.679 -0.7711  0.2787 -1.9311
 3695SOL     OW22543   3.362   2.333   2.493  0.1245 -0.2503  0.3971
 3695SOL    HW122544   3.448   2.368   2.517  0.1868  0.3607 -0.7107
 3695SOL    HW222545   3.374   2.339   2.398  1.1421  1.6760  0.6511
 3696SOL     OW22546   0.467   2.604   2.531 -0.1140  0.6997  0.3140
 3696SOL    HW122547   0.381   2.616   2.490 -0.2211  0.6849  0.5336
 3696SOL    HW222548   0.508   2.534   2.480  0.2424 -1.0369  3.0117
 3697SOL     OW22549   3.899   2.252   0.805 -0.1227  0.0798  1.4547
 3697SOL    HW122550   3.905   2.160   0.831 -0.3429  0.0883  1.5387
 3697SOL    HW222551   3.930   2.247   0.714 -0.5359  0.6915  1.2766
 3698SOL     OW22552   2.955   0.931   8.362 -0.1043 -0.0639  0.0356
 3698SOL    HW122553   2.948   0.877   8.441  0.3466 -0.9340 -0.5142
 3698SOL    HW222554   2.884   0.990   8.388 -0.3701 -1.2442  1.9867
 3699SOL     OW22555   0.755   2.051   2.751 -0.0807 -0.0201 -0.1343
 3699SOL    HW122556   0.761   1.996   2.829 -2.5604  0.2355  0.2237
 3699SOL    HW222557   0.828   2.111   2.762 -1.3242  1.3948  0.3325
 3700SOL     OW22558   3.632   0.801   1.379  0.3421  0.3062  0.2232
 3700SOL    HW122559   3.646   0.810   1.473  1.8024 -1.3633  0.1614
 3700SOL    HW222560   3.724   0.785   1.359  0.0779 -0.5221 -0.3063
 3701SOL     OW22561   3.096   3.297   4.101  0.2292 -0.0908  0.6631
 3701SOL    HW122562   3.062   3.381   4.130 -0.2144  0.6853 -2.1025
 3701SOL    HW222563   3.159   3.339   4.042 -1.6573 -1.0395 -2.0619
 3702SOL     OW22564   4.377   1.499   5.110 -0.0567 -0.2197  0.0948
 3702SOL    HW122565   4.362   1.480   5.017 -2.3905 -2.5737  0.9623
 3702SOL    HW222566   4.294   1.462   5.140 -0.1648  0.6095  0.8128
 3703SOL     OW22567   1.575   2.691  16.500  0.0763  0.0120  0.1561
 3703SOL    HW122568   1.581   2.679  16.405  1.6210  0.0700  0.2372
 3703SOL    HW222569   1.609   2.609  16.536  0.3186  0.2433  0.4575
 3704SOL     OW22570   0.078   1.464   9.231 -0.7044 -0.6351 -0.5537
 3704SOL    HW122571   0.129   1.446   9.310 -2.6864 -1.5534  0.4961
 3704SOL    HW222572   0.155   1.482   9.176 -0.7290 -0.7973 -0.6400
 3705SOL     OW22573   2.517   0.574   3.393  0.3318 -0.2066 -0.1616
 3705SOL    HW122574   2.600   0.558   3.347 -0.0895 -1.1533 -0.5884
 3705SOL    HW222575   2.485   0.487   3.418  1.2227  0.0189  1.8263
 3706SOL     OW22576   0.530   0.953   8.725 -0.3222  0.2124  0.1001
 3706SOL    HW122577   0.535   0.995   8.811 -0.3425 -1.3033  0.8324
 3706SOL    HW222578   0.487   1.017   8.669  0.8029 -0.2717 -1.3303
 3707SOL     OW22579   1.720   3.314   9.564 -0.9021  0.0378  0.4245
 3707SOL    HW122580   1.657   3.269   9.620 -1.4806 -0.8791 -0.9739
 3707SOL    HW222581   1.675   3.328   9.481 -1.1031  1.8339  0.8326
 3708SOL     OW22582   4.557   2.951  13.268 -0.4076  0.3113 -0.3035
 3708SOL    HW122583   4.596   3.004  13.338 -0.4852 -0.9179  0.6751
 3708SOL    HW222584   4.468   2.941  13.302  0.3478 -1.0191  1.2770
 3709SOL     OW22585   0.605   2.375   6.986 -0.2026  0.0614  0.5095
 3709SOL    HW122586   0.548   2.397   7.059 -0.4259 -1.1939  0.7026
 3709SOL    HW222587   0.607   2.458   6.937  1.6092  1.3481  2.7828
 3710SOL     OW22588   4.381   3.466   7.004 -0.0101  0.5653 -0.3676
 3710SOL    HW122589   4.365   3.409   6.929 -1.8306  2.6282 -1.5362
 3710SOL    HW222590   4.292   3.492   7.028 -0.2407 -0.3269 -0.2301
 3711SOL     OW22591   2.447   0.615   8.220 -0.2039  0.3910 -0.2407
 3711SOL    HW122592   2.461   0.533   8.172 -0.5158  0.3797 -0.3133
 3711SOL    HW222593   2.359   0.591   8.249  0.4307 -0.9187  0.6455
 3712SOL     OW22594   3.158   1.604   4.250 -0.2498  0.7020  0.4982
 3712SOL    HW122595   3.103   1.613   4.171 -1.2843  1.4047  1.2944
 3712SOL    HW222596   3.155   1.691   4.289 -0.1715  1.9941 -2.3482
 3713SOL     OW22597   4.700   1.062  10.311 -0.2973  0.0695  0.1106
 3713SOL    HW122598   4.624   1.003  10.312  0.9522 -1.5852 -2.0871
 3713SOL    HW222599   0.024   1.025  10.236 -0.9120 -0.8006  0.1511
 3714SOL     OW22600   2.833   0.205   1.662 -0.8066 -0.0905 -0.1913
 3714SOL    HW122601   2.880   0.161   1.590  0.7673 -0.1537  0.8681
 3714SOL    HW222602   2.914   0.216   1.711 -0.4977  0.2550 -0.7732
 3715SOL     OW22603   0.745   4.007   5.725 -0.2181  0.4072  0.3401
 3715SOL    HW122604   0.707   3.970   5.804  1.7007  0.7271  1.4097
 3715SOL    HW222605   0.829   3.961   5.727 -0.4849 -0.1837 -1.6690
 3716SOL     OW22606   1.906   0.228   4.639 -0.0998 -0.3143 -0.0354
 3716SOL    HW122607   1.860   0.176   4.705 -1.0402 -0.9626 -1.2164
 3716SOL    HW222608   1.993   0.228   4.678  0.4499 -1.1064 -1.2563
 3717SOL     OW22609   0.302   0.894   4.688  0.0887  0.0370 -0.8871
 3717SOL    HW122610   0.287   0.855   4.775 -1.9910  0.3534 -1.1023
 3717SOL    HW222611   0.374   0.834   4.667  1.5855  1.6804 -0.4682
 3718SOL     OW22612   2.826   3.261   6.255 -0.0900  0.7580  0.3828
 3718SOL    HW122613   2.782   3.193   6.204  0.7824  0.6321 -0.1974
 3718SOL    HW222614   2.798   3.333   6.198 -0.3704  0.8628  0.6516
 3719SOL     OW22615   0.275   1.809   8.590  0.0350 -0.1874 -0.3191
 3719SOL    HW122616   0.214   1.801   8.664 -0.3436 -1.9253 -0.8253
 3719SOL    HW222617   0.222   1.774   8.518  1.7421  2.3097 -2.7942
 3720SOL     OW22618   1.738   0.342   7.426  0.0870  0.7196  0.1270
 3720SOL    HW122619   1.811   0.281   7.437  1.4154  2.6623  2.0564
 3720SOL    HW222620   1.678   0.287   7.376  0.2824 -1.7113  2.5476
 3721SOL     OW22621   3.165   3.370  14.245  0.1176 -0.1711  0.0273
 3721SOL    HW122622   3.194   3.281  14.266 -2.0161 -1.1487 -1.1362
 3721SOL    HW222623   3.252   3.410  14.245  0.5372 -1.0744 -0.0234
 3722SOL     OW22624   2.172   2.940  12.495 -0.1216 -0.4412 -0.2936
 3722SOL    HW122625   2.254   2.983  12.470  0.4441 -0.4984  1.4373
 3722SOL    HW222626   2.137   3.008  12.553  0.4170 -1.8102  1.6486
 3723SOL     OW22627   1.603   3.758   2.936 -0.1809 -0.5030  0.1638
 3723SOL    HW122628   1.661   3.730   3.007  0.7285 -0.3881 -0.5317
 3723SOL    HW222629   1.596   3.848   2.966 -1.0294 -0.0074 -1.4854
 3724SOL     OW22630   3.791   0.434   7.551  0.3026  0.1776 -0.1575
 3724SOL    HW122631   3.785   0.350   7.597 -2.5607  1.5585  1.9625
 3724SOL    HW222632   3.708   0.479   7.569  0.5042  1.8347 -3.4120
 3725SOL     OW22633   4.372   3.887   6.217 -0.0069  0.6733  0.2563
 3725SOL    HW122634   4.297   3.942   6.192 -1.1883 -0.7168  0.7389
 3725SOL    HW222635   4.358   3.887   6.311 -1.0255 -2.7042  0.1262
 3726SOL     OW22636   0.057   2.937  14.998  0.2504  0.2061 -0.0263
 3726SOL    HW122637   0.107   2.957  14.918 -1.5294  1.6456 -0.7622
 3726SOL    HW222638   0.042   3.028  15.024 -1.0713  0.0751 -0.3704
 3727SOL     OW22639   0.404   2.832  12.134 -0.3251  0.5606 -0.1818
 3727SOL    HW122640   0.498   2.821  12.146 -0.8422 -1.2919  2.1509
 3727SOL    HW222641   0.379   2.833  12.226  0.6562  0.9965  0.0713
 3728SOL     OW22642   3.978   1.537  10.357  0.1332  0.2617  0.6638
 3728SOL    HW122643   4.029   1.534  10.438  1.9575 -2.9751 -0.5953
 3728SOL    HW222644   3.979   1.631  10.338  0.1937  0.2018  0.3629
 3729SOL     OW22645   2.462   1.038   7.925  0.2568 -0.1427 -0.5156
 3729SOL    HW122646   2.392   1.059   7.988 -0.2702 -1.4246 -0.6853
 3729SOL    HW222647   2.538   1.051   7.982  0.1786 -0.3745 -0.3581
 3730SOL     OW22648   4.250   2.270   9.288  0.9371  0.1039  0.3232
 3730SOL    HW122649   4.242   2.354   9.243 -1.1575 -0.3870 -0.2018
 3730SOL    HW222650   4.296   2.303   9.365 -0.3401 -0.9240  1.5115
 3731SOL     OW22651   1.850   2.345   9.819 -0.3530  0.0815  0.1404
 3731SOL    HW122652   1.774   2.403   9.815 -0.5505 -0.2670 -1.5037
 3731SOL    HW222653   1.836   2.303   9.734  1.8662 -1.2999  0.4502
 3732SOL     OW22654   3.663   3.853  10.415 -0.1071  0.2395  0.9513
 3732SOL    HW122655   3.569   3.874  10.413  0.1220  1.3547  1.7960
 3732SOL    HW222656   3.684   3.842  10.507  1.8908 -0.5888  0.4059
 3733SOL     OW22657   0.752   3.909   4.372  0.3779  0.0655  0.1746
 3733SOL    HW122658   0.722   3.910   4.281  1.0423  0.1726 -0.0462
 3733SOL    HW222659   0.811   3.984   4.369  2.3444 -1.5358 -1.6594
 3734SOL     OW22660   1.419   4.233   2.252 -0.6142 -0.3720  0.1085
 3734SOL    HW122661   1.328   4.210   2.270 -0.7106 -0.3365 -0.3397
 3734SOL    HW222662   1.410   4.323   2.223  1.7611 -0.5813 -1.2348
 3735SOL     OW22663   3.422   2.388   1.677  0.1318  0.2783 -0.5171
 3735SOL    HW122664   3.376   2.392   1.593  1.8263 -1.2090 -1.5281
 3735SOL    HW222665   3.418   2.294   1.696 -2.4935  0.4386 -0.3373
 3736SOL     OW22666   1.151   0.997  16.831  0.2973  0.2443 -1.0420
 3736SOL    HW122667   1.191   1.033  16.911 -0.1275 -2.1834  0.2639
 3736SOL    HW222668   1.189   1.063  16.774 -0.0735  3.7967  2.7704
 3737SOL     OW22669   4.085   3.325  12.158  0.6380 -0.0862  0.1489
 3737SOL    HW122670   4.172   3.345  12.122  1.2243 -0.2165  1.4971
 3737SOL    HW222671   4.082   3.403  12.212  0.0399 -0.7177  1.0221
 3738SOL     OW22672   3.140   4.710  10.200 -0.3631 -0.7675 -0.1794
 3738SOL    HW122673   3.150   4.617  10.223  0.3201 -0.2936  1.4154
 3738SOL    HW222674   3.219   0.010  10.151 -0.9666 -0.9434 -1.2349
 3739SOL     OW22675   4.576   2.723   8.210 -0.0510 -0.3490  0.1892
 3739SOL    HW122676   4.534   2.729   8.296  0.2256  0.3399  0.2824
 3739SOL    HW222677   4.500   2.721   8.152 -0.7630 -2.1481  1.1994
 3740SOL     OW22678   0.390   4.030   4.168 -0.0658  0.0964 -0.1366
 3740SOL    HW122679   0.356   3.953   4.214 -2.2533  2.1395  1.6601
 3740SOL    HW222680   0.454   3.997   4.104  0.9570  0.3185  0.7744
 3741SOL     OW22681   0.374   2.003  13.806  0.4878 -0.0425  0.4939
 3741SOL    HW122682   0.283   2.031  13.805  1.0949  2.0980  2.1211
 3741SOL    HW222683   0.418   2.088  13.802 -0.7198  0.3279 -4.6129
 3742SOL     OW22684   1.457   3.629   0.726  0.2970  0.0620  0.2120
 3742SOL    HW122685   1.420   3.716   0.714  1.9145  0.7523  0.2579
 3742SOL    HW222686   1.471   3.614   0.820  0.7061  1.6790  0.4001
 3743SOL     OW22687   1.137   1.008   8.315  0.1242  0.4774  0.6837
 3743SOL    HW122688   1.153   0.975   8.227 -1.6840 -1.0375  0.9212
 3743SOL    HW222689   1.191   0.950   8.371 -0.5277  1.9408  2.8370
 3744SOL     OW22690   1.909   1.324   7.867 -0.1260 -0.0285 -0.1875
 3744SOL    HW122691   1.855   1.270   7.926 -1.9064  0.8028 -1.0543
 3744SOL    HW222692   1.850   1.398   7.856 -0.1024 -0.1502 -1.0952
 3745SOL     OW22693   2.609   2.048  12.224 -0.3781 -0.2469  0.1726
 3745SOL    HW122694   2.684   2.087  12.178 -2.0246 -1.4867 -3.5434
 3745SOL    HW222695   2.547   2.121  12.220 -0.2234 -0.0043  1.9068
 3746SOL     OW22696   0.163   1.615   3.938  0.4155  0.2930 -0.3992
 3746SOL    HW122697   0.138   1.681   3.873  2.0364  0.6299 -0.6760
 3746SOL    HW222698   0.089   1.555   3.944 -0.1007  0.7207 -2.5039
 3747SOL     OW22699   1.828   4.719   1.581 -0.5883 -0.5149 -0.1002
 3747SOL    HW122700   1.847   0.085   1.611 -1.7257 -0.1531 -0.4414
 3747SOL    HW222701   1.912   4.679   1.604 -0.1973  1.1510  1.3914
 3748SOL     OW22702   0.810   2.502   6.670 -0.5186 -0.0316  0.2708
 3748SOL    HW122703   0.809   2.407   6.654 -2.7707  0.3631 -1.9692
 3748SOL    HW222704   0.873   2.509   6.741 -1.1682  1.2541  0.7058
 3749SOL     OW22705   3.848   0.970  13.875 -0.1435 -0.2018 -0.2696
 3749SOL    HW122706   3.776   1.014  13.921  1.7367  1.0203  1.5681
 3749SOL    HW222707   3.809   0.940  13.794 -0.3093  1.1296 -0.6944
 3750SOL     OW22708   4.105   1.841   2.905  0.3832  0.1646 -0.3926
 3750SOL    HW122709   4.196   1.812   2.906  0.1028 -0.6718  1.4971
 3750SOL    HW222710   4.103   1.910   2.839  2.7648  1.0406  0.4650
 3751SOL     OW22711   3.535   3.330  14.822  0.1200  0.1289 -0.6025
 3751SOL    HW122712   3.560   3.266  14.755 -2.0543  0.0064 -1.3154
 3751SOL    HW222713   3.516   3.411  14.775  0.4625  0.1401 -0.7216
 3752SOL     OW22714   2.946   1.174   4.677 -0.7220  0.5266  0.0885
 3752SOL    HW122715   3.007   1.101   4.677 -1.1083  0.2063  1.0334
 3752SOL    HW222716   2.996   1.244   4.720 -0.6043  0.0747  0.6815
 3753SOL     OW22717   0.687   1.888  16.523 -0.0232 -1.0970 -0.8533
 3753SOL    HW122718   0.651   1.958  16.578 -2.5008 -1.6284 -1.7943
 3753SOL    HW222719   0.774   1.927  16.522 -1.2721  1.6590 -1.1675
 3754SOL     OW22720   4.302   3.020   1.839 -0.3636  0.2913 -0.3074
 3754SOL    HW122721   4.359   3.090   1.809  0.2434  0.5364  1.3837
 3754SOL    HW222722   4.219   3.056   1.808  0.8955  0.1590 -3.8208
 3755SOL     OW22723   2.265   0.919   1.582  0.4527  0.3096 -0.2617
 3755SOL    HW122724   2.229   0.843   1.538 -1.0665  0.4838  0.6948
 3755SOL    HW222725   2.357   0.896   1.594  0.2120 -0.6787 -0.3561
 3756SOL     OW22726   2.443   2.382   7.657  0.8953  0.2499  0.2243
 3756SOL    HW122727   2.361   2.413   7.618  0.5590  0.6170  1.2178
 3756SOL    HW222728   2.403   2.307   7.701  1.0394 -1.3318 -2.3204
 3757SOL     OW22729   0.208   4.284  11.891 -0.1713  0.0803  0.4082
 3757SOL    HW122730   0.245   4.202  11.857 -1.8266 -1.2553  1.8364
 3757SOL    HW222731   0.283   4.341  11.908  1.4061 -2.2943  1.3990
 3758SOL     OW22732   2.377   0.989   4.848 -0.2128 -0.6991 -0.5193
 3758SOL    HW122733   2.367   1.083   4.858 -1.1604 -1.3144  4.7167
 3758SOL    HW222734   2.327   0.957   4.924  1.2402 -1.3998  0.1632
 3759SOL     OW22735   3.384   3.905  11.584 -0.1606  0.4027 -0.1666
 3759SOL    HW122736   3.314   3.971  11.585 -0.5404 -0.0196  1.2410
 3759SOL    HW222737   3.457   3.946  11.538  1.2970 -1.3946  0.5436
 3760SOL     OW22738   4.181   4.064   3.072  0.1663 -0.2907 -0.4401
 3760SOL    HW122739   4.126   4.082   2.996 -0.9225 -2.3037 -0.1524
 3760SOL    HW222740   4.245   4.133   3.058  0.1923 -0.4875 -1.2461
 3761SOL     OW22741   1.670   3.911   6.462  0.2529  0.2967  0.0906
 3761SOL    HW122742   1.684   3.876   6.550  3.0998  1.3697  0.0617
 3761SOL    HW222743   1.750   3.963   6.451 -0.7368  1.4999 -1.4316
 3762SOL     OW22744   3.420   0.649  10.482  0.6977 -0.4584  0.4247
 3762SOL    HW122745   3.381   0.562  10.477  1.2711 -0.7503  1.0541
 3762SOL    HW222746   3.458   0.665  10.395  2.3989  1.2056  1.4756
 3763SOL     OW22747   2.414   2.058   8.297 -0.1503 -0.3238 -0.5610
 3763SOL    HW122748   2.490   2.104   8.261 -0.4309  1.4373  1.0595
 3763SOL    HW222749   2.349   2.128   8.312  3.0245  2.5057 -0.0127
 3764SOL     OW22750   2.563   3.253   3.366  0.3160 -0.2403  0.2226
 3764SOL    HW122751   2.603   3.329   3.409  1.6780 -2.3399  2.6480
 3764SOL    HW222752   2.507   3.225   3.439  0.8195 -1.1256  0.2662
 3765SOL     OW22753   0.990   3.076   2.555 -0.1882  0.3736  0.5061
 3765SOL    HW122754   0.977   2.983   2.576 -0.1478  0.3448  0.4028
 3765SOL    HW222755   0.952   3.074   2.467 -0.1058 -1.2368  0.5056
 3766SOL     OW22756   1.451   3.056  15.888  0.3858 -0.0746  0.2093
 3766SOL    HW122757   1.413   3.084  15.804  3.3084  0.9110 -0.8104
 3766SOL    HW222758   1.542   3.084  15.874  0.9214 -0.7401  2.3743
 3767SOL     OW22759   3.175   0.414   7.626  0.3895 -0.3175  0.1364
 3767SOL    HW122760   3.098   0.469   7.612  0.4309 -0.3123 -0.0719
 3767SOL    HW222761   3.231   0.472   7.574 -0.3697  0.3689  0.0880
 3768SOL     OW22762   0.245   2.346   7.045 -0.2335 -0.4338  0.3028
 3768SOL    HW122763   0.280   2.344   6.956  1.8747  2.2767  1.0836
 3768SOL    HW222764   0.177   2.412   7.030  0.9081  0.2597 -1.8127
 3769SOL     OW22765   4.108   2.805   9.577 -0.0910 -0.1982  0.1296
 3769SOL    HW122766   4.029   2.819   9.526 -0.9547 -0.3247  1.4332
 3769SOL    HW222767   4.100   2.883   9.631 -1.6419 -1.3030  1.5035
 3770SOL     OW22768   1.521   1.403   4.343  0.1301 -0.7634  0.0456
 3770SOL    HW122769   1.557   1.490   4.353 -1.6143  0.0658 -0.8011
 3770SOL    HW222770   1.548   1.360   4.424 -1.6739 -2.2929 -0.1431
 3771SOL     OW22771   0.822   0.334   9.025  0.3711 -0.7281  0.8429
 3771SOL    HW122772   0.912   0.316   9.052  0.8054 -1.5306 -1.1329
 3771SOL    HW222773   0.830   0.426   8.999  0.3984 -0.7214  0.8764
 3772SOL     OW22774   2.690   1.735   6.084 -0.1628 -0.4054 -0.0093
 3772SOL    HW122775   2.634   1.659   6.073  0.4997 -1.3834  3.3245
 3772SOL    HW222776   2.714   1.743   6.176  1.4748  0.4904 -0.5130
 3773SOL     OW22777   1.030   4.671  17.057 -0.1076  0.2132  0.2754
 3773SOL    HW122778   0.947   4.692  17.099 -0.1570  1.5095 -0.4592
 3773SOL    HW222779   1.072   4.628  17.131  0.2198 -1.8174 -1.1011
 3774SOL     OW22780   0.059   2.328   4.551 -0.2730  0.3772 -0.2493
 3774SOL    HW122781   0.124   2.393   4.577 -1.0071  1.3792 -0.8705
 3774SOL    HW222782   0.106   2.248   4.528  0.2530  0.6397 -0.0772
 3775SOL     OW22783   4.475   0.737   6.896  0.0574  0.0669 -0.1481
 3775SOL    HW122784   4.425   0.806   6.941  1.5192 -0.0729  1.6802
 3775SOL    HW222785   4.431   0.736   6.811  0.5738  0.4167 -0.4157
 3776SOL     OW22786   4.578   3.110  13.500  0.0169  0.1771  0.3668
 3776SOL    HW122787   4.512   3.175  13.523 -0.0540  0.9684 -2.0611
 3776SOL    HW222788   4.636   3.101  13.575  1.1130  1.0327 -0.3767
 3777SOL     OW22789   4.471   2.812   1.841 -0.2336 -0.3925 -0.0788
 3777SOL    HW122790   4.426   2.896   1.831 -0.3078 -0.6135 -1.5798
 3777SOL    HW222791   4.398   2.758   1.871 -1.3894  2.0271  1.4857
 3778SOL     OW22792   0.635   2.301   4.405 -0.1875 -0.4555  0.1404
 3778SOL    HW122793   0.544   2.281   4.426 -1.0254  2.2015 -0.9329
 3778SOL    HW222794   0.678   2.229   4.450  0.3539 -0.0015  0.3482
 3779SOL     OW22795   2.162   1.365   5.085 -0.2432 -0.0156 -0.2188
 3779SOL    HW122796   2.185   1.335   5.173  0.4414 -0.0391 -0.4032
 3779SOL    HW222797   2.066   1.358   5.088 -0.2935  0.2511 -1.5635
 3780SOL     OW22798   1.263   0.402   3.299 -0.2800  0.3667  0.2776
 3780SOL    HW122799   1.231   0.316   3.270  0.0098 -0.7941  3.3792
 3780SOL    HW222800   1.358   0.389   3.294 -0.1471  2.1465 -1.5961
 3781SOL     OW22801   3.764   4.322   6.819  0.2344 -0.0346  0.2353
 3781SOL    HW122802   3.713   4.308   6.898  1.2776  0.4321  0.9983
 3781SOL    HW222803   3.820   4.398   6.837  0.0960 -0.0050  0.5305
 3782SOL     OW22804   1.374   3.515   3.935 -0.2379  0.3316  0.1703
 3782SOL    HW122805   1.372   3.479   3.846  0.2361 -1.1535  0.7641
 3782SOL    HW222806   1.429   3.449   3.977 -0.9894 -1.9510 -2.4036
 3783SOL     OW22807   2.550   1.138  17.650 -0.4569  0.1384  0.0724
 3783SOL    HW122808   2.644   1.153  17.651 -0.4424  0.1118 -1.4009
 3783SOL    HW222809   2.522   1.199   0.026  1.2645 -1.0814  1.8659
 3784SOL     OW22810   3.476   4.704  11.674 -0.2050 -0.8178 -0.0475
 3784SOL    HW122811   3.490   4.651  11.753  2.5287 -2.7143 -1.8132
 3784SOL    HW222812   3.524   4.653  11.609  0.0646 -1.5787  0.7418
 3785SOL     OW22813   0.185   3.127   4.440 -0.4503 -0.4775 -0.4126
 3785SOL    HW122814   0.136   3.188   4.496 -1.6342 -0.8553 -1.0308
 3785SOL    HW222815   0.236   3.082   4.508 -1.6447  1.0451  1.5233
 3786SOL     OW22816   4.558   2.408   5.601 -0.7413  0.1041  0.2946
 3786SOL    HW122817   4.466   2.387   5.582 -1.3234  3.7797 -0.8799
 3786SOL    HW222818   4.554   2.501   5.579  2.2099  0.5078  1.5173
 3787SOL     OW22819   1.345   2.526   0.437 -0.5713 -0.2437  0.2328
 3787SOL    HW122820   1.310   2.577   0.510  2.5282  0.4098  1.2880
 3787SOL    HW222821   1.270   2.498   0.386 -2.0550  1.6842  1.3730
 3788SOL     OW22822   2.170   3.073   4.886  0.2732 -0.0081  0.0326
 3788SOL    HW122823   2.218   3.118   4.955 -0.1957 -0.3971  0.6102
 3788SOL    HW222824   2.106   3.024   4.937 -0.8825  2.3857  0.8914
 3789SOL     OW22825   1.840   1.484   8.363 -0.9009 -0.3896  0.0003
 3789SOL    HW122826   1.745   1.473   8.365 -1.0165  1.0704  1.8892
 3789SOL    HW222827   1.862   1.402   8.318  0.4550 -0.3052  0.5168
 3790SOL     OW22828   1.406   2.866   3.679 -0.0817 -0.3979  0.3490
 3790SOL    HW122829   1.395   2.894   3.588  1.7175 -0.7646  0.0286
 3790SOL    HW222830   1.322   2.826   3.700  0.5264 -1.7188  0.2717
 3791SOL     OW22831   1.997   0.705   0.096  0.3563  0.0972  0.0886
 3791SOL    HW122832   1.986   0.646   0.021 -2.5808 -0.5813  1.0169
 3791SOL    HW222833   2.083   0.744   0.086  0.7518 -0.8976 -0.3814
 3792SOL     OW22834   2.849   0.810  15.657  0.4053 -0.3404 -0.4433
 3792SOL    HW122835   2.854   0.762  15.574  1.5075  0.7290 -1.0083
 3792SOL    HW222836   2.936   0.847  15.672 -0.1123  0.3627  0.7892
 3793SOL     OW22837   2.652   2.382  12.388 -0.3271  0.0389  0.2532
 3793SOL    HW122838   2.744   2.363  12.409 -0.2651  0.2319  0.1555
 3793SOL    HW222839   2.654   2.417  12.299 -3.1692 -0.4253 -0.0008
 3794SOL     OW22840   3.291   2.504   0.035 -0.5015  0.4620 -0.5668
 3794SOL    HW122841   3.216   2.550   0.074 -1.1643 -0.9974 -0.1209
 3794SOL    HW222842   3.366   2.554   0.066 -2.1329  4.4152 -2.8526
 3795SOL     OW22843   1.917   4.330  16.051 -0.5202  0.5460  0.1788
 3795SOL    HW122844   1.843   4.383  16.077  0.0715  0.0196  2.9188
 3795SOL    HW222845   1.963   4.397  16.000 -1.0152 -0.4298 -1.5740
 3796SOL     OW22846   2.934   4.611   3.830  0.4995 -0.8098  0.2520
 3796SOL    HW122847   2.905   4.521   3.846  1.2052 -0.9129  0.9864
 3796SOL    HW222848   3.012   4.599   3.775 -0.0366  1.3974 -0.9980
 3797SOL     OW22849   2.813   1.125  10.969  0.1674  0.4671 -0.2114
 3797SOL    HW122850   2.855   1.056  10.917 -1.5387 -0.1425 -0.7703
 3797SOL    HW222851   2.823   1.199  10.909  0.2991 -0.8766 -1.8583
 3798SOL     OW22852   3.147   2.504   7.721 -0.4155 -0.9971 -0.1479
 3798SOL    HW122853   3.143   2.577   7.659 -2.1236 -1.2609 -0.3492
 3798SOL    HW222854   3.216   2.544   7.774 -0.7752 -0.7626  0.1409
 3799SOL     OW22855   3.802   0.288  17.060  0.4558  0.1872 -0.0722
 3799SOL    HW122856   3.803   0.208  17.008 -0.8008  0.3425 -0.3367
 3799SOL    HW222857   3.772   0.348  16.991 -0.0682 -1.0982 -0.9682
 3800SOL     OW22858   3.197   3.673   9.596 -0.3724 -0.1532  0.3476
 3800SOL    HW122859   3.275   3.682   9.542 -0.1288  2.1612  1.1100
 3800SOL    HW222860   3.189   3.579   9.575 -0.7585  0.2686 -1.3720
 3801SOL     OW22861   3.450   3.369   2.968 -0.1191 -0.4427 -0.2027
 3801SOL    HW122862   3.387   3.342   2.902  0.1632  1.4690 -1.2627
 3801SOL    HW222863   3.418   3.447   3.013  2.6470 -0.2987  1.5431
 3802SOL     OW22864   1.233   3.417  16.334  0.1133  0.1108 -0.7874
 3802SOL    HW122865   1.217   3.323  16.341  2.6669 -0.2428  0.3122
 3802SOL    HW222866   1.172   3.437  16.262 -1.8289 -2.2646  0.1895
 3803SOL     OW22867   3.952   1.639   3.872  0.6212  0.3302  0.4214
 3803SOL    HW122868   3.961   1.703   3.943 -0.5404 -0.3631  1.1974
 3803SOL    HW222869   3.968   1.689   3.792 -0.4143  2.4907  1.5419
 3804SOL     OW22870   1.027   0.890   7.614  0.0471  0.3800  0.6822
 3804SOL    HW122871   1.031   0.974   7.659  1.9606  0.3526  0.5607
 3804SOL    HW222872   1.050   0.843   7.694  0.5374  0.7894  0.7846
 3805SOL     OW22873   4.673   4.686   3.489 -0.1288  0.0167 -0.0560
 3805SOL    HW122874   4.683   4.652   3.400  0.6672  0.0834  0.0022
 3805SOL    HW222875   4.588   0.005   3.474 -0.0366  0.3518  0.3591
 3806SOL     OW22876   2.561   1.946   3.799  0.1891 -0.6725  0.1173
 3806SOL    HW122877   2.590   2.012   3.862 -0.1907  0.4366 -0.8727
 3806SOL    HW222878   2.496   1.898   3.850 -0.3050  0.5824  0.6784
 3807SOL     OW22879   1.136   3.322   0.796  0.1474  0.3553  0.0323
 3807SOL    HW122880   1.136   3.269   0.717  1.2705 -0.7061  0.7543
 3807SOL    HW222881   1.230   3.333   0.810  0.1382  0.0366  0.3525
 3808SOL     OW22882   4.036   1.431   6.233 -0.3887 -0.2390 -0.2920
 3808SOL    HW122883   4.033   1.468   6.322 -1.8942  2.2838 -1.3974
 3808SOL    HW222884   4.045   1.339   6.260 -1.8416 -0.4296 -0.4853
 3809SOL     OW22885   0.678   0.390   5.290 -0.5065  0.1329 -0.4591
 3809SOL    HW122886   0.612   0.380   5.221 -0.7251  0.5177 -0.3069
 3809SOL    HW222887   0.622   0.397   5.367 -1.2521  1.1608 -1.0964
 3810SOL     OW22888   0.986   1.141   7.689  0.3180 -0.1076  0.0345
 3810SOL    HW122889   0.967   1.175   7.776  1.2980  2.1093 -0.6165
 3810SOL    HW222890   0.899   1.152   7.650  0.8547 -0.0701 -1.1330
 3811SOL     OW22891   2.591   2.276   6.308  0.4891  0.0439 -0.5263
 3811SOL    HW122892   2.638   2.340   6.254  1.6148 -0.4817 -0.1717
 3811SOL    HW222893   2.501   2.306   6.297 -0.6194 -2.5710  1.5306
 3812SOL     OW22894   2.526   3.999   7.865  0.0655  0.2647 -0.1888
 3812SOL    HW122895   2.618   3.995   7.890  0.5490 -0.4007 -2.0827
 3812SOL    HW222896   2.511   3.909   7.836  1.6849 -0.0942  0.1259
 3813SOL     OW22897   1.444   3.294   1.488 -0.1574  0.0495  0.4567
 3813SOL    HW122898   1.419   3.258   1.573 -0.2751 -1.5760 -0.2586
 3813SOL    HW222899   1.462   3.209   1.448 -1.4438  0.1474 -0.3214
 3814SOL     OW22900   1.983   4.466   4.204  0.1612  0.5559  0.0795
 3814SOL    HW122901   2.037   4.544   4.194  0.0808  0.5936 -0.0554
 3814SOL    HW222902   1.968   4.442   4.113 -1.0000  3.3439 -0.4662
 3815SOL     OW22903   4.343   3.159   2.749 -0.2917 -0.0404  0.7311
 3815SOL    HW122904   4.346   3.083   2.808  0.8115  0.2305  1.0112
 3815SOL    HW222905   4.360   3.107   2.671  1.6912  0.6138  0.7272
 3816SOL     OW22906   4.528   4.443   4.834 -0.0556 -0.5721 -0.0798
 3816SOL    HW122907   4.606   4.444   4.890 -0.2989  0.3657  0.2396
 3816SOL    HW222908   4.566   4.494   4.763 -0.6030  0.7263  0.5703
 3817SOL     OW22909   3.137   1.437   1.936 -0.0811 -0.1112  0.3825
 3817SOL    HW122910   3.168   1.486   1.859  0.4126  1.4880  1.5982
 3817SOL    HW222911   3.198   1.364   1.924 -1.3004 -1.0702 -0.0085
 3818SOL     OW22912   2.160   2.540   4.147 -0.5966 -0.0335 -0.1333
 3818SOL    HW122913   2.124   2.624   4.116 -0.5736  0.6118  1.5678
 3818SOL    HW222914   2.253   2.555   4.131 -0.5105 -1.4106 -0.8398
 3819SOL     OW22915   2.539   0.581   0.879 -0.2563  0.5672 -0.0716
 3819SOL    HW122916   2.593   0.658   0.858 -0.2370  1.0091  1.5913
 3819SOL    HW222917   2.479   0.592   0.805 -0.2053  3.5813  0.3029
 3820SOL     OW22918   4.034   1.691   9.825 -0.8139 -1.1211  0.0912
 3820SOL    HW122919   4.075   1.665   9.908 -0.1044  2.7952  0.9542
 3820SOL    HW222920   4.065   1.611   9.782 -1.1687 -0.9366 -0.4986
 3821SOL     OW22921   4.284   2.573   9.955  0.8845  0.2612  0.3868
 3821SOL    HW122922   4.210   2.575  10.015 -0.9645 -1.9422 -1.8282
 3821SOL    HW222923   4.353   2.608  10.012  3.3710  1.3452 -3.2273
 3822SOL     OW22924   2.989   1.770   1.880 -0.1941  0.1214 -0.2175
 3822SOL    HW122925   2.958   1.854   1.847 -1.5963  0.2238  1.3898
 3822SOL    HW222926   3.085   1.780   1.880 -0.2494  0.5720  1.4615
 3823SOL     OW22927   0.458   0.243  13.003 -0.1149  0.2067  0.2284
 3823SOL    HW122928   0.373   0.208  13.027  0.1876 -0.5909  0.1135
 3823SOL    HW222929   0.441   0.272  12.914 -0.6693  2.0626  0.9293
 3824SOL     OW22930   3.235   3.361  17.019  0.4032  0.2256  0.1115
 3824SOL    HW122931   3.272   3.273  17.021  0.9942  0.4694 -0.1593
 3824SOL    HW222932   3.294   3.408  17.077  1.7210  0.1902 -1.2028
 3825SOL     OW22933   0.853   3.781   5.156 -0.3145  0.0387  0.6647
 3825SOL    HW122934   0.886   3.865   5.124  0.2159 -0.2458  0.4714
 3825SOL    HW222935   0.786   3.817   5.214 -1.3887  0.8608 -1.0747
 3826SOL     OW22936   1.837   4.428   3.273  0.0844 -0.0641  0.0573
 3826SOL    HW122937   1.925   4.450   3.306  0.9545 -0.5159 -1.9293
 3826SOL    HW222938   1.850   4.461   3.184 -1.1471  0.7985  0.2025
 3827SOL     OW22939   1.321   2.855   8.523  0.1333  0.3393  0.0034
 3827SOL    HW122940   1.347   2.835   8.433 -0.5067  1.3227 -0.3939
 3827SOL    HW222941   1.401   2.831   8.571  0.4314 -0.7077 -1.0177
 3828SOL     OW22942   4.625   2.613  10.481  0.3713 -0.8569  0.0415
 3828SOL    HW122943   4.538   2.574  10.466  0.5750  0.0147 -3.3722
 3828SOL    HW222944   4.609   2.653  10.567  0.4927  1.8745 -1.2314
 3829SOL     OW22945   4.128   3.083   4.045  0.1410  0.0673  0.5371
 3829SOL    HW122946   4.193   3.017   4.021 -0.6614 -0.2752 -0.6974
 3829SOL    HW222947   4.040   3.046   4.036 -0.0617  0.6411  0.1552
 3830SOL     OW22948   2.207   1.182   2.344  0.5281  0.7306  0.3159
 3830SOL    HW122949   2.296   1.194   2.309  0.1948  1.2981 -0.3280
 3830SOL    HW222950   2.191   1.095   2.307 -0.7726  1.4687 -0.8220
 3831SOL     OW22951   3.351   3.362  11.423 -0.1349  0.5260 -0.1440
 3831SOL    HW122952   3.393   3.296  11.478  1.0012  1.0482 -0.3769
 3831SOL    HW222953   3.320   3.312  11.348 -1.0171 -1.0842  1.3024
 3832SOL     OW22954   2.359   0.455   7.603 -0.4615  0.6444  0.3515
 3832SOL    HW122955   2.362   0.460   7.698 -0.4320 -1.6755  0.4822
 3832SOL    HW222956   2.277   0.498   7.579 -1.2780 -1.5147 -0.8089
 3833SOL     OW22957   1.234   3.261   0.277 -0.0431  1.1461 -0.3446
 3833SOL    HW122958   1.301   3.328   0.275  1.3011 -0.1728  0.4448
 3833SOL    HW222959   1.217   3.250   0.184  0.9812 -0.6578 -0.3163
 3834SOL     OW22960   2.004   4.180   3.935  1.1733 -0.0160 -0.5952
 3834SOL    HW122961   1.977   4.088   3.938  1.0042  0.0518 -0.0552
 3834SOL    HW222962   1.970   4.203   3.848 -0.9379 -1.6713 -0.1938
 3835SOL     OW22963   4.085   4.674   8.180 -0.2204  0.2298 -0.0721
 3835SOL    HW122964   4.032   4.698   8.104 -0.0535 -0.8230 -0.5142
 3835SOL    HW222965   4.055   0.017   8.243  2.5429  1.9538 -0.5309
 3836SOL     OW22966   3.510   4.557  11.919 -0.1303 -0.0349  0.4377
 3836SOL    HW122967   3.526   4.463  11.928  0.7620  0.0260 -0.4804
 3836SOL    HW222968   3.429   4.563  11.969 -1.1610  0.5985 -1.3113
 3837SOL     OW22969   1.844   2.575   4.376  0.1116 -0.2667  0.6117
 3837SOL    HW122970   1.894   2.637   4.429  0.6391  0.3353 -0.6033
 3837SOL    HW222971   1.906   2.524   4.324 -0.5822  1.8358 -2.2517
 3838SOL     OW22972   0.782   4.677   0.080 -0.1558 -0.6997 -0.0263
 3838SOL    HW122973   0.827   4.642   0.003 -2.2320 -0.8986 -1.1686
 3838SOL    HW222974   0.829   0.035   0.099 -1.0324 -0.3840  0.8026
 3839SOL     OW22975   0.777   4.078   4.836 -0.0160 -0.3608 -0.0708
 3839SOL    HW122976   0.810   4.010   4.894 -1.0652 -2.1666 -1.5780
 3839SOL    HW222977   0.681   4.077   4.845 -0.1400 -0.4927 -1.4078
 3840SOL     OW22978   0.225   1.445  12.847 -0.2955  0.0271 -0.1365
 3840SOL    HW122979   0.269   1.525  12.818  0.3453 -1.2604 -2.6642
 3840SOL    HW222980   0.150   1.442  12.788 -0.5157  1.9378  0.0505
 3841SOL     OW22981   4.565   0.551  17.588  0.4742  0.4403  0.1395
 3841SOL    HW122982   4.527   0.503  17.661 -0.8363  2.1083  0.5714
 3841SOL    HW222983   4.578   0.638  17.627  0.6068  0.8247 -0.7567
 3842SOL     OW22984   0.873   1.977   6.176  0.9592  0.2950  0.0331
 3842SOL    HW122985   0.881   2.046   6.110 -0.1618 -1.3336 -1.8020
 3842SOL    HW222986   0.929   1.911   6.135 -0.7554 -1.2436  0.1444
 3843SOL     OW22987   0.462   4.614   6.713  0.1856  0.0977  0.6049
 3843SOL    HW122988   0.536   4.653   6.666 -0.1033 -0.7560 -0.5788
 3843SOL    HW222989   0.398   4.580   6.651 -1.3391  2.6599  0.8316
 3844SOL     OW22990   3.748   3.505  14.252 -0.1056  0.0516  0.6901
 3844SOL    HW122991   3.811   3.505  14.324  0.0310  1.8806  0.5640
 3844SOL    HW222992   3.664   3.522  14.295 -0.8210 -1.8418  0.0330
 3845SOL     OW22993   2.753   1.993  17.675 -0.2856 -0.1190 -0.0474
 3845SOL    HW122994   2.842   2.015  17.647  0.2324 -1.9196  0.2084
 3845SOL    HW222995   2.729   1.935  17.603 -1.8105  0.0028  0.3752
 3846SOL     OW22996   3.649   2.031   9.506 -0.0275  0.5521  0.1810
 3846SOL    HW122997   3.640   1.936   9.505 -0.7211  0.6481 -2.3120
 3846SOL    HW222998   3.679   2.046   9.595  1.2616  0.1452 -0.1913
 3847SOL     OW22999   1.192   0.583   3.790 -0.0844 -0.7855  0.2312
 3847SOL    HW123000   1.243   0.502   3.796  1.8482  0.6070  2.3313
 3847SOL    HW223001   1.129   0.554   3.724 -1.9673 -0.0783  1.7183
 3848SOL     OW23002   3.744   0.369   5.277  0.0915  0.1095 -0.0152
 3848SOL    HW123003   3.710   0.280   5.290 -2.3352  0.8743 -1.1027
 3848SOL    HW223004   3.688   0.420   5.336 -0.3932 -0.0084 -0.3773
 3849SOL     OW23005   1.667   1.336   8.798  0.5687  0.0293  0.0255
 3849SOL    HW123006   1.759   1.334   8.771  0.4799 -0.7752 -0.2244
 3849SOL    HW223007   1.667   1.265   8.861  0.7480 -0.5708 -0.6561
 3850SOL     OW23008   3.467   2.595   9.484 -0.3451  0.1624 -0.1043
 3850SOL    HW123009   3.448   2.657   9.554 -2.5792 -1.4553  0.7459
 3850SOL    HW223010   3.537   2.536   9.512  0.1546  0.4361 -0.7951
 3851SOL     OW23011   2.258   3.779   2.486 -0.9256 -0.1095 -0.2662
 3851SOL    HW123012   2.206   3.801   2.562 -2.2211 -3.6596 -0.1228
 3851SOL    HW223013   2.282   3.698   2.532 -2.2687 -1.1806 -1.4293
 3852SOL     OW23014   1.200   1.942   7.407  0.4111  0.0747  0.5414
 3852SOL    HW123015   1.251   1.885   7.464 -0.3402 -0.0237  1.1167
 3852SOL    HW223016   1.257   1.941   7.330  0.6523 -1.3457  0.7417
 3853SOL     OW23017   1.659   1.051   0.659  0.8334 -0.0690 -0.1508
 3853SOL    HW123018   1.698   1.132   0.626 -1.8702  1.3954  0.2440
 3853SOL    HW223019   1.741   1.015   0.694  1.6952  1.6194 -0.4333
 3854SOL     OW23020   1.163   0.839   2.558 -0.2695  0.3130 -0.4219
 3854SOL    HW123021   1.163   0.899   2.483 -1.1321  0.5231 -0.2549
 3854SOL    HW223022   1.170   0.753   2.517 -2.1826 -0.1822  0.3164
 3855SOL     OW23023   0.022   1.025   1.657 -0.2665  0.1987  0.3820
 3855SOL    HW123024   0.005   1.074   1.576  1.8330  0.9376  0.3943
 3855SOL    HW223025   0.101   0.980   1.629 -0.2554 -0.1909  1.0441
 3856SOL     OW23026   3.107   0.862   5.105 -0.1483  0.7157 -0.0101
 3856SOL    HW123027   3.185   0.902   5.142 -1.8734  3.0835  1.0292
 3856SOL    HW223028   3.077   0.938   5.056 -2.3026  0.1977  0.5128
 3857SOL     OW23029   2.119   4.370  13.884 -0.7589 -0.2155  0.6646
 3857SOL    HW123030   2.152   4.323  13.960 -0.4974 -1.8542 -0.4663
 3857SOL    HW223031   2.182   4.440  13.870 -0.9001 -0.1417  0.3949
 3858SOL     OW23032   0.882   0.572  13.804  0.2165  0.4193  0.0296
 3858SOL    HW123033   0.912   0.527  13.724 -2.0387  0.5660 -0.9153
 3858SOL    HW223034   0.945   0.532  13.864 -1.6500 -1.4571  0.7565
 3859SOL     OW23035   2.922   3.060   7.566  0.0719  0.0044 -0.3578
 3859SOL    HW123036   2.935   3.141   7.515  0.6467  0.1056 -0.0448
 3859SOL    HW223037   2.826   3.056   7.566  0.0983 -0.2435  1.7293
 3860SOL     OW23038   3.332   3.169   9.975 -0.6720 -0.2235  0.3451
 3860SOL    HW123039   3.332   3.255   9.932  0.0306 -0.5705 -0.3374
 3860SOL    HW223040   3.281   3.186  10.055  0.3991  1.9556  0.5748
 3861SOL     OW23041   1.450   0.662   2.690 -0.0338 -0.3641  0.4302
 3861SOL    HW123042   1.435   0.692   2.779 -1.0250  0.2656  0.0467
 3861SOL    HW223043   1.371   0.612   2.669  0.1211 -1.0485  1.4944
 3862SOL     OW23044   2.645   0.013   9.283  0.6755  0.0623  0.0040
 3862SOL    HW123045   2.739   0.020   9.265  0.3253  0.7148 -1.5677
 3862SOL    HW223046   2.642   0.007   9.379  1.8069 -2.6506 -0.1131
 3863SOL     OW23047   3.020   3.443   8.210 -0.4108  0.0980  0.6428
 3863SOL    HW123048   2.939   3.391   8.212 -0.5282  0.1223 -3.2983
 3863SOL    HW223049   2.985   3.529   8.232 -0.4350 -0.2125  1.7887
 3864SOL     OW23050   3.369   2.621   4.122  0.4347  0.1314 -0.4956
 3864SOL    HW123051   3.323   2.692   4.167 -0.5960 -2.4827  2.5791
 3864SOL    HW223052   3.373   2.645   4.029  1.6141 -0.5975 -0.6473
 3865SOL     OW23053   3.614   2.373   2.609  0.0159 -0.1827  0.0975
 3865SOL    HW123054   3.702   2.373   2.572  1.1623  0.2530  2.7900
 3865SOL    HW223055   3.611   2.316   2.686  1.5311  0.3735  0.5633
 3866SOL     OW23056   0.611   4.332   7.840 -0.3414  0.0561  0.2373
 3866SOL    HW123057   0.542   4.289   7.891 -1.3427  1.0795 -0.2643
 3866SOL    HW223058   0.614   4.418   7.882 -1.1533  0.3053 -0.2033
 3867SOL     OW23059   0.549   3.765  11.568  0.5292  0.2021  0.5884
 3867SOL    HW123060   0.605   3.688  11.567  1.6813  1.0571 -0.3268
 3867SOL    HW223061   0.483   3.760  11.498 -0.1220  2.5081  1.0111
 3868SOL     OW23062   2.693   3.238   5.192  0.0762 -0.1828 -0.6087
 3868SOL    HW123063   2.606   3.219   5.227  0.1299  0.8026  0.0429
 3868SOL    HW223064   2.745   3.165   5.225 -1.6013 -0.6648  1.0033
 3869SOL     OW23065   3.361   1.993   4.620 -0.4071 -0.0820 -0.0574
 3869SOL    HW123066   3.383   2.023   4.532  0.8095  0.4051  0.4028
 3869SOL    HW223067   3.293   1.926   4.615  0.3466 -0.8527  0.0826
 3870SOL     OW23068   2.231   2.949   6.471  0.2635  0.0934 -0.0248
 3870SOL    HW123069   2.194   3.023   6.520 -1.6268 -1.2141  0.5264
 3870SOL    HW223070   2.293   2.918   6.536 -0.6436 -4.9005 -1.5024
 3871SOL     OW23071   1.704   2.054  16.742 -0.3257 -0.2567  0.1033
 3871SOL    HW123072   1.718   2.109  16.665  1.1466 -0.1691  0.4320
 3871SOL    HW223073   1.632   2.104  16.779 -0.8532 -1.0193  0.1138
 3872SOL     OW23074   1.787   2.295   3.279  0.0483 -0.2387  1.2058
 3872SOL    HW123075   1.855   2.339   3.330  0.8865 -1.9770  1.5935
 3872SOL    HW223076   1.718   2.290   3.345 -1.7132  0.9138 -0.5603
 3873SOL     OW23077   3.664   2.402   9.576  0.2071 -0.0299 -0.1998
 3873SOL    HW123078   3.740   2.461   9.577 -0.0608  0.3269 -1.5221
 3873SOL    HW223079   3.699   2.331   9.522  0.4180 -0.0857  0.0097
 3874SOL     OW23080   2.651   0.929  11.256  0.0000 -0.2837  0.2455
 3874SOL    HW123081   2.737   0.971  11.261 -0.4101  0.2928  2.3373
 3874SOL    HW223082   2.673   0.848  11.210 -3.1453  0.0858 -1.8891
 3875SOL     OW23083   4.409   1.710   4.387 -0.1376 -0.0579 -1.2538
 3875SOL    HW123084   4.405   1.631   4.442 -0.5361 -0.4976 -1.9153
 3875SOL    HW223085   4.340   1.683   4.327 -0.5390 -1.2674 -0.2756
 3876SOL     OW23086   2.612   0.416   4.966  0.2810  0.2983  0.3674
 3876SOL    HW123087   2.569   0.482   5.020  1.3586  0.3083  1.2008
 3876SOL    HW223088   2.703   0.432   4.991  0.1209  0.5990  0.7570
 3877SOL     OW23089   1.641   1.854   8.834 -0.1213  0.2345  0.0473
 3877SOL    HW123090   1.665   1.764   8.856  0.6966  0.1344 -1.2646
 3877SOL    HW223091   1.708   1.885   8.773  2.0417  1.5737  3.0982
 3878SOL     OW23092   2.527   2.098   8.589  0.0687  0.4921  0.2172
 3878SOL    HW123093   2.550   2.187   8.564  2.1001 -0.2743 -0.6831
 3878SOL    HW223094   2.566   2.107   8.676 -2.4714  2.0142  1.1929
 3879SOL     OW23095   3.716   3.218   4.809  0.9717 -0.2528  0.2827
 3879SOL    HW123096   3.811   3.228   4.809  0.8841  0.5440 -0.8304
 3879SOL    HW223097   3.700   3.167   4.730  1.0632 -0.8167  0.6275
 3880SOL     OW23098   2.816   1.186   3.938 -0.5921  0.6495  0.3569
 3880SOL    HW123099   2.867   1.237   4.001 -0.1476 -0.4762  0.9133
 3880SOL    HW223100   2.786   1.116   3.995 -1.1628 -0.5554 -1.4198
 3881SOL     OW23101   1.992   3.285   5.084 -0.1968 -0.0739 -0.2498
 3881SOL    HW123102   2.078   3.248   5.100 -0.1924 -0.1843 -0.5339
 3881SOL    HW223103   1.998   3.280   4.988 -1.6316  0.5139 -0.3777
 3882SOL     OW23104   3.413   4.255   5.702 -0.1472  0.1726  0.0671
 3882SOL    HW123105   3.453   4.342   5.702 -1.2673  0.7024  2.4597
 3882SOL    HW223106   3.464   4.211   5.634  0.3566  0.3108  0.3565
 3883SOL     OW23107   1.681   2.362   4.930  0.0569  0.3119 -0.0763
 3883SOL    HW123108   1.596   2.362   4.974 -0.5344 -0.4858 -1.2025
 3883SOL    HW223109   1.707   2.273   4.955 -0.5764  0.7043  1.9351
 3884SOL     OW23110   1.929   2.106   7.450 -0.1315  0.2126  0.4980
 3884SOL    HW123111   1.847   2.155   7.464 -1.3548 -1.4340 -0.9028
 3884SOL    HW223112   1.991   2.157   7.398 -0.8414 -0.8139 -1.3370
 3885SOL     OW23113   3.372   2.447  11.971 -0.0073  0.6689  0.7873
 3885SOL    HW123114   3.354   2.497  12.051  0.0204 -0.3248  1.4172
 3885SOL    HW223115   3.446   2.500  11.940  1.0235 -0.9845  0.4680
 3886SOL     OW23116   2.491   4.091   4.346 -0.4673 -0.0034  0.3229
 3886SOL    HW123117   2.416   4.068   4.290  0.5640 -2.4402 -0.0902
 3886SOL    HW223118   2.474   4.185   4.347  0.5479  0.1787  0.4085
 3887SOL     OW23119   4.424   3.938  10.125 -0.2727  0.2629  0.3292
 3887SOL    HW123120   4.461   4.026  10.116  0.3795 -0.0510 -0.0539
 3887SOL    HW223121   4.363   3.949  10.198 -1.1245 -3.1961  0.1731
 3888SOL     OW23122   0.787   4.638   4.787  0.4134 -0.1380  0.4203
 3888SOL    HW123123   0.836   4.669   4.863  0.8085 -0.6425  0.3749
 3888SOL    HW223124   0.796   4.543   4.795  1.1579 -0.2223 -1.2810
 3889SOL     OW23125   1.272   1.710   4.162  0.0099  0.0731 -0.1239
 3889SOL    HW123126   1.248   1.649   4.231 -0.3705 -0.1114 -0.4219
 3889SOL    HW223127   1.334   1.766   4.209 -1.8644  2.5436 -0.5789
 3890SOL     OW23128   1.305   3.068   7.431  0.5365  0.3415  0.1791
 3890SOL    HW123129   1.243   3.029   7.369  0.3082 -0.7819  1.1240
 3890SOL    HW223130   1.252   3.065   7.510  0.4790  1.5650  0.1967
 3891SOL     OW23131   4.255   2.625   7.089  0.0327  0.0745 -0.3183
 3891SOL    HW123132   4.245   2.534   7.061  0.6844 -0.0288 -0.2079
 3891SOL    HW223133   4.327   2.620   7.152 -0.1892 -1.3001 -0.1946
 3892SOL     OW23134   4.161   0.289   2.530  0.3863  0.3056 -0.4693
 3892SOL    HW123135   4.219   0.317   2.601  1.5532  0.5588 -1.5357
 3892SOL    HW223136   4.086   0.347   2.540  0.6861  0.6290 -0.0632
 3893SOL     OW23137   1.432   0.229   2.596 -0.0514  0.1365 -0.6867
 3893SOL    HW123138   1.498   0.263   2.535  1.7382 -5.0893 -1.6235
 3893SOL    HW223139   1.483   0.241   2.676  1.2497  0.3198 -1.5400
 3894SOL     OW23140   3.838   0.055  16.234 -0.4637  0.7122  0.1251
 3894SOL    HW123141   3.771   0.114  16.269 -2.8098 -0.6792 -1.9972
 3894SOL    HW223142   3.859   0.000  16.309  0.8459  2.2703  0.9086
 3895SOL     OW23143   3.731   1.847   4.219  0.2373  0.8715 -0.1151
 3895SOL    HW123144   3.703   1.879   4.305 -1.1332  0.3522 -0.3618
 3895SOL    HW223145   3.659   1.877   4.163  0.4337 -2.3876 -2.1388
 3896SOL     OW23146   2.756   2.328   1.065 -0.0956  0.3120 -0.4720
 3896SOL    HW123147   2.838   2.369   1.094  0.2254  0.6278 -1.8452
 3896SOL    HW223148   2.736   2.385   0.991 -2.9501  0.1575  0.2101
 3897SOL     OW23149   4.479   1.393   9.537 -0.1410 -0.4758  0.0351
 3897SOL    HW123150   4.527   1.464   9.492 -1.2521  0.3713  0.1827
 3897SOL    HW223151   4.494   1.318   9.480  0.7622 -0.6411  0.4974
 3898SOL     OW23152   0.952   1.278   1.397 -0.7657  0.2502 -0.4322
 3898SOL    HW123153   0.945   1.297   1.490  1.6587 -0.9504 -0.0006
 3898SOL    HW223154   1.041   1.243   1.398 -0.6484  0.5391 -0.4649
 3899SOL     OW23155   1.890   2.576   9.223  0.1209 -0.3182 -0.6171
 3899SOL    HW123156   1.869   2.483   9.233 -0.8052  0.0249  0.6152
 3899SOL    HW223157   1.985   2.581   9.234  0.6239  0.4769 -4.9920
 3900SOL     OW23158   3.406   4.215   7.203 -0.4404  0.0436  0.0766
 3900SOL    HW123159   3.400   4.269   7.124  0.8254  2.4063  1.6181
 3900SOL    HW223160   3.404   4.274   7.278  3.1616  0.3491 -0.0465
 3901SOL     OW23161   3.987   2.108   7.951  0.1658 -0.7114  0.3753
 3901SOL    HW123162   4.038   2.182   7.917 -1.7909  0.2245 -0.4968
 3901SOL    HW223163   4.041   2.036   7.919  1.1481  0.0943  0.2307
 3902SOL     OW23164   2.619   0.314  10.611 -0.1725 -0.2815 -0.2757
 3902SOL    HW123165   2.642   0.221  10.615 -0.2490 -0.2725  0.2554
 3902SOL    HW223166   2.545   0.312  10.671 -1.2198  2.1192 -1.5043
 3903SOL     OW23167   1.249   3.357  14.998  0.2761  0.1943  0.4596
 3903SOL    HW123168   1.230   3.348  14.904  3.6760 -0.6847 -0.1251
 3903SOL    HW223169   1.329   3.306  15.011  0.6791  0.4235 -1.0664
 3904SOL     OW23170   1.454   1.169   6.685  0.4857 -0.6926  0.2518
 3904SOL    HW123171   1.377   1.143   6.735 -0.9186 -0.1539 -1.6363
 3904SOL    HW223172   1.422   1.244   6.635  1.9557  0.0572  0.4444
 3905SOL     OW23173   4.654   1.410   5.385  1.1388  0.0500  0.4471
 3905SOL    HW123174   4.656   1.315   5.387 -0.2661  0.0206  0.8672
 3905SOL    HW223175   4.715   1.431   5.456  1.2447  0.1927  0.3144
 3906SOL     OW23176   4.139   0.741   3.745 -0.1692  0.1368  0.4008
 3906SOL    HW123177   4.144   0.676   3.815  0.6529 -0.8487 -0.5674
 3906SOL    HW223178   4.216   0.715   3.694 -0.5534 -0.0486 -0.0848
 3907SOL     OW23179   1.756   2.467  16.533 -0.3879  0.1469 -0.8494
 3907SOL    HW123180   1.763   2.402  16.464 -0.3900 -1.4659  0.6573
 3907SOL    HW223181   1.847   2.459  16.564 -1.2364  2.5505  2.2049
 3908SOL     OW23182   3.524   0.604   2.542  0.4691 -0.2096  0.2317
 3908SOL    HW123183   3.485   0.679   2.495  1.0172 -0.9183 -1.3747
 3908SOL    HW223184   3.616   0.630   2.539 -0.4783  3.3164  1.9989
 3909SOL     OW23185   2.747   1.102   5.213  0.3602 -0.8578 -0.6666
 3909SOL    HW123186   2.738   1.177   5.154 -0.9050 -0.5045 -0.0351
 3909SOL    HW223187   2.843   1.105   5.215  0.3431  1.2529 -2.3822
 3910SOL     OW23188   0.397   0.425   2.410  0.7278 -0.4530 -0.5059
 3910SOL    HW123189   0.485   0.410   2.374  1.5651  1.4786  0.7676
 3910SOL    HW223190   0.371   0.494   2.349  1.5988 -0.8174 -1.2984
 3911SOL     OW23191   2.007   1.846   7.485  0.8879 -0.1252  0.0558
 3911SOL    HW123192   1.950   1.923   7.483  1.6493  0.4148 -0.7492
 3911SOL    HW223193   2.083   1.867   7.540  0.6401  0.4246  0.1936
 3912SOL     OW23194   3.469   3.592   6.262  0.5591  0.6971 -0.2241
 3912SOL    HW123195   3.436   3.559   6.346 -0.5102  0.0482 -0.9056
 3912SOL    HW223196   3.396   3.646   6.232 -0.9684 -0.8351  0.7092
 3913SOL     OW23197   3.314   1.971  12.658 -0.0464  0.5461  0.6909
 3913SOL    HW123198   3.273   1.926  12.585  0.7292  0.3872  0.3532
 3913SOL    HW223199   3.402   1.962  12.623  1.4921  0.8285  4.4832
 3914SOL     OW23200   0.927   2.738  11.404 -0.2696 -0.0507 -0.0296
 3914SOL    HW123201   0.913   2.748  11.498 -1.6363 -1.4145 -0.0842
 3914SOL    HW223202   0.918   2.824  11.364 -2.6929 -0.4199 -0.2840
 3915SOL     OW23203   3.340   3.890   9.842  0.6857  0.4447 -0.1749
 3915SOL    HW123204   3.277   3.820   9.824 -0.1605  0.6681  1.9223
 3915SOL    HW223205   3.335   3.933   9.757  0.9492  3.0417  1.1213
 3916SOL     OW23206   3.853   0.311   9.609  0.1002 -0.3761 -0.1885
 3916SOL    HW123207   3.842   0.222   9.576  2.1274 -0.0400 -1.7151
 3916SOL    HW223208   3.895   0.295   9.694  1.0571  2.3866 -0.1560
 3917SOL     OW23209   3.864   2.582   9.572  0.1443 -0.5143  0.4424
 3917SOL    HW123210   3.875   2.602   9.479 -1.0593  0.2656  0.4633
 3917SOL    HW223211   3.953   2.559   9.599  1.4622  2.9978 -0.8890
 3918SOL     OW23212   4.026   4.690   0.226 -0.1257  0.3353 -0.4867
 3918SOL    HW123213   3.982   4.614   0.188 -0.8807  0.2915  0.4837
 3918SOL    HW223214   3.949   0.018   0.254  0.1768  1.2920 -1.3607
 3919SOL     OW23215   4.547   0.535   8.268 -0.4744 -0.1796 -0.0463
 3919SOL    HW123216   4.560   0.522   8.362  0.3871  1.9864  0.1287
 3919SOL    HW223217   4.519   0.448   8.239 -2.0782 -0.1680  1.4420
 3920SOL     OW23218   0.773   4.323  15.200  0.0544 -0.3054 -0.3507
 3920SOL    HW123219   0.779   4.230  15.222 -0.8646 -0.2546  0.0885
 3920SOL    HW223220   0.685   4.334  15.166 -0.6647 -2.3271  0.8206
 3921SOL     OW23221   3.384   2.056   1.459  0.3622  0.4320 -0.2516
 3921SOL    HW123222   3.380   2.041   1.365  1.7763  0.3567 -0.3103
 3921SOL    HW223223   3.387   1.966   1.494 -0.5415  0.5241  0.0652
 3922SOL     OW23224   3.083   2.255   8.486  0.0149 -0.8111 -0.3071
 3922SOL    HW123225   3.039   2.331   8.448  0.4122 -1.2116 -1.5808
 3922SOL    HW223226   3.057   2.281   8.574 -0.5978  0.3075 -0.8168
 3923SOL     OW23227   3.653   4.591   7.211  0.3115 -0.0781 -0.1921
 3923SOL    HW123228   3.736   4.628   7.241  1.9799 -4.1603  0.2404
 3923SOL    HW223229   3.611   4.672   7.182  1.0773  0.1274 -0.7157
 3924SOL     OW23230   4.417   0.392  17.310 -0.3966  0.1643 -0.5708
 3924SOL    HW123231   4.357   0.418  17.240 -2.8303  0.2605  1.5578
 3924SOL    HW223232   4.401   0.298  17.303 -1.7435  0.3741 -0.3859
 3925SOL     OW23233   1.460   1.100   3.821 -0.4977  0.5006  0.2958
 3925SOL    HW123234   1.428   1.024   3.870  0.9784  0.3944  1.1081
 3925SOL    HW223235   1.547   1.070   3.793 -0.3238  2.8638 -1.7169
 3926SOL     OW23236   0.320   3.103   3.985  0.5379 -0.0283  0.1691
 3926SOL    HW123237   0.233   3.098   3.945 -0.2294 -2.7450  2.1473
 3926SOL    HW223238   0.366   3.166   3.929  1.5896  1.1717  2.4068
 3927SOL     OW23239   3.428   3.333  14.432  0.4644 -1.0745  0.2326
 3927SOL    HW123240   3.483   3.294  14.365  0.5937 -0.6764  0.1058
 3927SOL    HW223241   3.360   3.266  14.431 -0.0423 -0.5643  0.0357
 3928SOL     OW23242   4.396   0.481   5.193 -0.2125  0.3137 -0.5128
 3928SOL    HW123243   4.316   0.447   5.234 -0.3290  2.1699  0.8173
 3928SOL    HW223244   4.450   0.403   5.188 -0.0465  0.3588  0.4250
 3929SOL     OW23245   3.305   1.399   2.889  0.0038  0.3515 -0.1465
 3929SOL    HW123246   3.314   1.374   2.981 -1.3255  0.7186  0.0830
 3929SOL    HW223247   3.211   1.414   2.881  0.2389  1.6094 -0.5441
 3930SOL     OW23248   0.230   1.861  16.263 -0.4546 -0.8011  0.7421
 3930SOL    HW123249   0.248   1.911  16.342 -0.3000  0.8581 -0.3413
 3930SOL    HW223250   0.157   1.803  16.284 -1.2585 -0.4633 -1.1060
 3931SOL     OW23251   2.353   1.347   9.237  0.0670  0.0936  0.2497
 3931SOL    HW123252   2.351   1.328   9.331  2.3935 -3.5790 -0.4657
 3931SOL    HW223253   2.444   1.372   9.225  0.4097 -1.5098 -0.4455
 3932SOL     OW23254   3.389   2.613  11.649  0.0098 -0.0638  0.0607
 3932SOL    HW123255   3.418   2.586  11.736 -1.8637 -0.3204  0.6126
 3932SOL    HW223256   3.300   2.577  11.642  0.3685 -0.4103 -2.6601
 3933SOL     OW23257   1.500   4.195   6.414  0.5085 -0.4853  0.1239
 3933SOL    HW123258   1.469   4.151   6.493 -0.5511 -0.9795 -0.5705
 3933SOL    HW223259   1.424   4.206   6.357  0.8115  0.2734 -0.1351
 3934SOL     OW23260   3.377   1.251   8.788  0.4325  0.4800 -0.2987
 3934SOL    HW123261   3.410   1.214   8.870  0.3030  0.1461 -0.3972
 3934SOL    HW223262   3.336   1.170   8.757  2.4781 -0.5352 -0.3343
 3935SOL     OW23263   3.329   1.546   1.458 -0.0563 -0.3296  0.8788
 3935SOL    HW123264   3.264   1.588   1.402  1.4268 -0.0578 -0.6404
 3935SOL    HW223265   3.382   1.624   1.475 -0.3566 -0.3214  1.7626
 3936SOL     OW23266   4.406   0.851   8.353  0.3702  0.0288  0.8109
 3936SOL    HW123267   4.461   0.818   8.424  0.4210 -0.5940  0.4784
 3936SOL    HW223268   4.360   0.775   8.318  2.8722 -1.6980  1.2481
 3937SOL     OW23269   3.116   3.674  15.112  0.2395 -0.2500  0.6883
 3937SOL    HW123270   3.180   3.690  15.043  0.4210 -0.6577  0.7590
 3937SOL    HW223271   3.144   3.729  15.184 -0.4720  2.5893 -1.2187
 3938SOL     OW23272   3.112   0.594   5.329 -0.1069 -0.3764  0.0851
 3938SOL    HW123273   3.134   0.513   5.282  1.7836 -0.2029  0.6798
 3938SOL    HW223274   3.107   0.560   5.418  2.0939  0.0614  0.3613
 3939SOL     OW23275   0.689   2.716  11.619  0.1331 -0.4462 -0.1858
 3939SOL    HW123276   0.713   2.623  11.620 -0.0323 -0.4898 -1.0981
 3939SOL    HW223277   0.778   2.745  11.639 -0.3798  0.2242  1.1532
 3940SOL     OW23278   1.951   2.731   4.571  0.5297 -0.2185 -0.4795
 3940SOL    HW123279   1.986   2.820   4.580 -1.0193  0.4593 -1.0987
 3940SOL    HW223280   1.924   2.722   4.663 -0.4254 -1.6978 -0.8979
 3941SOL     OW23281   1.080   0.672  12.971 -0.4939  0.1318 -0.3203
 3941SOL    HW123282   1.000   0.672  13.024 -0.3952 -0.6886 -0.1661
 3941SOL    HW223283   1.125   0.750  13.002  1.5366 -0.1514 -2.5774
 3942SOL     OW23284   3.324   1.419   4.459 -0.1196  0.0290  0.1436
 3942SOL    HW123285   3.326   1.484   4.529  1.4242 -0.9154  0.9659
 3942SOL    HW223286   3.286   1.466   4.384  1.3196  0.4163 -0.3394
 3943SOL     OW23287   1.792   3.965  14.369 -0.2993 -0.3059 -0.5846
 3943SOL    HW123288   1.791   3.936  14.460  1.3318 -0.6362 -0.6751
 3943SOL    HW223289   1.698   3.980  14.356 -0.3141  1.7677  1.9923
 3944SOL     OW23290   0.340   2.347   1.968  0.0785  0.4038  0.0192
 3944SOL    HW123291   0.267   2.332   2.029  0.0705 -1.9769 -0.5681
 3944SOL    HW223292   0.290   2.402   1.908  0.5843 -1.3413 -1.9944
 3945SOL     OW23293   3.890   0.081  12.589  0.2829  0.2476  0.0501
 3945SOL    HW123294   3.970   0.034  12.566  0.1911 -0.7236  1.6737
 3945SOL    HW223295   3.913   0.116  12.675  1.3193  1.2546 -0.6500
 3946SOL     OW23296   1.204   4.578  17.233 -0.4384 -0.5770 -0.3451
 3946SOL    HW123297   1.159   4.524  17.298 -2.9034  1.0411 -0.7009
 3946SOL    HW223298   1.282   4.602  17.283 -0.7352  0.0892 -0.2061
 3947SOL     OW23299   0.098   1.463   7.932 -0.5326 -0.0951  0.2620
 3947SOL    HW123300   0.043   1.533   7.968 -0.2692 -0.1384  0.7588
 3947SOL    HW223301   0.083   1.395   7.998 -0.7836 -0.1579  0.1375
 3948SOL     OW23302   3.963   1.626   3.049  0.4389 -0.2476  0.2188
 3948SOL    HW123303   3.996   1.698   2.995  0.0544 -0.1498  0.1153
 3948SOL    HW223304   3.985   1.550   2.996  4.4915  0.5992  0.6750
 3949SOL     OW23305   4.687   2.866   2.245  0.0518 -0.2332  0.1292
 3949SOL    HW123306   4.706   2.960   2.243  0.2226 -0.2212  2.1418
 3949SOL    HW223307   0.036   2.823   2.198  0.5404  0.6575  0.0564
 3950SOL     OW23308   0.743   0.843   3.512  0.1760  0.3489  0.4233
 3950SOL    HW123309   0.720   0.935   3.526  1.1365  0.4515  1.3277
 3950SOL    HW223310   0.837   0.860   3.516  0.2235  0.0886  0.4270
 3951SOL     OW23311   3.315   0.218   1.760  0.3052 -0.0538  0.1689
 3951SOL    HW123312   3.348   0.228   1.850 -0.0905  1.2417  0.1660
 3951SOL    HW223313   3.374   0.280   1.717  0.0303 -0.9825 -1.5448
 3952SOL     OW23314   3.546   0.461  11.448  0.0162  0.2296 -0.4996
 3952SOL    HW123315   3.456   0.484  11.424  0.3921  2.2858  0.0653
 3952SOL    HW223316   3.544   0.367  11.432 -1.0141  0.1565  0.0680
 3953SOL     OW23317   2.097   1.465  10.267 -0.3435 -0.1604 -0.1309
 3953SOL    HW123318   2.054   1.434  10.347  0.3064 -0.1115  0.2343
 3953SOL    HW223319   2.180   1.417  10.271  0.6890  1.6697  0.3084
 3954SOL     OW23320   2.020   3.703   0.476  0.1219  0.1897  0.2247
 3954SOL    HW123321   1.964   3.639   0.520 -2.0093  1.1710 -1.0460
 3954SOL    HW223322   2.101   3.690   0.525  0.7638 -2.7521 -1.5573
 3955SOL     OW23323   4.684   1.384   8.270  0.3577  0.1678 -0.2862
 3955SOL    HW123324   0.056   1.393   8.263  0.4742  0.8427  2.1332
 3955SOL    HW223325   4.663   1.315   8.208  1.0164 -0.4922  0.2250
 3956SOL     OW23326   3.595   2.577   3.330 -0.4873 -0.0508  0.1189
 3956SOL    HW123327   3.501   2.570   3.311 -0.7353  2.1364  0.5143
 3956SOL    HW223328   3.625   2.488   3.311 -2.6516 -0.5887 -0.8271
 3957SOL     OW23329   3.524   4.054   1.731 -0.1852 -0.2596 -0.0999
 3957SOL    HW123330   3.588   4.122   1.755 -0.2580  0.1751 -1.1269
 3957SOL    HW223331   3.582   3.981   1.751 -1.2868 -1.0548  0.1677
 3958SOL     OW23332   3.019   2.269   3.149 -0.2141 -0.0178 -0.3941
 3958SOL    HW123333   3.088   2.323   3.110  0.0035 -0.8176 -1.1103
 3958SOL    HW223334   3.063   2.254   3.233 -1.0711  0.8443  0.2130
 3959SOL     OW23335   0.965   4.496   4.435  0.2998  0.4005  0.1460
 3959SOL    HW123336   0.932   4.411   4.404  0.3950  0.8949 -1.2950
 3959SOL    HW223337   1.016   4.529   4.361 -1.1105  0.2609 -0.8798
 3960SOL     OW23338   0.181   3.505   0.040 -0.0360  0.1509  0.4047
 3960SOL    HW123339   0.167   3.546  17.647  0.8105 -0.7935 -0.1894
 3960SOL    HW223340   0.219   3.427  17.691 -1.0643 -0.8466  1.3317
 3961SOL     OW23341   2.176   4.661   4.148  0.4880 -0.6360 -0.2404
 3961SOL    HW123342   2.153   4.712   4.226  1.5834  0.1632 -0.4387
 3961SOL    HW223343   2.272   4.657   4.153  0.3878 -1.9085  0.5675
 3962SOL     OW23344   4.640   4.298   8.375  0.7124  0.3468 -0.4582
 3962SOL    HW123345   4.611   4.348   8.451  1.8580 -0.9975  0.8879
 3962SOL    HW223346   4.576   4.311   8.305  0.6281 -0.1730 -0.4797
 3963SOL     OW23347   1.065   0.480  14.259 -0.2746 -0.1973  0.4202
 3963SOL    HW123348   1.006   0.407  14.274 -2.3520  1.4023  0.0708
 3963SOL    HW223349   1.087   0.502  14.350 -0.8238 -0.4055  0.6074
 3964SOL     OW23350   1.715   4.421   9.579 -0.4180 -0.3301  0.3024
 3964SOL    HW123351   1.629   4.416   9.620  0.8145 -1.2639  2.7911
 3964SOL    HW223352   1.759   4.478   9.642 -1.9486 -0.0959  1.1599
 3965SOL     OW23353   0.318   3.517   3.228  0.0179 -0.2134 -0.0721
 3965SOL    HW123354   0.360   3.486   3.148 -0.5267 -0.7215 -0.1544
 3965SOL    HW223355   0.229   3.528   3.194  0.9187 -2.5612 -3.1953
 3966SOL     OW23356   0.447   3.201  14.015  0.1168 -0.3401 -0.6150
 3966SOL    HW123357   0.421   3.276  13.962  0.6674  0.6068  0.4438
 3966SOL    HW223358   0.370   3.146  14.008  0.3003 -0.6882  0.0740
 3967SOL     OW23359   3.464   1.714   7.714 -0.2685  0.0471  0.2548
 3967SOL    HW123360   3.463   1.705   7.810  0.7550 -0.0784  0.2531
 3967SOL    HW223361   3.447   1.621   7.701  0.9229 -0.0425 -0.5923
 3968SOL     OW23362   4.471   0.960   2.610  0.8478  0.1336 -0.6133
 3968SOL    HW123363   4.505   1.028   2.553 -0.7916  3.1114  1.9317
 3968SOL    HW223364   4.446   0.896   2.544  0.2714 -0.2341 -0.0328
 3969SOL     OW23365   2.473   4.338   6.832 -0.5951 -0.2527  0.2093
 3969SOL    HW123366   2.415   4.280   6.782  0.1912  0.3474 -1.4088
 3969SOL    HW223367   2.555   4.290   6.849 -1.0546 -1.0969  0.0323
 3970SOL     OW23368   1.624   3.672   5.674  0.5956 -0.6179 -0.0371
 3970SOL    HW123369   1.642   3.650   5.765  3.8865  1.9383 -0.0651
 3970SOL    HW223370   1.557   3.740   5.682  2.0236  0.9064 -1.0790
 3971SOL     OW23371   2.557   3.546  12.611 -0.4265  0.1960 -0.2685
 3971SOL    HW123372   2.538   3.453  12.617  1.5511 -0.1491  0.5694
 3971SOL    HW223373   2.501   3.555  12.534 -1.8292 -0.4129  0.6637
 3972SOL     OW23374   4.217   4.146   0.896 -0.4606 -0.0954  0.2700
 3972SOL    HW123375   4.271   4.117   0.969  0.8545  1.4681 -0.0653
 3972SOL    HW223376   4.264   4.111   0.820 -1.2504 -1.8533  0.5870
 3973SOL     OW23377   0.034   1.351  11.816  0.7703 -0.3115  0.3910
 3973SOL    HW123378   0.106   1.383  11.762 -0.5925  0.5057 -0.9352
 3973SOL    HW223379   0.035   1.255  11.811 -0.7160 -0.2567 -1.3152
 3974SOL     OW23380   1.988   0.726  11.980 -0.3430 -0.4444 -0.3734
 3974SOL    HW123381   2.014   0.663  12.047 -1.1167  0.1439  0.4845
 3974SOL    HW223382   2.041   0.804  11.996 -2.1103  0.6496  0.1829
 3975SOL     OW23383   0.258   3.739   2.175 -0.0834  0.0813  0.4123
 3975SOL    HW123384   0.218   3.652   2.188  0.2966 -0.0723  0.5726
 3975SOL    HW223385   0.351   3.715   2.176 -0.5124 -1.4069  4.4401
 3976SOL     OW23386   2.021   2.556  10.555 -0.0784  0.1547 -0.4430
 3976SOL    HW123387   1.959   2.512  10.496 -1.7539  0.2304  1.2929
 3976SOL    HW223388   1.966   2.632  10.574 -1.8793 -1.1312 -0.5534
 3977SOL     OW23389   1.244   3.323   8.878  0.4671  0.3816  0.2365
 3977SOL    HW123390   1.297   3.244   8.889  0.2340 -0.1031 -2.1415
 3977SOL    HW223391   1.164   3.292   8.921  0.9129 -1.8457 -0.5699
 3978SOL     OW23392   1.016   2.520   7.440  0.5465 -0.2156  0.1198
 3978SOL    HW123393   1.064   2.554   7.365 -0.3677  0.3607 -0.2061
 3978SOL    HW223394   1.079   2.465   7.486  0.0487  0.4715  1.6129
 3979SOL     OW23395   0.415   2.784  13.731  0.5705  0.5410  0.4616
 3979SOL    HW123396   0.409   2.747  13.819 -3.0473  0.7835  0.2990
 3979SOL    HW223397   0.508   2.809  13.732  0.3064  1.5514 -0.3901
 3980SOL     OW23398   3.013   3.360  16.554 -0.4272 -0.2260 -0.2664
 3980SOL    HW123399   3.065   3.290  16.514  1.0425  1.0374 -0.5816
 3980SOL    HW223400   3.075   3.378  16.625  0.3553  2.6204 -1.6717
 3981SOL     OW23401   4.634   4.572   2.822 -0.7461 -0.2524  0.1489
 3981SOL    HW123402   4.621   4.580   2.727  0.8237 -1.8807 -0.2032
 3981SOL    HW223403   4.720   4.610   2.841  0.0535 -2.5630  1.1305
 3982SOL     OW23404   0.925   1.165   8.925  0.3209 -0.2493  0.4144
 3982SOL    HW123405   0.904   1.258   8.934 -0.1441 -0.4575  1.4302
 3982SOL    HW223406   0.884   1.132   9.005 -0.7604  1.5031  0.5972
 3983SOL     OW23407   2.026   2.912  15.504 -0.1880  0.0637 -0.2915
 3983SOL    HW123408   2.025   3.005  15.483  0.1295 -0.0491 -0.8273
 3983SOL    HW223409   1.984   2.897  15.589 -1.2380  3.1716 -0.2884
 3984SOL     OW23410   1.716   2.157   6.083  0.3160 -0.0707  0.3750
 3984SOL    HW123411   1.710   2.170   5.988 -0.3352 -1.9043  0.1592
 3984SOL    HW223412   1.627   2.127   6.101 -0.1875  0.5961 -1.0409
 3985SOL     OW23413   4.418   0.951   7.679 -0.2406 -0.0801  0.4016
 3985SOL    HW123414   4.440   0.880   7.619  2.3991  1.8990 -0.9819
 3985SOL    HW223415   4.335   0.977   7.639  0.2075  1.0492  0.2232
 3986SOL     OW23416   0.311   3.224   5.588  0.7512 -0.4446 -0.0432
 3986SOL    HW123417   0.220   3.246   5.568  0.6144  0.0890  1.1940
 3986SOL    HW223418   0.316   3.157   5.519 -1.6680 -0.4537 -0.2038
 3987SOL     OW23419   2.101   3.931   7.448 -0.3568 -0.1443 -0.1158
 3987SOL    HW123420   2.144   3.863   7.396 -1.7000  0.4471 -1.9835
 3987SOL    HW223421   2.113   3.889   7.533 -0.4744 -1.8987 -0.9633
 3988SOL     OW23422   0.602   0.576   8.605  0.0561  0.9194 -0.6735
 3988SOL    HW123423   0.604   0.546   8.514  3.0930  2.5823 -1.1379
 3988SOL    HW223424   0.636   0.661   8.578 -1.2862  0.7682 -2.8428
 3989SOL     OW23425   2.294   4.494  10.548  0.2838  0.7880  0.6739
 3989SOL    HW123426   2.227   4.441  10.591 -0.1622  1.8264  1.2805
 3989SOL    HW223427   2.358   4.489  10.619  0.3977 -1.3684  0.4013
 3990SOL     OW23428   1.874   0.273   2.302  0.0453  0.2624  0.3457
 3990SOL    HW123429   1.817   0.271   2.225 -1.9161  1.4285  1.7611
 3990SOL    HW223430   1.938   0.341   2.281  0.2137 -0.1841 -0.6051
 3991SOL     OW23431   2.178   3.725  12.301  0.7060  0.1884  0.1761
 3991SOL    HW123432   2.092   3.683  12.308  0.9752 -0.4942 -0.6073
 3991SOL    HW223433   2.238   3.659  12.334  1.1557  0.8803  0.7205
 3992SOL     OW23434   0.222   4.018   0.877  0.2519 -0.6448 -0.4434
 3992SOL    HW123435   0.298   3.972   0.912 -0.6889 -2.2283 -0.4900
 3992SOL    HW223436   0.256   4.078   0.811 -2.2568  0.9093 -0.3183
 3993SOL     OW23437   3.842   3.679   3.657 -0.0789 -0.1748 -0.4819
 3993SOL    HW123438   3.761   3.666   3.608 -0.1156 -2.2794  0.1269
 3993SOL    HW223439   3.805   3.716   3.737 -0.3929 -0.3376 -0.5509
 3994SOL     OW23440   3.862   0.927   7.059 -0.2557  0.5121  0.0271
 3994SOL    HW123441   3.870   0.917   6.964 -1.4859 -0.3897  0.0171
 3994SOL    HW223442   3.885   0.836   7.081 -0.7107  0.9401  2.2581
 3995SOL     OW23443   1.282   4.126   8.592  0.3421  0.0827  0.3483
 3995SOL    HW123444   1.312   4.035   8.592 -1.8920 -0.6411  0.9018
 3995SOL    HW223445   1.230   4.137   8.671  2.0115 -1.5535  1.6693
 3996SOL     OW23446   1.366   4.323   4.712  0.0282  0.0598 -0.0647
 3996SOL    HW123447   1.331   4.402   4.670  2.3953  0.6939 -0.8433
 3996SOL    HW223448   1.448   4.328   4.662 -0.8491 -0.7325 -1.6044
 3997SOL     OW23449   3.595   1.591   7.316 -0.2355 -0.1873 -0.6504
 3997SOL    HW123450   3.687   1.613   7.329  0.0221 -0.5500 -1.9296
 3997SOL    HW223451   3.603   1.504   7.276  1.2037 -0.8937  1.1874
 3998SOL     OW23452   0.723   4.654   6.169 -0.2550  0.6536  0.5794
 3998SOL    HW123453   0.651   4.658   6.233 -0.5914 -0.7358  0.2910
 3998SOL    HW223454   0.730   4.559   6.158  1.6107  0.8022  0.4722
 3999SOL     OW23455   0.745   4.396   5.147  0.1322  0.3902 -0.0804
 3999SOL    HW123456   0.684   4.348   5.203  1.2147 -1.5725 -0.5813
 3999SOL    HW223457   0.789   4.450   5.214  3.5295 -0.5444 -1.5333
 4000SOL     OW23458   2.855   2.706  15.353 -0.4647 -0.0561  0.7182
 4000SOL    HW123459   2.928   2.766  15.339 -0.2335 -0.4490  0.2459
 4000SOL    HW223460   2.800   2.734  15.280 -1.1536 -1.1151  0.8456
 4001SOL     OW23461   0.768   0.151   6.960 -0.4493  0.1405  0.2487
 4001SOL    HW123462   0.767   0.105   7.043  1.3935 -2.5432 -1.2034
 4001SOL    HW223463   0.703   0.219   6.976  0.5681  1.4133 -0.9180
 4002SOL     OW23464   0.825   1.111   4.089 -0.0769  0.7141  0.6419
 4002SOL    HW123465   0.784   1.197   4.080 -0.9391  0.4689  2.3702
 4002SOL    HW223466   0.832   1.106   4.184  0.1870 -1.7285  0.4802
 4003SOL     OW23467   2.474   4.715   9.069 -0.5481 -0.0261  0.4046
 4003SOL    HW123468   2.492   0.079   9.033 -0.3928 -1.1569 -2.2406
 4003SOL    HW223469   2.554   4.713   9.122 -0.0823 -1.4473 -0.3508
 4004SOL     OW23470   4.578   3.542  10.251 -0.4464 -0.0227  0.0887
 4004SOL    HW123471   4.589   3.602  10.325  0.3050  0.7546 -0.6475
 4004SOL    HW223472   4.655   3.575  10.204  0.7728  1.0897  2.8387
 4005SOL     OW23473   3.692   2.974   6.675  0.0467  0.4195  0.2903
 4005SOL    HW123474   3.685   2.903   6.610  0.9504  0.4997  0.1025
 4005SOL    HW223475   3.604   2.992   6.708 -0.6372 -0.7571 -0.8642
 4006SOL     OW23476   4.427   4.222   5.780  0.2832 -0.1270  0.1313
 4006SOL    HW123477   4.492   4.220   5.850  1.9339 -1.9331 -1.4201
 4006SOL    HW223478   4.364   4.284   5.815  1.8776  1.5956 -0.0678
 4007SOL     OW23479   0.789   3.683  11.077  0.0148  0.1754 -0.2063
 4007SOL    HW123480   0.757   3.747  11.141  0.1362  1.0244 -0.9933
 4007SOL    HW223481   0.882   3.673  11.098  0.2385  0.7860 -0.9105
 4008SOL     OW23482   3.856   4.086   5.157  0.2283 -0.0208  0.0093
 4008SOL    HW123483   3.796   4.067   5.085  0.5185 -0.4224 -0.1292
 4008SOL    HW223484   3.839   4.180   5.167  0.2801 -0.3617  3.1130
 4009SOL     OW23485   1.461   0.975   5.217  0.8857  0.4374 -0.5522
 4009SOL    HW123486   1.536   0.924   5.246  0.2446 -0.3993 -0.3724
 4009SOL    HW223487   1.389   0.912   5.222 -0.3223  1.9006  0.7251
 4010SOL     OW23488   1.636   1.190  13.104 -0.2580 -0.1349 -0.3650
 4010SOL    HW123489   1.696   1.265  13.102 -0.4925  0.0740  0.2204
 4010SOL    HW223490   1.699   1.122  13.081  1.0661  1.3791 -1.2474
 4011SOL     OW23491   3.363   4.682   4.100 -0.5950  0.1762  0.0035
 4011SOL    HW123492   3.390   4.609   4.045 -0.8649 -0.0039  0.1121
 4011SOL    HW223493   3.270   4.661   4.100 -0.7050  0.6595  0.8192
 4012SOL     OW23494   0.453   1.387  11.313  0.4455 -0.3622 -0.7863
 4012SOL    HW123495   0.378   1.351  11.266 -0.1540  0.4687 -0.4720
 4012SOL    HW223496   0.482   1.318  11.373 -1.6920 -0.5338  0.0825
 4013SOL     OW23497   4.500   1.223   2.190  0.0512 -0.5617  0.0580
 4013SOL    HW123498   4.579   1.194   2.236  0.5991 -0.6064 -0.9303
 4013SOL    HW223499   4.485   1.308   2.232 -0.9136 -0.8673  0.3484
 4014SOL     OW23500   1.526   1.124  16.621 -0.2295  0.4463 -0.0177
 4014SOL    HW123501   1.438   1.105  16.589 -0.4093  1.5231 -0.1878
 4014SOL    HW223502   1.515   1.218  16.640  1.8356  0.8281 -0.7517
 4015SOL     OW23503   3.071   0.164   6.852  0.2700  0.1577  0.0315
 4015SOL    HW123504   3.119   0.178   6.933 -1.1078  3.0502  0.3215
 4015SOL    HW223505   3.029   0.083   6.880  0.7492 -0.0438  0.1696
 4016SOL     OW23506   4.655   3.095   8.194 -0.0992 -0.2164 -0.2639
 4016SOL    HW123507   4.702   3.069   8.273 -2.1692 -1.4922  0.5555
 4016SOL    HW223508   0.005   3.119   8.137  0.3030 -1.6335 -0.3493
 4017SOL     OW23509   1.425   3.071   2.345  0.1254  0.0771 -0.7912
 4017SOL    HW123510   1.517   3.049   2.359 -0.3336  0.2888  2.5807
 4017SOL    HW223511   1.404   3.085   2.437 -1.5556  1.8146 -1.4284
 4018SOL     OW23512   0.023   4.058  16.796  0.1963 -0.1674  0.1786
 4018SOL    HW123513   0.028   4.049  16.700  1.4710  2.6339  0.0088
 4018SOL    HW223514   4.671   3.998  16.806  1.7882 -2.4706 -1.7469
 4019SOL     OW23515   0.654   2.798  15.103 -0.3289 -0.1231 -0.1927
 4019SOL    HW123516   0.669   2.872  15.160  1.3294  0.6145 -1.5865
 4019SOL    HW223517   0.565   2.827  15.083 -0.7750 -1.2971  0.0393
 4020SOL     OW23518   1.706   4.716   9.452  0.0331  0.5022  0.2621
 4020SOL    HW123519   1.785   4.663   9.451  0.2349  0.7631  3.0728
 4020SOL    HW223520   1.737   0.068   9.504  0.2993  0.6432 -0.1018
 4021SOL     OW23521   2.746   1.598   8.576 -0.5722  0.5313  0.4164
 4021SOL    HW123522   2.766   1.672   8.633  0.6902 -0.0628  0.7392
 4021SOL    HW223523   2.829   1.551   8.584  0.0394  1.5730  0.2043
 4022SOL     OW23524   4.162   0.159  13.082 -0.1953  0.0120 -0.1242
 4022SOL    HW123525   4.107   0.228  13.118 -3.4005 -2.3623 -0.4811
 4022SOL    HW223526   4.226   0.142  13.152 -3.4235 -1.8984  2.3796
 4023SOL     OW23527   3.664   0.757   7.552  0.1934  0.1557  0.0686
 4023SOL    HW123528   3.697   0.714   7.631  0.0005  0.9128  0.5562
 4023SOL    HW223529   3.720   0.833   7.538  0.6848 -0.4800 -1.4218
 4024SOL     OW23530   2.798   2.676   7.812 -0.2751  0.2459 -0.1955
 4024SOL    HW123531   2.871   2.694   7.872 -0.2197 -1.2603  0.1943
 4024SOL    HW223532   2.755   2.600   7.851 -0.7600 -0.5765 -2.3627
 4025SOL     OW23533   3.645   2.800  16.756  0.0212 -0.0704 -0.1096
 4025SOL    HW123534   3.555   2.766  16.755 -0.3892  1.0314 -1.1294
 4025SOL    HW223535   3.636   2.894  16.767  1.0948  0.2690 -2.2272
 4026SOL     OW23536   2.180   3.232   2.373  0.2356 -0.4425  0.1249
 4026SOL    HW123537   2.210   3.141   2.373  0.3797 -0.3917  0.7315
 4026SOL    HW223538   2.262   3.279   2.360 -0.0779  0.4526  1.3957
 4027SOL     OW23539   1.643   3.222   6.633  0.1066  0.2443 -0.5509
 4027SOL    HW123540   1.717   3.174   6.597  0.0937 -0.4796  0.3987
 4027SOL    HW223541   1.687   3.282   6.694  0.0976  0.1711 -0.4732
 4028SOL     OW23542   0.855   3.534   5.219 -0.2293 -0.1695  0.0828
 4028SOL    HW123543   0.877   3.539   5.312 -2.4052  0.1974  0.5885
 4028SOL    HW223544   0.835   3.628   5.222  2.0015  0.2606  1.0069
 4029SOL     OW23545   0.349   2.034   3.808  0.6447  0.0461 -0.4729
 4029SOL    HW123546   0.372   2.125   3.790 -0.2132 -0.1310 -2.3713
 4029SOL    HW223547   0.370   2.035   3.902  0.3641  1.7058 -0.4185
 4030SOL     OW23548   3.952   3.410   3.402 -0.3575  0.3257  0.1919
 4030SOL    HW123549   3.961   3.480   3.467 -0.5194  0.3570  0.1820
 4030SOL    HW223550   4.044   3.386   3.389 -0.8039 -0.1525 -2.0831
 4031SOL     OW23551   3.995   3.163   8.018 -0.0641  0.3376 -0.3231
 4031SOL    HW123552   3.985   3.222   8.092 -0.4116 -0.1879  0.0486
 4031SOL    HW223553   3.937   3.091   8.041  0.6217 -0.3103 -0.5981
 4032SOL     OW23554   4.399   1.742  10.724  0.0745 -0.5815  0.1198
 4032SOL    HW123555   4.484   1.729  10.766  1.1106  3.0389 -0.8286
 4032SOL    HW223556   4.342   1.738  10.801 -0.1315 -2.1490 -0.1165
 4033SOL     OW23557   4.343   2.443  11.954  0.4109 -0.3327 -0.0657
 4033SOL    HW123558   4.396   2.418  11.879  0.0045  0.6344 -0.6657
 4033SOL    HW223559   4.380   2.383  12.019 -1.3349 -0.8398  0.4762
 4034SOL     OW23560   4.055   2.105  10.748  0.2516 -0.5428  0.5695
 4034SOL    HW123561   3.972   2.109  10.700 -0.6337  0.7114  2.1947
 4034SOL    HW223562   4.091   2.046  10.682  1.0347 -0.8099  1.2490
 4035SOL     OW23563   1.492   3.169   7.836  0.1516  0.7289 -0.0677
 4035SOL    HW123564   1.516   3.243   7.780 -0.5805  0.5784 -0.5799
 4035SOL    HW223565   1.477   3.221   7.914 -1.7110  2.0083 -1.2895
 4036SOL     OW23566   3.054   3.657   0.835  0.1516  0.6354  0.4485
 4036SOL    HW123567   3.021   3.572   0.864  0.4633  0.4445  0.2346
 4036SOL    HW223568   3.088   3.685   0.919  0.0116 -0.6721  0.9340
 4037SOL     OW23569   3.500   0.309   6.368 -0.0731 -0.2439  0.2014
 4037SOL    HW123570   3.442   0.362   6.314 -0.2422 -2.1957 -1.5214
 4037SOL    HW223571   3.458   0.325   6.452  0.9855 -1.1347  0.9005
 4038SOL     OW23572   0.128   0.664   2.102  0.0705  0.3871 -0.5057
 4038SOL    HW123573   0.131   0.619   2.017 -0.8554  0.7348 -0.7138
 4038SOL    HW223574   0.124   0.752   2.065 -0.2794  1.0918  1.1905
 4039SOL     OW23575   1.754   1.126   4.830 -0.3322  0.0720 -0.0828
 4039SOL    HW123576   1.721   1.038   4.850 -0.5983 -0.0946 -1.2557
 4039SOL    HW223577   1.679   1.179   4.859 -0.6150 -0.8691  0.9025
 4040SOL     OW23578   3.625   4.274   8.322 -0.1916 -0.8714  0.3122
 4040SOL    HW123579   3.702   4.296   8.269 -1.5081 -1.1462 -1.7378
 4040SOL    HW223580   3.641   4.180   8.335  1.1803 -0.6520  0.2560
 4041SOL     OW23581   4.444   1.672   2.986  0.5056 -0.2356  0.2614
 4041SOL    HW123582   4.408   1.605   3.045 -1.2882 -0.2302 -0.8167
 4041SOL    HW223583   4.433   1.757   3.027 -0.8510  0.4064 -1.4300
 4042SOL     OW23584   1.313   1.088   6.130  0.3044 -0.4229 -0.3453
 4042SOL    HW123585   1.247   1.096   6.061  0.6753  0.5674 -0.5910
 4042SOL    HW223586   1.292   1.169   6.176  0.1059 -1.2166  0.9640
 4043SOL     OW23587   3.809   3.318   0.287  0.6088 -0.5791 -0.5114
 4043SOL    HW123588   3.763   3.400   0.268  0.0454 -0.6289  0.6506
 4043SOL    HW223589   3.883   3.316   0.227  0.5024 -0.2968 -0.6491
 4044SOL     OW23590   1.400   4.010   5.226 -0.0384 -0.4341  1.0928
 4044SOL    HW123591   1.351   3.941   5.182 -0.2198  0.2772  0.1780
 4044SOL    HW223592   1.480   3.965   5.254  1.2654  0.8866 -0.4779
 4045SOL     OW23593   0.715   2.955   1.279  1.0131 -0.5581 -0.3448
 4045SOL    HW123594   0.706   2.866   1.246 -0.1019  0.6365 -3.2546
 4045SOL    HW223595   0.778   2.989   1.216  1.2858 -2.4502 -1.0801
 4046SOL     OW23596   3.289   4.312   8.198 -0.4050 -0.1687 -0.1303
 4046SOL    HW123597   3.284   4.401   8.234  0.2053 -0.0629 -0.3088
 4046SOL    HW223598   3.273   4.330   8.105 -2.6034 -3.3959 -0.3904
 4047SOL     OW23599   1.788   3.338  17.611  0.5025 -0.5127 -0.1090
 4047SOL    HW123600   1.806   3.360   0.010 -1.2038  0.7507 -0.0669
 4047SOL    HW223601   1.696   3.313  17.624  0.1227  0.5755 -0.6815
 4048SOL     OW23602   2.506   1.153   6.377  0.1628 -0.0561  0.2031
 4048SOL    HW123603   2.538   1.171   6.288  1.4729  0.2194  0.7357
 4048SOL    HW223604   2.588   1.153   6.427 -0.1992  0.2736  0.7875
 4049SOL     OW23605   2.026   2.999   4.468  0.1592 -0.1904  0.3923
 4049SOL    HW123606   1.963   3.056   4.512  1.1394 -0.1022  1.6915
 4049SOL    HW223607   1.988   3.001   4.381  1.7995  0.1661 -0.3178
 4050SOL     OW23608   3.447   2.299  16.712 -0.0193 -0.1445 -0.4983
 4050SOL    HW123609   3.434   2.246  16.634  0.3158 -1.9757  0.6809
 4050SOL    HW223610   3.530   2.338  16.685 -0.6126  1.0816 -0.5565
 4051SOL     OW23611   4.059   3.620   4.652  0.3419  0.0795 -0.3021
 4051SOL    HW123612   3.989   3.565   4.616 -0.1362  0.7841 -0.4540
 4051SOL    HW223613   4.102   3.638   4.568  2.4779  1.8506  1.1843
 4052SOL     OW23614   4.418   2.802   9.695  0.2709 -0.1785  0.1177
 4052SOL    HW123615   4.390   2.815   9.785 -0.7080  0.1734 -0.2409
 4052SOL    HW223616   4.488   2.738   9.706  0.7500  0.2822 -0.1792
 4053SOL     OW23617   1.993   3.900   3.149 -0.2592 -0.9074  0.7222
 4053SOL    HW123618   1.906   3.878   3.182 -1.2344 -0.6862 -1.6931
 4053SOL    HW223619   1.996   3.996   3.156  1.6671 -0.9453  0.3913
 4054SOL     OW23620   3.896   1.153  11.125  0.0200 -0.3212 -0.0844
 4054SOL    HW123621   3.819   1.143  11.069  1.1593 -0.8484 -1.5598
 4054SOL    HW223622   3.859   1.171  11.211 -0.2442  0.4242 -0.3547
 4055SOL     OW23623   2.719   0.447   6.118  0.5292 -0.3257 -0.7601
 4055SOL    HW123624   2.712   0.506   6.042  2.2401  0.5171 -0.2626
 4055SOL    HW223625   2.813   0.441   6.132  0.4166  0.1127  0.2198
 4056SOL     OW23626   3.980   3.301   4.081 -0.6892 -0.1390  0.1664
 4056SOL    HW123627   4.039   3.227   4.098 -1.6585 -0.6991  1.0370
 4056SOL    HW223628   3.991   3.309   3.986  0.2392 -2.3370  0.0694
 4057SOL     OW23629   3.150   3.180   0.187  0.2643 -0.1971  0.0979
 4057SOL    HW123630   3.089   3.130   0.132  1.0455 -0.1713 -0.7970
 4057SOL    HW223631   3.101   3.261   0.205 -1.9154 -2.0623  2.5511
 4058SOL     OW23632   4.094   3.943   8.623  0.0436 -0.1605  0.2696
 4058SOL    HW123633   4.034   4.006   8.583  0.7174  0.2624 -0.0556
 4058SOL    HW223634   4.048   3.859   8.616 -0.4313  0.0697  0.6244
 4059SOL     OW23635   3.834   4.521   3.857 -0.1086 -0.0220  0.6936
 4059SOL    HW123636   3.762   4.577   3.886 -1.8265 -1.7311 -0.3424
 4059SOL    HW223637   3.793   4.481   3.781 -0.1069  0.8053  0.2490
 4060SOL     OW23638   0.865   0.515   1.983 -0.1851  0.2585 -0.2436
 4060SOL    HW123639   0.882   0.583   1.918  0.3669  0.1349 -0.2262
 4060SOL    HW223640   0.883   0.440   1.926  3.2352  0.1016  1.0197
 4061SOL     OW23641   2.881   1.706  12.781  0.1167 -0.2842  0.1988
 4061SOL    HW123642   2.898   1.613  12.798  1.4467 -0.8071 -4.1951
 4061SOL    HW223643   2.828   1.708  12.701 -0.4739  1.1830  0.6202
 4062SOL     OW23644   3.997   0.711   8.588 -0.0184  0.8134 -0.8126
 4062SOL    HW123645   3.939   0.783   8.614 -0.4792  0.8252 -1.8527
 4062SOL    HW223646   3.928   0.646   8.574 -0.6209  1.6411 -1.7277
 4063SOL     OW23647   2.431   1.997   2.998 -0.2583  0.3921 -0.1107
 4063SOL    HW123648   2.341   2.029   2.988 -0.3439  0.0011 -0.6410
 4063SOL    HW223649   2.448   1.956   2.913  1.2206  0.3672  0.2053
 4064SOL     OW23650   4.370   4.179   5.012 -0.7640 -0.4289 -0.4945
 4064SOL    HW123651   4.293   4.123   5.022 -2.0613  1.1973 -1.4090
 4064SOL    HW223652   4.330   4.247   4.958  0.1548 -0.3475 -1.0811
 4065SOL     OW23653   2.601   1.852   7.399 -0.0860  0.2021  0.3000
 4065SOL    HW123654   2.686   1.880   7.434  0.6980 -0.6141 -0.9210
 4065SOL    HW223655   2.622   1.766   7.363  1.4973  0.6579  0.1149
 4066SOL     OW23656   0.894   3.777   3.391  0.8848 -0.0067  0.4410
 4066SOL    HW123657   0.971   3.788   3.448  0.6573  2.0655  0.3465
 4066SOL    HW223658   0.932   3.804   3.307  0.4947 -1.0658 -0.0814
 4067SOL     OW23659   3.277   0.247   5.432  0.0315 -0.2271 -0.1674
 4067SOL    HW123660   3.307   0.317   5.373  1.6359 -1.7283 -1.1220
 4067SOL    HW223661   3.182   0.257   5.436  0.1635  1.0547 -0.1599
 4068SOL     OW23662   2.598   3.646   7.972  0.4612  0.1362  0.0896
 4068SOL    HW123663   2.629   3.703   8.043  0.6539  0.0138  0.1023
 4068SOL    HW223664   2.637   3.561   7.990  0.0217  0.0864  0.8060
 4069SOL     OW23665   1.859   3.825   2.107 -0.9291 -0.5270 -0.5268
 4069SOL    HW123666   1.783   3.804   2.162  0.9858 -0.3409  2.1787
 4069SOL    HW223667   1.913   3.747   2.120  1.1763  1.0920  0.3111
 4070SOL     OW23668   3.694   2.775   8.233 -0.0173  0.6350  0.2617
 4070SOL    HW123669   3.732   2.750   8.317  1.7273 -0.1913 -0.7885
 4070SOL    HW223670   3.612   2.807   8.271 -0.6720 -2.4471  1.4045
 4071SOL     OW23671   2.659   2.973   6.626  0.2296  0.5409 -0.7622
 4071SOL    HW123672   2.665   2.893   6.678 -1.1222  1.1739  0.3559
 4071SOL    HW223673   2.580   3.016   6.659  0.4277  2.9575 -3.4006
 4072SOL     OW23674   4.536   4.686   3.048  0.1550  0.2866 -0.0391
 4072SOL    HW123675   4.570   4.656   3.132  0.2822 -0.1207 -0.2379
 4072SOL    HW223676   4.562   4.619   2.986 -0.8996 -1.5269  1.4933
 4073SOL     OW23677   4.110   0.690   6.721  0.4986 -0.3932 -0.0911
 4073SOL    HW123678   4.129   0.709   6.813  0.4859  1.9100 -0.5808
 4073SOL    HW223679   4.140   0.599   6.721 -1.6448 -1.1186  1.0294
 4074SOL     OW23680   3.366   0.556   4.968  0.3433  0.3473  0.1896
 4074SOL    HW123681   3.404   0.631   5.013 -2.2319  3.0948 -2.2319
 4074SOL    HW223682   3.424   0.542   4.894 -1.1171  1.3369 -1.1205
 4075SOL     OW23683   0.510   3.675   8.323  0.0917  0.2244  0.1441
 4075SOL    HW123684   0.591   3.646   8.282 -0.1612  0.7406 -0.7042
 4075SOL    HW223685   0.458   3.595   8.317  0.5172 -0.0086 -0.4005
 4076SOL     OW23686   3.696   3.957   2.320  0.1442  0.1702  0.4973
 4076SOL    HW123687   3.608   3.988   2.340 -0.2571  0.3812 -1.6014
 4076SOL    HW223688   3.720   3.925   2.406  1.3224 -0.7511 -0.1780
 4077SOL     OW23689   1.612   0.132  12.608 -0.2056 -0.5532 -0.3051
 4077SOL    HW123690   1.674   0.078  12.559 -1.0682 -1.1073 -0.7944
 4077SOL    HW223691   1.570   0.178  12.535 -1.6517 -1.2154  0.1014
 4078SOL     OW23692   4.601   1.024  16.603 -0.0317 -0.1514 -0.8653
 4078SOL    HW123693   4.530   1.088  16.599 -1.6392 -1.7821  1.7998
 4078SOL    HW223694   4.550   0.952  16.641 -0.3800  1.2495  1.3301
 4079SOL     OW23695   3.002   3.406   7.881 -0.0442  0.7877 -0.3035
 4079SOL    HW123696   3.028   3.468   7.949 -3.5216  0.4429  1.3069
 4079SOL    HW223697   3.082   3.379   7.835 -1.2195  1.6863 -2.8516
 4080SOL     OW23698   2.208   0.492  15.850  0.0890 -0.6771 -0.0503
 4080SOL    HW123699   2.182   0.448  15.769  1.8932 -0.7895 -0.5671
 4080SOL    HW223700   2.204   0.425  15.919 -1.3383 -1.5731 -1.0120
 4081SOL     OW23701   1.629   2.480  16.803 -0.1920  0.0630 -0.5121
 4081SOL    HW123702   1.638   2.456  16.710 -0.0915  1.6799 -0.9250
 4081SOL    HW223703   1.722   2.475  16.826 -0.0615  0.3874 -0.9626
 4082SOL     OW23704   1.249   3.561   8.732 -0.4262 -0.1947  0.1459
 4082SOL    HW123705   1.232   3.482   8.785 -2.4309  0.8123  1.0059
 4082SOL    HW223706   1.335   3.582   8.769  1.7471 -0.1771 -4.9533
 4083SOL     OW23707   0.012   0.403   3.842  0.0358 -0.1154 -0.3234
 4083SOL    HW123708   0.076   0.342   3.881 -1.0778 -1.0585  0.0483
 4083SOL    HW223709   4.656   0.388   3.895  0.4407  1.9595  0.8823
 4084SOL     OW23710   3.089   0.236   1.280  0.1971  0.3644  0.2243
 4084SOL    HW123711   3.071   0.292   1.355 -0.5673 -0.0880  0.3771
 4084SOL    HW223712   3.162   0.280   1.235 -0.3842  3.4494  2.3269
 4085SOL     OW23713   2.629   2.497  11.015 -1.1718 -0.0439  0.2323
 4085SOL    HW123714   2.546   2.450  11.030 -1.3986  0.7561  1.5723
 4085SOL    HW223715   2.649   2.482  10.923  0.2517  0.0466  0.5378
 4086SOL     OW23716   0.082   1.771   8.749 -0.0417  0.0961  0.3380
 4086SOL    HW123717   0.050   1.725   8.827  0.6767 -1.4283 -0.2772
 4086SOL    HW223718   4.721   1.810   8.724  0.9329  0.4761 -2.2677
 4087SOL     OW23719   2.133   4.204  10.756 -0.1109  0.3838 -0.1176
 4087SOL    HW123720   2.128   4.298  10.776  0.3049  0.4526 -0.3301
 4087SOL    HW223721   2.146   4.210  10.661 -2.2576  0.8285 -0.3906
 4088SOL     OW23722   3.337   0.016   0.800 -0.0423  0.6953  0.1717
 4088SOL    HW123723   3.389   4.660   0.782 -0.2722  1.7631 -4.9566
 4088SOL    HW223724   3.372   0.044   0.885 -1.1791 -0.1242  0.9003
 4089SOL     OW23725   4.266   0.231   4.989  0.0964  0.0384 -0.1504
 4089SOL    HW123726   4.200   0.300   4.991  0.9204  0.7176  3.8790
 4089SOL    HW223727   4.227   0.147   5.014  1.5980 -0.6919 -0.2660
 4090SOL     OW23728   4.232   1.862   5.779 -0.1430  0.4689 -0.3095
 4090SOL    HW123729   4.236   1.822   5.692 -0.2117  1.3877 -0.7296
 4090SOL    HW223730   4.151   1.912   5.776 -1.1556 -1.2678 -1.9612
 4091SOL     OW23731   3.610   4.025  11.418 -0.1827 -0.8341  0.0846
 4091SOL    HW123732   3.558   4.067  11.350 -1.4629 -1.9823  0.3606
 4091SOL    HW223733   3.652   3.954  11.370  1.9208  0.2699  0.2815
 4092SOL     OW23734   2.545   0.712  14.289  0.1791 -0.2777 -0.2326
 4092SOL    HW123735   2.511   0.623  14.298  0.0455 -0.2555 -0.5133
 4092SOL    HW223736   2.632   0.709  14.329  0.6587  0.5225 -1.2188
 4093SOL     OW23737   2.038   2.730  15.086 -0.7330  0.1076 -0.4083
 4093SOL    HW123738   2.116   2.783  15.076  0.0254 -0.4917  2.3127
 4093SOL    HW223739   2.004   2.734  14.997  0.4594  0.2916 -0.8475
 4094SOL     OW23740   4.652   2.231  10.150  0.3606 -0.6251  0.2304
 4094SOL    HW123741   4.661   2.154  10.094 -0.8034 -0.0729 -0.7056
 4094SOL    HW223742   4.637   2.196  10.238 -0.2393 -0.8651  0.0272
 4095SOL     OW23743   2.778   0.434   7.912  0.2347  0.5619 -0.0762
 4095SOL    HW123744   2.770   0.406   7.820 -1.7731 -0.3595  0.3900
 4095SOL    HW223745   2.864   0.475   7.914  1.6960 -2.5812  0.4939
 4096SOL     OW23746   2.274   3.289   4.176 -0.6188 -0.2427 -0.3184
 4096SOL    HW123747   2.326   3.317   4.252 -2.3687  1.2278  0.3366
 4096SOL    HW223748   2.242   3.203   4.205 -0.4615 -0.3622 -0.5037
 4097SOL     OW23749   2.447   1.167   3.885 -0.0948  0.1647  0.3627
 4097SOL    HW123750   2.359   1.163   3.847 -1.0984  0.4764  2.6110
 4097SOL    HW223751   2.434   1.192   3.977 -2.7264 -1.3654  0.4227
 4098SOL     OW23752   4.098   0.729   9.545 -0.3767  0.4251  0.0304
 4098SOL    HW123753   4.098   0.687   9.631  2.3837  1.0514  0.3483
 4098SOL    HW223754   4.151   0.809   9.552 -0.5758  0.7897 -2.4573
 4099SOL     OW23755   0.461   0.537  16.908  0.1645 -0.6399  0.3732
 4099SOL    HW123756   0.408   0.532  16.987 -0.7233 -0.6527 -0.2098
 4099SOL    HW223757   0.539   0.524  16.961  0.4245  0.2332  0.2043
 4100SOL     OW23758   3.091   1.194  11.944  0.5558 -0.0482  0.3726
 4100SOL    HW123759   3.093   1.219  12.037 -0.6022  0.2667  0.3187
 4100SOL    HW223760   3.003   1.156  11.936  1.0000 -0.4763 -2.4700
 4101SOL     OW23761   0.395   3.584  12.694 -0.3914 -0.4636 -0.4124
 4101SOL    HW123762   0.310   3.602  12.734  1.0913  1.7179  1.8308
 4101SOL    HW223763   0.434   3.544  12.772 -0.1203  0.7603  0.0852
 4102SOL     OW23764   0.866   3.782   6.510  0.2192  0.1878 -0.0399
 4102SOL    HW123765   0.818   3.713   6.556  1.5054 -0.0631  0.9304
 4102SOL    HW223766   0.952   3.742   6.499  0.8437  1.0780  1.5580
 4103SOL     OW23767   3.951   1.064   9.402 -0.1016 -0.0081  0.5733
 4103SOL    HW123768   4.015   1.032   9.337  1.3295  1.5920  1.1981
 4103SOL    HW223769   3.987   1.152   9.416 -0.5170  0.1164  0.8363
 4104SOL     OW23770   0.771   0.532   8.826  0.1199  0.3593  0.4534
 4104SOL    HW123771   0.710   0.503   8.758  0.2716  1.4658 -0.1470
 4104SOL    HW223772   0.710   0.586   8.877  1.8229  2.0587  0.7107
 4105SOL     OW23773   3.825   0.345  12.334  0.2807  0.0504 -0.1630
 4105SOL    HW123774   3.791   0.257  12.320 -0.3646  0.4040 -0.8543
 4105SOL    HW223775   3.886   0.366  12.263 -0.8774  1.3833 -0.7721
 4106SOL     OW23776   4.601   4.400   1.667 -0.0347  0.3339 -0.3668
 4106SOL    HW123777   4.512   4.382   1.634  0.2686 -0.7789 -0.5849
 4106SOL    HW223778   4.636   4.448   1.592  0.7775  0.0478 -0.1703
 4107SOL     OW23779   0.438   0.028  13.774 -0.1943  0.2570 -0.0977
 4107SOL    HW123780   0.352   4.716  13.796 -0.5089  0.4052 -1.1157
 4107SOL    HW223781   0.456   0.078  13.854  0.9083 -1.9953  1.0599
 4108SOL     OW23782   3.066   1.492   6.054  0.2475  0.1093  0.2362
 4108SOL    HW123783   3.032   1.409   6.087 -0.6339  0.5784  0.5281
 4108SOL    HW223784   3.027   1.490   5.966  1.0094  1.3433 -0.1264
 4109SOL     OW23785   3.110   0.421   0.475  0.3201  0.4281  0.1130
 4109SOL    HW123786   3.142   0.341   0.516  1.7714  0.9791  0.0335
 4109SOL    HW223787   3.133   0.478   0.548  2.5600  2.0194 -1.8684
 4110SOL     OW23788   1.487   4.145   2.736  0.1123 -0.2354  0.9451
 4110SOL    HW123789   1.410   4.197   2.716  1.1058  1.2629  0.9836
 4110SOL    HW223790   1.462   4.093   2.812 -0.2512  0.5909  1.3856
 4111SOL     OW23791   2.235   1.118  11.214 -0.1107  0.5287 -0.1284
 4111SOL    HW123792   2.248   1.201  11.167 -1.1440 -0.8019 -2.7633
 4111SOL    HW223793   2.192   1.153  11.292  1.8054 -2.4085  2.2174
 4112SOL     OW23794   3.327   0.011   1.273  0.5115 -0.3134  0.3849
 4112SOL    HW123795   3.249   0.065   1.263 -0.3475 -2.1062 -2.9464
 4112SOL    HW223796   3.294   4.644   1.263  0.3236  0.0349 -2.2588
 4113SOL     OW23797   2.130   3.666   7.344  0.6184 -0.2602  0.0114
 4113SOL    HW123798   2.115   3.580   7.304  0.2682 -1.0790  1.9193
 4113SOL    HW223799   2.047   3.689   7.386 -0.3804 -2.6363 -0.6951
 4114SOL     OW23800   0.154   1.705   4.557  0.3766 -0.2058 -0.3790
 4114SOL    HW123801   0.108   1.738   4.480  0.5847  1.5518  0.2404
 4114SOL    HW223802   0.113   1.628   4.595  0.4554 -1.1044 -2.1453
 4115SOL     OW23803   0.426   4.386  10.961  0.0762 -0.3222 -0.1253
 4115SOL    HW123804   0.391   4.364  10.875  0.8823  0.0762 -0.5588
 4115SOL    HW223805   0.398   4.305  11.003 -2.4759  1.5971  1.9296
 4116SOL     OW23806   0.224   2.669   3.479 -0.2458  0.1265 -0.4269
 4116SOL    HW123807   0.236   2.580   3.446  0.8185 -0.4788  1.6518
 4116SOL    HW223808   0.220   2.710   3.392 -2.2413  1.5841  0.3555
 4117SOL     OW23809   2.065   2.559   6.677  0.2972 -0.2046  0.2223
 4117SOL    HW123810   2.115   2.500   6.734  2.2924 -1.5129 -2.9225
 4117SOL    HW223811   2.133   2.613   6.638  0.3631 -2.8428 -3.3873
 4118SOL     OW23812   1.676   1.649  15.129 -0.4835  0.6833  0.0688
 4118SOL    HW123813   1.730   1.643  15.207 -1.4050  1.1703  0.7443
 4118SOL    HW223814   1.729   1.624  15.053  1.7629  2.6517  1.0040
 4119SOL     OW23815   3.454   4.186  12.798  0.5976 -0.0235 -0.2217
 4119SOL    HW123816   3.457   4.232  12.714  1.3626 -0.2610 -0.3223
 4119SOL    HW223817   3.511   4.236  12.857  0.8927  0.9164 -1.3030
 4120SOL     OW23818   1.726   1.498   0.318  0.0736 -0.2058  0.2091
 4120SOL    HW123819   1.798   1.486   0.256  0.2540 -0.0863  0.3969
 4120SOL    HW223820   1.760   1.572   0.368  0.6291 -1.1294  1.2054
 4121SOL     OW23821   3.069   0.455   4.517  0.0865 -0.0891  0.2734
 4121SOL    HW123822   3.103   0.501   4.440  0.2883  1.6509  1.4070
 4121SOL    HW223823   2.997   0.512   4.544  1.0050  0.8950  0.6429
 4122SOL     OW23824   3.015   3.329   2.907 -0.3277 -0.3427  0.2104
 4122SOL    HW123825   3.094   3.381   2.892 -0.2562 -0.0476  1.5976
 4122SOL    HW223826   3.055   3.253   2.949  0.1906  0.5318  1.3193
 4123SOL     OW23827   0.868   2.570   3.797 -0.4127 -0.7277  0.3655
 4123SOL    HW123828   0.885   2.507   3.727  0.7297  0.9841 -0.9003
 4123SOL    HW223829   0.818   2.639   3.753  1.8838  1.0157  0.5308
 4124SOL     OW23830   2.204   1.906   4.815 -0.5027  0.2785  0.0439
 4124SOL    HW123831   2.260   1.982   4.827 -0.3451 -0.1290  1.9546
 4124SOL    HW223832   2.168   1.909   4.727  1.1831  0.3490 -0.6524
 4125SOL     OW23833   2.812   4.544   0.167 -0.0070  0.4467 -0.0174
 4125SOL    HW123834   2.749   4.496   0.113 -0.7871  1.3885  0.0485
 4125SOL    HW223835   2.889   4.524   0.113  0.9722  1.5527  0.9631
 4126SOL     OW23836   1.301   2.700   1.875  0.0545  0.2106  0.2901
 4126SOL    HW123837   1.370   2.680   1.938  1.6967  0.2755 -1.5156
 4126SOL    HW223838   1.233   2.743   1.927  0.2548  3.3667 -2.0348
 4127SOL     OW23839   3.045   4.446   4.834 -0.2826 -0.6774  0.4761
 4127SOL    HW123840   2.977   4.512   4.848 -0.1434 -0.6135  0.8375
 4127SOL    HW223841   3.022   4.435   4.742  1.7320  1.5957 -0.3075
 4128SOL     OW23842   3.463   4.103   5.964 -0.0895 -0.2374 -0.6551
 4128SOL    HW123843   3.503   4.023   5.930  1.4236  0.0932  0.3021
 4128SOL    HW223844   3.481   4.153   5.884 -0.5031  0.1280 -0.5183
 4129SOL     OW23845   0.354   1.925   9.145  0.4309 -0.1268  0.0921
 4129SOL    HW123846   0.430   1.951   9.198 -0.4042  1.3106  0.5966
 4129SOL    HW223847   0.381   1.833   9.139 -0.1089 -0.3656  1.2842
 4130SOL     OW23848   2.537   0.422   8.051 -0.7653  0.0223  0.6092
 4130SOL    HW123849   2.626   0.421   8.015 -2.3730 -2.4367 -3.2927
 4130SOL    HW223850   2.489   0.467   7.981  0.6548  0.0844 -0.3337
 4131SOL     OW23851   3.787   3.567   2.730 -0.7411  0.4316 -0.5373
 4131SOL    HW123852   3.757   3.528   2.648  0.2182 -0.5565 -0.4152
 4131SOL    HW223853   3.752   3.503   2.793  0.3898  0.4652  0.1270
 4132SOL     OW23854   2.587   2.073  13.863 -0.4463  0.1727 -0.3776
 4132SOL    HW123855   2.511   2.020  13.836 -0.9870  2.5803 -3.5769
 4132SOL    HW223856   2.549   2.160  13.875  2.9253  1.4560  0.9162
 4133SOL     OW23857   3.490   0.275   8.310 -0.1145 -0.1259 -0.1926
 4133SOL    HW123858   3.448   0.208   8.364 -2.0695  1.3182  0.0686
 4133SOL    HW223859   3.571   0.232   8.282 -2.2145 -3.8747 -0.4777
 4134SOL     OW23860   1.665   1.965  15.110  0.0146  0.0489 -0.0886
 4134SOL    HW123861   1.753   1.938  15.082  1.1388 -0.8691  4.3694
 4134SOL    HW223862   1.607   1.902  15.066 -0.9685  1.4904 -0.8683
 4135SOL     OW23863   4.683   2.662   5.865  0.2692 -0.4385 -0.2802
 4135SOL    HW123864   4.646   2.612   5.938  1.5906 -1.8924 -0.6102
 4135SOL    HW223865   0.051   2.652   5.894  0.6466  2.0733 -0.6522
 4136SOL     OW23866   1.933   0.569   9.059 -0.0641 -0.0378  0.4266
 4136SOL    HW123867   1.925   0.659   9.027  0.0416 -0.6681 -1.3751
 4136SOL    HW223868   2.008   0.536   9.009 -0.1614  1.1358 -0.4899
 4137SOL     OW23869   4.488   4.219  12.940  0.0018  0.1200  0.3446
 4137SOL    HW123870   4.554   4.203  13.007  1.0311  0.7749 -0.5186
 4137SOL    HW223871   4.513   4.158  12.871 -1.0356 -0.0296  0.1035
 4138SOL     OW23872   2.547   2.682  15.367 -0.6370 -0.0859  0.2558
 4138SOL    HW123873   2.512   2.765  15.336  0.7875  0.7692  0.9270
 4138SOL    HW223874   2.608   2.664  15.296 -0.2253  1.2504  0.2714
 4139SOL     OW23875   2.017   4.681  15.309  0.5295 -0.0892  0.6846
 4139SOL    HW123876   2.104   4.664  15.345  0.6437 -2.4270 -0.6999
 4139SOL    HW223877   1.995   4.589  15.325 -1.5504  0.1094 -1.0671
 4140SOL     OW23878   0.421   4.422   7.316 -0.4506 -0.2591  0.3008
 4140SOL    HW123879   0.363   4.397   7.388  0.3375 -0.1051  0.9931
 4140SOL    HW223880   0.363   4.473   7.261  0.3971  0.6109  0.2100
 4141SOL     OW23881   0.878   2.158   5.945  0.5169 -0.1184  0.5681
 4141SOL    HW123882   0.964   2.137   5.910  0.3971 -0.3724  0.4246
 4141SOL    HW223883   0.834   2.167   5.861  0.6110 -1.0229  0.4176
 4142SOL     OW23884   0.366   3.142   0.920 -0.0784  0.2319  0.1426
 4142SOL    HW123885   0.326   3.134   0.833  0.3417 -0.3795  0.0056
 4142SOL    HW223886   0.333   3.057   0.948  1.2172 -0.4279 -0.3002
 4143SOL     OW23887   2.862   0.866   0.887  0.4862 -0.0114 -0.2240
 4143SOL    HW123888   2.820   0.951   0.877  1.9606  0.6920 -0.3484
 4143SOL    HW223889   2.837   0.852   0.978  1.4450  3.6659  0.5827
 4144SOL     OW23890   0.032   1.852   3.839 -0.5405 -0.4127 -0.3786
 4144SOL    HW123891   0.068   1.910   3.773  1.8378 -3.1336 -1.4391
 4144SOL    HW223892   4.690   1.908   3.882  1.8407 -0.0146  2.7129
 4145SOL     OW23893   1.133   0.706   7.300  0.1598 -0.0647  0.0579
 4145SOL    HW123894   1.200   0.699   7.231  0.3992  0.4452  0.2330
 4145SOL    HW223895   1.145   0.798   7.325 -1.2766  0.1501 -0.0656
 4146SOL     OW23896   1.090   1.601   2.896 -0.0144 -0.2675 -0.3706
 4146SOL    HW123897   1.030   1.598   2.971 -2.3369 -1.1112 -2.2641
 4146SOL    HW223898   1.171   1.639   2.928  0.4840  1.3146 -3.5388
 4147SOL     OW23899   3.388   4.325   3.651 -0.6765  0.1333  0.0320
 4147SOL    HW123900   3.475   4.360   3.673 -0.6247  0.0147  0.0159
 4147SOL    HW223901   3.390   4.315   3.556  1.9867 -0.8728  0.1784
 4148SOL     OW23902   0.160   2.988   4.205 -0.3309  0.1988 -0.8432
 4148SOL    HW123903   0.165   3.040   4.285 -0.9536 -1.3539  0.1922
 4148SOL    HW223904   0.218   3.044   4.152 -2.3931  1.9968 -1.2167
 4149SOL     OW23905   3.309   2.527   9.769 -0.0687  0.3273 -0.7260
 4149SOL    HW123906   3.301   2.623   9.769 -2.6041  0.1150 -2.0686
 4149SOL    HW223907   3.401   2.521   9.795 -0.5901  0.8517  1.2107
 4150SOL     OW23908   0.440   3.865  14.940 -0.5028 -0.3405  0.4130
 4150SOL    HW123909   0.531   3.834  14.943 -0.5864 -0.5999  0.3081
 4150SOL    HW223910   0.449   3.938  14.880 -1.0392  0.0703  0.8403
 4151SOL     OW23911   1.061   4.474   3.015 -0.0995 -0.0880 -0.2450
 4151SOL    HW123912   1.147   4.486   2.975  0.3198  1.9314  1.2886
 4151SOL    HW223913   1.007   4.500   2.940 -2.3666  0.4551  1.5824
 4152SOL     OW23914   4.259   3.731   9.306 -0.3061  0.2519  0.3384
 4152SOL    HW123915   4.300   3.814   9.285 -0.7388  0.4362  0.2149
 4152SOL    HW223916   4.317   3.677   9.252  0.0429  1.4036 -0.4384
 4153SOL     OW23917   0.539   3.719   3.100 -0.2444 -0.1371  0.1112
 4153SOL    HW123918   0.527   3.654   3.031 -0.4702  2.9344 -2.7680
 4153SOL    HW223919   0.498   3.800   3.068  1.1094  0.3136 -0.4725
 4154SOL     OW23920   3.879   0.370   8.942  0.1351 -0.3079  0.0889
 4154SOL    HW123921   3.948   0.376   8.876 -0.6181  0.1276 -0.6643
 4154SOL    HW223922   3.926   0.300   8.986 -2.2179 -2.0666 -0.1842
 4155SOL     OW23923   1.770   2.488  17.445 -0.7230  0.5093 -0.3956
 4155SOL    HW123924   1.849   2.538  17.467 -0.8807  0.7106 -0.2872
 4155SOL    HW223925   1.806   2.400  17.432 -0.2716  0.5631  0.5269
 4156SOL     OW23926   3.625   0.554   7.830  0.1462 -0.3926  0.4350
 4156SOL    HW123927   3.693   0.568   7.896  0.1267 -3.1041  1.0155
 4156SOL    HW223928   3.610   0.464   7.859 -1.5095 -0.2091  0.1577
 4157SOL     OW23929   0.287   0.480   0.873 -0.2609  0.2193  0.1843
 4157SOL    HW123930   0.341   0.475   0.952 -0.5793 -2.8998  0.1900
 4157SOL    HW223931   0.251   0.568   0.859 -1.8716 -0.3041  1.0567
 4158SOL     OW23932   0.530   3.071   6.857  0.2375  0.1536 -0.0040
 4158SOL    HW123933   0.517   2.988   6.811  1.3741  1.6553 -3.0712
 4158SOL    HW223934   0.458   3.067   6.920 -0.0387 -0.2802 -0.3459
 4159SOL     OW23935   0.603   1.286   8.745 -0.3090 -0.0836  0.4190
 4159SOL    HW123936   0.675   1.263   8.687 -2.3534 -0.4111 -1.9754
 4159SOL    HW223937   0.594   1.381   8.741 -1.8910 -0.2645 -0.2017
 4160SOL     OW23938   1.521   3.347  13.871  0.0652  0.1846 -0.6518
 4160SOL    HW123939   1.447   3.395  13.909  1.6946  2.7408 -0.6608
 4160SOL    HW223940   1.483   3.308  13.793  2.1682 -1.4757 -0.8606
 4161SOL     OW23941   3.094   4.016   1.197  0.6278  0.1945 -0.6444
 4161SOL    HW123942   3.154   4.089   1.212 -1.4635  1.7078  0.3763
 4161SOL    HW223943   3.056   4.012   1.285  1.9304 -3.7928 -0.2608
 4162SOL     OW23944   1.022   4.548   6.646 -0.4591  0.0873 -0.0926
 4162SOL    HW123945   0.999   4.633   6.608 -0.1854  1.0983  1.9811
 4162SOL    HW223946   1.084   4.518   6.580 -0.2460  1.3467 -0.4743
 4163SOL     OW23947   1.521   3.603  10.896 -0.1002 -0.0528 -0.2403
 4163SOL    HW123948   1.509   3.696  10.915 -0.9924 -0.5109  1.3908
 4163SOL    HW223949   1.588   3.572  10.957 -0.0564  1.4740  0.4734
 4164SOL     OW23950   4.110   0.657  15.022 -0.3408  0.1856  0.1616
 4164SOL    HW123951   4.098   0.571  14.982  1.0912  0.4980 -0.9152
 4164SOL    HW223952   4.133   0.704  14.942  1.5389  0.3234  0.7920
 4165SOL     OW23953   0.798   1.346  13.971 -0.1657 -0.2479 -0.6112
 4165SOL    HW123954   0.723   1.290  13.949  0.0004 -1.0128  0.7323
 4165SOL    HW223955   0.867   1.297  13.927  0.1466 -0.1491 -0.2224
 4166SOL     OW23956   4.545   3.112   5.271  0.2444  0.1317  0.0070
 4166SOL    HW123957   4.544   3.173   5.344 -1.6647 -2.7470  2.4169
 4166SOL    HW223958   4.459   3.070   5.278  0.9564 -1.5072 -1.1440
 4167SOL     OW23959   0.974   2.610  11.121 -0.4516  0.4075 -0.3328
 4167SOL    HW123960   1.061   2.626  11.084 -1.7896  2.2820 -2.6055
 4167SOL    HW223961   0.971   2.663  11.201  3.7630 -1.1911  0.9369
 4168SOL     OW23962   4.244   2.156   6.623 -0.3861  0.3005  0.6278
 4168SOL    HW123963   4.192   2.187   6.697 -1.6880  0.3211 -0.2983
 4168SOL    HW223964   4.326   2.204   6.635 -0.1931 -0.0623  0.7368
 4169SOL     OW23965   2.088   3.218   7.893  0.2173 -0.3895 -0.1269
 4169SOL    HW123966   2.168   3.270   7.904  0.3033 -0.5086 -0.1881
 4169SOL    HW223967   2.133   3.137   7.870 -0.6483 -1.0396  0.4680
 4170SOL     OW23968   0.539   2.523   5.382 -0.2184 -0.2850 -0.0252
 4170SOL    HW123969   0.508   2.490   5.467  0.2693 -0.0578  0.2458
 4170SOL    HW223970   0.623   2.567   5.396  0.2405 -1.2822  0.3929
 4171SOL     OW23971   1.156   2.710   5.526  0.0159 -0.1184  0.2227
 4171SOL    HW123972   1.250   2.692   5.523  0.2081  0.9500 -0.2529
 4171SOL    HW223973   1.156   2.795   5.482  0.6749 -0.1311  0.2035
 4172SOL     OW23974   0.804   3.943   7.787  0.3551  0.3383  0.1999
 4172SOL    HW123975   0.778   4.022   7.740 -0.6285  0.7547  1.4530
 4172SOL    HW223976   0.730   3.954   7.847 -0.2828 -2.2682 -0.0674
 4173SOL     OW23977   1.796   1.411   0.733  0.2863  0.1744 -0.3056
 4173SOL    HW123978   1.834   1.498   0.747  2.7214 -0.7432 -1.2900
 4173SOL    HW223979   1.752   1.413   0.648  1.8319  0.3422 -1.0988
 4174SOL     OW23980   1.160   0.593   5.529  0.3012 -0.0114 -0.1011
 4174SOL    HW123981   1.173   0.503   5.500  0.6657  0.2647 -0.7961
 4174SOL    HW223982   1.249   0.626   5.536 -0.0217  1.4262 -2.5784
 4175SOL     OW23983   0.135   3.602  12.820 -0.1516  0.1034 -0.4948
 4175SOL    HW123984   0.190   3.637  12.890  0.3693 -2.4948  0.4005
 4175SOL    HW223985   0.120   3.513  12.850 -0.6228  0.6118  0.7527
 4176SOL     OW23986   3.231   0.783   4.778 -0.2984 -0.1074 -0.0350
 4176SOL    HW123987   3.228   0.861   4.722 -1.0052 -1.3484 -1.7386
 4176SOL    HW223988   3.322   0.781   4.805 -1.0888 -0.0241  2.6695
 4177SOL     OW23989   0.383   3.488   3.640 -0.2515 -0.8802 -0.4481
 4177SOL    HW123990   0.349   3.557   3.583  0.1770  0.6855  1.1752
 4177SOL    HW223991   0.476   3.481   3.617  0.0416 -1.4743  0.9072
 4178SOL     OW23992   3.241   0.893   7.908 -0.4397 -0.4652 -0.8008
 4178SOL    HW123993   3.209   0.907   7.997  0.9595 -0.1765 -0.3528
 4178SOL    HW223994   3.304   0.823   7.921 -3.2012 -2.8190 -0.0804
 4179SOL     OW23995   0.745   2.231   1.831 -0.3362 -0.2876  0.9187
 4179SOL    HW123996   0.693   2.239   1.751  1.9711 -0.3854 -0.6138
 4179SOL    HW223997   0.830   2.229   1.786  0.5032 -3.8109  2.7096
 4180SOL     OW23998   0.191   0.019   7.508 -0.2198 -0.2470 -0.2097
 4180SOL    HW123999   0.263   0.010   7.446 -1.9116 -2.8078 -1.8146
 4180SOL    HW224000   0.215   0.099   7.555 -0.3485 -0.3735  0.0738
 4181SOL     OW24001   3.222   0.827  10.302 -0.9352 -0.3314  0.2206
 4181SOL    HW124002   3.285   0.758  10.282  0.6924  0.9730  0.8913
 4181SOL    HW224003   3.176   0.791  10.378 -2.1041  1.8355  0.5335
 4182SOL     OW24004   3.037   0.259   4.174 -0.0767 -0.0329  0.3029
 4182SOL    HW124005   2.991   0.278   4.093  0.1526  0.0255  0.1867
 4182SOL    HW224006   3.119   0.305   4.155  0.3704 -1.4233 -1.0615
 4183SOL     OW24007   0.445   3.799   7.974  0.1219  0.3326  0.9561
 4183SOL    HW124008   0.502   3.875   7.986  2.3114 -1.0719 -0.5160
 4183SOL    HW224009   0.502   3.723   7.990 -1.1946 -1.0127 -0.8068
 4184SOL     OW24010   2.998   1.559   6.556 -0.0942 -0.2207  0.4045
 4184SOL    HW124011   3.086   1.591   6.577 -0.0165  0.3723 -0.8166
 4184SOL    HW224012   2.945   1.631   6.588  0.6794 -0.0247  1.2325
 4185SOL     OW24013   4.083   0.028   5.449 -0.2811 -0.2065  0.2302
 4185SOL    HW124014   4.057   0.085   5.521 -0.6169  1.9780 -1.6232
 4185SOL    HW224015   4.086   0.093   5.379  0.0402  1.8440  2.1393
 4186SOL     OW24016   3.069   1.498   2.352 -0.0772  0.4042 -1.1139
 4186SOL    HW124017   2.997   1.490   2.290 -0.0778 -0.1075 -1.0500
 4186SOL    HW224018   3.087   1.590   2.334 -0.8285  0.8690  0.4942
 4187SOL     OW24019   0.084   1.779   2.360 -0.0974  0.0682  0.4615
 4187SOL    HW124020   0.121   1.802   2.274 -2.9771  2.5206 -0.1005
 4187SOL    HW224021   0.002   1.743   2.326 -0.1636  2.0330 -1.4266
 4188SOL     OW24022   2.827   2.257  13.548  0.1388 -0.1200 -0.3588
 4188SOL    HW124023   2.835   2.317  13.474  0.4865  1.2128  0.7613
 4188SOL    HW224024   2.765   2.309  13.599  1.5833  1.7106 -0.4659
 4189SOL     OW24025   4.089   2.807   7.693  0.1999  0.0818  0.0112
 4189SOL    HW124026   4.155   2.845   7.634 -0.6308  2.3037  0.5186
 4189SOL    HW224027   4.011   2.802   7.637 -0.2536 -1.1410  0.7434
 4190SOL     OW24028   1.630   2.774   5.906 -0.3691  0.1971  0.8422
 4190SOL    HW124029   1.627   2.826   5.986  0.4424  2.3266 -0.5062
 4190SOL    HW224030   1.724   2.759   5.905 -0.4629 -0.4464  1.6714
 4191SOL     OW24031   3.811   0.773   4.472  0.1411  0.2524 -0.5808
 4191SOL    HW124032   3.783   0.688   4.438  3.2548 -0.5990 -1.1155
 4191SOL    HW224033   3.779   0.831   4.403 -1.4515  1.1204  0.9027
 4192SOL     OW24034   0.408   1.442   4.746  0.1047 -0.5796  0.4988
 4192SOL    HW124035   0.372   1.389   4.817 -0.6383  0.3696  0.8292
 4192SOL    HW224036   0.503   1.440   4.752  0.0336 -3.2571  0.5343
 4193SOL     OW24037   2.154   1.641  16.604  0.0748  0.1136 -0.1672
 4193SOL    HW124038   2.243   1.628  16.571  0.5165  0.3153  0.9174
 4193SOL    HW224039   2.109   1.686  16.533 -1.6830  0.8146  1.3811
 4194SOL     OW24040   2.043   4.069  13.222  0.5642  0.1874 -0.0827
 4194SOL    HW124041   1.999   4.123  13.157 -1.2355 -0.2379  0.7719
 4194SOL    HW224042   2.031   3.981  13.185  2.9536  0.2902 -1.1150
 4195SOL     OW24043   2.687   4.181   8.672 -0.6099  0.1472 -0.0484
 4195SOL    HW124044   2.680   4.222   8.759  0.5525  0.9615 -0.3359
 4195SOL    HW224045   2.630   4.105   8.666 -0.3873  0.0008 -0.2838
 4196SOL     OW24046   1.367   3.706  14.466  0.2075 -0.2724  0.1710
 4196SOL    HW124047   1.426   3.751  14.405 -0.0398  1.4236  1.1816
 4196SOL    HW224048   1.297   3.769  14.484  1.0844  0.5257  0.7739
 4197SOL     OW24049   4.013   1.962  15.918  0.6015 -0.3745  0.0777
 4197SOL    HW124050   4.075   2.035  15.923  1.0265 -0.6154 -1.6788
 4197SOL    HW224051   3.983   1.969  15.827  1.2045  0.8293 -0.0242
 4198SOL     OW24052   0.553   0.539   3.790 -0.2252 -0.8791  0.1720
 4198SOL    HW124053   0.503   0.609   3.831  1.6164 -0.7205  2.1606
 4198SOL    HW224054   0.512   0.546   3.704  2.1403 -0.6438 -0.9211
 4199SOL     OW24055   1.194   0.966   8.048  0.4900  0.2106  0.0951
 4199SOL    HW124056   1.104   0.971   8.016  0.2119 -1.0956  0.6543
 4199SOL    HW224057   1.241   0.911   7.986 -2.6724 -2.9505  0.4497
 4200SOL     OW24058   2.424   2.649   1.496  0.4655  0.6049  0.6547
 4200SOL    HW124059   2.408   2.576   1.556  2.1527 -1.1936 -1.0832
 4200SOL    HW224060   2.497   2.696   1.537 -1.0332  2.6951  0.9855
 4201SOL     OW24061   1.268   2.403   6.559  0.2545  0.2254  0.2279
 4201SOL    HW124062   1.246   2.460   6.485 -2.0692 -1.0166 -0.0586
 4201SOL    HW224063   1.285   2.474   6.621  0.2217 -0.7468  1.3452
 4202SOL     OW24064   4.333   2.488   4.559  0.1512 -0.7134 -0.1829
 4202SOL    HW124065   4.291   2.430   4.623 -0.5918 -0.3541 -0.3404
 4202SOL    HW224066   4.381   2.421   4.509 -0.8274 -0.3396 -1.6293
 4203SOL     OW24067   3.399   1.141   2.804  0.0058  0.5442 -0.0264
 4203SOL    HW124068   3.399   1.235   2.824  0.4925  1.0094 -2.1814
 4203SOL    HW224069   3.445   1.137   2.720 -2.6788 -1.5507 -1.4086
 4204SOL     OW24070   3.562   2.283  11.702 -0.2880  0.6831 -0.1610
 4204SOL    HW124071   3.473   2.313  11.684  0.3303  0.5871 -3.3090
 4204SOL    HW224072   3.548   2.188  11.706  1.3964  0.4294 -0.0600
 4205SOL     OW24073   0.808   1.524  11.472 -0.0579  0.0501 -0.1522
 4205SOL    HW124074   0.872   1.457  11.447 -1.8145 -1.1532 -1.3837
 4205SOL    HW224075   0.778   1.550  11.385 -0.1261  2.0367  0.4538
 4206SOL     OW24076   0.497   3.045  14.705  0.3405  0.5800  0.1300
 4206SOL    HW124077   0.513   2.992  14.626  1.6876 -2.8089  2.6708
 4206SOL    HW224078   0.591   3.063  14.704  0.1916  1.2813 -1.7134
 4207SOL     OW24079   2.671   1.315   4.358  0.3624 -0.1091  0.2979
 4207SOL    HW124080   2.579   1.325   4.335  0.8022  2.4977 -0.3822
 4207SOL    HW224081   2.674   1.232   4.405 -2.2047  0.6888  1.8969
 4208SOL     OW24082   2.214   0.369  16.691  0.5684  0.0989 -0.0187
 4208SOL    HW124083   2.284   0.332  16.745 -0.1862 -1.9797 -0.4533
 4208SOL    HW224084   2.200   0.302  16.625 -0.7928  0.0705  0.2838
 4209SOL     OW24085   4.264   3.937  16.438 -0.4376  0.0683 -0.3109
 4209SOL    HW124086   4.247   3.892  16.356 -1.3970 -1.3840  0.6901
 4209SOL    HW224087   4.283   4.028  16.414 -1.0262  1.0999  3.0408
 4210SOL     OW24088   2.956   4.524   2.437  0.2187 -0.2105  0.0910
 4210SOL    HW124089   3.030   4.494   2.385 -0.1074  0.0381 -0.5141
 4210SOL    HW224090   2.888   4.490   2.379 -0.0618 -1.2156  1.0013
 4211SOL     OW24091   4.528   1.496  11.855 -0.0485  0.2254  0.0926
 4211SOL    HW124092   4.528   1.465  11.946  0.6335  0.2545  0.1014
 4211SOL    HW224093   4.607   1.449  11.829  1.2466  1.4481  1.8060
 4212SOL     OW24094   3.972   1.021   1.466  0.6052  0.1887 -0.2949
 4212SOL    HW124095   3.948   1.101   1.513 -0.4753 -0.3981  0.1521
 4212SOL    HW224096   4.028   0.977   1.531 -1.7384 -1.3108  0.6883
 4213SOL     OW24097   4.172   1.303   3.305 -0.8188 -0.3129 -0.0792
 4213SOL    HW124098   4.118   1.225   3.290 -2.1640  0.5992  0.0238
 4213SOL    HW224099   4.169   1.313   3.400 -0.2680  1.0579 -0.2114
 4214SOL     OW24100   2.291   3.293  11.891 -0.6418  0.1976  0.2264
 4214SOL    HW124101   2.350   3.303  11.816 -0.2655 -0.8119  0.3906
 4214SOL    HW224102   2.208   3.270  11.849 -0.6619  0.7385 -0.0316
 4215SOL     OW24103   1.342   3.870   0.775  0.3072  0.0281  0.2605
 4215SOL    HW124104   1.363   3.898   0.864  0.4304  0.1687  0.1872
 4215SOL    HW224105   1.250   3.849   0.793 -0.1053  2.4281  1.0072
 4216SOL     OW24106   2.202   0.574   3.706  0.4385  0.5251 -0.0027
 4216SOL    HW124107   2.271   0.518   3.673  0.3635 -0.1155  0.9159
 4216SOL    HW224108   2.240   0.661   3.694  0.3754  0.2866 -1.8531
 4217SOL     OW24109   2.979   1.658   7.256  0.2462 -0.2548  0.2720
 4217SOL    HW124110   2.988   1.571   7.216  0.2098 -0.1979  0.1413
 4217SOL    HW224111   3.061   1.699   7.229 -1.1125  1.8699 -0.5657
 4218SOL     OW24112   4.507   4.383  11.280  0.4980  0.1167 -0.4955
 4218SOL    HW124113   4.504   4.311  11.343 -0.5352  2.0030  1.5698
 4218SOL    HW224114   4.489   4.328  11.203  0.8054  3.2675 -2.8120
 4219SOL     OW24115   0.224   3.563   5.805  0.3421 -0.0738 -0.9307
 4219SOL    HW124116   0.276   3.635   5.768  0.4875  0.0975 -0.3866
 4219SOL    HW224117   0.164   3.556   5.731  0.3668  0.9847 -1.0513
 4220SOL     OW24118   3.866   2.547   9.254 -0.1472 -0.5030 -0.3794
 4220SOL    HW124119   3.828   2.468   9.218  0.4777 -0.3419 -1.3872
 4220SOL    HW224120   3.828   2.616   9.200 -0.4270  0.9549  1.6712
 4221SOL     OW24121   3.466   2.018   2.450  0.0004  0.8108  0.5715
 4221SOL    HW124122   3.474   1.929   2.483  1.0227  0.2209 -1.2249
 4221SOL    HW224123   3.561   2.034   2.450 -0.0585  1.2124 -0.2908
 4222SOL     OW24124   3.730   4.283   0.634 -0.3408  0.8473  0.4896
 4222SOL    HW124125   3.708   4.372   0.662 -0.1561  1.6399 -1.8921
 4222SOL    HW224126   3.668   4.236   0.690 -2.0097 -1.0980 -2.9647
 4223SOL     OW24127   1.828   0.296   8.870 -0.1994 -0.6380 -0.0594
 4223SOL    HW124128   1.752   0.266   8.821 -1.2150 -1.2226  1.8915
 4223SOL    HW224129   1.794   0.347   8.944  0.8368 -2.8256  1.9446
 4224SOL     OW24130   0.663   3.197   0.923  0.1919  0.0627 -0.3311
 4224SOL    HW124131   0.575   3.162   0.937 -0.9993  3.5938  1.0197
 4224SOL    HW224132   0.652   3.243   0.840  0.3926  2.1882  0.8266
 4225SOL     OW24133   2.703   1.027  10.156 -0.2653  0.2691 -0.4049
 4225SOL    HW124134   2.645   0.954  10.134 -0.4061 -0.1575  1.3940
 4225SOL    HW224135   2.751   1.038  10.074  0.7159  1.5537  0.3381
 4226SOL     OW24136   4.665   4.290  11.519 -0.0955  0.5714 -0.6176
 4226SOL    HW124137   4.675   4.197  11.542  4.5622  2.0676  3.3281
 4226SOL    HW224138   4.641   4.325  11.605  0.7046  1.3516 -0.7113
 4227SOL     OW24139   2.196   4.502   8.255 -0.3675 -0.3162  0.3621
 4227SOL    HW124140   2.155   4.560   8.191  0.6469  2.0362  1.8180
 4227SOL    HW224141   2.149   4.526   8.335 -0.3857 -0.0644  0.2778
 4228SOL     OW24142   1.540   1.138  12.631  0.3282  0.4239 -0.0765
 4228SOL    HW124143   1.473   1.086  12.676  0.9320 -1.8003 -1.7270
 4228SOL    HW224144   1.480   1.191  12.580 -1.3075 -1.6699 -0.3459
 4229SOL     OW24145   2.524   0.985  12.746 -0.2957 -0.5525 -0.5488
 4229SOL    HW124146   2.439   1.029  12.744 -0.9179 -1.7483 -0.5013
 4229SOL    HW224147   2.566   1.046  12.807 -1.4068 -0.8399  0.5234
 4230SOL     OW24148   1.619   0.104   7.696  0.1315 -0.2012 -0.3821
 4230SOL    HW124149   1.693   0.098   7.757 -0.2458  3.2752  0.4042
 4230SOL    HW224150   1.637   0.189   7.657 -0.2830  0.2840  0.4721
 4231SOL     OW24151   4.592   0.207   2.696  0.1711  0.2961  0.6185
 4231SOL    HW124152   4.633   0.138   2.644  0.5526  0.4700  0.6830
 4231SOL    HW224153   4.509   0.169   2.722  0.6942 -0.1179  1.7073
 4232SOL     OW24154   1.138   1.163   3.467  0.4105 -0.0494  0.0938
 4232SOL    HW124155   1.161   1.165   3.559 -1.3240  2.4453  0.4554
 4232SOL    HW224156   1.059   1.217   3.459 -0.4403 -1.6259 -2.2762
 4233SOL     OW24157   0.295   0.148  16.679  0.0048  0.4547 -0.1951
 4233SOL    HW124158   0.294   0.243  16.674 -0.2560  0.4148 -0.9357
 4233SOL    HW224159   0.388   0.136  16.700  0.3247  2.6885 -0.3712
 4234SOL     OW24160   2.092   3.475  10.415 -0.4015 -0.4666 -0.3667
 4234SOL    HW124161   2.061   3.464  10.325  0.4850  0.6117 -0.8057
 4234SOL    HW224162   2.155   3.403  10.417 -0.8556 -0.8985 -1.3664
 4235SOL     OW24163   0.532   0.148  14.242  0.2562  0.2766  0.2521
 4235SOL    HW124164   0.490   0.216  14.295 -1.2498 -0.2137 -0.3049
 4235SOL    HW224165   0.513   0.071  14.295 -0.4420 -0.2232 -0.7087
 4236SOL     OW24166   3.408   3.577  16.568 -0.2164  0.0542  0.3239
 4236SOL    HW124167   3.442   3.539  16.649  1.0592 -0.2146 -0.3400
 4236SOL    HW224168   3.373   3.501  16.522  1.5771 -0.7873  0.3885
 4237SOL     OW24169   2.410   1.058   9.170 -0.6035 -0.5729 -0.5439
 4237SOL    HW124170   2.381   0.974   9.134 -0.6408 -0.4710 -0.7485
 4237SOL    HW224171   2.457   1.096   9.096 -1.0592 -0.0732 -0.5841
 4238SOL     OW24172   2.714   1.540   7.527  0.4235 -0.1078 -0.2853
 4238SOL    HW124173   2.755   1.453   7.530  0.7904  0.0819  0.2286
 4238SOL    HW224174   2.741   1.562   7.437  0.4408 -0.8626 -0.4674
 4239SOL     OW24175   0.145   0.554   3.098 -0.1059  0.5207 -0.1584
 4239SOL    HW124176   0.101   0.538   3.181  1.7970  0.1129  0.7640
 4239SOL    HW224177   0.093   0.506   3.033  2.9341 -0.7668 -1.5931
 4240SOL     OW24178   0.144   3.917   5.842 -0.0570  0.7856  0.2375
 4240SOL    HW124179   0.071   3.960   5.888 -0.1017  0.6019  0.3378
 4240SOL    HW224180   0.108   3.918   5.753  1.0990  0.2832 -0.2358
 4241SOL     OW24181   1.471   1.785  14.986 -0.4397  0.4254  0.4137
 4241SOL    HW124182   1.400   1.741  15.033  1.0830 -1.7183  0.7026
 4241SOL    HW224183   1.537   1.717  15.002 -0.0967  0.1371 -2.1623
 4242SOL     OW24184   0.515   1.608   6.453 -0.0861  0.4054  0.2600
 4242SOL    HW124185   0.459   1.593   6.377  0.6883 -2.8187  0.3099
 4242SOL    HW224186   0.558   1.523   6.469 -1.1493  0.0281  1.1254
 4243SOL     OW24187   4.108   4.627  11.928 -0.1551  0.1476 -0.3016
 4243SOL    HW124188   4.031   4.680  11.951  1.4660  2.5511 -0.3664
 4243SOL    HW224189   4.172   4.655  11.994  0.0630  0.8606 -0.8146
 4244SOL     OW24190   2.460   0.788   9.779 -0.0730  0.5081 -0.9009
 4244SOL    HW124191   2.371   0.791   9.815 -0.0787 -1.6625 -0.7289
 4244SOL    HW224192   2.478   0.694   9.776  1.3340  0.7205  1.3166
 4245SOL     OW24193   1.438   4.554  13.699 -0.4509  0.0335  0.7960
 4245SOL    HW124194   1.355   4.589  13.729  0.1387  1.8188  0.3298
 4245SOL    HW224195   1.412   4.510  13.618  0.0521  3.8372 -1.4401
 4246SOL     OW24196   4.433   2.543   2.262 -0.6273 -0.2232 -0.1654
 4246SOL    HW124197   4.355   2.516   2.214 -1.0695  2.1892 -0.8260
 4246SOL    HW224198   4.490   2.467   2.269 -0.6330 -0.2246 -0.1309
 4247SOL     OW24199   1.409   2.043   1.801  0.5066  0.0798  0.1308
 4247SOL    HW124200   1.499   2.013   1.811  0.5020  0.0499  0.0803
 4247SOL    HW224201   1.380   1.976   1.738  3.4767  0.4799 -1.6552
 4248SOL     OW24202   0.950   4.036   6.103 -0.1637  0.0267  0.4511
 4248SOL    HW124203   0.905   4.063   6.022 -1.8660 -0.7032  1.1586
 4248SOL    HW224204   0.898   3.960   6.129  0.2302 -0.0809  0.8971
 4249SOL     OW24205   2.674   1.783   5.201 -0.0240 -0.0450 -0.3735
 4249SOL    HW124206   2.754   1.826   5.172 -1.4794  3.6888  1.2253
 4249SOL    HW224207   2.606   1.848   5.187 -0.5047 -0.1593  1.3502
 4250SOL     OW24208   4.710   3.169   9.130  0.1435 -0.3141  0.0613
 4250SOL    HW124209   4.638   3.107   9.119  1.0604 -1.8849  2.9461
 4250SOL    HW224210   4.717   3.199   9.039  1.6760  2.2425  1.0288
 4251SOL     OW24211   0.801   4.346   4.881  0.2711 -0.0985  0.0543
 4251SOL    HW124212   0.787   4.251   4.888  1.2014 -0.1057  1.7196
 4251SOL    HW224213   0.775   4.367   4.971  0.9323  0.9022  0.0109
 4252SOL     OW24214   0.576   3.748   2.403  0.0514  0.7885  0.1270
 4252SOL    HW124215   0.584   3.713   2.314 -0.2771  2.3689 -0.5321
 4252SOL    HW224216   0.483   3.770   2.413 -0.3025 -0.7216  0.1734
 4253SOL     OW24217   0.513   2.878  12.971 -0.2650  0.2951 -0.3568
 4253SOL    HW124218   0.543   2.793  13.004  0.4513  0.9388  0.6539
 4253SOL    HW224219   0.545   2.857  12.884  1.9412 -0.1844  0.5720
 4254SOL     OW24220   3.195   1.091   1.756  0.0034 -0.1840  0.4627
 4254SOL    HW124221   3.108   1.101   1.794  0.6656  0.3885  1.8572
 4254SOL    HW224222   3.252   1.139   1.817  0.4313  0.6289 -0.5758
 4255SOL     OW24223   3.258   0.485   7.869  0.2963 -0.2178 -0.1991
 4255SOL    HW124224   3.231   0.432   7.794  0.2841 -0.9673  0.3393
 4255SOL    HW224225   3.287   0.411   7.922  0.3473  0.9178  1.3552
 4256SOL     OW24226   4.147   0.821   5.801 -0.3275 -0.1166 -0.6533
 4256SOL    HW124227   4.172   0.831   5.710 -1.3153  0.9639 -0.7904
 4256SOL    HW224228   4.157   0.912   5.828 -2.2183  0.2781 -1.2716
 4257SOL     OW24229   3.491   4.622  10.887 -0.0868  0.1135 -0.5696
 4257SOL    HW124230   3.536   4.548  10.927  0.1003 -0.9408 -2.7588
 4257SOL    HW224231   3.404   4.604  10.922 -0.3790  0.4365 -1.1246
 4258SOL     OW24232   4.284   1.175   9.598  0.0785 -0.4164  0.0746
 4258SOL    HW124233   4.206   1.202   9.646  0.4982  1.4213 -0.2627
 4258SOL    HW224234   4.345   1.247   9.612  1.3483 -1.1082 -1.9047
 4259SOL     OW24235   0.399   4.171   7.919 -0.0276 -0.9404  0.5557
 4259SOL    HW124236   0.330   4.132   7.865  0.4081 -0.3153 -0.4571
 4259SOL    HW224237   0.358   4.178   8.005 -0.5015  1.4589  0.1161
 4260SOL     OW24238   2.010   1.523  17.215  0.0088  0.6199 -0.0031
 4260SOL    HW124239   2.005   1.478  17.131  0.3559 -1.3065  1.0150
 4260SOL    HW224240   1.989   1.455  17.278  2.1219  0.8870  1.0036
 4261SOL     OW24241   3.185   1.954  14.319  0.0763  0.0275 -0.4444
 4261SOL    HW124242   3.208   2.034  14.272 -2.7167  1.1420  0.0882
 4261SOL    HW224243   3.108   1.931  14.267  0.6488 -1.9355 -0.4161
 4262SOL     OW24244   2.416   2.631   6.247  0.3863  0.6084  0.0173
 4262SOL    HW124245   2.369   2.707   6.214 -0.1845 -0.6632 -2.0938
 4262SOL    HW224246   2.344   2.576   6.277 -0.1566  1.7625  0.7870
 4263SOL     OW24247   4.471   2.312  11.765  0.4167 -0.0204 -0.2436
 4263SOL    HW124248   4.484   2.220  11.790  0.4190  0.2323  0.7041
 4263SOL    HW224249   4.511   2.311  11.679  1.0187 -1.8891  0.0541
 4264SOL     OW24250   0.381   0.587   2.185 -0.2164  0.4058 -0.1303
 4264SOL    HW124251   0.456   0.581   2.126 -0.0496 -0.8916  0.2157
 4264SOL    HW224252   0.304   0.604   2.130 -0.4767 -0.2976  0.0048
 4265SOL     OW24253   0.872   4.200   8.192 -0.1359 -0.4641  0.1944
 4265SOL    HW124254   0.816   4.276   8.181  0.1856  0.0514  2.2016
 4265SOL    HW224255   0.885   4.200   8.286  2.9115 -1.2797 -0.2187
 4266SOL     OW24256   1.902   2.736   7.239 -0.7623 -0.2835 -0.0978
 4266SOL    HW124257   1.835   2.750   7.305 -0.3431  1.0542  0.0480
 4266SOL    HW224258   1.927   2.645   7.256 -1.8078 -0.1736  1.9439
 4267SOL     OW24259   1.543   3.407   2.990  0.4473 -0.1787 -0.0822
 4267SOL    HW124260   1.588   3.328   2.958  1.2752 -0.0672  0.8129
 4267SOL    HW224261   1.569   3.473   2.925 -2.2892 -0.7098 -1.7211
 4268SOL     OW24262   4.625   2.732   4.235  0.0153  0.4111  0.3880
 4268SOL    HW124263   4.686   2.738   4.308  1.0290  0.8514 -0.4912
 4268SOL    HW224264   4.602   2.639   4.235 -0.5479  0.5486 -2.4515
 4269SOL     OW24265   4.515   0.932   2.882  0.4731 -0.0193  0.1476
 4269SOL    HW124266   4.477   0.941   2.794  0.2787 -0.1754  0.2155
 4269SOL    HW224267   4.595   0.882   2.865  1.3652  1.7991 -1.0131
 4270SOL     OW24268   1.715   0.713   9.350 -0.1945  0.5278 -0.4797
 4270SOL    HW124269   1.660   0.640   9.378  0.9257  0.4562  1.5125
 4270SOL    HW224270   1.797   0.663   9.352 -0.4100  0.1910 -0.1254
 4271SOL     OW24271   1.951   4.469   8.638  0.0818  0.0141 -0.0029
 4271SOL    HW124272   1.965   4.376   8.658 -0.0781  0.1968  0.9750
 4271SOL    HW224273   1.909   4.497   8.720  0.9807  0.6992  0.2271
 4272SOL     OW24274   1.062   2.235  11.041 -0.2337  0.3256  0.7462
 4272SOL    HW124275   1.157   2.231  11.040 -0.3295 -1.6313 -0.5016
 4272SOL    HW224276   1.052   2.306  10.976  1.3237 -1.9635 -2.0002
 4273SOL     OW24277   2.661   3.801   3.496  0.5393  0.2727  0.3759
 4273SOL    HW124278   2.620   3.844   3.571  0.6139  1.7314 -0.4203
 4273SOL    HW224279   2.735   3.757   3.538  1.9253  1.3842 -0.8822
 4274SOL     OW24280   2.332   3.090   7.801 -0.5094 -0.0344  0.3371
 4274SOL    HW124281   2.328   2.998   7.829  0.7894 -0.7274 -1.6757
 4274SOL    HW224282   2.417   3.119   7.835 -0.0576 -0.7735 -0.1443
 4275SOL     OW24283   3.638   3.279  13.234 -0.3072  0.0867  0.4158
 4275SOL    HW124284   3.558   3.308  13.190  1.0944  1.5732 -1.1854
 4275SOL    HW224285   3.687   3.230  13.169 -1.2429  0.2987 -0.4496
 4276SOL     OW24286   0.343   4.147   3.494 -0.2975 -0.6756 -0.3215
 4276SOL    HW124287   0.329   4.220   3.433  0.0161 -0.0270  0.3871
 4276SOL    HW224288   0.434   4.123   3.478 -0.2620 -1.9066  1.7368
 4277SOL     OW24289   0.674   1.800   3.522  0.1082  0.2030  0.3229
 4277SOL    HW124290   0.661   1.887   3.559 -1.0167  1.0336 -2.0441
 4277SOL    HW224291   0.697   1.756   3.604 -3.1555  0.7891  1.5376
 4278SOL     OW24292   4.100   2.184   1.693 -0.2537  0.4177  0.0805
 4278SOL    HW124293   4.027   2.238   1.661 -0.7748  0.4343  1.2871
 4278SOL    HW224294   4.134   2.163   1.606  2.6323 -0.2033  1.3759
 4279SOL     OW24295   0.134   1.708   4.966 -0.5693  0.0962  0.1048
 4279SOL    HW124296   0.094   1.794   4.964  1.8712  1.2350  0.1895
 4279SOL    HW224297   0.059   1.651   4.981 -3.1259  3.5428  0.3152
 4280SOL     OW24298   3.964   1.158   0.946  0.0839  0.5730  0.2485
 4280SOL    HW124299   3.993   1.156   1.037 -0.7631  5.0926  0.6476
 4280SOL    HW224300   3.870   1.169   0.956 -0.0989 -1.8819  1.0413
 4281SOL     OW24301   4.006   0.352   1.952 -0.2070  0.1652 -0.0548
 4281SOL    HW124302   3.961   0.437   1.956 -1.4091 -0.4339 -1.0098
 4281SOL    HW224303   3.954   0.313   1.882  0.2797 -0.0713 -0.2884
 4282SOL     OW24304   4.317   1.090   8.558  0.0024 -0.2541 -0.1449
 4282SOL    HW124305   4.292   1.020   8.618  0.1101  0.0906  0.3056
 4282SOL    HW224306   4.314   1.043   8.475 -2.0944 -1.6070  0.7079
 4283SOL     OW24307   4.144   2.165   9.701 -0.0168 -0.2727 -0.0879
 4283SOL    HW124308   4.061   2.195   9.739  2.3608  1.8285  3.3886
 4283SOL    HW224309   4.201   2.216   9.758  1.8209 -0.4684 -1.7621
 4284SOL     OW24310   0.041   2.761   1.800  0.5598  0.0713 -0.2196
 4284SOL    HW124311   4.684   2.793   1.842 -0.0347 -0.6549 -0.7887
 4284SOL    HW224312   0.038   2.811   1.719 -1.1867 -0.3083 -0.3993
 4285SOL     OW24313   1.941   1.622   8.086  0.7687  0.3038  0.9118
 4285SOL    HW124314   1.989   1.548   8.123  0.9624 -1.1034 -2.1609
 4285SOL    HW224315   1.862   1.578   8.055  0.1696  0.9186  1.5893
 4286SOL     OW24316   3.183   3.485   3.210 -0.3437 -0.3206 -0.2172
 4286SOL    HW124317   3.089   3.472   3.197  0.1439 -2.2542 -1.7878
 4286SOL    HW224318   3.175   3.580   3.204  1.0219 -0.1550  0.6625
 4287SOL     OW24319   0.030   2.170   3.138  0.5966  0.0538  0.5733
 4287SOL    HW124320   0.035   2.084   3.178 -1.1796  0.4475  1.6151
 4287SOL    HW224321   0.119   2.182   3.104  0.2997 -0.4285 -0.3871
 4288SOL     OW24322   1.323   3.174  12.357  0.1574  0.1599  0.0453
 4288SOL    HW124323   1.396   3.121  12.326  0.9028  0.8854  0.5273
 4288SOL    HW224324   1.287   3.209  12.276  1.2656  0.1825 -0.4388
 4289SOL     OW24325   4.605   0.120  11.211 -0.2759 -0.1530  0.3070
 4289SOL    HW124326   4.517   0.112  11.248 -0.9625  0.5949 -1.1662
 4289SOL    HW224327   4.629   0.029  11.233  0.6365  0.9369  3.8584
 4290SOL     OW24328   2.423   1.303   0.152 -0.5468 -0.3604  0.5800
 4290SOL    HW124329   2.362   1.229   0.165 -1.2502 -0.0056 -0.7257
 4290SOL    HW224330   2.410   1.348   0.235 -0.8399 -2.3523  1.6301
 4291SOL     OW24331   3.219   1.509   6.943  0.3284  0.6060  0.3741
 4291SOL    HW124332   3.137   1.464   6.925  0.8940 -0.5817  0.7025
 4291SOL    HW224333   3.277   1.434   6.961  0.1181  0.6559  1.2399
 4292SOL     OW24334   1.379   3.076  15.621 -0.3999 -0.4217 -0.6926
 4292SOL    HW124335   1.303   3.131  15.600 -0.1805  0.0429 -0.2847
 4292SOL    HW224336   1.430   3.082  15.540  0.9988  1.2774  0.3013
 4293SOL     OW24337   0.219   3.876   8.698  0.2981 -0.4457 -0.2130
 4293SOL    HW124338   0.188   3.933   8.626  0.6403  0.6486  0.5055
 4293SOL    HW224339   0.177   3.797   8.663  0.9123 -0.8917  0.0579
 4294SOL     OW24340   0.251   0.925   9.746  0.3945 -0.0578 -0.1994
 4294SOL    HW124341   0.217   1.001   9.700 -1.0994 -0.3136  0.4764
 4294SOL    HW224342   0.295   0.967   9.819  1.4065 -1.7131  0.1453
 4295SOL     OW24343   1.461   4.256   9.088 -0.1868  0.3466 -0.8639
 4295SOL    HW124344   1.408   4.271   9.166  1.0652 -2.1052  0.4836
 4295SOL    HW224345   1.508   4.176   9.111 -1.9334  0.2733  2.5264
 4296SOL     OW24346   3.949   3.778  11.611  0.0064  0.0674 -0.0161
 4296SOL    HW124347   3.860   3.744  11.608 -0.0808  0.2495  0.4860
 4296SOL    HW224348   3.959   3.763  11.517 -1.7795  1.3605 -0.4029
 4297SOL     OW24349   4.178   0.410  11.134 -0.5880  0.3811 -0.2526
 4297SOL    HW124350   4.175   0.359  11.215  0.0823  0.0397 -0.4400
 4297SOL    HW224351   4.269   0.436  11.121 -0.7565  0.7435 -0.7056
 4298SOL     OW24352   1.077   4.287   6.048  0.1215 -0.2763  0.2319
 4298SOL    HW124353   1.056   4.194   6.039 -1.8796  0.0781  1.3667
 4298SOL    HW224354   1.070   4.290   6.143  2.1522  0.4621  0.3751
 4299SOL     OW24355   2.363   1.823   2.206  0.5978  0.5529 -0.3844
 4299SOL    HW124356   2.316   1.830   2.123  1.1720 -2.6382 -1.0030
 4299SOL    HW224357   2.383   1.731   2.190 -1.9815  0.0851 -0.8741
 4300SOL     OW24358   3.336   2.616  14.425 -0.1944  0.3526 -0.9499
 4300SOL    HW124359   3.313   2.554  14.494  1.4245 -1.3280 -1.9231
 4300SOL    HW224360   3.427   2.589  14.420  0.0463  0.9632  0.3619
 4301SOL     OW24361   2.700   0.864   1.949 -0.7083  0.1467  0.6457
 4301SOL    HW124362   2.784   0.818   1.959  0.7458  2.7550  0.5269
 4301SOL    HW224363   2.676   0.864   1.857 -2.6404 -0.9168  1.1525
 4302SOL     OW24364   4.375   1.149   8.223  0.3481 -0.3983  0.0047
 4302SOL    HW124365   4.344   1.063   8.250 -1.6861 -0.6726 -3.2392
 4302SOL    HW224366   4.301   1.179   8.171  1.2864  0.7888 -0.6455
 4303SOL     OW24367   1.071   0.335  16.299  0.0213 -0.2029 -0.0846
 4303SOL    HW124368   1.057   0.342  16.205 -0.1259 -1.7666 -0.1857
 4303SOL    HW224369   1.166   0.320  16.307  0.2975  0.0999 -2.7910
 4304SOL     OW24370   2.357   3.264   6.533 -0.5493  0.3248 -0.1377
 4304SOL    HW124371   2.292   3.255   6.464  0.0891 -3.2629 -0.2908
 4304SOL    HW224372   2.312   3.310   6.604  1.9567  1.3876  0.7640
 4305SOL     OW24373   0.683   3.986  11.684 -0.4045 -0.2135 -0.3492
 4305SOL    HW124374   0.619   3.922  11.651  0.9086 -0.9313 -1.5530
 4305SOL    HW224375   0.763   3.968  11.633  1.3115  0.3813  2.1455
 4306SOL     OW24376   2.127   2.885   0.666  0.4673  0.0489 -0.1961
 4306SOL    HW124377   2.208   2.838   0.687 -0.5524 -0.9359  1.4503
 4306SOL    HW224378   2.151   2.932   0.586 -0.4279  0.0150 -0.4788
 4307SOL     OW24379   4.102   4.316  11.480  0.2921 -0.1020 -0.5458
 4307SOL    HW124380   4.106   4.411  11.492  0.0148  0.0396 -1.5609
 4307SOL    HW224381   4.077   4.306  11.388 -1.0595  0.0168 -0.1874
 4308SOL     OW24382   4.451   2.011   3.838  0.2401 -0.0888  0.4679
 4308SOL    HW124383   4.392   2.084   3.819 -0.3316 -0.2604  1.5781
 4308SOL    HW224384   4.475   1.991   3.748  1.3868 -0.5314  0.8727
 4309SOL     OW24385   1.622   3.161   7.240 -0.7446  0.3284  0.5358
 4309SOL    HW124386   1.694   3.192   7.295  0.3204 -0.1077 -0.5985
 4309SOL    HW224387   1.586   3.091   7.294 -0.6150 -0.0177  0.1748
 4310SOL     OW24388   2.849   2.035   6.671 -0.1180 -0.3579 -0.3196
 4310SOL    HW124389   2.871   2.097   6.741  0.1141 -1.0047  0.1804
 4310SOL    HW224390   2.758   2.054   6.648  0.4056  1.0942 -1.1816
 4311SOL     OW24391   0.053   3.378   9.267  0.2177 -0.5683 -0.2449
 4311SOL    HW124392   4.709   3.374   9.336  0.1896  1.5143 -0.1521
 4311SOL    HW224393   0.024   3.301   9.219 -2.1596  0.9314 -1.2302
 4312SOL     OW24394   2.755   2.012   8.460 -0.2350  0.2691  0.0377
 4312SOL    HW124395   2.711   2.072   8.399 -0.9244  1.5150  1.7745
 4312SOL    HW224396   2.691   2.024   8.531 -1.0454 -0.7460 -0.5082
 4313SOL     OW24397   0.106   3.606   6.285 -0.2671 -0.2700 -0.4432
 4313SOL    HW124398   0.069   3.522   6.311  1.3502 -0.2201  2.0876
 4313SOL    HW224399   0.071   3.658   6.358  0.5055  0.1954 -0.4036
 4314SOL     OW24400   4.400   4.511   6.975  0.3008 -0.7437 -0.3713
 4314SOL    HW124401   4.389   4.422   7.010 -1.2806  0.3446  1.8674
 4314SOL    HW224402   4.323   4.547   7.017 -0.4719 -1.2052 -1.3764
 4315SOL     OW24403   0.216   2.254   7.799  0.0652  0.5151 -0.0208
 4315SOL    HW124404   0.186   2.323   7.857  1.8916  0.3676  1.0938
 4315SOL    HW224405   0.294   2.293   7.759  0.7577 -0.7301  0.1054
 4316SOL     OW24406   4.542   2.565   1.199  0.3420  0.2773 -0.1566
 4316SOL    HW124407   4.546   2.620   1.278  1.0959 -0.8045  0.5634
 4316SOL    HW224408   4.479   2.608   1.141 -0.8165  1.0883  1.6780
 4317SOL     OW24409   1.028   1.344  10.649 -0.7101 -0.0349 -0.1543
 4317SOL    HW124410   1.066   1.422  10.608 -0.9266  0.3639  0.3856
 4317SOL    HW224411   1.086   1.337  10.725 -2.8254  0.5138  1.5428
 4318SOL     OW24412   0.413   2.450   9.622  0.0085 -0.2165  0.0721
 4318SOL    HW124413   0.480   2.389   9.594 -0.4321 -0.6553 -0.0198
 4318SOL    HW224414   0.331   2.410   9.592 -0.3247  0.9359 -0.5760
 4319SOL     OW24415   1.014   1.646  15.764 -0.2607 -0.4362 -0.1584
 4319SOL    HW124416   1.055   1.561  15.780 -1.0387 -0.6098  0.9585
 4319SOL    HW224417   0.931   1.620  15.725  0.0956  1.1798 -1.9575
 4320SOL     OW24418   3.688   0.609   5.858 -0.1042 -0.3807 -0.1713
 4320SOL    HW124419   3.614   0.637   5.803 -0.9484 -0.5893  0.8614
 4320SOL    HW224420   3.728   0.529   5.823 -2.7725 -0.8344 -2.2053
 4321SOL     OW24421   0.065   1.025   4.792 -0.4088 -0.1889 -0.1982
 4321SOL    HW124422   0.011   0.946   4.782 -0.5968 -0.1817  0.8211
 4321SOL    HW224423   0.149   0.989   4.764 -0.4240 -1.7174  1.7457
 4322SOL     OW24424   2.873   2.821   8.419  0.0515 -0.3556  0.0785
 4322SOL    HW124425   2.828   2.865   8.491 -0.4718  0.2560 -0.6318
 4322SOL    HW224426   2.804   2.760   8.396 -0.4959  0.8067 -1.4064
 4323SOL     OW24427   3.979   4.361   2.068 -0.7893  0.1664 -0.0492
 4323SOL    HW124428   3.992   4.307   1.990 -0.3212 -1.0002  0.8360
 4323SOL    HW224429   4.067   4.400   2.068  0.3051 -2.3533  2.8193
 4324SOL     OW24430   0.916   2.324   4.321  0.2713  0.1989 -0.0859
 4324SOL    HW124431   0.854   2.396   4.336 -0.2339 -0.1684 -0.4487
 4324SOL    HW224432   0.862   2.246   4.330  0.2830 -0.0405 -2.1876
 4325SOL     OW24433   2.422   4.075   7.608 -0.0937 -0.3875 -0.1473
 4325SOL    HW124434   2.432   4.064   7.702 -1.1558  1.3160  0.1655
 4325SOL    HW224435   2.337   4.116   7.597  1.0202  1.7406 -0.8508
 4326SOL     OW24436   4.400   2.688   7.978  0.1312  0.0591 -0.2202
 4326SOL    HW124437   4.364   2.773   7.952  3.3987  1.7883  0.8996
 4326SOL    HW224438   4.323   2.635   7.959 -0.4390  1.3994 -1.6623
 4327SOL     OW24439   4.499   1.512   6.784  0.1128  0.4313 -0.4430
 4327SOL    HW124440   4.567   1.570   6.751  1.4355 -0.1183  1.3105
 4327SOL    HW224441   4.530   1.425   6.759  0.0221  0.2321  0.1451
 4328SOL     OW24442   2.468   4.628   7.217 -0.2354  0.0812  0.8430
 4328SOL    HW124443   2.440   4.707   7.264 -1.7145  0.1812 -0.2113
 4328SOL    HW224444   2.386   4.612   7.171  0.5165 -2.4577  0.4058
 4329SOL     OW24445   1.498   0.764  13.473 -0.5447 -0.2165 -0.1681
 4329SOL    HW124446   1.501   0.812  13.390 -2.3983  0.2395  0.0105
 4329SOL    HW224447   1.402   0.760  13.479 -0.5882  0.4603 -0.3955
 4330SOL     OW24448   4.644   4.586  11.294  0.0836  0.1324 -0.0323
 4330SOL    HW124449   4.713   4.534  11.254 -0.0139 -1.4123  1.8293
 4330SOL    HW224450   4.578   4.517  11.300 -0.3586  0.6224  0.8010
 4331SOL     OW24451   2.938   0.104  15.583  0.8216 -0.2484 -0.1120
 4331SOL    HW124452   2.929   0.107  15.487 -1.0368 -1.9304  0.0120
 4331SOL    HW224453   2.901   0.189  15.609 -0.3002  0.1621 -3.0346
 4332SOL     OW24454   0.288   2.651   2.341 -0.2086  0.6060 -0.5954
 4332SOL    HW124455   0.329   2.587   2.283 -1.7627  1.4028 -2.6031
 4332SOL    HW224456   0.300   2.737   2.300  0.4347  1.4025  1.2904
 4333SOL     OW24457   1.806   3.769   4.503 -0.4043 -0.4677  0.0032
 4333SOL    HW124458   1.869   3.793   4.435 -1.6919 -0.0695 -1.0628
 4333SOL    HW224459   1.785   3.681   4.472 -1.6198 -1.3694  3.3503
 4334SOL     OW24460   4.074   0.232   6.738  0.3010  0.1076 -0.2678
 4334SOL    HW124461   4.012   0.200   6.673  0.2709  1.4425 -0.8957
 4334SOL    HW224462   4.012   0.287   6.788  0.8329 -1.7539  2.4479
 4335SOL     OW24463   2.646   1.800  13.044  0.1709  0.0242  0.2921
 4335SOL    HW124464   2.640   1.705  13.060  0.4166 -0.0807 -0.2608
 4335SOL    HW224465   2.649   1.842  13.130  2.2521 -0.7437  0.5787
 4336SOL     OW24466   1.535   4.543   8.667 -0.7636  0.1901  0.0609
 4336SOL    HW124467   1.543   4.537   8.762  0.6276 -2.3936 -0.2272
 4336SOL    HW224468   1.537   4.454   8.633 -1.0457  0.4421 -0.6134
 4337SOL     OW24469   3.023   3.749   5.216 -0.1002  0.1470 -0.1906
 4337SOL    HW124470   3.070   3.770   5.297  1.0135 -1.4831 -0.4080
 4337SOL    HW224471   2.964   3.682   5.251  0.6122 -0.5885 -0.3864
 4338SOL     OW24472   3.045   3.967   3.816  0.0134  0.1117 -0.3175
 4338SOL    HW124473   3.115   4.025   3.788  0.7283 -1.1554 -1.1721
 4338SOL    HW224474   3.004   4.025   3.880 -0.0894  1.6717 -1.8282
 4339SOL     OW24475   1.561   4.391   6.631 -0.1112  0.2736  0.2632
 4339SOL    HW124476   1.564   4.339   6.550 -1.6117 -2.2310  1.7951
 4339SOL    HW224477   1.595   4.318   6.683  0.0082 -0.1386 -0.3932
 4340SOL     OW24478   2.233   2.406   5.170 -0.0765 -0.8188 -0.2472
 4340SOL    HW124479   2.172   2.343   5.132 -1.3909 -0.2368  0.8677
 4340SOL    HW224480   2.282   2.429   5.091  0.7648 -0.2708  0.4328
 4341SOL     OW24481   0.564   4.148   0.863 -0.6983  0.1020 -0.4433
 4341SOL    HW124482   0.569   4.068   0.810 -0.6878 -1.3660  1.7755
 4341SOL    HW224483   0.603   4.213   0.804  0.2590 -0.2700 -0.2320
 4342SOL     OW24484   3.525   4.224   5.058 -0.0095 -0.0316 -0.5329
 4342SOL    HW124485   3.598   4.185   5.010 -1.0261 -0.6396 -1.5838
 4342SOL    HW224486   3.452   4.191   5.005 -0.4313 -0.1093  0.0989
 4343SOL     OW24487   4.304   0.326   2.753 -0.0050  0.2470 -0.3971
 4343SOL    HW124488   4.338   0.249   2.797  2.0690  1.3383 -0.1053
 4343SOL    HW224489   4.366   0.393   2.781 -0.7851  0.4214  0.9187
 4344SOL     OW24490   2.147   3.978  14.007  0.3175 -0.1986 -0.2056
 4344SOL    HW124491   2.099   4.000  13.927 -0.3375  0.0948  0.2643
 4344SOL    HW224492   2.082   3.924  14.052  2.1904 -2.0270  0.2726
 4345SOL     OW24493   2.942   4.520  13.694 -0.0847 -0.6141  0.1740
 4345SOL    HW124494   2.983   4.434  13.679  2.1840  0.6139 -0.5641
 4345SOL    HW224495   3.001   4.541  13.767 -0.1732  0.7686 -0.1554
 4346SOL     OW24496   0.308   2.149   9.386  0.2493 -0.2710  0.0876
 4346SOL    HW124497   0.360   2.087   9.439  0.4819  0.0460  0.2286
 4346SOL    HW224498   0.376   2.207   9.353  0.1411 -0.3557 -0.2818
 4347SOL     OW24499   1.165   4.168   2.185 -0.1964  0.2702  0.0109
 4347SOL    HW124500   1.183   4.185   2.092  1.7719  0.0743  0.3611
 4347SOL    HW224501   1.102   4.096   2.183 -0.8591  0.8497  0.0023
 4348SOL     OW24502   2.560   2.240  11.239 -0.3859 -0.4463  0.5229
 4348SOL    HW124503   2.530   2.305  11.176 -0.9263  1.1944  2.4571
 4348SOL    HW224504   2.630   2.277  11.292  0.8392 -1.9440 -0.0803
 4349SOL     OW24505   0.563   1.233  12.440 -0.6471 -0.1196 -0.4065
 4349SOL    HW124506   0.470   1.243  12.462 -0.6957 -0.9035 -0.2344
 4349SOL    HW224507   0.570   1.142  12.411 -0.5968  0.1574 -1.2466
 4350SOL     OW24508   2.436   0.462  12.308  0.3657 -0.1422 -0.5128
 4350SOL    HW124509   2.411   0.550  12.336  0.9573 -0.0134 -0.3877
 4350SOL    HW224510   2.406   0.400  12.374  4.2014  0.0820  1.4512
 4351SOL     OW24511   1.200   0.289   2.726 -0.1070 -0.0641 -0.0732
 4351SOL    HW124512   1.284   0.268   2.684 -0.2112  0.3985 -0.5248
 4351SOL    HW224513   1.230   0.325   2.810  1.8221 -0.2458 -0.6738
 4352SOL     OW24514   0.144   3.205  10.558  0.5162 -0.6466  0.9146
 4352SOL    HW124515   0.166   3.274  10.495 -2.7737 -0.7144 -0.2878
 4352SOL    HW224516   0.056   3.175  10.535  0.3955  0.0461  0.4593
 4353SOL     OW24517   1.770   2.083   5.009  0.3259  0.6279 -0.3016
 4353SOL    HW124518   1.706   2.033   5.060 -0.9039  1.0689 -1.4135
 4353SOL    HW224519   1.817   2.019   4.956 -0.4019 -0.8220  0.8203
 4354SOL     OW24520   1.542   2.931   2.091 -0.0546  0.0845 -0.0252
 4354SOL    HW124521   1.571   3.009   2.138  1.7718 -0.2040 -0.6911
 4354SOL    HW224522   1.491   2.881   2.155 -0.5477 -0.1388 -0.5848
 4355SOL     OW24523   2.275   0.621  15.275  0.1889  0.1611  0.4817
 4355SOL    HW124524   2.251   0.529  15.264  1.0299  0.0986 -0.8829
 4355SOL    HW224525   2.227   0.641  15.194  0.8483  0.7709  0.2393
 4356SOL     OW24526   2.350   3.458  12.111  0.1087  0.8739  0.2689
 4356SOL    HW124527   2.428   3.497  12.071  0.3519 -2.0903 -2.1792
 4356SOL    HW224528   2.341   3.389  12.045 -1.6007  0.1390  1.2607
 4357SOL     OW24529   3.788   3.616   0.282 -0.0521 -0.2601  0.4931
 4357SOL    HW124530   3.777   3.709   0.305 -2.5121 -0.7763  1.3771
 4357SOL    HW224531   3.884   3.612   0.282  0.0756  2.6611 -0.0933
 4358SOL     OW24532   1.617   4.477   4.496 -0.6704  0.3692 -0.1658
 4358SOL    HW124533   1.668   4.555   4.515 -0.6675 -0.2406  2.4366
 4358SOL    HW224534   1.670   4.428   4.433 -1.6002  1.3593 -1.6788
 4359SOL     OW24535   2.645   1.129  12.920  0.6441 -0.1810  0.9203
 4359SOL    HW124536   2.578   1.161  12.981  1.4675 -1.8320  2.7186
 4359SOL    HW224537   2.718   1.145  12.980 -0.0594 -0.7895  1.9484
 4360SOL     OW24538   0.749   2.759   0.086  0.0461  0.4787  0.1572
 4360SOL    HW124539   0.830   2.718   0.056 -0.4768 -0.8995  0.6439
 4360SOL    HW224540   0.682   2.691   0.078 -0.1587  0.7315 -0.3085
 4361SOL     OW24541   2.067   3.264   5.589  0.2503 -0.2096  0.0401
 4361SOL    HW124542   2.027   3.313   5.660 -0.9341 -0.4581 -0.4520
 4361SOL    HW224543   2.023   3.307   5.516 -0.5608  1.4926  1.5404
 4362SOL     OW24544   0.319   1.412  12.499  0.1589 -0.5187  0.5961
 4362SOL    HW124545   0.380   1.450  12.562  0.9921 -0.4926 -0.2324
 4362SOL    HW224546   0.254   1.482  12.487  0.9749 -0.2399 -2.3082
 4363SOL     OW24547   0.248   3.985   3.685 -0.1635  0.0518  0.0126
 4363SOL    HW124548   0.343   3.984   3.700 -0.1130 -0.6512 -0.3676
 4363SOL    HW224549   0.243   4.060   3.627 -0.4896  0.1385  0.1528
 4364SOL     OW24550   1.855   0.646   3.203  0.2729 -0.2125 -0.5481
 4364SOL    HW124551   1.931   0.699   3.178 -0.7547  1.0763 -0.9078
 4364SOL    HW224552   1.805   0.667   3.124  2.4135  1.6357 -1.4157
 4365SOL     OW24553   1.241   2.940   6.709 -0.1570 -0.1884 -0.3494
 4365SOL    HW124554   1.278   3.020   6.672  1.0819 -0.3489  0.5509
 4365SOL    HW224555   1.197   2.906   6.631  0.1666 -0.8905 -0.2233
 4366SOL     OW24556   0.396   3.275   6.702  0.4237 -0.3442  0.1152
 4366SOL    HW124557   0.465   3.226   6.746 -0.1585 -0.0360  1.3712
 4366SOL    HW224558   0.358   3.201   6.654 -0.9215  0.9162 -0.7678
 4367SOL     OW24559   2.461   0.863  13.690  0.0009  0.2605  0.2485
 4367SOL    HW124560   2.529   0.876  13.623 -0.2272 -1.8203 -0.3945
 4367SOL    HW224561   2.468   0.768  13.697 -1.0214  0.3076  1.8687
 4368SOL     OW24562   0.272   0.453  16.730 -0.8549 -0.4481 -0.5179
 4368SOL    HW124563   0.332   0.481  16.799  0.1701 -2.0156 -0.7734
 4368SOL    HW224564   0.327   0.479  16.657 -1.0221  0.4609 -0.3262
 4369SOL     OW24565   1.663   0.949   3.340  0.2196  0.9425  0.0202
 4369SOL    HW124566   1.648   0.862   3.303 -0.9177  0.8781  0.6376
 4369SOL    HW224567   1.648   1.008   3.267 -0.5524  0.7992  0.0561
 4370SOL     OW24568   0.986   3.140   5.058 -0.3054  0.0628 -0.1267
 4370SOL    HW124569   0.917   3.121   5.121  0.9808 -0.4978  1.1106
 4370SOL    HW224570   1.063   3.133   5.115  0.9464  0.7033 -1.7485
 4371SOL     OW24571   1.437   2.356   6.263  0.0614  0.9844 -0.0445
 4371SOL    HW124572   1.457   2.414   6.189  3.6172 -0.5767 -0.3135
 4371SOL    HW224573   1.365   2.401   6.307 -0.7839  0.9491 -1.3813
 4372SOL     OW24574   1.368   3.455   0.539  0.4814  0.3832 -0.1444
 4372SOL    HW124575   1.398   3.507   0.614 -0.4889  2.2425 -1.0535
 4372SOL    HW224576   1.381   3.374   0.589  0.2987  0.2985 -0.2352
 4373SOL     OW24577   3.851   3.427   6.395 -0.5090 -0.0275 -0.2946
 4373SOL    HW124578   3.893   3.363   6.338  0.1762  1.0057 -0.9667
 4373SOL    HW224579   3.791   3.372   6.445  0.0999 -1.1883 -0.8539
 4374SOL     OW24580   2.463   3.288  17.041 -0.5213 -0.5125  0.3351
 4374SOL    HW124581   2.369   3.305  17.050 -0.1937  1.9115 -0.5588
 4374SOL    HW224582   2.488   3.285  17.133 -1.6417  0.2543  0.6621
 4375SOL     OW24583   3.917   4.528   4.978  0.5937 -0.0074 -0.2237
 4375SOL    HW124584   3.955   4.569   4.900  1.2039  0.1979  0.1887
 4375SOL    HW224585   3.824   4.545   4.960  0.1237 -1.4206  0.8710
 4376SOL     OW24586   2.212   0.326   7.864 -0.1381 -0.1813  0.2623
 4376SOL    HW124587   2.120   0.317   7.888 -0.5347  0.9541 -0.8182
 4376SOL    HW224588   2.221   0.408   7.815  0.7257 -0.1520  0.4779
 4377SOL     OW24589   2.034   3.118  16.387  0.1905 -0.4604  0.2816
 4377SOL    HW124590   1.941   3.139  16.382  0.5586  1.0751 -0.1243
 4377SOL    HW224591   2.048   3.132  16.481 -2.3083 -1.7141  0.8333
 4378SOL     OW24592   3.585   4.420   4.714 -0.2187 -0.8562 -0.3305
 4378SOL    HW124593   3.565   4.340   4.763  0.3957 -0.5421  0.4273
 4378SOL    HW224594   3.672   4.393   4.686 -0.5523  1.0936 -3.3188
 4379SOL     OW24595   1.294   3.239  13.110  0.1023 -0.2766 -0.0990
 4379SOL    HW124596   1.315   3.252  13.017  0.8654  0.5472  0.1875
 4379SOL    HW224597   1.329   3.321  13.143  0.4454 -0.6579  0.4856
 4380SOL     OW24598   2.944   2.151   4.876  0.0465 -0.1924  0.4513
 4380SOL    HW124599   2.988   2.095   4.940  0.0083 -1.5231 -0.6958
 4380SOL    HW224600   3.020   2.178   4.824  0.6017 -0.5325  1.0837
 4381SOL     OW24601   3.148   3.209   5.782  0.4582  0.5594 -0.1258
 4381SOL    HW124602   3.095   3.173   5.712 -0.1774  0.4605  0.4026
 4381SOL    HW224603   3.138   3.133   5.839  1.5054  0.1896 -0.4445
 4382SOL     OW24604   0.116   0.909   3.174  0.1653 -0.1709 -0.0010
 4382SOL    HW124605   0.114   0.814   3.160 -2.4356 -0.0032 -0.8970
 4382SOL    HW224606   0.124   0.915   3.269  4.3428  1.6308 -0.4729
 4383SOL     OW24607   1.817   4.221   7.106 -0.4390 -0.5002 -0.3375
 4383SOL    HW124608   1.864   4.182   7.033  3.1313  2.0949  0.5856
 4383SOL    HW224609   1.801   4.142   7.158  0.0593 -0.0511  0.4991
 4384SOL     OW24610   1.003   0.098  16.128 -0.2321  0.3205  1.0204
 4384SOL    HW124611   0.963   0.179  16.096  0.4110  0.5015  0.6649
 4384SOL    HW224612   0.992   0.105  16.223 -1.8429  0.8577  0.7923
 4385SOL     OW24613   1.897   1.217  11.013 -0.3023  0.2467  0.7249
 4385SOL    HW124614   1.920   1.125  11.027 -1.7134  0.1105  2.1563
 4385SOL    HW224615   1.982   1.260  11.017  0.2071 -0.5874 -1.0684
 4386SOL     OW24616   3.054   4.532   2.703 -0.7515 -0.4317  0.1507
 4386SOL    HW124617   3.025   4.540   2.612  0.2501  1.2814 -0.0241
 4386SOL    HW224618   2.996   4.594   2.748 -2.2665 -1.6609 -0.1264
 4387SOL     OW24619   2.398   1.303   3.361 -0.3956  0.0489  0.3314
 4387SOL    HW124620   2.351   1.381   3.390  0.1554  0.2823  0.5991
 4387SOL    HW224621   2.347   1.281   3.283 -0.7710 -0.0821  0.6104
 4388SOL     OW24622   3.355   3.675   0.889  0.6874 -0.2743  0.0618
 4388SOL    HW124623   3.280   3.615   0.882 -1.0245  1.7203  1.6343
 4388SOL    HW224624   3.316   3.746   0.939 -1.7478 -0.3017 -1.7740
 4389SOL     OW24625   3.482   0.324   3.439 -0.2348 -0.0337  0.0660
 4389SOL    HW124626   3.449   0.240   3.407 -1.3346 -0.2095  1.6664
 4389SOL    HW224627   3.568   0.303   3.473  0.4256  2.1389 -0.2525
 4390SOL     OW24628   2.062   1.451   5.404 -0.0023  0.7508 -0.2444
 4390SOL    HW124629   2.036   1.504   5.329 -2.6664  0.1529  0.2622
 4390SOL    HW224630   1.984   1.405   5.435  0.5264  0.0559  0.0467
 4391SOL     OW24631   1.945   2.025   9.246  0.0877  0.6094  0.2552
 4391SOL    HW124632   1.965   1.946   9.197  0.4296 -0.1003  1.5316
 4391SOL    HW224633   1.918   1.984   9.329  0.5415 -1.5669 -0.6973
 4392SOL     OW24634   2.269   2.862   4.462 -0.7334  0.4823 -0.0953
 4392SOL    HW124635   2.269   2.766   4.456  0.2607  0.4845 -0.0963
 4392SOL    HW224636   2.178   2.889   4.471 -0.5227  1.4195 -0.7586
 4393SOL     OW24637   1.837   2.429   5.262 -0.1188 -0.6705 -0.1873
 4393SOL    HW124638   1.885   2.421   5.180  2.9105 -0.9261  1.6019
 4393SOL    HW224639   1.815   2.522   5.262 -0.0507 -0.6575 -0.6403
 4394SOL     OW24640   0.866   4.042  17.107 -0.3018 -0.0820  0.5453
 4394SOL    HW124641   0.815   4.102  17.052  0.9552  1.4222  1.0461
 4394SOL    HW224642   0.804   3.969  17.101  0.4927 -0.5079 -2.8403
 4395SOL     OW24643   2.125   2.737   6.988 -0.8985  0.2033 -0.1658
 4395SOL    HW124644   2.187   2.766   6.921  1.2536 -0.8368  1.3951
 4395SOL    HW224645   2.177   2.678   7.042 -0.6574  2.1655  1.7380
 4396SOL     OW24646   3.218   1.314  10.289 -0.4235  0.4275  0.2885
 4396SOL    HW124647   3.195   1.232  10.333 -0.8610  1.7204  2.4549
 4396SOL    HW224648   3.155   1.377  10.325 -1.0334  0.4090 -0.7627
 4397SOL     OW24649   2.684   0.199  15.421 -0.7905 -0.4630  0.2945
 4397SOL    HW124650   2.739   0.277  15.420  3.2381 -3.2622  1.1013
 4397SOL    HW224651   2.756   0.140  15.396  0.3209 -0.1766  2.8247
 4398SOL     OW24652   0.136   4.247   4.746 -0.6655 -0.2514 -0.1113
 4398SOL    HW124653   0.071   4.220   4.681  0.7031 -0.4957 -1.4040
 4398SOL    HW224654   0.160   4.158   4.769  1.7790  0.0639 -1.3560
 4399SOL     OW24655   4.192   0.926   6.266  0.1598 -0.4710  0.2687
 4399SOL    HW124656   4.139   0.865   6.214 -0.1716  2.5996 -2.9748
 4399SOL    HW224657   4.270   0.945   6.214  2.1328 -5.1405  1.4491
 4400SOL     OW24658   1.663   4.226   6.851 -0.3503 -0.3241 -0.0769
 4400SOL    HW124659   1.669   4.300   6.911  1.6268  0.0907 -0.8179
 4400SOL    HW224660   1.751   4.190   6.846  0.0248  0.3104  2.0040
 4401SOL     OW24661   2.252   2.363   8.610 -0.1412  0.5441  0.3829
 4401SOL    HW124662   2.309   2.324   8.676 -0.5309  1.3577  1.1922
 4401SOL    HW224663   2.169   2.367   8.657 -1.5651 -1.3245 -1.9541
 4402SOL     OW24664   3.892   2.188  10.028  0.0230  0.5824  0.1890
 4402SOL    HW124665   3.881   2.107   9.978  4.8832 -0.6896  1.1848
 4402SOL    HW224666   3.986   2.181  10.040  0.1952 -0.6789 -1.8367
 4403SOL     OW24667   1.265   2.519   2.844  0.2911 -0.5518 -0.1119
 4403SOL    HW124668   1.330   2.449   2.850 -0.0288 -0.7150  1.6113
 4403SOL    HW224669   1.320   2.596   2.842  0.9058 -1.0174 -0.8758
 4404SOL     OW24670   2.711   0.981  15.816 -0.2985  0.0846 -0.6797
 4404SOL    HW124671   2.770   0.929  15.763 -0.6248 -1.6902  0.7036
 4404SOL    HW224672   2.637   0.988  15.757 -1.5144 -0.7811  0.7286
 4405SOL     OW24673   2.675   2.744  15.144 -0.2871  0.5488  0.7129
 4405SOL    HW124674   2.704   2.834  15.156  0.4346  0.5296 -0.9332
 4405SOL    HW224675   2.594   2.753  15.093  0.7299 -1.1492 -1.1901
 4406SOL     OW24676   3.580   2.468  14.476  0.0633  0.2178 -0.6798
 4406SOL    HW124677   3.592   2.531  14.548 -0.5950  0.9717 -1.2234
 4406SOL    HW224678   3.597   2.381  14.511  2.0358  0.2460 -1.6130
 4407SOL     OW24679   3.907   2.732   5.575  0.1413 -0.3125 -0.1894
 4407SOL    HW124680   3.853   2.717   5.498  2.7612  0.5693 -2.1695
 4407SOL    HW224681   3.843   2.712   5.644  1.5619  0.3874  1.3039
 4408SOL     OW24682   2.237   0.809   4.670  0.2278 -0.1659 -0.3669
 4408SOL    HW124683   2.301   0.859   4.721 -2.7548  3.1361  0.1731
 4408SOL    HW224684   2.233   0.870   4.596 -1.8333 -0.7787 -0.7594
 4409SOL     OW24685   0.439   4.164   1.142 -0.9351 -0.1266  0.0612
 4409SOL    HW124686   0.358   4.177   1.094 -0.5542 -1.4330 -0.9554
 4409SOL    HW224687   0.497   4.111   1.088 -1.7018 -2.0326  1.0926
 4410SOL     OW24688   2.590   1.345   9.415 -0.2592  0.4405 -0.6661
 4410SOL    HW124689   2.651   1.412   9.385  0.0206  0.8654  0.8131
 4410SOL    HW224690   2.539   1.410   9.464  0.2352  0.4515 -0.1587
 4411SOL     OW24691   0.421   3.761   3.851 -0.0752  0.2479  0.1445
 4411SOL    HW124692   0.340   3.735   3.894 -0.1520  1.4986  0.7530
 4411SOL    HW224693   0.467   3.679   3.868  0.4001  0.2448 -1.2011
 4412SOL     OW24694   2.805   4.501   8.780 -0.3168  0.5535  0.2121
 4412SOL    HW124695   2.729   4.537   8.734 -1.0851  0.4945  1.4509
 4412SOL    HW224696   2.870   4.516   8.710  0.3747  3.0402  1.3662
 4413SOL     OW24697   3.584   2.333   1.394  0.1117  0.3917  0.2829
 4413SOL    HW124698   3.627   2.367   1.472  1.3151  1.1654 -0.7089
 4413SOL    HW224699   3.626   2.396   1.334 -1.7085  1.5014  0.1801
 4414SOL     OW24700   3.241   3.798   4.021  0.3467  0.2718  0.3137
 4414SOL    HW124701   3.154   3.827   4.048 -0.2675  0.1905 -1.6203
 4414SOL    HW224702   3.229   3.747   3.941 -0.5079  0.0792  0.5677
 4415SOL     OW24703   2.598   1.063   3.160 -0.2321 -0.1251 -0.0987
 4415SOL    HW124704   2.641   1.115   3.228  0.6319 -1.6813  0.5632
 4415SOL    HW224705   2.631   1.099   3.078 -0.0291 -0.6367 -0.2434
 4416SOL     OW24706   0.131   1.950   2.888 -0.8301  0.0718 -0.0136
 4416SOL    HW124707   0.100   1.901   2.964  0.2948  1.9254  1.6617
 4416SOL    HW224708   0.205   1.896   2.859 -1.2724 -1.0510  0.9432
 4417SOL     OW24709   2.168   4.592   2.836  0.2634  0.4595  0.7868
 4417SOL    HW124710   2.208   4.626   2.756 -0.2778  0.6918  0.6146
 4417SOL    HW224711   2.143   4.504   2.810  0.1793  0.1549  1.8999
 4418SOL     OW24712   4.635   0.019   4.096 -0.1031 -0.2404  0.6591
 4418SOL    HW124713   4.596   0.076   4.162  2.7359  0.2957  1.8442
 4418SOL    HW224714   0.005   0.014   4.120  0.5474 -1.2410 -2.0316
 4419SOL     OW24715   1.071   4.055   6.503 -0.0653  0.1353 -0.2479
 4419SOL    HW124716   1.067   3.984   6.439 -0.1931 -1.5123  1.5652
 4419SOL    HW224717   1.124   4.011   6.570  1.2712  0.0509 -1.3645
 4420SOL     OW24718   1.076   0.546   6.130 -0.2167  0.0589  0.3992
 4420SOL    HW124719   1.000   0.587   6.089  1.1009 -0.5984 -2.6952
 4420SOL    HW224720   1.127   0.514   6.056 -1.0035 -0.8870  0.2697
 4421SOL     OW24721   1.728   0.138  17.071 -0.8204  0.1063  0.1349
 4421SOL    HW124722   1.705   0.048  17.051  0.8166  0.0442 -1.4378
 4421SOL    HW224723   1.805   0.136  17.128  0.9086 -0.9379 -2.2665
 4422SOL     OW24724   2.347   3.529   7.595 -0.0124  0.4012  0.0752
 4422SOL    HW124725   2.427   3.580   7.608 -1.1403  2.9124 -2.8706
 4422SOL    HW224726   2.294   3.583   7.537  0.1300 -0.1539 -0.5683
 4423SOL     OW24727   4.322   1.485   5.923  0.0358  0.6992  0.3710
 4423SOL    HW124728   4.237   1.442   5.927 -0.9038  2.3681 -1.6187
 4423SOL    HW224729   4.348   1.451   5.838 -0.1569  1.5602 -0.0319
 4424SOL     OW24730   0.989   4.147   4.679 -0.0935 -0.1522  0.1819
 4424SOL    HW124731   0.930   4.138   4.754  1.9561  0.4372  1.8520
 4424SOL    HW224732   0.926   4.187   4.619  0.7449  1.1275  0.1499
 4425SOL     OW24733   1.127   1.828   0.271  0.2285 -0.1593 -1.2725
 4425SOL    HW124734   1.223   1.824   0.269  0.3640  1.1607  1.8728
 4425SOL    HW224735   1.114   1.747   0.221  0.1033 -1.7924  1.4134
 4426SOL     OW24736   3.986   1.595  13.801 -0.4583  0.2556  0.1036
 4426SOL    HW124737   3.946   1.682  13.801  0.0126  0.4631 -0.6466
 4426SOL    HW224738   3.978   1.579  13.707 -1.0565  1.9250 -0.1307
 4427SOL     OW24739   3.556   2.634  14.724  0.9496  0.0267  0.0609
 4427SOL    HW124740   3.464   2.611  14.734  0.9185 -0.4098 -1.1270
 4427SOL    HW224741   3.558   2.725  14.754 -0.9978  0.0945  0.0027
 4428SOL     OW24742   1.416   2.192   4.408 -0.2228 -0.4620  0.0527
 4428SOL    HW124743   1.338   2.181   4.354 -0.4547 -1.8117  0.6588
 4428SOL    HW224744   1.413   2.112   4.461 -1.1201 -0.4192  0.0710
 4429SOL     OW24745   0.052   3.229   0.945  0.2585 -0.2288 -0.0675
 4429SOL    HW124746   0.032   3.281   0.867 -0.3248 -1.1220 -0.5046
 4429SOL    HW224747   0.097   3.151   0.913 -2.0712 -1.2975 -0.6712
 4430SOL     OW24748   0.560   0.431   4.063  0.3528 -0.4548  0.1144
 4430SOL    HW124749   0.646   0.390   4.068  1.0422  0.8447 -1.1622
 4430SOL    HW224750   0.558   0.475   3.978  2.0717 -1.5544 -0.4922
 4431SOL     OW24751   3.486   0.178  16.983 -0.3235  0.2760  0.0307
 4431SOL    HW124752   3.398   0.210  16.963 -0.9969 -0.9923  0.9881
 4431SOL    HW224753   3.467   0.100  17.034 -0.6148 -0.2465 -0.8879
 4432SOL     OW24754   2.154   0.407  17.339  0.4831 -0.3389  0.8794
 4432SOL    HW124755   2.102   0.387  17.262  0.2139 -0.3969  1.0769
 4432SOL    HW224756   2.099   0.466  17.391 -3.0290  0.9415 -4.2818
 4433SOL     OW24757   3.508   3.116   5.931  0.2125  0.2480  0.4143
 4433SOL    HW124758   3.423   3.075   5.948  0.0265  1.3241  2.0729
 4433SOL    HW224759   3.499   3.206   5.964 -0.8616  0.5482 -0.6762
 4434SOL     OW24760   1.153   1.028   8.865 -0.3751  0.4616  0.4598
 4434SOL    HW124761   1.162   0.993   8.953 -0.7075 -0.6035  0.0723
 4434SOL    HW224762   1.067   1.069   8.874 -0.4087 -0.0556  2.4005
 4435SOL     OW24763   2.999   4.497   0.564  0.1091  0.3645 -0.1282
 4435SOL    HW124764   3.050   4.566   0.606 -1.0798 -1.4885  4.4124
 4435SOL    HW224765   2.963   4.462   0.646 -0.1698  0.7071 -0.1055
 4436SOL     OW24766   0.401   0.284   8.096 -0.1918 -0.1622  0.2619
 4436SOL    HW124767   0.313   0.304   8.128 -0.2653  0.7379 -0.5183
 4436SOL    HW224768   0.400   0.189   8.081  1.6726 -0.3981  1.5732
 4437SOL     OW24769   3.121   4.322   8.805  0.3222 -0.5760 -0.2826
 4437SOL    HW124770   3.200   4.375   8.818 -1.0522  1.4920 -0.3795
 4437SOL    HW224771   3.101   4.296   8.895 -2.6795  0.3009 -0.7101
 4438SOL     OW24772   2.243   0.262   3.085  0.1017 -0.1461 -0.1348
 4438SOL    HW124773   2.274   0.352   3.093 -0.2329  0.1496 -2.1222
 4438SOL    HW224774   2.160   0.277   3.040 -0.0833  1.3191  0.7056
 4439SOL     OW24775   1.238   0.711   9.504  0.0328 -0.3853  0.0064
 4439SOL    HW124776   1.197   0.668   9.578 -1.0656 -1.3206 -1.1370
 4439SOL    HW224777   1.172   0.780   9.493  1.5567  0.8575 -1.3529
 4440SOL     OW24778   0.410   3.926   1.323  0.4509  0.1419 -0.3759
 4440SOL    HW124779   0.376   3.852   1.273 -0.2031  1.0215 -1.2494
 4440SOL    HW224780   0.479   3.946   1.259 -0.4328 -1.8345 -1.9422
 4441SOL     OW24781   4.304   3.370  12.003  0.5567 -0.3724  0.3008
 4441SOL    HW124782   4.374   3.406  12.058 -1.1431  3.0615  0.2139
 4441SOL    HW224783   4.345   3.357  11.917  0.9768  2.9415  0.0163
 4442SOL     OW24784   1.438   1.545   1.181 -0.2836 -0.1272 -0.2314
 4442SOL    HW124785   1.482   1.479   1.235  2.4439  1.2950 -0.7509
 4442SOL    HW224786   1.454   1.629   1.223  0.8505 -0.4924  0.0486
 4443SOL     OW24787   2.844   2.530   6.953  0.6378 -0.1014 -0.3710
 4443SOL    HW124788   2.812   2.495   7.037 -1.6155 -1.7808 -1.9329
 4443SOL    HW224789   2.765   2.524   6.900  0.1071 -0.4063  0.4366
 4444SOL     OW24790   0.211   4.567  11.751  0.1268  0.1733  0.3685
 4444SOL    HW124791   0.176   4.478  11.750  0.0803  0.1835  1.4579
 4444SOL    HW224792   0.292   4.548  11.798  1.3140  0.7633 -1.4382
 4445SOL     OW24793   1.796   0.961   3.914 -0.2014 -0.4941 -0.3053
 4445SOL    HW124794   1.888   0.938   3.909 -0.1988 -0.9787  1.8135
 4445SOL    HW224795   1.775   0.965   3.821  0.1372 -1.5955 -0.4242
 4446SOL     OW24796   1.117   1.741   7.665 -0.2044 -0.0271  0.0106
 4446SOL    HW124797   1.059   1.670   7.691  0.2654  0.0487  1.2329
 4446SOL    HW224798   1.045   1.802   7.644  0.6067  1.5785  1.8766
 4447SOL     OW24799   1.024   4.664   6.140  0.3804 -0.4105  0.5642
 4447SOL    HW124800   0.931   4.675   6.157  0.0579  0.8174 -1.9966
 4447SOL    HW224801   1.024   4.654   6.045 -0.8411  3.2132  0.1695
 4448SOL     OW24802   2.625   4.561   9.693 -0.2919 -0.1037  0.2655
 4448SOL    HW124803   2.711   4.522   9.709  1.3121  2.2539 -2.6396
 4448SOL    HW224804   2.608   4.510   9.615 -0.8681 -1.4800  1.2899
 4449SOL     OW24805   4.371   1.402   7.227 -0.2516 -0.1204 -0.4699
 4449SOL    HW124806   4.405   1.382   7.140 -0.7308  1.9688 -1.1504
 4449SOL    HW224807   4.422   1.480   7.250 -0.9119 -0.2101  1.2842
 4450SOL     OW24808   3.720   1.207   2.795 -0.3209  0.2293 -0.4281
 4450SOL    HW124809   3.673   1.199   2.712 -0.8699  1.0275 -0.1900
 4450SOL    HW224810   3.768   1.123   2.797 -1.0656 -0.2387 -1.7492
 4451SOL     OW24811   2.844   3.554  15.074 -0.4937 -0.6918 -0.4435
 4451SOL    HW124812   2.932   3.589  15.065 -0.8356  0.1835 -0.4056
 4451SOL    HW224813   2.813   3.596  15.155 -0.5531 -2.5467  0.5010
 4452SOL     OW24814   3.864   0.028   8.769 -0.2556 -0.7105 -0.1714
 4452SOL    HW124815   3.793   0.092   8.759 -0.3104 -1.0869 -2.2028
 4452SOL    HW224816   3.916   0.083   8.828  1.5065 -1.7743 -0.7520
 4453SOL     OW24817   0.202   3.249   0.342 -0.2255  0.2516 -0.5337
 4453SOL    HW124818   0.147   3.296   0.404 -1.9521  0.1359 -1.9660
 4453SOL    HW224819   0.282   3.301   0.350 -0.0102 -0.3938  1.4188
 4454SOL     OW24820   0.096   3.478  14.651  0.1233  0.3837 -0.1020
 4454SOL    HW124821   0.158   3.406  14.643  0.7632  0.9236  0.0339
 4454SOL    HW224822   0.147   3.543  14.700  1.5147  0.3321 -1.5005
 4455SOL     OW24823   4.381   3.418  14.598 -0.2513 -0.0570 -0.0845
 4455SOL    HW124824   4.378   3.361  14.521  1.2248 -1.0870  0.6187
 4455SOL    HW224825   4.389   3.346  14.660  0.0850 -0.3407 -0.4575
 4456SOL     OW24826   3.952   4.680  15.611 -0.1941 -0.1439 -0.2395
 4456SOL    HW124827   3.933   4.685  15.705 -0.0005 -3.4914 -0.0363
 4456SOL    HW224828   3.879   0.003  15.568  0.2107  0.6722 -0.0649
 4457SOL     OW24829   3.530   0.546  13.186 -0.5270 -0.2305  0.6311
 4457SOL    HW124830   3.554   0.609  13.254  1.4901 -2.0012  1.5644
 4457SOL    HW224831   3.615   0.509  13.161 -0.8627 -1.0894  0.7595
 4458SOL     OW24832   2.567   2.390   4.368  0.1425 -0.2682  0.0388
 4458SOL    HW124833   2.595   2.480   4.357 -1.2857  0.0459 -0.9516
 4458SOL    HW224834   2.629   2.342   4.423 -0.8346  0.1562  1.4992
 4459SOL     OW24835   2.241   0.090   9.922 -0.3971  0.0897 -0.2162
 4459SOL    HW124836   2.290   0.008   9.919 -0.5026  0.0848 -1.8638
 4459SOL    HW224837   2.201   0.091   9.835 -3.4550  0.8369  1.1864
 4460SOL     OW24838   2.123   3.760   0.223  0.0696  0.1766 -0.3576
 4460SOL    HW124839   2.196   3.815   0.251 -0.4278  1.0798 -0.8539
 4460SOL    HW224840   2.105   3.708   0.301 -0.0893 -1.0112 -1.1830
 4461SOL     OW24841   4.560   0.942  16.316  0.0352  0.2412  0.0677
 4461SOL    HW124842   4.517   1.012  16.365 -0.6983  0.0818 -0.3500
 4461SOL    HW224843   4.633   0.918  16.373  0.6635  0.4203 -0.6673
 4462SOL     OW24844   4.339   1.591  13.584 -0.4972  0.3555 -0.6838
 4462SOL    HW124845   4.307   1.585  13.494 -2.0159 -3.1671  0.1170
 4462SOL    HW224846   4.280   1.536  13.635  1.2938 -0.1514  0.8553
 4463SOL     OW24847   3.316   2.705   7.922 -0.8892  0.2581 -0.0265
 4463SOL    HW124848   3.336   2.639   7.988 -0.4783  1.2556  0.8319
 4463SOL    HW224849   3.390   2.680   7.867 -0.7166 -1.0799  0.8147
 4464SOL     OW24850   0.519   4.687  14.455  0.6791  0.3807 -0.5806
 4464SOL    HW124851   0.565   4.604  14.466  2.7260  1.9494  2.7101
 4464SOL    HW224852   0.552   0.022  14.524  0.5016 -1.6946  1.2182
 4465SOL     OW24853   4.180   0.482   8.293 -0.0600  0.0587 -0.2000
 4465SOL    HW124854   4.184   0.446   8.382 -0.2488 -0.0868 -0.2517
 4465SOL    HW224855   4.268   0.464   8.263  0.3298  1.8023 -0.1438
 4466SOL     OW24856   3.642   1.361   3.420 -0.1858 -0.2744  0.0299
 4466SOL    HW124857   3.600   1.340   3.504 -0.7476 -1.7355 -0.6129
 4466SOL    HW224858   3.734   1.360   3.448 -0.0566  2.2456 -0.3926
 4467SOL     OW24859   1.503   3.156   5.748 -0.0036 -0.3041  0.0571
 4467SOL    HW124860   1.577   3.174   5.806  0.7323  0.0261 -0.9777
 4467SOL    HW224861   1.471   3.240   5.717 -1.0999 -1.9158 -3.1900
 4468SOL     OW24862   4.666   1.825   9.251  0.6917  0.2798  0.2703
 4468SOL    HW124863   0.006   1.866   9.311 -0.9101  1.2721  1.2649
 4468SOL    HW224864   4.629   1.904   9.211  2.4380  0.4972 -0.9145
 4469SOL     OW24865   0.399   1.555   6.928 -0.4000 -0.2012  0.0265
 4469SOL    HW124866   0.432   1.609   6.856 -0.9383 -1.3492 -1.1006
 4469SOL    HW224867   0.392   1.613   7.003  2.4633  0.0974  0.0573
 4470SOL     OW24868   3.492   1.272  16.970 -0.5692 -0.1991 -0.1054
 4470SOL    HW124869   3.579   1.236  16.953  0.3333  2.0728 -0.3288
 4470SOL    HW224870   3.515   1.296  17.060 -0.7491  0.8766 -0.3391
 4471SOL     OW24871   1.510   1.746   1.898 -1.0122 -0.0797 -0.3700
 4471SOL    HW124872   1.571   1.798   1.846  0.2886 -1.5038 -0.2509
 4471SOL    HW224873   1.459   1.708   1.827  0.9843 -0.3678 -1.6350
 4472SOL     OW24874   2.513   4.562   8.200  0.4904  0.3505 -0.0377
 4472SOL    HW124875   2.453   4.618   8.248  0.5265 -0.5867  1.0860
 4472SOL    HW224876   2.509   4.492   8.264 -3.2752  0.0602 -0.6283
 4473SOL     OW24877   1.391   2.168   3.669 -0.2512 -0.7542 -0.2145
 4473SOL    HW124878   1.387   2.157   3.764  2.2839  0.8776  0.0849
 4473SOL    HW224879   1.312   2.214   3.640  1.4820  0.0408 -3.7522
 4474SOL     OW24880   1.243   1.953  17.666 -0.5272 -0.7591 -0.0436
 4474SOL    HW124881   1.226   1.954  17.571  1.8388 -1.2355 -0.4731
 4474SOL    HW224882   1.295   1.876  17.683  0.1200  0.2808  2.5645
 4475SOL     OW24883   2.949   4.353   1.355 -0.1766 -0.0602  0.1194
 4475SOL    HW124884   2.938   4.315   1.442 -4.7195 -1.5676 -1.1180
 4475SOL    HW224885   2.857   4.364   1.333  0.2577  1.8236 -0.7675
 4476SOL     OW24886   2.994   3.862   4.232 -0.0980  0.3393 -0.3589
 4476SOL    HW124887   2.936   3.937   4.219 -2.3463 -1.2579  0.4076
 4476SOL    HW224888   3.048   3.901   4.300 -0.8613  0.3428  0.2401
 4477SOL     OW24889   0.392   2.757   5.918 -0.1804 -0.0062 -0.0309
 4477SOL    HW124890   0.429   2.822   5.979 -0.3145 -0.8083  0.8951
 4477SOL    HW224891   0.431   2.678   5.956 -1.3049  0.2261  1.6079
 4478SOL     OW24892   0.243   2.595   3.720 -0.0382 -0.0424  0.0456
 4478SOL    HW124893   0.251   2.502   3.701  2.2182  0.0840  0.4041
 4478SOL    HW224894   0.245   2.623   3.629  2.5829 -0.2269  0.0322
 4479SOL     OW24895   1.574   4.204   9.423  0.5550 -0.3169 -0.2005
 4479SOL    HW124896   1.500   4.252   9.461 -1.8937 -2.1669 -2.6455
 4479SOL    HW224897   1.636   4.197   9.495 -2.2046 -1.0475  2.1180
 4480SOL     OW24898   4.498   1.623   4.758  0.1978  0.2051 -0.1109
 4480SOL    HW124899   4.530   1.587   4.841 -1.2751  1.9290  1.2387
 4480SOL    HW224900   4.414   1.577   4.757 -0.6381  1.7044  0.0483
 4481SOL     OW24901   2.908   0.077   7.733 -0.3245  0.6023 -0.5960
 4481SOL    HW124902   2.988   0.115   7.770  0.4441 -1.1514 -0.4569
 4481SOL    HW224903   2.861   0.158   7.714 -1.8084  0.0594  0.8608
 4482SOL     OW24904   4.148   4.511  11.051  0.3337 -0.3852  0.1434
 4482SOL    HW124905   4.066   4.534  11.007  0.8167  2.0810  0.5463
 4482SOL    HW224906   4.213   4.575  11.023 -1.8456  1.5252 -0.6243
 4483SOL     OW24907   0.915   2.209   8.069 -0.0837 -0.5485 -0.5703
 4483SOL    HW124908   0.918   2.211   8.164 -0.7964  1.6692 -0.5928
 4483SOL    HW224909   0.909   2.304   8.066 -0.5608 -0.5602  0.1780
 4484SOL     OW24910   0.227   3.883   7.058 -0.1548  0.4449  0.4306
 4484SOL    HW124911   0.168   3.835   7.000  0.9043 -1.8838  1.2684
 4484SOL    HW224912   0.246   3.819   7.126 -2.0996 -0.7131 -0.1302
 4485SOL     OW24913   0.516   3.159   1.253 -0.2614 -0.2811 -0.1120
 4485SOL    HW124914   0.470   3.097   1.196 -0.1385 -0.0572 -0.4510
 4485SOL    HW224915   0.587   3.105   1.289 -0.7038  0.8155  2.4214
 4486SOL     OW24916   2.937   1.308   4.352  0.6425  0.3809  0.1738
 4486SOL    HW124917   2.947   1.223   4.393 -0.9164  0.5053  0.7953
 4486SOL    HW224918   2.844   1.323   4.366  0.5147  0.8395 -1.0732
 4487SOL     OW24919   2.501   3.399   2.555 -0.2014 -0.4237 -0.4037
 4487SOL    HW124920   2.476   3.310   2.577 -0.1383 -0.2914  0.2211
 4487SOL    HW224921   2.561   3.423   2.626  0.3214  1.5797 -1.5126
 4488SOL     OW24922   4.485   1.291  15.034  0.3390  0.4238  0.0920
 4488SOL    HW124923   4.475   1.271  15.127 -2.7866  1.2256 -0.0669
 4488SOL    HW224924   4.395   1.322  15.022  0.4558  0.8137  0.2217
 4489SOL     OW24925   4.212   1.662  10.025  0.6005  0.3134 -0.3082
 4489SOL    HW124926   4.280   1.605  10.061 -0.5724  0.4243  2.0817
 4489SOL    HW224927   4.183   1.706  10.105  1.1323  1.3125 -0.6550
 4490SOL     OW24928   1.496   4.717  13.308  0.2110  0.4254  0.5851
 4490SOL    HW124929   1.455   0.029  13.229 -0.6572  0.6022  1.1121
 4490SOL    HW224930   1.491   0.066  13.371  1.6728 -1.2066  2.5679
 4491SOL     OW24931   3.255   1.803  12.447 -0.0705  0.4127  0.1308
 4491SOL    HW124932   3.298   1.767  12.370 -1.8649  0.0101 -0.6811
 4491SOL    HW224933   3.304   1.751  12.510  2.8482  0.0228 -2.4626
 4492SOL     OW24934   3.128   2.880   8.440 -0.0482 -0.3680 -0.8054
 4492SOL    HW124935   3.112   2.951   8.502 -0.1744 -2.9366  2.1420
 4492SOL    HW224936   3.042   2.850   8.411 -0.4320 -0.6383  0.6343
 4493SOL     OW24937   1.833   0.217   6.138  0.3667 -0.5533  0.8601
 4493SOL    HW124938   1.748   0.200   6.098  0.3478  0.5962  0.4324
 4493SOL    HW224939   1.865   0.129   6.160  1.8532  0.0748  1.2111
 4494SOL     OW24940   1.005   4.433   9.896 -0.2302 -0.4057 -0.7883
 4494SOL    HW124941   0.992   4.339   9.904 -1.5167 -0.0856  1.0569
 4494SOL    HW224942   0.946   4.462   9.966  0.3659  0.5410 -0.6738
 4495SOL     OW24943   1.184   1.643   0.935  0.0400 -0.3256  0.3708
 4495SOL    HW124944   1.186   1.719   0.876  0.8370 -1.2665 -0.7999
 4495SOL    HW224945   1.242   1.583   0.889 -1.7276 -2.2066  0.6022
 4496SOL     OW24946   0.007   2.450  11.587 -0.0604 -0.4056  0.1852
 4496SOL    HW124947   4.703   2.427  11.498 -0.0494  0.0540  0.0655
 4496SOL    HW224948   4.715   2.544  11.591 -2.1741 -0.6820 -0.9213
 4497SOL     OW24949   2.358   2.484   4.942  0.7396  0.6440  0.4071
 4497SOL    HW124950   2.278   2.520   4.903  0.6256 -0.7696 -0.6468
 4497SOL    HW224951   2.394   2.468   4.854 -0.2376 -1.9971  0.5063
 4498SOL     OW24952   2.646   1.253   2.074  0.5162 -0.1817 -0.8898
 4498SOL    HW124953   2.672   1.221   1.987  0.6945 -1.0892 -0.5023
 4498SOL    HW224954   2.645   1.348   2.069  0.9867 -0.1662 -0.7117
 4499SOL     OW24955   1.663   2.795   7.695 -1.0449  0.1602 -0.0410
 4499SOL    HW124956   1.631   2.813   7.783 -0.0744 -1.3707  0.6382
 4499SOL    HW224957   1.701   2.880   7.671 -0.9507 -0.2046 -1.1830
 4500SOL     OW24958   2.461   2.689  14.923  0.2650 -0.3963 -0.6095
 4500SOL    HW124959   2.437   2.743  14.847 -0.3597  1.4638  0.8974
 4500SOL    HW224960   2.416   2.611  14.892  0.6699 -0.9629  0.2262
 4501SOL     OW24961   3.833   3.063  15.751 -0.5200 -0.4550  0.3370
 4501SOL    HW124962   3.744   3.086  15.781 -0.8194  0.1431 -1.0319
 4501SOL    HW224963   3.858   2.986  15.803 -0.7338  0.0865  1.2449
 4502SOL     OW24964   0.056   0.057  15.450  0.0263  0.5924 -0.0513
 4502SOL    HW124965   0.039   0.056  15.544 -0.9881  2.2388 -0.2235
 4502SOL    HW224966   4.698   0.010  15.429  0.9630 -1.3474  0.6215
 4503SOL     OW24967   4.328   3.780   4.712 -0.6281  0.6891  0.6086
 4503SOL    HW124968   4.266   3.848   4.686 -0.3836  0.8459  0.4356
 4503SOL    HW224969   4.271   3.711   4.746 -0.0743 -0.0529  0.0271
 4504SOL     OW24970   0.374   1.859   5.798  0.0341 -0.1730 -0.0323
 4504SOL    HW124971   0.351   1.897   5.713  0.5250 -0.6955 -0.4007
 4504SOL    HW224972   0.467   1.884   5.801 -0.4615  1.5831  0.6328
 4505SOL     OW24973   2.341   3.074   5.907  0.2687 -0.0927 -0.0699
 4505SOL    HW124974   2.283   3.069   5.831 -1.3783  1.5648  1.0464
 4505SOL    HW224975   2.370   3.166   5.907  0.7461 -0.2435  0.4092
 4506SOL     OW24976   3.314   3.248   2.001  0.5523 -0.0911 -0.5233
 4506SOL    HW124977   3.321   3.154   2.014  0.1086 -0.1665 -0.8212
 4506SOL    HW224978   3.406   3.272   1.991  1.0598 -0.9232  2.1137
 4507SOL     OW24979   3.167   2.621  10.787 -0.0476  0.0672 -0.1771
 4507SOL    HW124980   3.154   2.715  10.774  1.2991  0.0798 -1.4181
 4507SOL    HW224981   3.123   2.593  10.707 -0.5300  0.6589 -0.1248
 4508SOL     OW24982   4.121   0.629   9.812  0.3057 -0.0919 -0.1145
 4508SOL    HW124983   4.178   0.632   9.889 -0.6670 -1.3629  0.6740
 4508SOL    HW224984   4.036   0.620   9.856 -1.8819  0.5727 -4.1426
 4509SOL     OW24985   2.111   3.435   7.200 -0.5511  0.1931 -0.3027
 4509SOL    HW124986   2.130   3.359   7.146  1.7958  1.4700 -1.2831
 4509SOL    HW224987   2.182   3.493   7.171 -2.1718  2.4581  0.2983
 4510SOL     OW24988   1.487   2.085   6.184  0.0728  0.0591  0.5570
 4510SOL    HW124989   1.476   2.051   6.273  0.6728 -1.9197 -0.1183
 4510SOL    HW224990   1.448   2.171   6.201 -0.1754 -0.3206  1.9733
 4511SOL     OW24991   3.713   3.484  17.606 -0.1671  0.0289 -0.4481
 4511SOL    HW124992   3.686   3.406  17.655  1.1026 -0.4226 -0.4488
 4511SOL    HW224993   3.790   3.439  17.570 -0.3304 -1.1675  0.6660
 4512SOL     OW24994   3.963   3.712   3.089 -0.2927 -0.4987 -0.2830
 4512SOL    HW124995   3.919   3.627   3.085  1.7636 -1.5055 -1.0520
 4512SOL    HW224996   3.971   3.735   2.997  0.5400 -0.1067 -0.1136
 4513SOL     OW24997   2.249   0.743   8.826 -0.5914  0.1982 -0.0081
 4513SOL    HW124998   2.205   0.670   8.868 -1.6695  0.2461 -1.0389
 4513SOL    HW224999   2.290   0.707   8.747 -0.8348  2.2457 -1.0946
 4514SOL     OW25000   3.439   4.269   3.103 -0.3401 -0.1761 -0.5527
 4514SOL    HW125001   3.363   4.320   3.132  1.2551  2.1146 -0.4325
 4514SOL    HW225002   3.431   4.297   3.012 -0.9755 -0.7633 -0.6726
 4515SOL     OW25003   0.279   2.583   7.393 -0.4849  0.0201 -0.0415
 4515SOL    HW125004   0.341   2.588   7.466 -0.6220  2.2342 -0.0985
 4515SOL    HW225005   0.205   2.530   7.423  0.9009 -2.2846 -0.6743
 4516SOL     OW25006   0.304   3.895  11.705  0.6432 -0.1420  0.2219
 4516SOL    HW125007   0.336   3.830  11.642  1.1567  0.1607  0.1679
 4516SOL    HW225008   0.239   3.947  11.659  0.8847 -1.1779 -1.2960
 4517SOL     OW25009   1.691   4.621   6.044  0.3684  0.3860 -0.6564
 4517SOL    HW125010   1.625   4.687   6.024 -1.2349 -1.1321 -0.4029
 4517SOL    HW225011   1.703   4.651   6.134 -0.1251  2.2023 -1.2037
 4518SOL     OW25012   1.024   3.170   1.658  0.0899  0.9458 -0.0995
 4518SOL    HW125013   1.067   3.089   1.686 -0.3125  1.1477  1.1124
 4518SOL    HW225014   1.065   3.244   1.703  0.8077  1.0030 -0.8644
 4519SOL     OW25015   0.153   3.314   4.878  0.3712 -0.5344 -0.2133
 4519SOL    HW125016   0.149   3.276   4.966 -0.2684  1.2147  0.5241
 4519SOL    HW225017   0.069   3.360   4.871  0.6233 -0.2653 -1.3395
 4520SOL     OW25018   3.713   2.133   7.981 -0.1088  0.4797  0.4169
 4520SOL    HW125019   3.724   2.109   8.073  1.6562 -1.6605 -0.3562
 4520SOL    HW225020   3.802   2.111   7.952 -0.6097  0.2735 -0.9592
 4521SOL     OW25021   3.249   2.792   9.793  0.5180  0.2861 -0.7772
 4521SOL    HW125022   3.265   2.852   9.866  1.0379 -0.7811 -0.0025
 4521SOL    HW225023   3.171   2.833   9.757  0.4055  1.1185  0.4239
 4522SOL     OW25024   1.643   3.000   0.619  1.0187 -0.9545  0.0582
 4522SOL    HW125025   1.679   2.921   0.578  1.4504  0.6737 -2.7183
 4522SOL    HW225026   1.561   2.989   0.571  0.0346  0.4625  1.4563
 4523SOL     OW25027   1.496   0.123  14.762  0.2986 -0.2398 -0.2536
 4523SOL    HW125028   1.522   0.097  14.674  1.4076  0.5551 -0.1655
 4523SOL    HW225029   1.543   0.203  14.785 -0.8506  0.2317  0.5201
 4524SOL     OW25030   0.303   3.309  11.198  0.2246  0.0522  0.2138
 4524SOL    HW125031   0.275   3.384  11.251  1.2516 -0.9034  2.1171
 4524SOL    HW225032   0.252   3.330  11.119  1.0143  0.7163 -0.1204
 4525SOL     OW25033   0.442   1.282   8.153  0.2613  0.2694  0.1881
 4525SOL    HW125034   0.492   1.251   8.229  1.4200 -1.9943 -1.4765
 4525SOL    HW225035   0.513   1.303   8.092  1.4801  0.5158  1.6767
 4526SOL     OW25036   3.842   0.103  13.257 -0.0366 -0.3740 -0.4833
 4526SOL    HW125037   3.765   0.049  13.235  0.9579 -1.7339 -0.6325
 4526SOL    HW225038   3.891   0.041  13.312 -1.4295 -0.6026  0.5168
 4527SOL     OW25039   2.803   4.108   4.229 -0.3400  0.5679 -1.0311
 4527SOL    HW125040   2.800   4.075   4.319 -0.7056  0.7184 -0.9852
 4527SOL    HW225041   2.716   4.078   4.203 -0.5234  0.3943 -0.2089
 4528SOL     OW25042   2.146   0.589   4.491 -0.5773 -0.3405  0.3874
 4528SOL    HW125043   2.096   0.644   4.431  0.1060 -1.5881 -1.3181
 4528SOL    HW225044   2.178   0.664   4.542 -3.1157 -0.0584  1.5370
 4529SOL     OW25045   0.717   2.049  11.484  0.0950 -0.1795 -0.2859
 4529SOL    HW125046   0.650   2.040  11.417 -0.0974 -1.8416  0.1289
 4529SOL    HW225047   0.683   2.132  11.518  0.9600  0.1257 -0.1576
 4530SOL     OW25048   3.178   2.386   5.947 -0.1049 -0.3486 -0.1380
 4530SOL    HW125049   3.253   2.439   5.920  1.3461 -2.1355  0.4248
 4530SOL    HW225050   3.122   2.394   5.870  0.2942  0.2713 -0.3635
 4531SOL     OW25051   4.599   0.248   6.683  0.0192  0.6196 -0.2535
 4531SOL    HW125052   4.668   0.187   6.705 -0.2962  0.2970 -0.1553
 4531SOL    HW225053   4.646   0.321   6.643  0.1331  0.9295  0.4442
 4532SOL     OW25054   3.502   2.970   3.334  0.4772  0.1372  0.0047
 4532SOL    HW125055   3.575   2.925   3.376  0.6628  0.6111  0.1864
 4532SOL    HW225056   3.542   3.045   3.289 -1.9461  1.5966  0.2912
 4533SOL     OW25057   0.483   1.210   2.338  0.0847 -0.3365 -0.9616
 4533SOL    HW125058   0.440   1.288   2.303  0.7816  0.4070 -0.1429
 4533SOL    HW225059   0.555   1.261   2.375 -1.1200  0.7998 -0.1761
 4534SOL     OW25060   1.027   3.447  14.448 -0.1454  0.0923 -0.3979
 4534SOL    HW125061   1.115   3.452  14.410  0.4441 -1.3378  0.8132
 4534SOL    HW225062   0.968   3.451  14.372  0.0515 -0.0682 -0.5596
 4535SOL     OW25063   1.172   2.670   5.928 -0.0731 -0.4631 -0.3478
 4535SOL    HW125064   1.185   2.737   5.861 -0.4848  2.0428  2.1064
 4535SOL    HW225065   1.188   2.707   6.014 -1.4807 -1.2972  0.2722
 4536SOL     OW25066   4.393   3.433   2.809  0.6787  0.7964 -0.1788
 4536SOL    HW125067   4.315   3.476   2.843  0.2553  0.2887 -0.5250
 4536SOL    HW225068   4.363   3.344   2.791  0.1718  0.9988 -0.3315
 4537SOL     OW25069   1.453   1.149   4.255 -0.0047  0.1267 -0.0899
 4537SOL    HW125070   1.528   1.106   4.214 -0.7155 -0.1376 -1.1110
 4537SOL    HW225071   1.496   1.234   4.268  0.1971  0.0096  0.0099
 4538SOL     OW25072   0.751   4.318   4.184 -0.0867 -0.2554 -0.5583
 4538SOL    HW125073   0.656   4.310   4.193  0.1120  1.3092  2.8875
 4538SOL    HW225074   0.761   4.398   4.132  1.3020 -0.2458 -0.2704
 4539SOL     OW25075   1.546   2.101   8.904  0.3424 -0.7360  0.4295
 4539SOL    HW125076   1.591   2.099   8.988  1.3308 -1.9453 -0.1125
 4539SOL    HW225077   1.559   2.009   8.879  2.2649  0.3042 -2.4091
 4540SOL     OW25078   4.007   2.490   0.854  0.3629 -0.2499  0.0229
 4540SOL    HW125079   3.953   2.412   0.840 -1.4947  1.1549 -0.6202
 4540SOL    HW225080   4.085   2.466   0.805  0.1841  0.8128 -0.7859
 4541SOL     OW25081   3.366   0.196  11.809 -0.1153 -0.5309 -0.2503
 4541SOL    HW125082   3.327   0.263  11.753  0.0755 -1.1365 -1.0995
 4541SOL    HW225083   3.376   0.137  11.735  1.6582 -1.1576  0.4990
 4542SOL     OW25084   2.203   1.134   0.776 -0.5528 -0.0266 -0.1471
 4542SOL    HW125085   2.128   1.188   0.799 -0.1437 -0.4893  2.2766
 4542SOL    HW225086   2.237   1.124   0.865  0.0253  0.9141 -0.2623
 4543SOL     OW25087   1.397   2.936   0.780 -0.5426  0.3952  0.2648
 4543SOL    HW125088   1.313   2.890   0.772 -0.0730 -0.6639  1.3926
 4543SOL    HW225089   1.447   2.859   0.807 -2.6400 -0.3355  2.1395
 4544SOL     OW25090   1.489   3.415   2.557  0.7608 -0.3715 -0.0129
 4544SOL    HW125091   1.569   3.457   2.525  0.0127  0.9245 -0.1669
 4544SOL    HW225092   1.522   3.359   2.627  0.3213  0.0949  0.5664
 4545SOL     OW25093   1.273   4.546   3.331  0.3398 -0.4305 -0.1906
 4545SOL    HW125094   1.257   4.455   3.304  0.8584 -0.7427  0.5384
 4545SOL    HW225095   1.277   4.584   3.243 -1.8893  2.4321  0.9920
 4546SOL     OW25096   2.962   3.008   8.171 -0.0225  0.1701 -0.8033
 4546SOL    HW125097   2.950   2.929   8.223  0.5683  0.4956 -0.1752
 4546SOL    HW225098   3.004   2.968   8.095 -0.0196  1.9645 -1.7349
 4547SOL     OW25099   2.853   1.502   6.323 -0.2749  0.7397  0.9465
 4547SOL    HW125100   2.906   1.505   6.403  1.1934  0.0323 -0.0054
 4547SOL    HW225101   2.810   1.587   6.320  0.2393  0.9296 -0.7298
 4548SOL     OW25102   2.566   4.453   9.991  0.2087  0.1991  0.8945
 4548SOL    HW125103   2.628   4.425  10.059 -0.5657 -0.8022  1.1816
 4548SOL    HW225104   2.615   4.417   9.917 -1.7120  1.2700 -0.8763
 4549SOL     OW25105   2.157   1.913  10.765 -0.1102 -0.2541 -0.5008
 4549SOL    HW125106   2.130   1.986  10.708  0.5541  0.0376 -0.4360
 4549SOL    HW225107   2.251   1.919  10.753 -0.0002  1.9528  1.4344
 4550SOL     OW25108   2.279   2.778   5.368 -0.3883 -0.3548 -0.3596
 4550SOL    HW125109   2.265   2.686   5.388 -2.3505 -0.5827 -2.7860
 4550SOL    HW225110   2.363   2.779   5.322  0.2667  3.2019  0.8509
 4551SOL     OW25111   1.379   1.553  13.187  0.0475 -0.1214 -0.6880
 4551SOL    HW125112   1.378   1.534  13.093 -0.3411 -4.5194  0.1717
 4551SOL    HW225113   1.304   1.497  13.211  0.1835 -0.4857 -1.1103
 4552SOL     OW25114   3.160   0.699   6.644 -0.0768 -0.1609 -0.3226
 4552SOL    HW125115   3.105   0.771   6.676  1.0916  0.3796  0.4605
 4552SOL    HW225116   3.200   0.659   6.721 -1.5883 -1.1825 -0.0659
 4553SOL     OW25117   1.380   3.870   1.055  0.4361  0.0865  0.8229
 4553SOL    HW125118   1.423   3.927   1.118  1.2660 -0.3232  0.6233
 4553SOL    HW225119   1.365   3.792   1.109 -0.4789 -0.2911  0.0260
 4554SOL     OW25120   3.532   4.298  11.906  0.2465 -0.0222 -0.2635
 4554SOL    HW125121   3.577   4.219  11.934  1.2147  1.1566  1.5308
 4554SOL    HW225122   3.517   4.280  11.813  0.1185  1.2825 -0.4965
 4555SOL     OW25123   3.782   3.354  13.779  0.0876 -0.3520  0.3969
 4555SOL    HW125124   3.764   3.437  13.824 -0.4690 -0.2496 -0.0100
 4555SOL    HW225125   3.693   3.321  13.763  1.7245 -3.6908 -1.8172
 4556SOL     OW25126   3.534   4.136   8.699  0.0739  0.2159  0.3455
 4556SOL    HW125127   3.550   4.073   8.628 -1.1886 -0.2294  0.4557
 4556SOL    HW225128   3.616   4.126   8.748  1.3878  0.3271 -1.8379
 4557SOL     OW25129   4.179   3.500   8.157 -0.3145  0.7326  0.2953
 4557SOL    HW125130   4.174   3.515   8.251  1.8400  0.9076  0.3762
 4557SOL    HW225131   4.166   3.405   8.152  0.6708  0.5801  0.6227
 4558SOL     OW25132   3.751   0.388  14.118 -0.1935  0.0196 -0.0813
 4558SOL    HW125133   3.732   0.417  14.029  1.4183  1.3132 -0.0041
 4558SOL    HW225134   3.666   0.392  14.163 -0.1277  1.4344 -0.0895
 4559SOL     OW25135   4.636   2.659   2.984  0.2209 -0.0225  0.4084
 4559SOL    HW125136   4.578   2.628   3.053  2.3614 -0.7048  1.8890
 4559SOL    HW225137   4.637   2.753   3.001  2.0052 -0.3931  2.2812
 4560SOL     OW25138   0.383   3.428   0.430 -0.4264 -0.2904  0.2314
 4560SOL    HW125139   0.446   3.395   0.494  0.7586  1.8141  0.1521
 4560SOL    HW225140   0.413   3.516   0.407 -4.6279  1.0377 -0.2278
 4561SOL     OW25141   2.450   4.367  10.757  0.3732  0.0020 -0.0780
 4561SOL    HW125142   2.401   4.337  10.833  2.2306 -1.6291  0.4868
 4561SOL    HW225143   2.540   4.341  10.776  1.1512 -0.2847 -4.0132
 4562SOL     OW25144   0.566   0.171  13.973  0.6116 -0.0578  0.1790
 4562SOL    HW125145   0.540   0.136  14.058 -4.9948 -0.7170 -1.8455
 4562SOL    HW225146   0.563   0.266  13.987 -0.7190  0.2019 -1.8859
 4563SOL     OW25147   4.477   3.777   5.368  0.1111  0.7175  0.4076
 4563SOL    HW125148   4.424   3.709   5.411  0.4665 -0.3681 -0.8864
 4563SOL    HW225149   4.411   3.830   5.324  1.2557  1.0246 -0.9193
 4564SOL     OW25150   2.393   4.660   2.381 -0.2751  0.3502 -0.0212
 4564SOL    HW125151   2.430   4.586   2.333 -0.3795  1.4558 -1.7847
 4564SOL    HW225152   2.449   0.006   2.346 -1.5885  1.0648 -0.7314
 4565SOL     OW25153   0.572   3.560   9.075 -0.2602 -0.2919 -0.0623
 4565SOL    HW125154   0.526   3.484   9.041  1.4098 -2.1141  1.7632
 4565SOL    HW225155   0.523   3.638   9.048 -1.7810 -0.6891  1.5318
 4566SOL     OW25156   2.452   4.243   5.783 -0.1290  0.2774  0.1443
 4566SOL    HW125157   2.407   4.311   5.733  1.1773 -0.0602 -1.5005
 4566SOL    HW225158   2.407   4.247   5.867  1.6342 -1.4872  1.1710
 4567SOL     OW25159   4.421   0.932   1.447 -0.2391 -0.3442 -0.3581
 4567SOL    HW125160   4.488   0.965   1.388 -0.6948  0.1835 -0.5845
 4567SOL    HW225161   4.473   0.867   1.495  0.0770 -0.2971 -0.6340
 4568SOL     OW25162   0.873   2.683  15.387 -0.4299 -0.5505 -0.4479
 4568SOL    HW125163   0.812   2.756  15.376  2.2633  1.9500  0.9421
 4568SOL    HW225164   0.923   2.714  15.463 -1.3857 -0.5985  0.2031
 4569SOL     OW25165   1.207   1.212   7.494 -0.1764  0.0871 -0.1761
 4569SOL    HW125166   1.160   1.167   7.564  0.0290  0.5983  0.2898
 4569SOL    HW225167   1.137   1.244   7.436  0.7655  0.7561 -0.9610
 4570SOL     OW25168   1.492   2.395   7.523 -1.0047 -0.5334  0.8796
 4570SOL    HW125169   1.410   2.439   7.546  0.3264  2.2265  0.3292
 4570SOL    HW225170   1.457   2.338   7.455 -3.0712 -0.7398  2.1081
 4571SOL     OW25171   1.770   3.212  17.347  0.5191  0.3276 -0.2970
 4571SOL    HW125172   1.845   3.230  17.291 -0.0006 -0.7714 -1.3456
 4571SOL    HW225173   1.793   3.256  17.429 -1.1549 -1.3895  1.0893
 4572SOL     OW25174   1.674   0.847   3.026  0.0272  0.0001  0.0185
 4572SOL    HW125175   1.627   0.916   2.980 -0.4677  0.5064  1.2811
 4572SOL    HW225176   1.609   0.777   3.031 -0.7123  0.5100 -2.3828
 4573SOL     OW25177   4.687   4.599   6.988 -0.3449 -0.0280  0.5607
 4573SOL    HW125178   4.703   4.599   6.893 -0.2852  0.6321  0.5660
 4573SOL    HW225179   4.650   4.512   7.000 -1.3272  0.0481 -1.8162
 4574SOL     OW25180   3.572   0.364   1.849 -0.0772  0.4244 -0.0323
 4574SOL    HW125181   3.634   0.426   1.810  0.8836 -1.5785 -1.6657
 4574SOL    HW225182   3.565   0.405   1.935  0.0500  1.1748 -0.3743
 4575SOL     OW25183   4.605   2.212   0.784  0.2631 -0.1605 -0.7679
 4575SOL    HW125184   4.621   2.218   0.878  0.0507  0.7041 -0.7853
 4575SOL    HW225185   4.689   2.241   0.749  0.7528  1.1064  1.4521
 4576SOL     OW25186   2.772   3.667   2.947 -0.6413 -0.0268  0.6731
 4576SOL    HW125187   2.853   3.715   2.965 -0.5268  0.9503 -2.4101
 4576SOL    HW225188   2.720   3.670   3.027 -0.9799 -1.9198  0.5179
 4577SOL     OW25189   4.283   4.529   0.879  0.0304 -0.1541 -0.6134
 4577SOL    HW125190   4.334   4.527   0.798 -0.4189  2.6070 -0.9663
 4577SOL    HW225191   4.330   4.587   0.940 -1.1497 -0.0720  0.2311
 4578SOL     OW25192   3.186   3.516   7.385 -0.3608  0.0297  0.7518
 4578SOL    HW125193   3.160   3.607   7.398 -1.2965 -0.2494  0.8475
 4578SOL    HW225194   3.147   3.520   7.298  0.8696  0.7781  0.2339
 4579SOL     OW25195   4.299   1.335  10.752  0.9216  0.3297  0.0254
 4579SOL    HW125196   4.346   1.388  10.817 -0.8285 -0.4267  1.9237
 4579SOL    HW225197   4.208   1.359  10.767  0.4676 -1.8335  0.8489
 4580SOL     OW25198   0.166   1.533   1.099  0.1693 -0.1077 -0.4744
 4580SOL    HW125199   0.235   1.504   1.038 -0.2363 -0.1871 -0.8998
 4580SOL    HW225200   0.208   1.547   1.183  2.4020  0.8346 -1.7589
 4581SOL     OW25201   1.149   2.278   3.649  0.3646  0.3027 -0.1511
 4581SOL    HW125202   1.066   2.294   3.604  1.0292  3.3289 -0.2684
 4581SOL    HW225203   1.137   2.339   3.722  0.0663  0.1235 -0.0486
 4582SOL     OW25204   1.689   1.368  12.384  0.3280 -0.1664 -0.1117
 4582SOL    HW125205   1.684   1.342  12.476 -1.1822  1.7565  0.3603
 4582SOL    HW225206   1.640   1.451  12.391 -0.4075 -0.7286  1.5571
 4583SOL     OW25207   0.982   4.503   7.719  0.0415  0.1091  0.2272
 4583SOL    HW125208   0.957   4.456   7.639 -0.6195  1.2836 -0.2574
 4583SOL    HW225209   0.976   4.435   7.785 -0.3348 -1.3475 -1.3114
 4584SOL     OW25210   0.225   3.453   1.195  0.1237  0.4560  0.3022
 4584SOL    HW125211   0.267   3.433   1.111 -1.0870  0.8198 -0.3829
 4584SOL    HW225212   0.244   3.376   1.250 -0.7786 -0.7792 -1.1119
 4585SOL     OW25213   3.673   0.444   3.124  0.0187 -0.0937 -0.3877
 4585SOL    HW125214   3.719   0.528   3.121  0.4111 -0.0933  4.9955
 4585SOL    HW225215   3.748   0.397   3.162  0.2371  0.6719  0.1154
 4586SOL     OW25216   2.744   0.010  11.964  0.1482 -0.1712  0.0772
 4586SOL    HW125217   2.779   4.667  11.903 -0.9666  0.7968 -1.5955
 4586SOL    HW225218   2.685   4.684  12.022  0.5221 -0.2623  0.3811
 4587SOL     OW25219   2.653   4.578   2.653  0.6633 -0.1952 -0.2602
 4587SOL    HW125220   2.712   4.623   2.594 -0.6877 -0.3410 -1.7144
 4587SOL    HW225221   2.589   4.647   2.669  1.4238  0.5976 -0.6175
 4588SOL     OW25222   1.488   1.698   4.865  0.7816  0.0313  0.5455
 4588SOL    HW125223   1.570   1.746   4.860  1.3393 -0.8625  1.1089
 4588SOL    HW225224   1.510   1.610   4.833  1.6178  1.2017 -2.0708
 4589SOL     OW25225   0.573   0.335   6.967  0.7519  0.4540 -0.9859
 4589SOL    HW125226   0.522   0.413   6.989  0.1563  0.2411 -1.6460
 4589SOL    HW225227   0.623   0.375   6.895  0.5780  1.0097 -0.8007
 4590SOL     OW25228   2.454   1.956  10.793  0.4480 -0.2679  0.1101
 4590SOL    HW125229   2.543   1.982  10.817  0.7233 -0.3879 -0.8067
 4590SOL    HW225230   2.462   1.946  10.699 -1.2040 -1.1312  0.0572
 4591SOL     OW25231   2.029   2.667   6.158  0.0975  0.2148 -0.7652
 4591SOL    HW125232   2.085   2.739   6.187  0.3823 -1.0962  1.9148
 4591SOL    HW225233   2.087   2.599   6.194 -1.7989 -1.0557 -0.0570
 4592SOL     OW25234   1.329   1.287   5.722 -0.2610 -0.0889  0.0872
 4592SOL    HW125235   1.370   1.203   5.703  0.5220  0.3872 -0.3220
 4592SOL    HW225236   1.366   1.302   5.809  0.4508 -2.7752  0.2319
 4593SOL     OW25237   2.045   2.056  16.176 -0.0351 -0.2354 -0.0125
 4593SOL    HW125238   2.086   2.140  16.197 -0.0726 -0.0189 -0.7896
 4593SOL    HW225239   2.035   2.052  16.081  0.1319  1.7215 -0.1244
 4594SOL     OW25240   0.825   1.865  13.632  0.3610  1.0371 -0.0705
 4594SOL    HW125241   0.845   1.889  13.541  1.4976 -0.4457 -0.2008
 4594SOL    HW225242   0.826   1.942  13.689  0.0353 -0.1969  1.5874
 4595SOL     OW25243   2.374   4.166   2.274 -0.1078 -0.6594  0.6090
 4595SOL    HW125244   2.324   4.245   2.255  0.4853 -0.5591 -0.5326
 4595SOL    HW225245   2.461   4.204   2.280 -0.6060  0.3739  1.2545
 4596SOL     OW25246   0.232   0.756   6.605  0.4844 -0.8013  0.4325
 4596SOL    HW125247   0.151   0.705   6.616 -1.9567  2.9838  0.0984
 4596SOL    HW225248   0.279   0.733   6.685  0.2600  2.0193  1.3725
 4597SOL     OW25249   0.412   3.451   6.498  0.3548 -0.4293  0.9943
 4597SOL    HW125250   0.439   3.382   6.557  1.4236 -0.1149  0.8822
 4597SOL    HW225251   0.327   3.475   6.534  0.2293  0.7218 -0.0554
 4598SOL     OW25252   0.854   1.175   9.361 -0.1047  0.0237  1.0919
 4598SOL    HW125253   0.915   1.248   9.366  0.2183 -0.1182 -0.5857
 4598SOL    HW225254   0.840   1.138   9.448 -0.7020 -1.4487  0.3753
 4599SOL     OW25255   1.399   2.514   5.623  0.6104 -0.0882 -0.1040
 4599SOL    HW125256   1.494   2.524   5.636  0.4534 -0.7155  1.5722
 4599SOL    HW225257   1.374   2.512   5.715  1.1829  1.4738  0.0791
 4600SOL     OW25258   0.560   1.489   8.408 -0.9890  0.4257 -0.0363
 4600SOL    HW125259   0.652   1.465   8.406 -1.0342  0.3138 -0.5380
 4600SOL    HW225260   0.565   1.578   8.373  0.7875  0.2431 -0.2250
 4601SOL     OW25261   1.809   4.692  13.702 -0.3028 -0.0248 -0.3590
 4601SOL    HW125262   1.781   4.654  13.619 -0.4990  1.1682 -0.8292
 4601SOL    HW225263   1.827   4.608  13.746  0.0148 -0.5159 -1.4376
 4602SOL     OW25264   3.921   0.007   7.325  0.1422  0.2365  0.1210
 4602SOL    HW125265   3.922   0.102   7.321  1.0531  0.2346  0.2424
 4602SOL    HW225266   3.905   0.003   7.419  0.0551  1.9535  0.1818
 4603SOL     OW25267   1.200   2.312   8.440 -0.7480  0.1438  0.1918
 4603SOL    HW125268   1.258   2.338   8.368  1.0572  0.8272  1.9126
 4603SOL    HW225269   1.230   2.223   8.454  0.0695  0.3548 -0.2369
 4604SOL     OW25270   2.663   2.886   7.241  0.2277 -0.1718 -0.0683
 4604SOL    HW125271   2.729   2.935   7.290 -0.4505  1.5711 -0.9031
 4604SOL    HW225272   2.608   2.839   7.304 -0.0367 -2.1706 -1.8026
 4605SOL     OW25273   0.491   3.990   0.406  0.0885 -0.4711 -0.0332
 4605SOL    HW125274   0.405   3.951   0.389 -0.5124  0.7439  0.2094
 4605SOL    HW225275   0.530   4.022   0.325 -2.2179 -3.2859 -2.2652
 4606SOL     OW25276   0.983   0.113  14.022  0.1515  0.1120  0.3853
 4606SOL    HW125277   0.924   0.159  13.962 -0.4844 -0.9783  0.1797
 4606SOL    HW225278   0.920   0.079  14.086  0.1198  0.5178  0.5669
 4607SOL     OW25279   3.209   2.356   5.171  0.2090  0.2723  0.0790
 4607SOL    HW125280   3.126   2.381   5.130 -2.0304 -3.4639  2.3743
 4607SOL    HW225281   3.184   2.278   5.221 -0.4290  0.3212 -0.1568
 4608SOL     OW25282   0.238   0.957   9.152 -0.2184 -0.0684 -0.3755
 4608SOL    HW125283   0.266   0.923   9.237  0.5132  2.7759  0.4887
 4608SOL    HW225284   0.237   0.884   9.089  1.8052  0.1915 -0.6886
 4609SOL     OW25285   1.906   3.050  13.538  0.5187 -0.3126 -0.5432
 4609SOL    HW125286   1.975   2.996  13.500  0.2778 -0.1433 -1.2311
 4609SOL    HW225287   1.849   3.053  13.461 -0.2103 -0.3260 -0.0126
 4610SOL     OW25288   2.463   2.614   8.271 -0.4675 -0.0557 -0.3324
 4610SOL    HW125289   2.443   2.521   8.273 -0.0466 -0.1553 -1.1637
 4610SOL    HW225290   2.381   2.645   8.309 -1.2951 -1.3504 -1.0891
 4611SOL     OW25291   3.377   3.268  10.599  0.0726  0.0675  0.1155
 4611SOL    HW125292   3.456   3.307  10.560  0.1049 -0.5199 -0.4072
 4611SOL    HW225293   3.410   3.187  10.636  2.3840  0.9359 -0.0214
 4612SOL     OW25294   1.870   1.112   7.100  0.2908 -0.4145  0.1119
 4612SOL    HW125295   1.850   1.032   7.051  1.0460 -0.6543  0.1899
 4612SOL    HW225296   1.800   1.173   7.078  0.7616 -0.2214 -0.8162
 4613SOL     OW25297   2.365   2.721   2.854 -0.7062 -0.5679  0.5506
 4613SOL    HW125298   2.318   2.748   2.933 -1.3359 -0.4915  0.1521
 4613SOL    HW225299   2.419   2.800   2.857 -1.7368  0.2706 -2.4618
 4614SOL     OW25300   2.170   0.804  16.573  0.2987 -0.1971 -0.1660
 4614SOL    HW125301   2.077   0.789  16.557  0.4019 -0.9443 -0.0752
 4614SOL    HW225302   2.163   0.836  16.663 -0.7507  1.6594 -0.9195
 4615SOL     OW25303   0.298   0.312  15.551  0.7756 -0.0171 -0.1800
 4615SOL    HW125304   0.377   0.323  15.604 -0.7103  0.5412  1.9123
 4615SOL    HW225305   0.332   0.373  15.485  0.9530 -1.9850 -1.8833
 4616SOL     OW25306   2.930   0.989  10.327 -0.1850  0.1022  0.0177
 4616SOL    HW125307   2.891   0.960  10.409  0.9988 -0.0067  0.5477
 4616SOL    HW225308   2.854   0.998  10.270 -1.9478  0.7810  2.4877
 4617SOL     OW25309   0.117   4.571  12.240  0.2111 -0.2909  0.7436
 4617SOL    HW125310   0.121   4.594  12.333 -0.8626  0.4289  0.6087
 4617SOL    HW225311   0.025   4.546  12.237  0.1801  0.2408 -2.0126
 4618SOL     OW25312   3.828   2.795  10.023 -0.4000  0.4046  0.3227
 4618SOL    HW125313   3.857   2.719  10.073  0.7003 -0.6076 -1.8145
 4618SOL    HW225314   3.767   2.836  10.084 -1.0913 -1.0561  0.5961
 4619SOL     OW25315   0.193   2.258   1.124 -0.5536 -0.0700 -0.3625
 4619SOL    HW125316   0.276   2.266   1.171  0.7522 -1.8084 -2.3539
 4619SOL    HW225317   0.201   2.191   1.056 -1.4527 -0.4698 -0.0801
 4620SOL     OW25318   3.875   2.764   2.602 -0.2714  0.4614 -0.4450
 4620SOL    HW125319   3.822   2.708   2.658 -1.0281 -0.3844 -2.0329
 4620SOL    HW225320   3.809   2.831   2.585 -2.1160 -0.8785  1.4335
 4621SOL     OW25321   3.247   3.058   1.483 -0.9291  0.1404  0.1029
 4621SOL    HW125322   3.220   2.980   1.532  0.2277 -0.1226  0.3233
 4621SOL    HW225323   3.257   3.019   1.396  0.2209 -0.1977  0.3944
 4622SOL     OW25324   3.716   0.303  13.403  0.0011 -0.1035  0.6177
 4622SOL    HW125325   3.739   0.251  13.326 -1.6814  0.2411 -0.1147
 4622SOL    HW225326   3.621   0.307  13.402  0.0922  1.2239 -0.9299
 4623SOL     OW25327   2.024   2.066   8.853  0.6384  0.1505 -0.3077
 4623SOL    HW125328   2.043   2.073   8.760 -0.4932  0.0504 -0.5510
 4623SOL    HW225329   1.969   1.988   8.849 -0.4140  1.0084 -2.5184
 4624SOL     OW25330   3.204   3.002  16.707  0.4574  0.2360 -0.1946
 4624SOL    HW125331   3.250   2.934  16.658 -2.0908 -2.0150  0.5444
 4624SOL    HW225332   3.122   2.961  16.734  0.6016  1.9326  2.8077
 4625SOL     OW25333   2.965   0.838   4.744  0.0533 -0.0649  0.0920
 4625SOL    HW125334   2.940   0.896   4.816 -0.9148  0.9561 -1.0681
 4625SOL    HW225335   3.053   0.817   4.773  0.6105  0.0278 -1.5600
 4626SOL     OW25336   0.160   0.999  16.709  0.6799 -0.9295  0.2707
 4626SOL    HW125337   0.165   0.916  16.758  1.3529 -0.9223  0.2086
 4626SOL    HW225338   0.080   0.992  16.658  0.8517 -1.3099  0.0525
 4627SOL     OW25339   2.274   3.813   4.457 -0.1087 -0.3267 -0.4424
 4627SOL    HW125340   2.199   3.862   4.427  1.1490  2.0848  0.3514
 4627SOL    HW225341   2.284   3.746   4.389 -1.2263  0.0339 -0.9455
 4628SOL     OW25342   4.100   3.139   9.673 -0.0818  0.3744 -0.1242
 4628SOL    HW125343   4.039   3.079   9.715  0.5371  1.1571  1.9017
 4628SOL    HW225344   4.088   3.218   9.726  2.8830  0.7552 -0.0082
 4629SOL     OW25345   4.584   0.905   9.601  0.1986  0.6733  0.3905
 4629SOL    HW125346   4.534   0.912   9.682 -2.7322 -0.0581 -1.3736
 4629SOL    HW225347   4.625   0.820   9.619  1.3224  1.3913  1.2104
 4630SOL     OW25348   4.682   0.276   7.070  0.6987 -0.2285  0.1629
 4630SOL    HW125349   0.016   0.206   7.037 -0.0327 -0.6013 -0.3106
 4630SOL    HW225350   0.014   0.340   7.026 -1.0741  0.8589 -0.4336
 4631SOL     OW25351   0.121   1.775   8.352  0.3865 -0.2078 -0.1302
 4631SOL    HW125352   0.077   1.847   8.306 -0.4805 -1.0803 -0.6698
 4631SOL    HW225353   0.182   1.761   8.280 -0.3149 -2.3144 -0.3101
 4632SOL     OW25354   0.813   1.654   7.832 -0.3148  0.2553  0.1049
 4632SOL    HW125355   0.774   1.692   7.754  1.7044 -1.6995 -1.8416
 4632SOL    HW225356   0.822   1.562   7.807  0.2218  0.8667 -1.8931
 4633SOL     OW25357   1.424   1.268  17.215  0.3894 -0.4971 -0.0367
 4633SOL    HW125358   1.453   1.199  17.275 -0.8395  0.7996  2.0466
 4633SOL    HW225359   1.368   1.219  17.156 -2.6775  1.3364  1.3872
 4634SOL     OW25360   0.341   0.082  15.394 -0.4380  0.2021  0.8578
 4634SOL    HW125361   0.250   0.067  15.371 -0.0860 -1.4981  0.5537
 4634SOL    HW225362   0.328   0.144  15.466  1.0763  0.2168  1.1228
 4635SOL     OW25363   4.522   1.971   4.389  0.6166 -0.3702 -0.9091
 4635SOL    HW125364   4.605   1.962   4.341  1.9941  3.5510  0.7507
 4635SOL    HW225365   4.490   1.882   4.402  1.0134 -0.8173 -2.9184
 4636SOL     OW25366   2.182   1.518   8.356  0.0154  0.0885  0.1374
 4636SOL    HW125367   2.267   1.520   8.314 -0.8550  0.6280 -1.6103
 4636SOL    HW225368   2.138   1.453   8.301 -1.1133  1.9490 -1.1567
 4637SOL     OW25369   0.588   1.203  13.905  0.0243  1.1929 -0.7873
 4637SOL    HW125370   0.529   1.249  13.845 -0.0059 -1.3300 -2.7295
 4637SOL    HW225371   0.528   1.134  13.936 -0.4521  1.9155 -0.1109
 4638SOL     OW25372   1.487   0.433  15.089 -0.2564 -0.6436 -0.2691
 4638SOL    HW125373   1.526   0.411  15.004  0.1366 -2.4902  0.3766
 4638SOL    HW225374   1.523   0.351  15.125 -3.3342 -1.7004  0.3473
 4639SOL     OW25375   3.375   2.169   6.571 -0.4733 -0.5874  0.3782
 4639SOL    HW125376   3.344   2.215   6.649 -2.1615 -0.2334 -0.4871
 4639SOL    HW225377   3.403   2.089   6.615 -0.9807 -1.0620 -0.1453
 4640SOL     OW25378   2.793   1.148  13.149  0.3515 -0.1678  0.0308
 4640SOL    HW125379   2.815   1.151  13.242  0.9155  0.4103 -0.1240
 4640SOL    HW225380   2.878   1.167  13.109 -1.7009  1.2851 -3.5484
 4641SOL     OW25381   1.756   4.462   7.216 -0.4520  0.3742  0.2114
 4641SOL    HW125382   1.661   4.465   7.219 -0.5202 -1.2597 -0.2970
 4641SOL    HW225383   1.779   4.394   7.152  2.3003  0.9702  0.5590
 4642SOL     OW25384   1.036   3.335   2.630  0.2231 -0.0131 -0.1427
 4642SOL    HW125385   1.014   3.242   2.627 -3.6653  0.8623  0.6666
 4642SOL    HW225386   1.097   3.346   2.558 -0.3779  0.0972 -0.6412
 4643SOL     OW25387   4.009   3.517  14.003 -0.0286 -0.2271  0.7477
 4643SOL    HW125388   3.919   3.538  13.980 -0.6518 -1.3527  2.1151
 4643SOL    HW225389   4.068   3.588  13.978 -0.5321 -0.1011 -0.0778
 4644SOL     OW25390   2.018   3.865  15.536 -0.7622 -0.3521 -0.0281
 4644SOL    HW125391   2.110   3.888  15.520 -0.4650 -0.2770  1.7961
 4644SOL    HW225392   1.990   3.917  15.461 -0.6572  1.7503  1.3906
 4645SOL     OW25393   3.174   4.511   0.991  0.4832 -0.6565 -0.0413
 4645SOL    HW125394   3.180   4.516   1.086 -1.0555 -0.8072  0.0551
 4645SOL    HW225395   3.265   4.488   0.969  0.6934 -0.7191  0.9006
 4646SOL     OW25396   2.690   2.221   4.789  0.2334 -0.1603 -0.1858
 4646SOL    HW125397   2.785   2.213   4.801  0.1469  1.3920  1.5826
 4646SOL    HW225398   2.669   2.269   4.870 -2.8776 -0.4264 -0.8346
 4647SOL     OW25399   2.438   0.907   7.224 -0.5233  0.0192  0.3750
 4647SOL    HW125400   2.451   0.957   7.143  1.0510  0.3252  0.8143
 4647SOL    HW225401   2.495   0.830   7.215 -1.3366 -0.4625 -0.6742
 4648SOL     OW25402   1.094   2.527   2.606  0.3450 -0.2002  0.2044
 4648SOL    HW125403   1.137   2.454   2.560  0.1194 -0.8905  1.0859
 4648SOL    HW225404   1.138   2.526   2.691  0.3718 -1.1550  0.1851
 4649SOL     OW25405   3.007   4.652   5.437 -0.2154  0.0920 -0.2307
 4649SOL    HW125406   2.980   4.719   5.374  0.8874  2.1873  1.5242
 4649SOL    HW225407   3.011   4.577   5.378  1.2659  0.2587 -0.3370
 4650SOL     OW25408   1.982   4.562   0.626 -0.0499  0.5725 -0.7574
 4650SOL    HW125409   1.914   4.558   0.693  1.0170  0.5340  0.3407
 4650SOL    HW225410   2.060   4.571   0.682 -1.4183 -0.9202  1.3789
 4651SOL     OW25411   0.848   0.406   4.825  0.4133  0.1216 -0.0138
 4651SOL    HW125412   0.828   0.345   4.896 -0.4259  2.8214  2.0608
 4651SOL    HW225413   0.926   0.360   4.793 -0.5416 -0.4634 -1.5107
 4652SOL     OW25414   1.047   2.738   0.275  0.4391 -0.6822 -0.1857
 4652SOL    HW125415   1.095   2.806   0.323  1.4572 -1.2809 -0.3608
 4652SOL    HW225416   1.115   2.719   0.211  0.1145 -0.9051 -0.4628
 4653SOL     OW25417   0.296   0.446   5.942  0.0208 -0.0421  0.2236
 4653SOL    HW125418   0.204   0.445   5.971 -0.7708 -0.4416 -2.3131
 4653SOL    HW225419   0.333   0.476   6.025  1.7276  0.2415 -0.6548
 4654SOL     OW25420   0.729   4.440   8.458 -0.6320 -0.4531 -0.5904
 4654SOL    HW125421   0.769   4.499   8.522 -2.2831 -1.8546  1.7047
 4654SOL    HW225422   0.759   4.459   8.369 -1.4006  1.9556 -0.3389
 4655SOL     OW25423   1.158   3.987   6.243  0.0137  0.3049 -0.1346
 4655SOL    HW125424   1.080   4.024   6.202 -0.3468 -2.4132 -1.8658
 4655SOL    HW225425   1.221   4.059   6.255  0.8457 -0.3227 -0.7378
 4656SOL     OW25426   2.744   2.031   2.068 -0.1008 -0.0525  0.0555
 4656SOL    HW125427   2.744   2.120   2.034 -2.6209  0.3581  1.1410
 4656SOL    HW225428   2.829   2.044   2.109  0.0129 -0.9936  0.1233
 4657SOL     OW25429   4.592   3.434   6.758 -0.0685  0.2463 -0.1237
 4657SOL    HW125430   4.538   3.473   6.826 -2.9220 -0.2085 -2.1291
 4657SOL    HW225431   4.544   3.449   6.677 -1.3234 -0.0452  0.5599
 4658SOL     OW25432   2.827   2.342  17.480 -0.1490  0.3701  0.2335
 4658SOL    HW125433   2.753   2.316  17.534 -0.3293  0.5270  0.0622
 4658SOL    HW225434   2.826   2.288  17.401 -0.9405  1.8838 -0.8014
 4659SOL     OW25435   1.091   3.038   8.235  0.0552 -0.2711  1.0238
 4659SOL    HW125436   1.009   3.043   8.284 -1.2296  0.5804 -1.2246
 4659SOL    HW225437   1.123   3.127   8.253 -0.0127 -0.2094  0.8420
 4660SOL     OW25438   3.391   2.406   4.263 -0.2573 -0.8600 -0.3041
 4660SOL    HW125439   3.297   2.395   4.281 -0.2041  2.2630  1.8071
 4660SOL    HW225440   3.389   2.477   4.200  3.4319 -1.9089 -1.6191
 4661SOL     OW25441   0.144   3.499   2.172 -0.1366  0.3072 -0.3698
 4661SOL    HW125442   0.090   3.461   2.103 -0.0133 -1.0522  0.2886
 4661SOL    HW225443   0.128   3.467   2.261 -0.6957  2.9874  0.4865
 4662SOL     OW25444   1.162   0.237  12.730 -0.0078  0.3471  0.1988
 4662SOL    HW125445   1.116   0.308  12.775 -0.6002  0.0466  0.0680
 4662SOL    HW225446   1.221   0.287  12.674  1.1668 -0.8108  0.3936
 4663SOL     OW25447   1.260   0.276   4.034 -0.0265  0.0483  0.0205
 4663SOL    HW125448   1.242   0.355   4.084 -0.4923  1.2409 -2.0098
 4663SOL    HW225449   1.289   0.311   3.950 -1.7092  2.5408  0.4830
 4664SOL     OW25450   3.176   3.981   5.607  0.3799 -0.0093 -0.3773
 4664SOL    HW125451   3.163   3.886   5.611  0.1628  0.1223  1.9890
 4664SOL    HW225452   3.223   3.994   5.690 -0.0345  0.9115 -0.2863
 4665SOL     OW25453   4.595   1.211  12.296 -0.1355  0.2046 -0.1818
 4665SOL    HW125454   4.632   1.299  12.304 -3.1722  1.2605  2.4434
 4665SOL    HW225455   4.519   1.207  12.354  1.0486 -1.1637  1.2680
 4666SOL     OW25456   2.991   0.308   3.145 -0.2609 -0.3776  0.3621
 4666SOL    HW125457   2.980   0.268   3.058  0.8798  0.1227 -0.0107
 4666SOL    HW225458   2.931   0.249   3.190 -1.1826 -0.9974 -1.6641
 4667SOL     OW25459   2.797   2.377   0.355  0.2676 -0.2435  0.7602
 4667SOL    HW125460   2.715   2.330   0.368  0.6058 -1.2845 -0.8300
 4667SOL    HW225461   2.773   2.385   0.263  0.1647  0.0843  0.8139
 4668SOL     OW25462   0.732   2.569  17.287 -0.1325  0.1373 -0.4268
 4668SOL    HW125463   0.728   2.508  17.361  0.7706  0.8002  0.1654
 4668SOL    HW225464   0.748   2.509  17.214 -0.2717  0.6781 -0.9002
 4669SOL     OW25465   4.259   0.096  12.073 -0.1474 -0.0998  0.0679
 4669SOL    HW125466   4.172   0.078  12.109 -0.1474 -0.8025 -0.2738
 4669SOL    HW225467   4.312   0.114  12.150 -0.6265  1.5428  0.0311
 4670SOL     OW25468   2.914   2.670   3.310 -0.4347  0.4007 -0.2927
 4670SOL    HW125469   2.863   2.702   3.384 -1.3994 -2.5709  0.3161
 4670SOL    HW225470   2.940   2.579   3.327 -0.4097  0.7917  1.7840
 4671SOL     OW25471   0.201   0.157   8.418 -0.1457  0.5419  0.1948
 4671SOL    HW125472   0.131   0.192   8.363 -0.1695  0.3399  0.0942
 4671SOL    HW225473   0.158   0.110   8.489  0.5869  1.4742  1.2637
 4672SOL     OW25474   3.808   1.388  12.468 -0.4529  0.2594  0.6719
 4672SOL    HW125475   3.808   1.463  12.409  1.6302 -0.7056 -0.5403
 4672SOL    HW225476   3.733   1.333  12.447  0.8522 -1.6620  1.0739
 4673SOL     OW25477   0.997   0.447   4.066  0.0372  0.8867 -0.0836
 4673SOL    HW125478   1.061   0.509   4.099  0.5300  0.8957 -1.0555
 4673SOL    HW225479   0.954   0.491   3.992 -1.7241  0.6905  0.8232
 4674SOL     OW25480   3.062   3.246   4.548 -0.3818  0.3586  0.1309
 4674SOL    HW125481   3.003   3.320   4.559  1.0925  1.6906 -0.9970
 4674SOL    HW225482   3.140   3.291   4.518 -0.4959  0.3888 -0.1191
 4675SOL     OW25483   2.026   0.858   1.749 -0.2610 -0.2361  0.5014
 4675SOL    HW125484   2.041   0.794   1.679  1.8737  0.0607  0.6694
 4675SOL    HW225485   2.004   0.791   1.814  0.7934 -1.4560 -0.3708
 4676SOL     OW25486   0.008   1.449  12.291 -0.1980  0.0950  0.4294
 4676SOL    HW125487   0.053   1.496  12.362 -0.2220  0.2332  0.3517
 4676SOL    HW225488   0.084   1.440  12.233  0.7794  1.9267  1.4244
 4677SOL     OW25489   0.942   3.041   2.877 -0.5350  0.3970 -0.4963
 4677SOL    HW125490   0.941   3.034   2.781  0.6492  0.8045 -0.5340
 4677SOL    HW225491   0.860   3.004   2.909  0.6284 -1.9584 -0.2178
 4678SOL     OW25492   1.071   1.181   3.992 -0.4318  0.2431 -0.8900
 4678SOL    HW125493   0.983   1.149   4.014 -1.0581  1.6144 -1.4082
 4678SOL    HW225494   1.082   1.238   4.069  0.6432 -0.2850 -0.6540
 4679SOL     OW25495   0.583   1.681   8.161 -1.0461 -0.0295 -0.4402
 4679SOL    HW125496   0.662   1.628   8.161 -1.5625 -0.8189  2.9897
 4679SOL    HW225497   0.633   1.762   8.164 -1.4178  0.2040 -0.6081
 4680SOL     OW25498   1.886   4.040   6.875 -0.5775 -0.2327  0.1483
 4680SOL    HW125499   1.957   3.997   6.921  0.0632  0.0432 -0.5845
 4680SOL    HW225500   1.834   3.967   6.842 -1.2034 -0.1098  0.8677
 4681SOL     OW25501   0.753   2.401   2.029  0.7136 -0.2718 -0.0443
 4681SOL    HW125502   0.791   2.464   1.967  1.7170  0.1221  0.9879
 4681SOL    HW225503   0.730   2.344   1.956 -0.3517  2.0054 -1.5175
 4682SOL     OW25504   2.221   2.110   1.021  0.5102  0.2464  0.4619
 4682SOL    HW125505   2.266   2.121   0.937 -0.3594 -1.6213 -0.2344
 4682SOL    HW225506   2.285   2.143   1.084  1.6749  0.1438 -0.6604
 4683SOL     OW25507   2.876   0.757  11.994 -0.0691 -0.6243 -0.3982
 4683SOL    HW125508   2.827   0.676  11.982  1.3340 -1.4034 -0.9673
 4683SOL    HW225509   2.936   0.735  12.065 -0.9166 -2.1658 -0.1791
 4684SOL     OW25510   4.499   2.098   5.200 -0.4730  0.2400 -0.4054
 4684SOL    HW125511   4.489   2.007   5.226  3.2046 -0.6784 -2.2747
 4684SOL    HW225512   4.407   2.121   5.188 -1.1326 -0.6494  2.9752
 4685SOL     OW25513   3.316   3.371  16.389  0.1553  0.4944 -0.4640
 4685SOL    HW125514   3.271   3.287  16.375  2.1405 -0.4652 -1.1812
 4685SOL    HW225515   3.259   3.436  16.348 -0.6724 -0.0774 -0.2135
 4686SOL     OW25516   4.098   1.034   7.385  0.4672  0.1493 -0.2186
 4686SOL    HW125517   4.158   1.013   7.314  0.0159  2.2257 -1.2147
 4686SOL    HW225518   4.064   1.118   7.354 -1.1023 -0.1694  0.5956
 4687SOL     OW25519   0.028   2.936   7.082 -1.2001 -0.1638 -0.0117
 4687SOL    HW125520   4.692   3.008   7.106 -0.8609  1.0314 -2.7816
 4687SOL    HW225521   0.109   2.957   7.129 -0.8922  1.1422 -1.1152
 4688SOL     OW25522   3.511   4.093  11.187 -0.1525 -0.0557  0.3343
 4688SOL    HW125523   3.518   4.153  11.113  1.5325  0.0630  0.5904
 4688SOL    HW225524   3.450   4.028  11.152  2.0115 -2.2214  0.6136
 4689SOL     OW25525   1.475   4.149  15.417 -0.0678 -0.4603 -0.3065
 4689SOL    HW125526   1.476   4.054  15.412  1.5977 -0.3414 -1.9386
 4689SOL    HW225527   1.442   4.151  15.507  1.8002 -2.0394  0.4202
 4690SOL     OW25528   0.956   2.005   6.837 -0.5573 -0.0254  0.4933
 4690SOL    HW125529   0.916   2.034   6.755 -1.0301  0.1663  0.7927
 4690SOL    HW225530   0.908   2.052   6.905 -0.7427 -0.1945  0.4814
 4691SOL     OW25531   3.745   3.958   1.205  0.0356 -0.5160  0.3037
 4691SOL    HW125532   3.713   3.872   1.178 -0.7480 -0.2260  0.3000
 4691SOL    HW225533   3.709   3.978   1.291 -0.4452 -0.1451  0.0095
 4692SOL     OW25534   0.698   1.358   7.060 -0.6594  0.1273  0.3414
 4692SOL    HW125535   0.663   1.282   7.013 -0.4452 -0.0579  0.4820
 4692SOL    HW225536   0.624   1.418   7.060 -1.8530 -1.3440 -0.0109
 4693SOL     OW25537   3.748   3.067   2.835  0.1356 -0.4244  0.1814
 4693SOL    HW125538   3.754   3.048   2.742  0.5021  0.7107 -0.0257
 4693SOL    HW225539   3.801   2.993   2.865  1.6500  0.2231 -0.9297
 4694SOL     OW25540   0.209   2.477   5.916 -0.7579  0.1530  0.1522
 4694SOL    HW125541   0.246   2.464   6.003  0.8736  0.2759 -0.5219
 4694SOL    HW225542   0.283   2.437   5.871 -0.9882  0.2942 -0.3582
 4695SOL     OW25543   4.468   3.268   5.493 -0.5962 -0.3028  0.2122
 4695SOL    HW125544   4.503   3.213   5.563 -2.2064 -0.5758  0.8016
 4695SOL    HW225545   4.377   3.272   5.521 -0.6145 -0.1422  0.1292
 4696SOL     OW25546   4.430   1.028   4.495  0.1265 -0.8883  0.0087
 4696SOL    HW125547   4.519   1.062   4.501  0.7587 -2.4190 -0.7122
 4696SOL    HW225548   4.436   0.993   4.406 -0.1733 -1.5802  0.2562
 4697SOL     OW25549   0.460   2.317   1.182 -0.0039  1.0880  0.4301
 4697SOL    HW125550   0.549   2.351   1.187 -0.1805  1.8497 -1.7722
 4697SOL    HW225551   0.470   2.260   1.106  1.3480 -0.0995  1.5260
 4698SOL     OW25552   1.919   3.539   1.399 -0.3222  0.0862  0.6479
 4698SOL    HW125553   1.925   3.446   1.425  1.3914 -0.3133 -1.2181
 4698SOL    HW225554   1.827   3.562   1.403  0.2927  2.8559 -1.4245
 4699SOL     OW25555   0.357   2.103  15.768 -0.5527 -0.1422 -0.2328
 4699SOL    HW125556   0.444   2.141  15.780 -1.6889  1.8278  1.7039
 4699SOL    HW225557   0.351   2.044  15.843 -2.0818 -0.5933 -0.7225
 4700SOL     OW25558   3.505   2.308   4.501  0.3688  0.5005 -0.1942
 4700SOL    HW125559   3.441   2.237   4.503 -0.3240  1.1121 -0.7289
 4700SOL    HW225560   3.472   2.348   4.421 -0.2405  3.9591  1.7821
 4701SOL     OW25561   2.252   1.465   4.839 -0.5561  0.1692  0.3664
 4701SOL    HW125562   2.236   1.438   4.929 -1.4421 -0.8422 -0.0965
 4701SOL    HW225563   2.167   1.492   4.803 -1.0756 -1.8319  0.0969
 4702SOL     OW25564   1.933   1.380   4.449  0.0114 -0.7553 -0.2254
 4702SOL    HW125565   1.885   1.304   4.415 -1.4129  0.3062 -0.6096
 4702SOL    HW225566   1.987   1.415   4.378 -1.9779  1.5345 -0.6008
 4703SOL     OW25567   2.453   4.320   3.572 -0.7318 -0.5975 -0.3480
 4703SOL    HW125568   2.460   4.398   3.628 -1.4917 -0.0195 -1.0420
 4703SOL    HW225569   2.358   4.314   3.584 -0.7080 -0.1003  0.1312
 4704SOL     OW25570   1.255   4.534   6.855  0.2627 -0.1739 -0.0123
 4704SOL    HW125571   1.272   4.440   6.848  0.1014 -0.2339  0.3801
 4704SOL    HW225572   1.160   4.537   6.852  0.2629 -0.2724 -0.1276
 4705SOL     OW25573   1.925   4.226   5.010  0.2311  0.2235  0.2363
 4705SOL    HW125574   1.848   4.179   5.042 -0.3209  0.5303 -0.6710
 4705SOL    HW225575   1.997   4.166   5.030 -0.1610 -0.3926 -0.2382
 4706SOL     OW25576   1.995   1.187  15.812 -0.4372  0.0447 -0.2117
 4706SOL    HW125577   1.989   1.107  15.760  0.7657  0.0805 -0.4064
 4706SOL    HW225578   2.085   1.205  15.785 -0.2685  0.0713  0.3621
 4707SOL     OW25579   1.721   3.511   4.385 -0.9936  0.0783 -0.0904
 4707SOL    HW125580   1.685   3.433   4.426 -0.0493 -0.3346 -0.0595
 4707SOL    HW225581   1.640   3.544   4.346 -1.1104  1.0287  0.9514
 4708SOL     OW25582   1.822   3.535   3.521 -0.1965 -0.2218 -0.3208
 4708SOL    HW125583   1.916   3.521   3.531 -0.2998 -0.9214 -0.3194
 4708SOL    HW225584   1.810   3.452   3.474 -0.4381  1.6262 -3.5023
 4709SOL     OW25585   2.799   1.517  17.038  0.1879 -0.3982 -0.7410
 4709SOL    HW125586   2.872   1.569  17.072 -0.6018 -1.1048  2.0443
 4709SOL    HW225587   2.720   1.565  17.064  0.8746  1.2231 -1.6859
 4710SOL     OW25588   0.879   2.217   9.750 -0.5349  0.4147  0.2569
 4710SOL    HW125589   0.964   2.217   9.707 -0.6091 -3.9924  0.1284
 4710SOL    HW225590   0.899   2.231   9.842 -1.6659 -0.9074  0.7008
 4711SOL     OW25591   2.523   1.788   6.678 -0.0235  0.1148  0.6303
 4711SOL    HW125592   2.562   1.835   6.751 -0.9502  0.6050  0.8113
 4711SOL    HW225593   2.507   1.701   6.715 -1.5273  0.5991  1.1046
 4712SOL     OW25594   2.780   0.453   2.292  0.2432 -0.0086 -0.1739
 4712SOL    HW125595   2.829   0.371   2.285 -1.3677 -0.9627 -0.3706
 4712SOL    HW225596   2.849   0.517   2.308  0.7367 -0.6255  0.1889
 4713SOL     OW25597   3.686   1.625   8.898  0.2169 -0.3873 -0.1125
 4713SOL    HW125598   3.604   1.585   8.867 -0.3909  0.0903  0.8871
 4713SOL    HW225599   3.737   1.545   8.908 -1.6742 -1.2324  2.7573
 4714SOL     OW25600   2.238   1.325   7.604  0.2804  0.5334  0.6299
 4714SOL    HW125601   2.152   1.363   7.590 -0.4087 -1.9137 -1.7533
 4714SOL    HW225602   2.220   1.269   7.680  2.3572  0.9471  1.4158
 4715SOL     OW25603   4.401   4.153   6.754  0.4214  0.3965  0.1356
 4715SOL    HW125604   4.379   4.245   6.741  1.2309  0.4275 -1.0489
 4715SOL    HW225605   4.473   4.168   6.814 -0.4757  3.0988  0.5515
 4716SOL     OW25606   0.951   0.010   3.878 -0.4263 -0.7925 -0.0819
 4716SOL    HW125607   0.984   4.662   3.822  3.8777  1.2965 -0.1640
 4716SOL    HW225608   0.888   0.056   3.823 -0.6708 -3.1615 -1.7857
 4717SOL     OW25609   3.183   1.942   5.835 -0.0898 -0.2036 -0.4825
 4717SOL    HW125610   3.272   1.964   5.863  0.0511  0.2110 -1.2542
 4717SOL    HW225611   3.131   1.960   5.913  2.8184  3.8798  0.5242
 4718SOL     OW25612   0.955   0.061  16.386 -0.2712  0.0280 -0.1192
 4718SOL    HW125613   0.878   0.068  16.442  0.4577 -2.4324  1.2082
 4718SOL    HW225614   0.987   4.702  16.425 -0.8449 -0.0375  0.2303
 4719SOL     OW25615   1.308   0.959   6.488  0.4573  0.3032  0.3028
 4719SOL    HW125616   1.213   0.966   6.485  0.4455 -0.1615 -0.3280
 4719SOL    HW225617   1.333   1.051   6.489  0.9450  0.1713  0.0581
 4720SOL     OW25618   3.679   2.490   1.648 -0.3279 -0.0867  0.4668
 4720SOL    HW125619   3.702   2.558   1.711 -2.7695  3.1909 -2.1052
 4720SOL    HW225620   3.586   2.469   1.659 -1.0528  2.0119 -1.4589
 4721SOL     OW25621   0.452   4.079   2.035 -0.2651 -0.1034  0.2865
 4721SOL    HW125622   0.503   4.149   1.996  1.1135 -0.3072  1.6848
 4721SOL    HW225623   0.465   4.098   2.128  3.6843 -0.4486 -0.1742
 4722SOL     OW25624   3.162   0.997   1.455 -0.1999  0.2037  0.5180
 4722SOL    HW125625   3.161   0.985   1.550  1.5032  0.0760  0.5165
 4722SOL    HW225626   3.069   1.011   1.435  0.0347  2.2827  0.9050
 4723SOL     OW25627   3.219   0.056   3.652 -0.4599  0.0251 -0.0153
 4723SOL    HW125628   3.186   4.693   3.679  2.5153 -0.2959  2.5478
 4723SOL    HW225629   3.177   0.064   3.566  0.8515 -0.2931 -0.6807
 4724SOL     OW25630   0.938   3.365   0.129  0.5222  0.1742  0.2127
 4724SOL    HW125631   0.891   3.420   0.191 -1.1164  0.2607 -1.1195
 4724SOL    HW225632   0.989   3.428   0.078  1.0464 -0.0516  0.4562
 4725SOL     OW25633   3.163   1.546   3.161  0.2140 -0.3330  0.5748
 4725SOL    HW125634   3.125   1.627   3.196  2.8890  0.7537  0.9773
 4725SOL    HW225635   3.166   1.491   3.238 -0.1605 -1.7675 -0.4370
 4726SOL     OW25636   2.079   0.958   8.806  0.7266  0.2512 -0.2978
 4726SOL    HW125637   2.161   0.912   8.823  0.6626  0.1533 -0.2500
 4726SOL    HW225638   2.063   0.991   8.894 -0.8986  0.5328 -0.6851
 4727SOL     OW25639   2.109   2.593   2.440  0.2010  0.2392  0.4030
 4727SOL    HW125640   2.171   2.579   2.511  2.1614  1.2534 -1.0814
 4727SOL    HW225641   2.089   2.506   2.407 -0.3545  0.9335 -1.1251
 4728SOL     OW25642   2.477   3.881   5.145  0.4569  0.8223 -0.1095
 4728SOL    HW125643   2.453   3.971   5.167  2.3025  1.9657 -2.7506
 4728SOL    HW225644   2.570   3.890   5.124  0.4650 -1.5201 -1.0151
 4729SOL     OW25645   0.296   3.499   4.513  0.3336 -0.2154 -0.0681
 4729SOL    HW125646   0.283   3.510   4.607 -1.9326 -2.4878 -0.1367
 4729SOL    HW225647   0.387   3.528   4.517  0.1959 -0.0463  1.8846
 4730SOL     OW25648   3.244   1.445   5.858 -0.2375  0.4454 -0.0610
 4730SOL    HW125649   3.201   1.361   5.840  2.1531 -0.6643 -0.5195
 4730SOL    HW225650   3.217   1.459   5.949  0.3275 -0.7063  0.2916
 4731SOL     OW25651   0.350   0.577  17.403 -0.5840  0.0617 -0.1832
 4731SOL    HW125652   0.324   0.642  17.469 -1.6789 -0.7300  0.1620
 4731SOL    HW225653   0.398   0.516  17.459  0.0809 -0.7170 -1.6310
 4732SOL     OW25654   3.635   1.734   9.606 -0.0583  0.1468 -0.0155
 4732SOL    HW125655   3.617   1.669   9.674 -0.7431 -1.2119 -1.4798
 4732SOL    HW225656   3.712   1.699   9.562 -0.4987  0.3262 -0.9373
 4733SOL     OW25657   2.954   1.746  10.346  0.2140 -0.3925 -0.4212
 4733SOL    HW125658   2.915   1.785  10.424  3.1024  0.7715  0.4315
 4733SOL    HW225659   2.896   1.795  10.286 -1.4299 -1.1727  0.5421
 4734SOL     OW25660   2.268   0.361   6.874 -0.6214 -0.5844  0.0502
 4734SOL    HW125661   2.267   0.439   6.928  0.6285 -0.5752  0.0717
 4734SOL    HW225662   2.229   0.305   6.941  0.5351 -0.7423  0.6059
 4735SOL     OW25663   4.255   0.689   5.433  0.4988  0.5979  0.4385
 4735SOL    HW125664   4.337   0.707   5.386  0.3145 -1.3961 -0.6429
 4735SOL    HW225665   4.213   0.771   5.458  0.6702  0.2754  1.7915
 4736SOL     OW25666   4.128   0.603   7.947 -0.1900 -0.2835  0.1633
 4736SOL    HW125667   4.190   0.672   7.972  0.2969 -1.0467  1.0677
 4736SOL    HW225668   4.188   0.531   7.927  1.4200  1.4272 -1.1684
 4737SOL     OW25669   0.745   2.740   2.374 -0.2099  1.0812 -0.4377
 4737SOL    HW125670   0.825   2.694   2.400  1.8967  2.8541 -3.8069
 4737SOL    HW225671   0.706   2.663   2.333  1.1471 -0.0102  0.3073
 4738SOL     OW25672   0.663   2.911   2.927  0.5316 -0.7232  0.6976
 4738SOL    HW125673   0.637   2.935   3.016 -1.1100  2.6279 -0.6723
 4738SOL    HW225674   0.593   2.866   2.880  0.6615  1.6075 -1.7834
 4739SOL     OW25675   2.159   1.597   9.179  0.3086 -0.2004 -0.3238
 4739SOL    HW125676   2.198   1.517   9.214  0.8839 -0.6108 -1.9144
 4739SOL    HW225677   2.242   1.635   9.153 -0.4424  1.0382 -0.8830
 4740SOL     OW25678   0.215   2.254  11.612 -0.3146 -0.1605 -0.7008
 4740SOL    HW125679   0.168   2.179  11.574 -0.1059 -0.1156 -1.0448
 4740SOL    HW225680   0.146   2.320  11.613 -2.0981 -2.0360  0.1964
 4741SOL     OW25681   2.953   0.879   1.806  0.0220  0.5849  0.3240
 4741SOL    HW125682   2.949   0.974   1.807  1.0110  0.6317 -0.1106
 4741SOL    HW225683   2.865   0.866   1.772  0.8659 -3.0306 -0.5711
 4742SOL     OW25684   1.472   1.763  13.329 -0.4938  0.4263 -0.8402
 4742SOL    HW125685   1.444   1.686  13.280  1.9820 -0.0505 -1.4767
 4742SOL    HW225686   1.452   1.733  13.418 -0.4896 -0.6970 -1.2258
 4743SOL     OW25687   1.644   0.419   6.751 -0.9894  0.3201  0.0491
 4743SOL    HW125688   1.719   0.420   6.691  1.2627  2.4977  2.8779
 4743SOL    HW225689   1.572   0.393   6.694 -0.5390  1.6909 -1.1470
 4744SOL     OW25690   0.548   2.312  16.683 -0.3095 -0.3358 -0.0092
 4744SOL    HW125691   0.470   2.350  16.643 -0.4514  0.6554  1.2401
 4744SOL    HW225692   0.586   2.388  16.726  1.2115 -2.1656  1.8588
 4745SOL     OW25693   1.412   3.960  15.148  0.1012  0.2731  0.5227
 4745SOL    HW125694   1.368   4.044  15.147 -3.3876 -1.5779 -1.6011
 4745SOL    HW225695   1.331   3.915  15.171  0.8166 -0.1240  2.2446
 4746SOL     OW25696   2.819   1.035  12.034 -0.6794 -1.2470 -0.5701
 4746SOL    HW125697   2.732   1.001  12.051  0.0350 -2.2452  1.0523
 4746SOL    HW225698   2.857   0.949  12.013 -1.3642 -1.9074  0.9436
 4747SOL     OW25699   1.776   0.710   3.538 -0.0493 -0.3059 -0.3973
 4747SOL    HW125700   1.833   0.665   3.601 -0.1929  1.3290  0.8954
 4747SOL    HW225701   1.703   0.648   3.531 -0.6696  0.3766  0.0172
 4748SOL     OW25702   2.937   1.124   8.072 -0.0126  0.0666 -0.3836
 4748SOL    HW125703   3.011   1.177   8.102  2.8514 -1.9951 -3.7721
 4748SOL    HW225704   2.961   1.122   7.979 -0.0567 -0.7708 -0.3736
 4749SOL     OW25705   2.583   4.186   5.178 -0.4045 -0.5033  0.1640
 4749SOL    HW125706   2.608   4.117   5.240  0.5823 -0.1256  0.1818
 4749SOL    HW225707   2.646   4.254   5.202 -1.8323  0.5972  0.8199
 4750SOL     OW25708   2.765   1.990   1.030 -0.0587  0.1258 -0.1983
 4750SOL    HW125709   2.671   2.002   1.041 -0.1150 -0.6080  0.1046
 4750SOL    HW225710   2.780   2.076   0.990 -0.1518  0.9185  1.4770
 4751SOL     OW25711   3.433   3.980   1.357 -0.0807  0.6128 -0.6393
 4751SOL    HW125712   3.518   4.014   1.385 -0.2998  1.2336 -0.7202
 4751SOL    HW225713   3.380   4.057   1.334  1.7217  1.7537 -1.0250
 4752SOL     OW25714   2.361   0.647   2.242 -0.1879 -0.2413 -0.2573
 4752SOL    HW125715   2.436   0.693   2.281 -0.4304  1.4961 -1.8602
 4752SOL    HW225716   2.397   0.592   2.172  1.8925  2.8478 -1.6130
 4753SOL     OW25717   0.749   1.651  16.647  0.7988  0.6906 -0.1849
 4753SOL    HW125718   0.722   1.717  16.583 -0.4222  1.9858  1.6729
 4753SOL    HW225719   0.666   1.617  16.680  0.5934 -1.7314 -3.2513
 4754SOL     OW25720   2.407   2.909   0.232  0.7821  0.2910  0.0169
 4754SOL    HW125721   2.471   2.979   0.246 -0.0117  0.9168  0.5318
 4754SOL    HW225722   2.432   2.885   0.143  1.4097 -1.1822  0.6010
 4755SOL     OW25723   3.260   3.268   6.484 -0.5647 -0.7834  0.2609
 4755SOL    HW125724   3.313   3.238   6.410  0.1993 -2.3390  1.4586
 4755SOL    HW225725   3.199   3.195   6.493  0.0908 -1.3130  0.4058
 4756SOL     OW25726   0.173   2.446   9.263  0.5665 -0.0512  0.1807
 4756SOL    HW125727   0.149   2.520   9.208 -0.5415 -0.3626  0.2337
 4756SOL    HW225728   0.258   2.418   9.229  0.5903  1.4678 -0.9936
 4757SOL     OW25729   4.323   0.995   4.081  0.2383  0.0863 -0.4018
 4757SOL    HW125730   4.257   1.039   4.134  1.6819  0.6009  0.9944
 4757SOL    HW225731   4.358   1.068   4.031  0.4190  0.7357  0.6671
 4758SOL     OW25732   1.895   1.423  15.672  0.2409 -1.1314  0.0224
 4758SOL    HW125733   1.853   1.404  15.756  1.8302 -1.6808  0.6901
 4758SOL    HW225734   1.840   1.370  15.614 -1.5808 -0.3538  1.0323
 4759SOL     OW25735   1.980   0.942   5.256 -0.9662  0.0900  0.2585
 4759SOL    HW125736   2.009   0.884   5.326 -0.3564  2.0100  1.5757
 4759SOL    HW225737   2.029   1.024   5.262 -0.8049 -0.2434  3.1332
 4760SOL     OW25738   4.359   4.134   3.716  0.5434  0.3137 -0.4344
 4760SOL    HW125739   4.338   4.103   3.628 -1.4657 -0.9242  0.4722
 4760SOL    HW225740   4.419   4.206   3.696  0.4207  0.4862 -0.1893
 4761SOL     OW25741   2.185   1.450   2.801  0.1563 -0.2681  0.8018
 4761SOL    HW125742   2.182   1.455   2.896 -0.6666  0.7326  0.7189
 4761SOL    HW225743   2.095   1.422   2.785 -0.0903  0.9149  0.1393
 4762SOL     OW25744   4.451   3.415   5.225 -0.0261 -0.3945 -0.1938
 4762SOL    HW125745   4.527   3.472   5.237 -0.1399 -0.4041  0.6046
 4762SOL    HW225746   4.410   3.461   5.151  0.5187  1.5456  0.6957
 4763SOL     OW25747   0.903   0.663   2.343 -0.2914  0.1996 -0.0671
 4763SOL    HW125748   0.830   0.691   2.398  0.8867  1.7608  0.6997
 4763SOL    HW225749   0.916   0.740   2.288 -1.9642 -0.1362 -0.9212
 4764SOL     OW25750   1.692   0.333   2.742  0.3844 -0.3019 -0.0200
 4764SOL    HW125751   1.715   0.240   2.744  1.3594 -0.0339  1.2209
 4764SOL    HW225752   1.696   0.348   2.648 -0.3275  0.4391  0.0629
 4765SOL     OW25753   1.281   4.522   2.875 -0.3814 -0.2928 -0.1796
 4765SOL    HW125754   1.331   4.553   2.950 -0.2763 -0.3278 -0.2340
 4765SOL    HW225755   1.330   4.547   2.797 -0.5257  0.7666  0.0770
 4766SOL     OW25756   3.296   4.358   7.937  0.5023 -0.3559 -0.8186
 4766SOL    HW125757   3.234   4.431   7.932 -0.3052 -0.9928 -0.1271
 4766SOL    HW225758   3.291   4.342   7.843  1.4930 -1.2537 -0.7219
 4767SOL     OW25759   1.491   2.849   6.527  0.2589 -0.0895  0.0180
 4767SOL    HW125760   1.534   2.888   6.603 -0.6354  1.5862 -0.3244
 4767SOL    HW225761   1.481   2.929   6.474 -1.2642 -1.5827 -1.9423
 4768SOL     OW25762   4.360   3.001   2.994  0.1488  0.2818  0.0087
 4768SOL    HW125763   4.342   3.068   3.060 -0.4285 -1.7117  1.8912
 4768SOL    HW225764   4.273   2.965   2.975  1.4783 -2.7554 -0.3802
 4769SOL     OW25765   1.798   3.342   7.561 -0.0433 -0.1758 -0.4004
 4769SOL    HW125766   1.824   3.314   7.473 -2.6893 -2.3818 -0.4751
 4769SOL    HW225767   1.882   3.370   7.599  0.1836 -1.1586 -0.1669
 4770SOL     OW25768   3.228   1.978   8.589  0.4906  0.3927  0.1127
 4770SOL    HW125769   3.193   1.898   8.627 -1.5538  1.0342 -0.4548
 4770SOL    HW225770   3.317   1.963   8.621 -0.0377 -2.4349  0.2532
 4771SOL     OW25771   1.308   0.073   7.558  0.0371  0.2347  0.5826
 4771SOL    HW125772   1.287   0.045   7.469  1.7421 -0.4443  0.3908
 4771SOL    HW225773   1.230   0.052   7.610 -0.6170  2.8236  0.6583
 4772SOL     OW25774   4.223   3.188   3.715 -0.3352 -0.4357 -0.0093
 4772SOL    HW125775   4.245   3.096   3.726  0.3203  0.0282  2.5456
 4772SOL    HW225776   4.310   3.228   3.708 -0.3763 -0.4655 -0.7708
 4773SOL     OW25777   4.278   1.016   2.134  0.3866  0.7100  0.2570
 4773SOL    HW125778   4.355   1.062   2.168  0.7287 -0.2411  0.7682
 4773SOL    HW225779   4.232   1.091   2.098  0.9775  0.0523 -1.8975
 4774SOL     OW25780   3.947   2.199  12.963 -0.5493 -0.1565  0.2192
 4774SOL    HW125781   4.027   2.157  12.930  0.5999  0.8574  1.7266
 4774SOL    HW225782   3.964   2.213  13.056 -0.2148 -1.6462  0.3836
 4775SOL     OW25783   3.099   3.458  11.367  0.2095 -0.2560  0.4028
 4775SOL    HW125784   3.101   3.528  11.432  1.3451  0.2031 -0.1287
 4775SOL    HW225785   3.177   3.412  11.399  0.9109 -1.0634 -2.4662
 4776SOL     OW25786   1.971   3.820   3.571  0.1173 -0.4815  0.1327
 4776SOL    HW125787   1.948   3.818   3.664  0.7368  1.3964  0.3376
 4776SOL    HW225788   1.888   3.847   3.532  0.5473  1.1620  0.3159
 4777SOL     OW25789   1.882   0.064   5.648 -0.5682 -0.1095 -0.5206
 4777SOL    HW125790   1.920   0.080   5.561 -2.0318 -0.7422 -1.2774
 4777SOL    HW225791   1.963   0.068   5.699 -1.6304  1.6167  1.0455
 4778SOL     OW25792   4.212   4.570  15.570  0.4102  0.0114 -0.2163
 4778SOL    HW125793   4.158   4.548  15.493 -1.4340 -1.1800  1.4025
 4778SOL    HW225794   4.148   4.622  15.619 -0.8375 -2.9205  1.2557
 4779SOL     OW25795   0.543   2.052  16.690 -0.4819  0.5099  0.2683
 4779SOL    HW125796   0.541   2.148  16.684 -1.0567  0.4119 -1.2765
 4779SOL    HW225797   0.568   2.038  16.781 -0.9208  1.0813  0.4782
 4780SOL     OW25798   0.096   3.780  16.602  0.0879 -0.5623 -0.4857
 4780SOL    HW125799   0.153   3.746  16.533  0.8733  0.9760 -0.5906
 4780SOL    HW225800   0.022   3.820  16.557  0.5346  1.2485  0.3933
 4781SOL     OW25801   1.752   4.137   5.374  0.1637  0.3237  0.2310
 4781SOL    HW125802   1.780   4.095   5.293  0.8429  1.4147 -0.0956
 4781SOL    HW225803   1.742   4.066   5.437  1.7491 -0.6373 -0.6310
 4782SOL     OW25804   2.852   3.793   5.495 -0.9045 -0.6426 -0.0913
 4782SOL    HW125805   2.873   3.871   5.443  0.1995  0.0806  1.4313
 4782SOL    HW225806   2.860   3.721   5.432  1.0233  0.1637 -0.7724
 4783SOL     OW25807   0.742   1.512   5.603  0.0705  0.3591 -0.1244
 4783SOL    HW125808   0.761   1.568   5.679  1.2267 -0.0646 -0.0966
 4783SOL    HW225809   0.757   1.422   5.632 -1.3187  0.6233  1.4462
 4784SOL     OW25810   0.342   2.323  13.650 -0.1429 -0.3011  0.0304
 4784SOL    HW125811   0.393   2.320  13.731 -0.2437 -0.0750  0.1021
 4784SOL    HW225812   0.414   2.315  13.587 -0.3673  1.6807 -0.4706
 4785SOL     OW25813   0.134   1.465   5.563 -0.3030 -0.0619  0.6211
 4785SOL    HW125814   0.178   1.534   5.513  1.6001 -1.1333  0.7842
 4785SOL    HW225815   0.198   1.394   5.564 -0.2934 -0.0606 -0.2502
 4786SOL     OW25816   3.014   2.740   2.955  0.7215  0.1713 -0.0723
 4786SOL    HW125817   3.090   2.794   2.934  1.5516 -0.1027  2.1799
 4786SOL    HW225818   2.967   2.790   3.022  0.3935  1.8526 -1.5774
 4787SOL     OW25819   3.682   2.863   7.338  0.3771 -0.9534  0.2757
 4787SOL    HW125820   3.616   2.868   7.407 -0.7293 -0.8527 -0.8012
 4787SOL    HW225821   3.642   2.798   7.280 -2.8951  0.5127  0.9151
 4788SOL     OW25822   2.794   3.094   5.929  0.2263 -0.4392  0.2091
 4788SOL    HW125823   2.740   3.135   5.996  1.4893  2.0829 -0.3448
 4788SOL    HW225824   2.747   3.124   5.851  1.7136 -0.6222 -0.7644
 4789SOL     OW25825   1.521   1.001   4.628 -0.4372  0.0327 -0.0608
 4789SOL    HW125826   1.430   0.980   4.608 -0.1890 -0.5504 -0.6158
 4789SOL    HW225827   1.543   0.968   4.715 -0.9562  0.1491  0.1109
 4790SOL     OW25828   2.028   0.644  15.586 -0.2696  0.4331 -0.5678
 4790SOL    HW125829   2.028   0.559  15.631  1.8211  1.8179  2.0685
 4790SOL    HW225830   1.934   0.657  15.600 -0.3709  0.9079 -1.7227
 4791SOL     OW25831   3.191   1.291   2.461 -0.4400  0.5427  0.5010
 4791SOL    HW125832   3.227   1.278   2.373  0.3014 -0.1133  0.8949
 4791SOL    HW225833   3.151   1.377   2.457 -1.1408  0.1935 -0.0512
 4792SOL     OW25834   3.876   1.515  13.547 -0.2260  0.5061  0.0430
 4792SOL    HW125835   3.808   1.449  13.562  0.7025 -0.7123 -1.0901
 4792SOL    HW225836   3.827   1.595  13.532  0.9668  1.4184  1.0444
 4793SOL     OW25837   2.760   2.209  16.201  0.1374 -0.1913 -0.0977
 4793SOL    HW125838   2.686   2.186  16.145 -0.0625 -0.5471  0.3108
 4793SOL    HW225839   2.831   2.230  16.141 -0.4888  2.7241  0.1733
 4794SOL     OW25840   1.525   1.293   6.207 -0.1834  0.0802  0.2005
 4794SOL    HW125841   1.543   1.200   6.219 -0.4763 -0.2960 -2.2189
 4794SOL    HW225842   1.454   1.303   6.270 -0.2285 -1.9665  0.4809
 4795SOL     OW25843   0.089   2.800  10.325 -0.1354 -0.0105  0.1538
 4795SOL    HW125844   0.058   2.883  10.362 -0.9475 -0.0223 -0.5040
 4795SOL    HW225845   0.025   2.740  10.365  0.1668 -0.6506 -0.3293
 4796SOL     OW25846   3.546   4.536   7.713 -0.3128 -0.7179 -0.4475
 4796SOL    HW125847   3.606   4.582   7.655  1.7799 -2.5833  0.2017
 4796SOL    HW225848   3.601   4.457   7.720  1.6968  0.7895  0.8215
 4797SOL     OW25849   2.809   2.612  17.318 -0.5921 -0.0188 -0.0889
 4797SOL    HW125850   2.836   2.585  17.230 -0.3461 -2.2559  0.6521
 4797SOL    HW225851   2.821   2.529  17.366 -2.4915 -0.9329 -1.2119
 4798SOL     OW25852   2.721   0.082   5.383 -0.2099  0.2341  0.3472
 4798SOL    HW125853   2.645   0.138   5.397 -2.0509 -2.2873  0.3876
 4798SOL    HW225854   2.768   0.105   5.463 -0.5438 -2.3403  1.2886
 4799SOL     OW25855   4.415   1.578   9.724  0.1504 -0.4320 -0.0594
 4799SOL    HW125856   4.435   1.506   9.664  1.4839 -0.3868  0.3328
 4799SOL    HW225857   4.329   1.610   9.697 -0.0256 -1.3262 -0.5460
 4800SOL     OW25858   4.095   1.553   2.167  0.3133 -0.0216  0.0912
 4800SOL    HW125859   4.085   1.478   2.225 -1.2666 -1.4072 -1.9919
 4800SOL    HW225860   4.184   1.571   2.198 -1.1973  0.8168  3.9219
 4801SOL     OW25861   1.570   3.567   0.980  0.7603  0.4538  0.1458
 4801SOL    HW125862   1.644   3.513   1.005  0.3390 -0.5592 -0.8008
 4801SOL    HW225863   1.579   3.645   1.036  2.1992 -1.3055  2.3364
 4802SOL     OW25864   2.698   2.315   8.548  0.8345  0.2062 -0.4133
 4802SOL    HW125865   2.683   2.397   8.500 -1.2693  0.3517  0.5082
 4802SOL    HW225866   2.774   2.339   8.601  0.6255  1.7529 -0.8017
 4803SOL     OW25867   3.957   3.084   8.497 -0.1524  0.2769  0.1129
 4803SOL    HW125868   3.887   3.043   8.549  0.1983  1.0537  1.2055
 4803SOL    HW225869   3.943   3.178   8.495  0.5487  0.4701  3.4823
 4804SOL     OW25870   0.993   4.031   3.804 -0.2118  0.1628 -0.1137
 4804SOL    HW125871   0.921   3.971   3.785 -0.9965  0.7973  0.7981
 4804SOL    HW225872   0.963   4.088   3.875 -0.6670 -1.1760  0.7713
 4805SOL     OW25873   0.086   3.168   3.854  0.2437 -0.4271 -0.2339
 4805SOL    HW125874   0.080   3.263   3.857  0.8958 -0.3750 -0.6686
 4805SOL    HW225875   0.094   3.147   3.761 -2.7208  0.0343 -0.6103
 4806SOL     OW25876   4.133   3.235   1.997 -0.7682  0.1058 -0.0422
 4806SOL    HW125877   4.129   3.226   2.092  1.9738  1.1010  0.1585
 4806SOL    HW225878   4.095   3.150   1.974  2.3525 -0.3896 -3.3793
 4807SOL     OW25879   3.243   0.872   3.145  0.3380 -0.4791 -0.4479
 4807SOL    HW125880   3.186   0.803   3.113 -0.1732  0.1048 -0.7973
 4807SOL    HW225881   3.238   0.940   3.077  1.7964 -0.4650 -0.5421
 4808SOL     OW25882   4.695   0.981   9.196  0.3500  0.5798  0.0275
 4808SOL    HW125883   4.697   1.010   9.287  0.1397  1.7166 -0.3359
 4808SOL    HW225884   0.064   0.981   9.172  0.3775  0.5797  0.1306
 4809SOL     OW25885   0.684   1.650   6.093  0.2941 -0.3451 -0.2022
 4809SOL    HW125886   0.602   1.699   6.104 -1.0863 -2.9134  0.9951
 4809SOL    HW225887   0.703   1.670   6.002  1.3248  1.5374  0.4408
 4810SOL     OW25888   2.575   3.278   7.165 -0.4722  0.5901 -0.0957
 4810SOL    HW125889   2.656   3.229   7.181 -1.3329 -1.1251 -1.0127
 4810SOL    HW225890   2.542   3.297   7.252  0.9182  4.5473 -0.4228
 4811SOL     OW25891   4.336   0.925   4.731  0.4721 -0.0696  0.3260
 4811SOL    HW125892   4.364   0.838   4.758  1.5175 -0.2177 -1.2206
 4811SOL    HW225893   4.379   0.947   4.648  0.1041 -1.0840 -0.1266
 4812SOL     OW25894   3.328   1.009   5.505 -0.2302  0.3024 -0.4431
 4812SOL    HW125895   3.382   1.068   5.557 -0.4093  0.9366 -0.9868
 4812SOL    HW225896   3.237   1.035   5.523 -0.7151 -0.2304 -2.1165
 4813SOL     OW25897   4.272   2.983   4.874  0.6773 -0.5228 -0.1612
 4813SOL    HW125898   4.347   2.981   4.933  1.1708  0.3301 -0.7710
 4813SOL    HW225899   4.268   3.078   4.861  1.3697 -0.1516  2.2904
 4814SOL     OW25900   4.451   0.378   6.897 -0.2498 -0.1492  0.4033
 4814SOL    HW125901   4.495   0.389   6.982  2.3230 -0.0751 -0.9347
 4814SOL    HW225902   4.518   0.325   6.853 -0.4894  0.2682 -0.4587
 4815SOL     OW25903   4.032   1.808   3.612 -0.6732  0.0872 -0.1317
 4815SOL    HW125904   4.017   1.770   3.525  4.4808 -3.0151  0.3434
 4815SOL    HW225905   4.122   1.840   3.613 -0.9675  0.9301 -0.6011
 4816SOL     OW25906   1.525   0.348   8.412  0.0511 -0.3339  0.3940
 4816SOL    HW125907   1.431   0.331   8.421  0.5732 -3.8272 -0.7536
 4816SOL    HW225908   1.538   0.383   8.324 -2.4219 -1.8633 -0.5802
 4817SOL     OW25909   2.563   1.354  10.785 -0.3747 -0.5827  0.5580
 4817SOL    HW125910   2.541   1.264  10.759  1.2106 -0.6585 -0.4821
 4817SOL    HW225911   2.651   1.346  10.750 -0.9650 -0.8144 -0.8497
 4818SOL     OW25912   0.965   4.051  10.744 -0.2129  0.5179 -0.1020
 4818SOL    HW125913   0.987   4.057  10.837  0.0223 -0.9358 -0.0578
 4818SOL    HW225914   0.928   3.963  10.735  2.0336 -0.5988  1.8018
 4819SOL     OW25915   1.639   3.333   1.170 -0.7588 -0.0064 -0.3393
 4819SOL    HW125916   1.598   3.248   1.161 -1.7160  0.8279 -3.8373
 4819SOL    HW225917   1.680   3.347   1.084 -2.7702 -0.7233 -1.4012
 4820SOL     OW25918   0.027   0.004   8.920  0.7760 -0.1675 -0.8853
 4820SOL    HW125919   0.060   0.090   8.896 -0.7783  0.5695 -0.3778
 4820SOL    HW225920   0.090   4.693   8.983 -0.1538 -0.4388 -0.1006
 4821SOL     OW25921   2.153   1.855  10.411  0.1456 -0.1707  0.2667
 4821SOL    HW125922   2.216   1.817  10.473 -0.6110 -0.9233  0.5706
 4821SOL    HW225923   2.066   1.839  10.447  0.3315 -1.4846  0.1322
 4822SOL     OW25924   2.483   4.377   4.437  0.0357  0.4662  0.5405
 4822SOL    HW125925   2.408   4.414   4.390 -0.4061  1.1141  1.7643
 4822SOL    HW225926   2.487   4.427   4.518  0.8531  0.6086  0.4102
 4823SOL     OW25927   4.451   0.876  15.827  0.1888  0.0999 -0.9359
 4823SOL    HW125928   4.518   0.834  15.774 -0.6042 -1.0618 -0.9993
 4823SOL    HW225929   4.493   0.888  15.912 -0.4786 -1.7180 -0.3689
 4824SOL     OW25930   2.817   0.383  16.017 -0.4187 -0.1037  0.8315
 4824SOL    HW125931   2.777   0.380  16.105 -1.1406  0.1755  0.5114
 4824SOL    HW225932   2.752   0.407  15.952  0.8854  0.3501 -0.2852
 4825SOL     OW25933   0.593   2.278  15.809 -0.6709 -0.3453 -0.1370
 4825SOL    HW125934   0.670   2.307  15.760 -1.7916 -0.4457 -1.9610
 4825SOL    HW225935   0.584   2.328  15.890 -4.5449 -1.3562  0.0603
 4826SOL     OW25936   4.225   3.974  15.671  0.3612  0.7775 -0.0185
 4826SOL    HW125937   4.179   3.910  15.725 -0.1165  1.4707  0.3936
 4826SOL    HW225938   4.246   3.924  15.592 -1.0770  1.0152 -0.5465
 4827SOL     OW25939   1.035   2.550   4.588  0.0360  0.0791 -0.2639
 4827SOL    HW125940   0.951   2.509   4.569 -0.7121  1.2071  0.5863
 4827SOL    HW225941   1.086   2.469   4.595  3.9052  2.5609  0.3434
 4828SOL     OW25942   3.117   3.668  16.255 -0.0519 -0.3146  0.1146
 4828SOL    HW125943   3.061   3.745  16.267  0.1192 -0.1208 -0.3489
 4828SOL    HW225944   3.204   3.701  16.278  0.0011 -0.0004 -0.5399
 4829SOL     OW25945   1.167   0.260  10.978  0.0736  0.8641  0.2716
 4829SOL    HW125946   1.247   0.249  10.927  1.4792  1.8200  2.2274
 4829SOL    HW225947   1.155   0.353  10.956 -0.1309  0.5386 -0.9520
 4830SOL     OW25948   4.007   1.329  13.378  0.6079 -0.6740  0.4430
 4830SOL    HW125949   3.940   1.277  13.335 -1.2219  2.0888 -0.0487
 4830SOL    HW225950   3.953   1.380  13.439  2.4285 -0.9624  2.3011
 4831SOL     OW25951   3.324   4.418   9.340 -0.3302  0.1475 -0.0131
 4831SOL    HW125952   3.364   4.497   9.378 -1.5550 -0.8741  3.4057
 4831SOL    HW225953   3.229   4.432   9.349 -0.2862  0.5836 -0.2063
 4832SOL     OW25954   3.295   1.984  14.056  0.2391 -0.0241  0.1171
 4832SOL    HW125955   3.211   2.002  14.015 -0.0471 -2.0495 -0.1311
 4832SOL    HW225956   3.350   2.056  14.024  1.5960 -0.3480  1.6646
 4833SOL     OW25957   2.505   0.858  15.656  0.5809 -0.2925  0.1008
 4833SOL    HW125958   2.413   0.852  15.680  0.5594 -0.0635  0.0732
 4833SOL    HW225959   2.487   0.834  15.565  1.6004  1.4688 -0.5649
 4834SOL     OW25960   1.030   3.122  12.131 -0.0350 -0.5592 -0.0181
 4834SOL    HW125961   1.046   3.208  12.169  0.5538 -1.4779  1.7978
 4834SOL    HW225962   1.030   3.150  12.040 -1.1053  1.1579  0.5073
 4835SOL     OW25963   2.911   0.024   9.201  0.0439 -0.3318 -0.3335
 4835SOL    HW125964   2.957   4.718   9.122  0.9079 -0.6817  0.2797
 4835SOL    HW225965   2.948   0.112   9.206  1.2669 -0.7269 -2.8823
 4836SOL     OW25966   4.453   3.496  12.438  0.2399 -0.0359 -0.0624
 4836SOL    HW125967   4.410   3.468  12.518 -0.1137  1.6488  0.3328
 4836SOL    HW225968   4.544   3.469  12.451 -0.2991 -2.1230 -0.6667
 4837SOL     OW25969   0.413   1.350   5.220  0.6418  0.3910 -0.0694
 4837SOL    HW125970   0.372   1.421   5.269 -1.4489 -1.3575  0.7658
 4837SOL    HW225971   0.500   1.356   5.260  0.8979 -0.7618 -0.4563
 4838SOL     OW25972   1.237   1.405  10.432  0.1242  0.4744 -0.1568
 4838SOL    HW125973   1.326   1.386  10.461  0.3956 -1.0435 -1.9614
 4838SOL    HW225974   1.213   1.317  10.401  0.6326 -0.2934  1.5863
 4839SOL     OW25975   0.069   3.765   6.495 -0.3084  0.5356  0.0680
 4839SOL    HW125976   0.104   3.837   6.548 -1.3997  0.0407  1.4223
 4839SOL    HW225977   4.699   3.787   6.504  0.3242  2.6347  1.4709
 4840SOL     OW25978   1.932   2.284   1.268 -0.1743 -0.1548 -0.5872
 4840SOL    HW125979   1.923   2.368   1.223 -0.7488 -0.4076 -0.9434
 4840SOL    HW225980   2.028   2.283   1.264 -0.1988  0.4845 -1.2486
 4841SOL     OW25981   0.596   3.489   8.603  0.4028  0.1578 -0.5715
 4841SOL    HW125982   0.674   3.506   8.551  2.3725  1.1096  2.7339
 4841SOL    HW225983   0.636   3.415   8.647 -0.9501 -1.5972 -2.3118
 4842SOL     OW25984   2.024   2.746   8.897  0.4091  0.3745  0.4859
 4842SOL    HW125985   2.106   2.704   8.872 -1.3908 -2.4461 -0.6376
 4842SOL    HW225986   1.990   2.796   8.822 -1.0750  0.7866  1.4276
 4843SOL     OW25987   3.983   2.618   9.869 -0.4756  0.3017 -0.3174
 4843SOL    HW125988   3.917   2.686   9.873 -0.1437  0.5455  1.1315
 4843SOL    HW225989   4.009   2.619   9.962 -1.8950 -0.8935  0.0919
 4844SOL     OW25990   3.308   0.446   6.236  0.3757 -0.3788  0.1906
 4844SOL    HW125991   3.264   0.518   6.190  0.1896 -0.6771 -0.0898
 4844SOL    HW225992   3.234   0.386   6.242 -0.4559  0.5824 -0.3552
 4845SOL     OW25993   4.673   3.850  10.923  0.2810  0.0456  0.0890
 4845SOL    HW125994   4.707   3.858  10.834  1.2170  0.5307  0.4852
 4845SOL    HW225995   4.681   3.941  10.949 -0.1174  0.3986 -1.0017
 4846SOL     OW25996   3.433   3.996   2.387 -0.2964  0.6973  0.3358
 4846SOL    HW125997   3.398   4.084   2.394  1.7568  1.4457  1.0719
 4846SOL    HW225998   3.385   3.957   2.460  1.2995  2.5228  2.3665
 4847SOL     OW25999   2.002   1.792   2.976  0.3699  0.0377  0.3579
 4847SOL    HW126000   1.964   1.732   3.039 -1.9776 -0.1111 -1.2015
 4847SOL    HW226001   1.945   1.785   2.899 -0.2451  1.8018  0.6539
 4848SOL     OW26002   3.067   2.829   7.136 -0.2161  0.2780  0.1507
 4848SOL    HW126003   3.092   2.920   7.121  0.2707  0.2598  0.8312
 4848SOL    HW226004   3.141   2.810   7.193  0.3265  2.0648  0.0319
 4849SOL     OW26005   2.686   1.269  16.321 -0.0701 -0.0225  0.7094
 4849SOL    HW126006   2.765   1.322  16.312  0.2343 -0.0219  3.5548
 4849SOL    HW226007   2.632   1.315  16.256  0.6377  0.5644  0.5391
 4850SOL     OW26008   4.460   4.569   7.673 -0.3828  0.2472 -0.3203
 4850SOL    HW126009   4.402   4.525   7.610  1.1760 -1.2755 -0.7051
 4850SOL    HW226010   4.534   4.596   7.619  1.8836  0.6602  2.9865
 4851SOL     OW26011   1.955   2.202   0.946 -0.8653 -0.2458  0.3524
 4851SOL    HW126012   2.015   2.263   0.904 -2.0594  0.4395 -0.3687
 4851SOL    HW226013   2.018   2.136   0.974 -0.3606 -0.0092 -0.2517
 4852SOL     OW26014   3.053   2.685  16.640  0.1219  0.4132 -0.1533
 4852SOL    HW126015   2.993   2.760  16.646 -1.4054 -0.5880 -2.9816
 4852SOL    HW226016   3.034   2.647  16.555 -0.2602 -0.4546  0.3178
 4853SOL     OW26017   2.038   4.030   8.153  0.0689 -0.3099 -0.0678
 4853SOL    HW126018   2.076   4.108   8.112 -0.8757  0.6516  0.8843
 4853SOL    HW226019   1.957   4.064   8.190  1.8950  0.7718  2.9332
 4854SOL     OW26020   0.541   1.974  14.022 -0.3507  0.1695  0.6611
 4854SOL    HW126021   0.473   1.960  14.087 -2.2481 -0.2583 -1.3938
 4854SOL    HW226022   0.492   1.972  13.940  0.7327  1.8751 -0.0323
 4855SOL     OW26023   1.280   2.434   5.851 -0.2354 -0.5644  0.1546
 4855SOL    HW126024   1.347   2.428   5.919 -2.0714 -1.8008  1.8721
 4855SOL    HW226025   1.228   2.507   5.886 -0.5626 -1.4264  1.4897
 4856SOL     OW26026   4.170   2.828   3.335 -0.1357  0.0176  0.2403
 4856SOL    HW126027   4.164   2.756   3.273  0.0859  0.7057 -0.5758
 4856SOL    HW226028   4.080   2.859   3.332  0.6025  1.9695 -2.0776
 4857SOL     OW26029   1.163   2.189   0.421 -0.4197 -0.3144  0.4326
 4857SOL    HW126030   1.206   2.166   0.504  2.2978  0.9589 -0.6201
 4857SOL    HW226031   1.110   2.266   0.441 -1.2095 -0.1385 -2.3346
 4858SOL     OW26032   3.127   3.962   0.514 -0.8109  0.1383 -0.5989
 4858SOL    HW126033   3.124   4.007   0.598  0.1033 -0.8148 -0.0638
 4858SOL    HW226034   3.161   3.879   0.546 -1.8306  0.1620  0.5276
 4859SOL     OW26035   2.551   2.501   3.530 -0.4603  0.2095  0.6193
 4859SOL    HW126036   2.577   2.541   3.447 -2.3908 -1.5664 -0.8288
 4859SOL    HW226037   2.634   2.455   3.543 -0.4937 -0.3423 -1.0991
 4860SOL     OW26038   4.414   1.415   8.266 -0.6968  0.0625 -0.2599
 4860SOL    HW126039   4.398   1.321   8.274  1.8554 -0.4209 -1.0502
 4860SOL    HW226040   4.509   1.411   8.263 -0.7499 -0.8685 -0.5552
 4861SOL     OW26041   2.257   0.196   5.512 -0.4204  0.1785 -0.3541
 4861SOL    HW126042   2.222   0.110   5.535 -3.1271  1.8079  1.5780
 4861SOL    HW226043   2.182   0.254   5.526 -0.5971 -1.0751  3.7104
 4862SOL     OW26044   2.440   1.288  13.028  0.1773 -0.0385  0.5196
 4862SOL    HW126045   2.355   1.318  13.059 -0.2753 -0.2085 -0.5350
 4862SOL    HW226046   2.462   1.353  12.960  1.1226 -1.3860 -0.4503
 4863SOL     OW26047   0.708   1.997   0.807 -0.1813  0.2168 -0.2500
 4863SOL    HW126048   0.710   1.901   0.811  0.6358  0.2057 -0.7621
 4863SOL    HW226049   0.688   2.006   0.713  2.2294 -1.1055 -0.8987
 4864SOL     OW26050   1.051   1.204   4.764  0.2989  0.1457 -0.0447
 4864SOL    HW126051   1.135   1.205   4.717  0.6400 -1.9760  0.4928
 4864SOL    HW226052   1.088   1.190   4.851  1.5518 -0.5986 -0.6786
 4865SOL     OW26053   0.662   2.778   0.370 -0.5540  0.0652 -0.2371
 4865SOL    HW126054   0.629   2.700   0.325  0.5418  0.4490 -1.7238
 4865SOL    HW226055   0.740   2.784   0.315  0.5120 -1.9286  1.0971
 4866SOL     OW26056   0.870   1.192  15.028  1.1182  0.4514 -0.2567
 4866SOL    HW126057   0.846   1.281  15.055  2.1665  0.8341 -0.5668
 4866SOL    HW226058   0.856   1.190  14.934 -0.7675  1.1603  0.0168
 4867SOL     OW26059   1.846   3.564  12.708  0.3378  0.3530 -0.4052
 4867SOL    HW126060   1.790   3.486  12.709 -0.4347  0.9113 -0.0342
 4867SOL    HW226061   1.932   3.528  12.731  0.4401  0.0928 -1.1992
 4868SOL     OW26062   1.897   0.110   3.266  0.3363  0.1818 -0.2762
 4868SOL    HW126063   1.983   0.104   3.308  0.5106  1.0889 -0.4888
 4868SOL    HW226064   1.893   0.020   3.234 -1.1717  0.4373 -0.8073
 4869SOL     OW26065   0.956   2.566   8.275 -0.5292 -0.0668 -0.5728
 4869SOL    HW126066   0.872   2.543   8.234 -0.5268  0.9867 -1.1860
 4869SOL    HW226067   0.984   2.475   8.281  0.1918  0.1409 -0.7868
 4870SOL     OW26068   1.625   2.426  10.068  0.3764  0.2942  0.2701
 4870SOL    HW126069   1.639   2.460   9.979  0.7457 -0.7691 -0.0800
 4870SOL    HW226070   1.534   2.445  10.088  0.1864 -0.7520  0.4141
 4871SOL     OW26071   3.170   4.718   7.214  0.0496 -0.3070 -0.0676
 4871SOL    HW126072   3.122   4.645   7.174  0.3732 -0.1309 -0.7777
 4871SOL    HW226073   3.107   0.049   7.262  0.2640  1.8728 -2.2607
 4872SOL     OW26074   1.136   2.595  16.107  0.1134  0.4526  0.8679
 4872SOL    HW126075   1.200   2.633  16.168  0.5760  0.9677  0.0555
 4872SOL    HW226076   1.096   2.520  16.152  0.3787  0.2366  0.7380
 4873SOL     OW26077   3.656   2.590  10.250  0.4091 -0.5713 -0.3736
 4873SOL    HW126078   3.735   2.590  10.195  0.3099  0.4588 -0.5284
 4873SOL    HW226079   3.679   2.651  10.320  0.7397 -0.9652 -0.1414
 4874SOL     OW26080   1.525   0.427   8.103  0.2145 -0.0488 -0.1411
 4874SOL    HW126081   1.491   0.515   8.085  0.7825 -0.0532 -1.2214
 4874SOL    HW226082   1.448   0.372   8.118  0.8156 -1.2811 -1.6152
 4875SOL     OW26083   0.823   3.216  17.635  0.1622  0.1413 -0.4269
 4875SOL    HW126084   0.911   3.230  17.602  1.0704 -1.6116  1.2582
 4875SOL    HW226085   0.824   3.271   0.021  1.2949 -0.2534 -0.1710
 4876SOL     OW26086   3.440   3.530   3.245 -0.2646 -0.2183  0.0231
 4876SOL    HW126087   3.345   3.521   3.248 -0.2019 -1.7269 -1.9058
 4876SOL    HW226088   3.469   3.455   3.296 -0.9495  0.1810  1.0014
 4877SOL     OW26089   3.674   0.060   5.695 -0.3066  0.1967  0.3299
 4877SOL    HW126090   3.630   0.105   5.767  1.6892  1.1858  0.9164
 4877SOL    HW226091   3.606   0.050   5.629 -0.7931 -3.8236  1.4240
 4878SOL     OW26092   4.359   3.956   7.067  0.3160  0.1243 -0.4970
 4878SOL    HW126093   4.378   3.936   7.158 -0.3664 -0.3544 -0.4594
 4878SOL    HW226094   4.406   4.038   7.050 -1.6850  1.1829 -0.9643
 4879SOL     OW26095   1.841   4.399   5.291 -0.7030  0.4901 -0.0121
 4879SOL    HW126096   1.831   4.422   5.383  0.7332 -1.4447  0.6173
 4879SOL    HW226097   1.825   4.305   5.299  1.0228  0.0807 -1.2961
 4880SOL     OW26098   0.916   1.136   8.649 -0.0498  0.1525 -0.2142
 4880SOL    HW126099   0.932   1.147   8.743  0.7918  0.1398 -0.3650
 4880SOL    HW226100   0.939   1.043   8.643  1.0851  0.5474 -1.8831
 4881SOL     OW26101   0.422   4.222   3.094  0.4014  0.1747 -0.4792
 4881SOL    HW126102   0.473   4.270   3.029 -0.2888  0.9839 -0.4189
 4881SOL    HW226103   0.425   4.133   3.059  0.0641 -0.0734  0.1217
 4882SOL     OW26104   1.817   0.684   6.289  0.2911  0.1486  0.4252
 4882SOL    HW126105   1.853   0.715   6.373  1.6374  0.3417 -0.2201
 4882SOL    HW226106   1.878   0.611   6.280  0.2689  0.5142 -2.6850
 4883SOL     OW26107   3.477   3.316   0.785 -0.3984  0.7171 -0.3398
 4883SOL    HW126108   3.555   3.281   0.741 -1.0687  0.6817 -1.4864
 4883SOL    HW226109   3.401   3.276   0.743  0.0044 -0.4484  0.0278
 4884SOL     OW26110   1.078   0.437   7.756  0.1560  0.5565 -0.0200
 4884SOL    HW126111   1.157   0.462   7.804 -0.1806  1.8181 -0.1049
 4884SOL    HW226112   1.106   0.490   7.681 -0.3032 -2.1333 -2.1003
 4885SOL     OW26113   0.392   2.462   4.178  0.1675 -0.0606  0.2174
 4885SOL    HW126114   0.330   2.418   4.119 -0.5421  2.5038 -0.9725
 4885SOL    HW226115   0.337   2.535   4.209 -1.1408 -0.3673 -1.3413
 4886SOL     OW26116   3.687   0.037  11.933 -0.0927 -0.5166 -0.1515
 4886SOL    HW126117   3.649   4.672  11.924 -0.6872 -0.2247 -0.4671
 4886SOL    HW226118   3.606   0.080  11.961  1.2869  0.7330  1.8175
 4887SOL     OW26119   3.631   1.629   3.098 -0.2366  0.0263  0.0700
 4887SOL    HW126120   3.573   1.639   3.022 -0.1713 -2.1133 -0.2748
 4887SOL    HW226121   3.718   1.606   3.066 -0.8334 -1.7008 -0.3479
 4888SOL     OW26122   3.661   4.605   4.939  0.0674 -0.6497  0.6466
 4888SOL    HW126123   3.616   4.563   4.866 -0.1332 -0.4321  0.6461
 4888SOL    HW226124   3.648   4.700   4.929 -0.5221 -0.6742  1.1961
 4889SOL     OW26125   0.379   4.052  10.185  0.5312 -0.2907 -0.1463
 4889SOL    HW126126   0.375   4.132  10.237 -0.2186 -0.1863 -0.3687
 4889SOL    HW226127   0.450   4.003  10.226  0.6062 -0.9423 -1.0649
 4890SOL     OW26128   2.252   1.864   9.270 -0.1855 -0.1453 -0.9328
 4890SOL    HW126129   2.250   1.950   9.312  1.6739 -0.1486 -0.8324
 4890SOL    HW226130   2.225   1.819   9.350  0.7332 -1.9712 -1.6330
 4891SOL     OW26131   2.347   0.596  16.609  0.3092  0.0926  0.0844
 4891SOL    HW126132   2.275   0.659  16.601  1.0004  0.9964  0.9291
 4891SOL    HW226133   2.287   0.527  16.635 -0.9209  1.5550  1.1427
 4892SOL     OW26134   3.454   2.928  14.232  0.0171  0.2093 -0.2493
 4892SOL    HW126135   3.549   2.935  14.231  0.1985 -2.2921  0.1629
 4892SOL    HW226136   3.455   2.833  14.222  0.1722  0.3907 -1.9173
 4893SOL     OW26137   4.266   4.590   7.423 -0.4218  0.0418 -0.4264
 4893SOL    HW126138   4.339   4.533   7.400  0.0420  0.7779 -0.7953
 4893SOL    HW226139   4.231   4.611   7.336 -1.8133 -0.6192 -0.0256
 4894SOL     OW26140   1.151   2.956   5.803 -0.0248 -0.3148  0.4477
 4894SOL    HW126141   1.061   2.966   5.831  0.2002  0.1375  0.9990
 4894SOL    HW226142   1.146   2.966   5.707 -0.8566 -4.5202  0.0503
 4895SOL     OW26143   1.801   3.733  12.455  0.4578 -0.1328  0.6937
 4895SOL    HW126144   1.852   3.687  12.389  1.5181  3.0559 -0.6901
 4895SOL    HW226145   1.716   3.724  12.413  0.1671  3.7166  0.4598
 4896SOL     OW26146   4.460   3.225  11.245 -0.3349  0.0737  0.2650
 4896SOL    HW126147   4.457   3.295  11.311  1.1602 -1.2389  1.7280
 4896SOL    HW226148   4.461   3.265  11.158 -2.2218  0.5829  0.4768
 4897SOL     OW26149   0.892   2.534   0.001  0.1839  0.0826  0.0167
 4897SOL    HW126150   0.889   2.439  17.687  1.4397 -0.1453  2.8514
 4897SOL    HW226151   0.961   2.551  17.629 -1.0535  1.1857 -1.0147
 4898SOL     OW26152   1.167   0.317   9.886  0.1176 -0.0565  0.1641
 4898SOL    HW126153   1.196   0.234   9.924  0.6985  0.0818  0.0231
 4898SOL    HW226154   1.109   0.344   9.958 -0.1617  1.5229 -0.6546
 4899SOL     OW26155   3.709   2.242   5.449  0.3796  0.7625  0.1759
 4899SOL    HW126156   3.805   2.237   5.446  0.3338  1.6075 -2.4448
 4899SOL    HW226157   3.694   2.334   5.472  1.7194  0.8960  0.5385
 4900SOL     OW26158   4.661   1.154   1.437  0.2398 -0.2392 -0.0019
 4900SOL    HW126159   4.620   1.209   1.504 -0.7636 -0.5824 -0.3317
 4900SOL    HW226160   4.642   1.193   1.352  2.3581  1.4185  0.2890
 4901SOL     OW26161   1.367   2.154   2.056 -1.1636 -0.1558  0.5372
 4901SOL    HW126162   1.368   2.117   1.968  2.7409 -0.6694  0.8191
 4901SOL    HW226163   1.275   2.178   2.065 -0.7841  0.8055  1.9328
 4902SOL     OW26164   4.634   2.455  17.350  0.3190  0.6173 -0.2583
 4902SOL    HW126165   4.569   2.508  17.397  2.4764  2.2053  0.9670
 4902SOL    HW226166   4.572   2.411  17.292  0.7584  0.3092 -0.4953
 4903SOL     OW26167   0.310   4.392   5.108  0.0825 -0.5341  0.3912
 4903SOL    HW126168   0.291   4.316   5.053 -0.9735  0.3167 -0.4143
 4903SOL    HW226169   0.229   4.391   5.159 -1.5329 -1.5436 -2.2106
 4904SOL     OW26170   3.921   1.556   7.145  0.2652  0.2386 -0.7819
 4904SOL    HW126171   3.994   1.494   7.138  1.5411  1.1672  3.8420
 4904SOL    HW226172   3.955   1.637   7.105  0.1560 -0.2456 -1.8534
 4905SOL     OW26173   1.910   0.783   5.038 -0.1365  0.6136 -0.5911
 4905SOL    HW126174   1.977   0.823   5.094  0.1280 -1.4450  0.5625
 4905SOL    HW226175   1.951   0.795   4.953 -0.7059  0.5657 -0.8740
 4906SOL     OW26176   2.528   0.404   4.710 -0.2382 -0.0350 -0.6472
 4906SOL    HW126177   2.493   0.489   4.734 -2.5727 -1.6061  1.4581
 4906SOL    HW226178   2.565   0.383   4.796 -0.1032 -0.4675 -0.8112
 4907SOL     OW26179   2.877   3.462   2.546  0.2256 -0.2661  0.0176
 4907SOL    HW126180   2.806   3.497   2.599  0.3203 -0.1922  0.0958
 4907SOL    HW226181   2.959   3.494   2.583  0.1457 -0.1791  0.1189
 4908SOL     OW26182   0.978   3.903   7.389 -0.4853  0.3997  0.4825
 4908SOL    HW126183   1.051   3.948   7.348  0.0701 -1.0132 -0.0746
 4908SOL    HW226184   0.927   3.873   7.313 -2.1544  0.4069  1.5901
 4909SOL     OW26185   4.262   2.024   7.222 -0.0990  0.2292 -0.2185
 4909SOL    HW126186   4.289   1.947   7.172 -0.7784  0.8612 -1.5374
 4909SOL    HW226187   4.345   2.072   7.212 -1.0401  2.1094  1.0009
 4910SOL     OW26188   4.119   1.286   8.411 -0.2421  0.3610  0.2121
 4910SOL    HW126189   4.146   1.199   8.441 -0.2203  0.3193  0.0682
 4910SOL    HW226190   4.177   1.338   8.466 -0.1561  1.0123 -0.4959
 4911SOL     OW26191   2.147   1.115   6.916 -0.0801  0.0753 -0.1139
 4911SOL    HW126192   2.136   1.062   6.995  0.1819 -2.2551 -1.6049
 4911SOL    HW226193   2.096   1.192   6.938 -0.5067  0.3281 -1.9743
 4912SOL     OW26194   3.079   3.141   6.244  0.5133  0.6238 -0.2390
 4912SOL    HW126195   3.097   3.234   6.258 -1.9314  0.8827  1.1352
 4912SOL    HW226196   2.995   3.122   6.287  0.6932 -0.3273 -0.2939
 4913SOL     OW26197   2.366   4.512   9.512  0.2097 -0.2988  0.4243
 4913SOL    HW126198   2.350   4.565   9.433 -2.2614  0.2162  1.2896
 4913SOL    HW226199   2.427   4.448   9.476 -1.8770 -1.9036 -0.2128
 4914SOL     OW26200   0.392   3.108  10.659  0.0029  0.5597  0.1317
 4914SOL    HW126201   0.323   3.115  10.592  2.5883 -0.8461 -2.6731
 4914SOL    HW226202   0.370   3.179  10.720  0.1121  3.1209 -2.7647
 4915SOL     OW26203   3.760   1.025   5.500 -0.2343 -0.4082 -0.1829
 4915SOL    HW126204   3.803   1.097   5.453  1.6332 -2.0112 -0.9618
 4915SOL    HW226205   3.703   0.997   5.428 -2.1332  0.8874  0.8336
 4916SOL     OW26206   1.519   4.318   5.978 -0.5228  0.1842  0.4407
 4916SOL    HW126207   1.582   4.386   6.002  0.7316  0.1502 -2.7409
 4916SOL    HW226208   1.528   4.323   5.883 -0.7966  0.3651  0.4252
 4917SOL     OW26209   0.678   3.730   8.729 -0.4887  0.2407  0.0390
 4917SOL    HW126210   0.633   3.791   8.670  0.0264 -1.5792 -2.2171
 4917SOL    HW226211   0.677   3.645   8.687 -0.5073 -0.4014  1.3374
 4918SOL     OW26212   2.531   0.787   8.922  0.5668 -0.1099  0.5319
 4918SOL    HW126213   2.446   0.802   8.880  1.5868  2.2105 -0.7287
 4918SOL    HW226214   2.550   0.700   8.885 -2.2337  0.3790 -2.1084
 4919SOL     OW26215   1.705   1.233  15.550 -0.0360  0.4267 -0.6744
 4919SOL    HW126216   1.647   1.228  15.626  1.4457 -0.8810  0.3880
 4919SOL    HW226217   1.734   1.146  15.524 -0.2609  0.4095 -0.8647
 4920SOL     OW26218   3.904   1.472  14.988  0.1163 -0.0279  0.0926
 4920SOL    HW126219   3.814   1.485  14.959  0.7906  3.3537 -0.3739
 4920SOL    HW226220   3.920   1.380  14.967  2.9412  0.1748  1.3833
 4921SOL     OW26221   3.487   0.438   4.344 -0.3588 -0.4818  0.4356
 4921SOL    HW126222   3.467   0.509   4.405  0.5858  0.2778 -0.1363
 4921SOL    HW226223   3.500   0.362   4.400  0.4532  0.5711  1.6638
 4922SOL     OW26224   3.559   4.288  13.076 -0.6561 -0.1138 -0.1892
 4922SOL    HW126225   3.606   4.339  13.143 -0.5571 -2.5323  1.5824
 4922SOL    HW226226   3.625   4.223  13.049 -0.8476  0.6694 -2.5275
 4923SOL     OW26227   1.627   3.362   6.178  0.3973  0.4084 -0.3865
 4923SOL    HW126228   1.656   3.426   6.242 -0.7440 -1.1325  1.6749
 4923SOL    HW226229   1.545   3.338   6.221 -0.7880  1.1836 -2.2300
 4924SOL     OW26230   2.196   1.126   5.255 -0.0114 -0.3887 -0.1409
 4924SOL    HW126231   2.211   1.144   5.348 -0.9573 -1.0825  0.1482
 4924SOL    HW226232   2.265   1.175   5.211  0.2381  0.4878  1.1896
 4925SOL     OW26233   2.837   2.016   9.084  0.1444  0.6958  0.2666
 4925SOL    HW126234   2.805   2.035   9.172  0.5419  1.2212  0.2961
 4925SOL    HW226235   2.773   1.950   9.055  0.5822  0.4475 -0.1222
 4926SOL     OW26236   0.265   1.299   4.584  0.1471  0.3520 -0.2804
 4926SOL    HW126237   0.328   1.228   4.569 -2.4545 -2.0761  0.2786
 4926SOL    HW226238   0.312   1.368   4.631 -0.5862  0.4479  0.2894
 4927SOL     OW26239   4.366   4.186  10.314  0.3484  0.8081 -0.3841
 4927SOL    HW126240   4.286   4.219  10.274 -1.0199 -3.7621 -1.4503
 4927SOL    HW226241   4.429   4.200  10.243 -0.3720  2.1754 -0.7348
 4928SOL     OW26242   2.045   1.386  16.679  0.0699 -0.2826  0.0271
 4928SOL    HW126243   2.127   1.346  16.652  0.2588  0.2365 -0.1496
 4928SOL    HW226244   2.041   1.478  16.652 -0.5966 -0.3560 -0.1417
 4929SOL     OW26245   4.275   2.886   8.608  0.2485  0.5239 -0.0607
 4929SOL    HW126246   4.239   2.798   8.617  1.6882 -0.0815 -0.0952
 4929SOL    HW226247   4.328   2.877   8.528 -3.1028  1.4396 -2.3509
 4930SOL     OW26248   4.052   4.531  13.231 -0.6382 -0.0513 -0.3723
 4930SOL    HW126249   4.018   4.578  13.154  1.6328  1.7990 -0.2645
 4930SOL    HW226250   4.047   4.440  13.202  0.7796 -0.1553 -0.2949
 4931SOL     OW26251   0.839   1.476   9.259  0.4297 -0.5975 -0.1449
 4931SOL    HW126252   0.924   1.441   9.286  0.5862  2.3546  3.1119
 4931SOL    HW226253   0.848   1.461   9.165  2.6958 -0.3375  0.0265
 4932SOL     OW26254   0.243   0.737  10.203  0.4483  0.2418  0.0287
 4932SOL    HW126255   0.242   0.790  10.282 -2.2298  1.3931 -0.7844
 4932SOL    HW226256   0.149   0.721  10.196  0.4926  0.5761 -1.4088
 4933SOL     OW26257   1.113   4.289   4.222 -0.8201  0.0047  0.4102
 4933SOL    HW126258   1.120   4.375   4.264  1.3407  0.6187 -1.2183
 4933SOL    HW226259   1.099   4.312   4.131 -2.0281  0.1532  0.6392
 4934SOL     OW26260   2.704   1.666   2.729  0.2220 -0.1208 -0.1706
 4934SOL    HW126261   2.745   1.620   2.656  0.1708 -0.4539  0.0130
 4934SOL    HW226262   2.667   1.602   2.789 -0.5607 -0.3231 -0.8789
 4935SOL     OW26263   0.115   2.404   4.885 -0.3037 -0.2145 -0.3909
 4935SOL    HW126264   0.208   2.425   4.895 -0.4103  0.9028 -1.7584
 4935SOL    HW226265   0.079   2.478   4.836  0.0614  0.1529 -0.1021
 4936SOL     OW26266   0.327   4.135   0.671  0.4259 -0.3297  0.1963
 4936SOL    HW126267   0.401   4.172   0.623 -2.4686  1.9216 -2.6120
 4936SOL    HW226268   0.260   4.147   0.603 -0.3029 -1.2507  0.7570
 4937SOL     OW26269   3.570   2.732   4.878  0.2056  0.2546  0.0784
 4937SOL    HW126270   3.498   2.684   4.918  0.3561 -0.8270 -0.9558
 4937SOL    HW226271   3.556   2.722   4.783 -2.0874  0.9992  0.3321
 4938SOL     OW26272   0.172   2.973   5.974  0.6855  0.3182 -0.7827
 4938SOL    HW126273   0.170   3.069   5.980 -0.8002  0.0613  2.4408
 4938SOL    HW226274   0.233   2.938   6.039  1.5896 -0.2587 -1.9452
 4939SOL     OW26275   4.457   3.719   8.635 -0.3969 -0.2470  0.1374
 4939SOL    HW126276   4.454   3.802   8.683 -0.5531 -0.9283  1.2751
 4939SOL    HW226277   4.408   3.745   8.557  0.4779 -0.9061 -0.6350
 4940SOL     OW26278   3.820   2.594  11.999 -0.2137  0.4801 -0.3341
 4940SOL    HW126279   3.840   2.580  11.907 -3.5697  0.6758 -1.1001
 4940SOL    HW226280   3.888   2.659  12.015  0.8757 -0.7688  0.1392
 4941SOL     OW26281   0.052   1.472   4.669 -0.9427  0.1447 -0.1727
 4941SOL    HW126282   0.122   1.408   4.655 -0.2483  0.9147 -0.2272
 4941SOL    HW226283   0.052   1.462   4.764  0.0659 -1.6255 -0.3441
 4942SOL     OW26284   1.356   2.832  12.394  0.1407  0.3276 -0.8037
 4942SOL    HW126285   1.363   2.818  12.300 -1.1680 -2.3822 -0.5223
 4942SOL    HW226286   1.447   2.847  12.419 -0.2653 -1.5329  1.8862
 4943SOL     OW26287   3.317   1.336  16.774  0.1956  0.2784  0.3785
 4943SOL    HW126288   3.352   1.321  16.862  0.5650 -1.8519 -0.1260
 4943SOL    HW226289   3.251   1.398  16.803 -0.3744  0.9096 -2.2287
 4944SOL     OW26290   4.630   3.251   6.121  0.1080  0.4568  0.1124
 4944SOL    HW126291   4.675   3.255   6.037  0.4615 -1.5495  0.2077
 4944SOL    HW226292   4.621   3.157   6.134 -0.1260  0.5452  0.5692
 4945SOL     OW26293   0.318   4.373   1.425 -0.1215 -0.2039 -0.1196
 4945SOL    HW126294   0.293   4.438   1.359  0.8379  0.1212 -0.1615
 4945SOL    HW226295   0.262   4.407   1.495 -0.5176  0.8267 -0.9334
 4946SOL     OW26296   4.184   4.454   0.331 -0.0496  0.3882 -0.6873
 4946SOL    HW126297   4.107   4.479   0.279 -0.7322  2.5036  1.3626
 4946SOL    HW226298   4.170   4.500   0.414  1.7426  2.1547 -1.3590
 4947SOL     OW26299   1.790   0.729   8.815 -0.5693 -0.3135  0.6978
 4947SOL    HW126300   1.721   0.662   8.811 -0.6397 -0.2269  0.4907
 4947SOL    HW226301   1.777   0.772   8.900  2.5251  1.1012  0.4378
 4948SOL     OW26302   2.630   3.316   3.740  1.1951 -0.1677  0.2531
 4948SOL    HW126303   2.657   3.242   3.794  2.7861 -0.8875 -1.5056
 4948SOL    HW226304   2.560   3.269   3.694  2.3895 -1.9111  0.2107
 4949SOL     OW26305   2.920   4.519  14.843 -0.1068 -0.1066  0.1481
 4949SOL    HW126306   2.925   4.541  14.750  2.8476  1.5742  0.7215
 4949SOL    HW226307   2.851   4.452  14.836 -0.0879 -0.1330  0.2144
 4950SOL     OW26308   0.086   2.279  15.745  0.7640 -0.3968 -0.1142
 4950SOL    HW126309   0.083   2.342  15.673  0.5817 -0.3240 -0.0445
 4950SOL    HW226310   0.179   2.257  15.744  0.3990 -1.9200 -2.2418
 4951SOL     OW26311   1.711   0.895  16.756  0.0746  0.2574  0.4254
 4951SOL    HW126312   1.660   0.854  16.686  0.9920 -0.1099 -0.0237
 4951SOL    HW226313   1.750   0.821  16.801 -1.1066 -1.9099 -2.1672
 4952SOL     OW26314   3.516   3.645   2.570 -0.6262  0.1568  0.3621
 4952SOL    HW126315   3.520   3.643   2.475  0.0668  2.8706  0.3376
 4952SOL    HW226316   3.466   3.722   2.596 -1.3259 -0.3788  0.6006
 4953SOL     OW26317   4.490   3.371  11.497 -0.2412  0.5880 -0.4515
 4953SOL    HW126318   4.546   3.344  11.569 -2.2018 -1.1249  0.4430
 4953SOL    HW226319   4.470   3.459  11.527  1.1485  0.1874  1.6467
 4954SOL     OW26320   2.640   2.628  17.570 -0.0708  0.0429 -0.0276
 4954SOL    HW126321   2.585   2.549  17.564  1.0963 -0.8155  0.4821
 4954SOL    HW226322   2.706   2.604  17.505  0.0293  1.6766 -0.5090
 4955SOL     OW26323   1.055   4.351  15.223  0.1368  0.0290 -0.1617
 4955SOL    HW126324   1.102   4.278  15.184 -1.2690 -2.0701  2.0612
 4955SOL    HW226325   0.966   4.339  15.189 -0.8091  1.6309  1.7916
 4956SOL     OW26326   3.610   1.068   8.799 -0.3784  0.5214 -0.0729
 4956SOL    HW126327   3.543   1.038   8.861  0.3392  0.2686  0.5762
 4956SOL    HW226328   3.645   1.142   8.848  3.4793 -1.6264  0.3493
 4957SOL     OW26329   0.378   2.259   4.519 -0.0036 -0.0059 -0.1031
 4957SOL    HW126330   0.298   2.212   4.493  0.7033 -0.9129 -0.6308
 4957SOL    HW226331   0.337   2.338   4.554 -0.0422  1.4371 -3.4413
 4958SOL     OW26332   2.775   0.169   6.584  0.2222  0.0349 -0.4793
 4958SOL    HW126333   2.763   0.081   6.621 -0.2082  0.8607  1.3456
 4958SOL    HW226334   2.870   0.169   6.572  0.2145  1.0780 -0.5371
 4959SOL     OW26335   3.521   0.428   6.779 -0.5451  0.4398  0.1471
 4959SOL    HW126336   3.594   0.451   6.722  1.0172  0.9419  2.3311
 4959SOL    HW226337   3.488   0.508   6.819 -0.5106  0.2089  0.6340
 4960SOL     OW26338   1.106   3.953   3.493 -1.2414  0.3953 -0.2702
 4960SOL    HW126339   1.139   4.024   3.549 -1.9154  0.7018 -0.2701
 4960SOL    HW226340   1.150   3.977   3.411  2.1131  0.3223  1.5009
 4961SOL     OW26341   0.518   2.530   1.815  0.0109 -0.2641 -0.1355
 4961SOL    HW126342   0.526   2.471   1.890  0.7905  1.0133  0.7900
 4961SOL    HW226343   0.425   2.550   1.811  0.3621  2.0019  2.7271
 4962SOL     OW26344   2.564   4.328   3.121  0.3140  0.0426 -0.3337
 4962SOL    HW126345   2.649   4.365   3.144 -0.2216 -0.3469  2.2904
 4962SOL    HW226346   2.521   4.407   3.088 -0.1975 -1.5196 -3.3753
 4963SOL     OW26347   4.431   3.647   3.257 -0.2600 -0.0877 -0.2854
 4963SOL    HW126348   4.416   3.554   3.244 -2.6516  0.2331  0.2606
 4963SOL    HW226349   4.371   3.689   3.195 -0.4091  0.5080  0.2630
 4964SOL     OW26350   3.843   1.223   7.081  0.0908 -1.0521  0.1951
 4964SOL    HW126351   3.914   1.239   7.143 -0.0025  0.3296 -0.0712
 4964SOL    HW226352   3.844   1.127   7.074 -0.7213 -1.0245 -0.3581
 4965SOL     OW26353   0.504   4.269   6.405  0.1290 -0.3132  0.1690
 4965SOL    HW126354   0.436   4.208   6.374 -0.1081 -1.5977  3.2560
 4965SOL    HW226355   0.485   4.348   6.354  0.7995 -0.0852  0.2773
 4966SOL     OW26356   2.957   4.089   7.066  0.3731  0.2822  0.4692
 4966SOL    HW126357   3.001   4.113   6.984 -0.9662  0.4753 -0.2006
 4966SOL    HW226358   3.034   4.060   7.115  0.4423 -2.0069 -1.0054
 4967SOL     OW26359   4.042   2.480   5.615 -0.4357  0.3146 -0.1999
 4967SOL    HW126360   3.999   2.565   5.608 -0.7163 -0.0259 -2.5098
 4967SOL    HW226361   4.047   2.478   5.711 -1.8835 -1.8406 -0.1611
 4968SOL     OW26362   1.996   1.378   7.518 -0.3605 -0.1374  0.0840
 4968SOL    HW126363   1.927   1.344   7.575  0.4319 -0.2899  0.9456
 4968SOL    HW226364   1.989   1.318   7.444  1.7496 -1.7927  1.2618
 4969SOL     OW26365   1.891   4.482   3.599  0.2558  0.2600  0.7538
 4969SOL    HW126366   1.904   4.539   3.674 -0.3027  0.7120  0.5093
 4969SOL    HW226367   1.950   4.528   3.540 -2.3164 -1.6800 -3.3516
 4970SOL     OW26368   3.408   2.561   3.036  0.2399  0.4398 -0.8305
 4970SOL    HW126369   3.468   2.605   2.976  0.6921 -1.4776 -1.7759
 4970SOL    HW226370   3.398   2.628   3.103 -1.9027  0.9880 -1.7174
 4971SOL     OW26371   2.444   1.816  15.583 -0.1084  0.0571 -0.8643
 4971SOL    HW126372   2.448   1.896  15.531  0.9952  1.6685  1.7078
 4971SOL    HW226373   2.348   1.807  15.579 -0.2821  1.0136  1.5747
 4972SOL     OW26374   1.236   2.508  11.704 -0.3967 -0.1384  0.4355
 4972SOL    HW126375   1.300   2.459  11.653 -0.5439 -1.3626  1.4393
 4972SOL    HW226376   1.156   2.514  11.651  3.7656  1.6476 -5.5982
 4973SOL     OW26377   3.773   4.095   5.418  0.1297 -0.0225  0.1916
 4973SOL    HW126378   3.815   4.106   5.332  0.8717  1.6507  0.7493
 4973SOL    HW226379   3.685   4.127   5.398  0.2587  1.1983  1.5972
 4974SOL     OW26380   1.024   3.289  15.391  0.4858 -0.2878  0.7316
 4974SOL    HW126381   1.109   3.311  15.429  1.6993  0.1770 -2.2799
 4974SOL    HW226382   0.968   3.280  15.468 -3.6074  1.2640 -2.0288
 4975SOL     OW26383   1.904   3.651   3.917 -0.4859  0.1562  0.5170
 4975SOL    HW126384   1.930   3.559   3.925 -1.0583  0.1207  2.0327
 4975SOL    HW226385   1.825   3.653   3.971  1.1269 -0.5736  2.8749
 4976SOL     OW26386   2.564   2.742   3.686 -0.1121  0.5035 -0.5270
 4976SOL    HW126387   2.543   2.658   3.646 -1.1143  0.8102 -0.6420
 4976SOL    HW226388   2.619   2.713   3.759 -0.7417  0.1977 -0.1768
 4977SOL     OW26389   1.818   0.901   6.940 -0.3160  0.1312  0.0008
 4977SOL    HW126390   1.750   0.918   6.875  0.7739  1.2789 -0.8434
 4977SOL    HW226391   1.884   0.861   6.883 -1.2795 -0.4140 -0.7189
 4978SOL     OW26392   2.537   3.575  11.962  0.1099 -0.1205  0.1474
 4978SOL    HW126393   2.500   3.634  11.896  1.0460 -1.4927 -1.6036
 4978SOL    HW226394   2.567   3.631  12.033 -2.6035  0.5334  0.8024
 4979SOL     OW26395   0.553   1.557   7.256 -0.0007  0.3230 -0.2146
 4979SOL    HW126396   0.644   1.585   7.252  0.1020  0.7085  5.0363
 4979SOL    HW226397   0.514   1.636   7.217 -0.6329  0.0560 -0.1312
 4980SOL     OW26398   3.181   2.076  10.796  0.3647 -0.3681 -0.1065
 4980SOL    HW126399   3.207   2.168  10.794  0.7197 -0.4610  0.1980
 4980SOL    HW226400   3.152   2.059  10.706 -2.1791  0.6680  0.5038
 4981SOL     OW26401   0.454   4.510   6.265 -0.3236 -0.1894  0.3952
 4981SOL    HW126402   0.454   4.496   6.170 -2.3574  1.3069  0.1815
 4981SOL    HW226403   0.363   4.534   6.280  0.1009  0.6479  1.6585
 4982SOL     OW26404   2.122   3.543   8.688  0.1850  0.4540  0.8202
 4982SOL    HW126405   2.193   3.501   8.640 -0.8621 -1.1915  0.7340
 4982SOL    HW226406   2.166   3.604   8.748  0.8622  1.4973 -0.7115
 4983SOL     OW26407   0.395   1.660   4.148 -0.3906  0.1061 -0.1325
 4983SOL    HW126408   0.396   1.649   4.243 -0.0000  0.3090 -0.1133
 4983SOL    HW226409   0.306   1.625   4.138 -0.0702  0.2095 -3.1598
 4984SOL     OW26410   2.182   3.050   5.701  0.3148 -0.0529  0.1019
 4984SOL    HW126411   2.125   2.977   5.679 -0.5131  1.1305 -1.7751
 4984SOL    HW226412   2.127   3.127   5.685  0.7738  0.4269  0.8514
 4985SOL     OW26413   1.712   0.935  13.516 -0.0364  0.0695  1.0778
 4985SOL    HW126414   1.643   0.871  13.501 -0.1347  0.0870  1.4535
 4985SOL    HW226415   1.668   1.007  13.560 -1.0012 -0.5019  1.0471
 4986SOL     OW26416   2.013   1.374  14.859  0.5500 -0.2293 -0.2813
 4986SOL    HW126417   1.995   1.312  14.930  0.2795 -0.0160 -0.1631
 4986SOL    HW226418   1.991   1.321  14.782  0.8703  0.5958 -0.9416
 4987SOL     OW26419   1.107   2.529   9.087  0.1060 -0.4005  0.0616
 4987SOL    HW126420   1.048   2.596   9.053  1.6134 -0.1670 -2.1159
 4987SOL    HW226421   1.113   2.471   9.011  0.9053 -0.9226  0.5273
 4988SOL     OW26422   4.246   1.567   8.434  0.1566  0.6992  0.1107
 4988SOL    HW126423   4.253   1.568   8.529 -2.0202  2.7864  0.2669
 4988SOL    HW226424   4.335   1.540   8.414  0.3524  0.9564  0.6593
 4989SOL     OW26425   3.540   3.039  17.199 -0.2875  0.5227 -0.3879
 4989SOL    HW126426   3.454   3.034  17.239  0.9101 -0.4689  2.0436
 4989SOL    HW226427   3.581   3.100  17.260  1.2066 -0.3872 -0.4772
 4990SOL     OW26428   2.464   0.842  17.246  0.1476  0.3180 -0.0283
 4990SOL    HW126429   2.517   0.863  17.168 -0.3503 -0.3075 -0.5311
 4990SOL    HW226430   2.483   0.909  17.311  1.6997 -0.3794  0.2301
 4991SOL     OW26431   2.021   3.015  15.250 -0.5898  0.2907 -0.1603
 4991SOL    HW126432   1.937   3.061  15.246  0.5965  2.2655 -2.0520
 4991SOL    HW226433   2.084   3.075  15.211 -1.6009  0.3627 -1.6876
 4992SOL     OW26434   2.170   4.680   5.633  0.0427  0.0393 -0.1065
 4992SOL    HW126435   2.182   4.622   5.708  0.2148 -0.6387 -0.6536
 4992SOL    HW226436   2.191   4.633   5.552 -0.0267 -1.4230  0.7267
 4993SOL     OW26437   2.739   2.317   1.458  0.3514 -0.5400  0.3241
 4993SOL    HW126438   2.798   2.282   1.392  0.3392  1.6022 -0.8223
 4993SOL    HW226439   2.655   2.297   1.415  0.7374  0.2797 -0.8077
 4994SOL     OW26440   3.859   1.300   4.808  0.3213 -0.1631 -0.2956
 4994SOL    HW126441   3.929   1.340   4.860 -0.0685  0.0497  0.0613
 4994SOL    HW226442   3.785   1.334   4.857 -0.3530 -1.8224 -0.1866
 4995SOL     OW26443   1.850   3.825   9.124 -0.2880 -0.3023 -0.2074
 4995SOL    HW126444   1.829   3.877   9.202 -0.6612  0.1306 -0.5917
 4995SOL    HW226445   1.945   3.826   9.126 -0.2695  0.1008 -1.0946
 4996SOL     OW26446   1.031   0.450   6.381  0.1794 -0.1666  0.5143
 4996SOL    HW126447   1.054   0.493   6.299  2.8310  0.8328  1.7664
 4996SOL    HW226448   1.073   0.513   6.440  3.1479 -2.5760  0.9932
 4997SOL     OW26449   1.990   3.605   8.344  0.4360 -0.4052 -0.4027
 4997SOL    HW126450   1.950   3.608   8.257 -2.1824  0.2995  0.8220
 4997SOL    HW226451   1.970   3.516   8.374 -1.4338  0.1070 -0.1032
 4998SOL     OW26452   1.044   4.459  17.467 -0.2303 -0.5483 -0.2703
 4998SOL    HW126453   1.024   4.546  17.501  1.4607 -0.4343  0.4829
 4998SOL    HW226454   1.067   4.415  17.549  0.3606  1.4651  0.6415
 4999SOL     OW26455   4.233   2.804   9.282 -0.4866  0.1623  0.0428
 4999SOL    HW126456   4.152   2.807   9.231 -0.2426 -2.3861 -0.4803
 4999SOL    HW226457   4.285   2.768   9.210 -0.3990  0.7698 -0.1942
 5000SOL     OW26458   0.724   1.254   2.489 -0.0569  0.6435 -0.3457
 5000SOL    HW126459   0.756   1.344   2.493 -2.8912  1.6075  0.6452
 5000SOL    HW226460   0.806   1.204   2.483  0.1741  0.7984  1.7294
 5001SOL     OW26461   4.599   3.125   7.809 -0.6668  0.1133  0.0955
 5001SOL    HW126462   4.616   3.056   7.873 -1.2870 -0.6681 -0.5800
 5001SOL    HW226463   4.673   3.114   7.750 -1.4577  0.3222 -0.9414
 5002SOL     OW26464   1.391   3.961  12.164  0.3130 -0.6048  0.1908
 5002SOL    HW126465   1.385   3.936  12.071 -1.0635 -2.5078  0.7733
 5002SOL    HW226466   1.370   4.054  12.167  0.6712 -0.5583  1.2957
 5003SOL     OW26467   2.635   1.043   3.718  0.0638  0.0288  0.5639
 5003SOL    HW126468   2.558   1.088   3.752  1.1544  0.0201  3.0700
 5003SOL    HW226469   2.709   1.101   3.735 -0.0131 -0.4055  2.3509
 5004SOL     OW26470   1.022   1.788   8.737  0.1345 -0.2355  0.0203
 5004SOL    HW126471   1.086   1.728   8.775  1.4782 -0.4423 -2.5611
 5004SOL    HW226472   1.068   1.869   8.760 -0.8716  0.4324 -0.3066
 5005SOL     OW26473   0.900   2.153  17.163 -0.2897 -0.2404  0.0925
 5005SOL    HW126474   0.845   2.113  17.230 -0.4870 -0.7190 -0.3545
 5005SOL    HW226475   0.850   2.156  17.082  0.0516 -0.1040 -0.1165
 5006SOL     OW26476   2.680   4.342  12.518  0.3097  0.1158 -0.3132
 5006SOL    HW126477   2.612   4.298  12.569  2.7153 -0.8692  2.0648
 5006SOL    HW226478   2.704   4.275  12.454 -0.8208  0.4309 -1.0669
 5007SOL     OW26479   0.202   1.738   7.604  0.3014  0.2589  0.0572
 5007SOL    HW126480   0.174   1.667   7.546 -0.0004  0.3338  0.1143
 5007SOL    HW226481   0.254   1.695   7.672 -1.1036 -0.9530  0.3592
 5008SOL     OW26482   3.753   2.001   3.072 -0.0283 -0.3217  0.5042
 5008SOL    HW126483   3.753   2.095   3.050  2.3964 -0.0113  1.7719
 5008SOL    HW226484   3.844   1.978   3.055  0.1315  1.0179 -0.4898
 5009SOL     OW26485   2.643   0.880   7.771  0.4435  0.3973  0.1289
 5009SOL    HW126486   2.649   0.843   7.859  0.4148 -1.4749 -0.6610
 5009SOL    HW226487   2.572   0.934   7.805  0.0105  0.3385 -0.6879
 5010SOL     OW26488   3.932   4.660   6.300  0.3681  0.2520 -0.3566
 5010SOL    HW126489   3.854   4.714   6.285 -0.0501 -0.7787 -1.9483
 5010SOL    HW226490   3.941   4.598   6.227 -2.5771  0.1119 -0.6110
 5011SOL     OW26491   2.978   1.891   4.352 -0.2711 -0.0275  0.0169
 5011SOL    HW126492   2.941   1.859   4.270 -0.5732  0.9612 -0.2328
 5011SOL    HW226493   2.903   1.866   4.406  0.4565  1.1493  1.5795
 5012SOL     OW26494   2.497   3.326   0.772 -0.3428  0.0728  0.9692
 5012SOL    HW126495   2.509   3.276   0.853 -0.7275 -2.0603 -0.2933
 5012SOL    HW226496   2.406   3.357   0.779 -1.0218 -1.9136  0.7610
 5013SOL     OW26497   4.533   0.401  10.941  0.7608 -0.3535  0.0295
 5013SOL    HW126498   4.530   0.479  10.885  1.2554  0.7468  1.5108
 5013SOL    HW226499   4.531   0.446  11.026  0.0238 -0.9787  0.3408
 5014SOL     OW26500   3.008   3.915   2.391 -0.2634  0.2729 -0.3285
 5014SOL    HW126501   3.097   3.910   2.356 -0.3352  1.0890 -0.6104
 5014SOL    HW226502   3.021   3.990   2.448 -1.4078 -0.6823  1.2081
 5015SOL     OW26503   3.429   0.893   0.528 -1.0394 -0.0419  0.2220
 5015SOL    HW126504   3.520   0.867   0.541 -1.1881 -0.9820 -0.6235
 5015SOL    HW226505   3.431   0.985   0.553  0.2051  0.1033 -0.4288
 5016SOL     OW26506   1.452   3.074  14.921  0.6285 -0.0808 -0.5202
 5016SOL    HW126507   1.474   3.044  14.833 -3.2137 -1.2264 -1.1056
 5016SOL    HW226508   1.365   3.033  14.931  0.1335  1.5696  1.9887
 5017SOL     OW26509   2.732   1.987  13.562 -0.3612 -0.6588 -0.2454
 5017SOL    HW126510   2.761   2.077  13.580 -0.8889 -0.6389  0.5008
 5017SOL    HW226511   2.784   1.945  13.630 -1.3950  0.1554  1.0569
 5018SOL     OW26512   3.712   1.691   8.633 -0.3192  0.8386  0.0610
 5018SOL    HW126513   3.792   1.743   8.624  0.2985  0.0830  1.1247
 5018SOL    HW226514   3.705   1.679   8.728  1.9644  0.2111  0.1486
 5019SOL     OW26515   1.619   2.635   7.451  0.2691  0.2845  0.1770
 5019SOL    HW126516   1.592   2.548   7.478 -0.6439  0.2436 -0.8632
 5019SOL    HW226517   1.632   2.682   7.534  0.3489  2.1700 -0.9162
 5020SOL     OW26518   1.240   0.037   2.427 -0.2896  0.0023 -0.5123
 5020SOL    HW126519   1.286   0.030   2.511 -2.3199  1.6383  0.7379
 5020SOL    HW226520   1.252   0.130   2.410 -2.1265  0.3776  0.1888
 5021SOL     OW26521   2.035   1.981  10.204  0.1832 -0.4223 -0.3255
 5021SOL    HW126522   2.110   2.001  10.148  0.6451 -1.6539 -0.1454
 5021SOL    HW226523   2.075   1.940  10.280 -0.3165  0.5467  0.4583
 5022SOL     OW26524   4.640   1.595   8.479 -0.2841 -0.0227  0.5442
 5022SOL    HW126525   4.714   1.645   8.446 -0.4127  1.2406  2.1524
 5022SOL    HW226526   4.663   1.509   8.445  3.1101  0.3895  1.7978
 5023SOL     OW26527   1.092   2.972   8.638  0.1712  0.4216 -0.1074
 5023SOL    HW126528   1.181   2.957   8.608  0.8629 -0.7648  2.5696
 5023SOL    HW226529   1.052   2.910   8.576 -0.1818  0.2457  0.2998
 5024SOL     OW26530   3.007   4.721   5.119 -0.2572 -0.1077  0.0310
 5024SOL    HW126531   2.937   0.063   5.124 -0.0267 -0.0358  2.2845
 5024SOL    HW226532   3.064   0.033   5.050 -0.3542 -0.3689 -0.1778
 5025SOL     OW26533   1.236   1.825  10.105 -0.0502  0.2118  0.1061
 5025SOL    HW126534   1.267   1.869  10.184 -1.2878 -1.4971  1.5386
 5025SOL    HW226535   1.279   1.739  10.114  2.0280  1.2874  0.4139
 5026SOL     OW26536   1.520   3.647   8.864  0.8205  0.2247 -1.0931
 5026SOL    HW126537   1.576   3.723   8.878  1.2454 -0.0548 -1.2697
 5026SOL    HW226538   1.548   3.577   8.923 -0.3438  2.4257  2.0369
 5027SOL     OW26539   2.377   1.588   4.626  0.6396  0.1910 -0.1922
 5027SOL    HW126540   2.286   1.563   4.641  0.8397  0.3996  1.3119
 5027SOL    HW226541   2.418   1.573   4.711 -1.0787 -4.2849 -0.1287
 5028SOL     OW26542   1.353   2.639   9.546  0.3967  0.1661 -0.0740
 5028SOL    HW126543   1.362   2.696   9.469 -1.7766 -1.6718 -1.6920
 5028SOL    HW226544   1.447   2.630   9.561  0.4947 -0.6537 -1.1298
 5029SOL     OW26545   4.284   3.085   6.409  0.7108  0.2018  0.0887
 5029SOL    HW126546   4.295   3.153   6.342  2.9846 -0.4362 -0.1773
 5029SOL    HW226547   4.309   3.139   6.484 -1.9335  0.6094  0.6941
 5030SOL     OW26548   1.588   1.453   4.789 -0.6899 -0.3459  0.0490
 5030SOL    HW126549   1.677   1.439   4.755 -0.7508 -0.8693  0.1129
 5030SOL    HW226550   1.592   1.389   4.860 -0.1311  0.0422  0.3674
 5031SOL     OW26551   1.087   1.641  10.668  0.8657  0.1771  0.2312
 5031SOL    HW126552   1.112   1.706  10.602  0.4257 -0.5767 -0.6917
 5031SOL    HW226553   1.027   1.690  10.724 -0.5591  0.0518 -1.1861
 5032SOL     OW26554   4.514   3.385   7.992 -0.0756 -0.0768  0.2287
 5032SOL    HW126555   4.541   3.302   7.952  0.7577 -0.0999  0.8503
 5032SOL    HW226556   4.418   3.385   7.984  0.1106 -2.4694 -1.8839
 5033SOL     OW26557   0.185   2.521   5.369 -0.6069 -0.6385 -0.6936
 5033SOL    HW126558   0.145   2.590   5.316  0.1137  1.5376  1.5523
 5033SOL    HW226559   0.129   2.520   5.447  2.1274 -0.0521  1.2932
 5034SOL     OW26560   4.136   4.264   9.524 -0.3771  0.3103 -0.0560
 5034SOL    HW126561   4.220   4.306   9.539 -1.6147  2.7576  0.0300
 5034SOL    HW226562   4.156   4.173   9.545  1.4428 -0.0893 -3.6319
 5035SOL     OW26563   0.020   1.196   2.319  0.5144 -0.1256 -0.3216
 5035SOL    HW126564   0.011   1.236   2.406 -0.3638  1.2451 -1.0246
 5035SOL    HW226565   0.099   1.142   2.321  1.4386  1.3108  1.9755
 5036SOL     OW26566   2.334   0.808   2.828 -0.1869 -0.0971 -0.0555
 5036SOL    HW126567   2.410   0.810   2.771 -0.1004 -1.0425  0.0205
 5036SOL    HW226568   2.283   0.736   2.789  1.0774 -1.1032  0.1362
 5037SOL     OW26569   0.011   4.631  10.243 -0.3225  0.8247 -0.4795
 5037SOL    HW126570   4.696   4.696  10.183  0.9459  0.6782 -1.4417
 5037SOL    HW226571   4.694   4.657  10.326  1.7959 -2.9368  1.7283
 5038SOL     OW26572   2.018   1.475   4.099  0.0152 -0.1748  0.1916
 5038SOL    HW126573   2.059   1.461   4.014 -0.6862 -1.8894  0.1345
 5038SOL    HW226574   1.948   1.410   4.106  0.7120 -0.8610  0.7887
 5039SOL     OW26575   3.278   1.214   2.193  0.6632 -0.2146  0.2575
 5039SOL    HW126576   3.286   1.189   2.101  0.3881  1.9875 -0.3753
 5039SOL    HW226577   3.275   1.309   2.180  0.3611 -0.3129 -0.3980
 5040SOL     OW26578   4.046   4.581   0.534  0.2379 -0.0851 -0.7381
 5040SOL    HW126579   3.983   4.649   0.512  0.1648  0.7990  2.2728
 5040SOL    HW226580   4.027   4.548   0.622 -0.0554 -1.8755 -1.4651
 5041SOL     OW26581   1.114   2.248   2.080  0.2387 -0.6794 -0.4111
 5041SOL    HW126582   1.106   2.335   2.039 -2.2517 -0.3114  0.8230
 5041SOL    HW226583   1.074   2.254   2.167 -0.1015  2.7739 -0.7801
 5042SOL     OW26584   1.891   2.048   9.942  0.0323  0.0039  0.0563
 5042SOL    HW126585   1.911   2.033  10.034  0.8647  0.4600 -0.0461
 5042SOL    HW226586   1.891   2.144   9.937 -0.0066  0.0743  1.6339
 5043SOL     OW26587   3.184   0.798   0.234  0.2446 -0.4396  0.2486
 5043SOL    HW126588   3.205   0.891   0.221  2.2887 -1.0283 -0.7734
 5043SOL    HW226589   3.245   0.749   0.178 -0.8492 -0.1417 -1.2173
 5044SOL     OW26590   3.598   2.142   5.695  0.2655 -0.3702  0.1821
 5044SOL    HW126591   3.525   2.203   5.696  0.5958  0.0156  0.8233
 5044SOL    HW226592   3.643   2.167   5.614  0.2867  1.1990  0.6781
 5045SOL     OW26593   3.335   3.398  10.981 -0.0644 -0.1908 -0.0996
 5045SOL    HW126594   3.294   3.331  11.035 -0.5121 -1.1667 -1.6512
 5045SOL    HW226595   3.389   3.340  10.927 -1.5767 -1.8375  0.1504
 5046SOL     OW26596   0.773   0.045   9.069  0.3740 -0.2641  0.1719
 5046SOL    HW126597   0.743   0.134   9.090  1.3560  0.1557 -0.2102
 5046SOL    HW226598   0.701   0.011   9.016  1.4741  0.2646 -1.6280
 5047SOL     OW26599   1.674   2.155   8.231 -0.2735 -0.1051  0.1587
 5047SOL    HW126600   1.688   2.062   8.249 -0.6977  0.0988  1.5501
 5047SOL    HW226601   1.651   2.191   8.317  0.3522 -0.4356  0.4586
 5048SOL     OW26602   4.584   4.154   1.078 -0.1157 -0.5815  0.3450
 5048SOL    HW126603   4.612   4.194   1.160 -0.2647  1.2109 -0.4888
 5048SOL    HW226604   4.580   4.226   1.016 -1.2041 -2.2269 -1.4938
 5049SOL     OW26605   1.290   0.423   0.011 -0.5335  0.0252  0.0150
 5049SOL    HW126606   1.370   0.470   0.034 -0.2442  0.0028 -0.9314
 5049SOL    HW226607   1.277   0.398   0.103 -0.6348 -2.0073 -0.5381
 5050SOL     OW26608   0.211   0.961   5.638 -0.0490  0.4633  0.0962
 5050SOL    HW126609   0.171   0.883   5.676 -1.0585  1.2819  0.7127
 5050SOL    HW226610   0.155   1.029   5.674  0.9336  1.5889 -0.4852
 5051SOL     OW26611   0.374   3.652   1.813  0.7121  0.2707 -0.2776
 5051SOL    HW126612   0.353   3.632   1.722 -0.3259 -0.1711  0.0579
 5051SOL    HW226613   0.371   3.748   1.815  0.2533  0.2360  0.8561
 5052SOL     OW26614   2.014   2.692   1.211 -0.0323  0.1522 -0.1854
 5052SOL    HW126615   2.097   2.737   1.196 -1.7809  2.5079 -2.7249
 5052SOL    HW226616   2.045   2.604   1.194  0.3422 -0.3260  3.0064
 5053SOL     OW26617   2.705   0.390  13.978  0.4045 -0.1270  0.3915
 5053SOL    HW126618   2.620   0.433  13.966  0.3991 -0.5006 -0.9180
 5053SOL    HW226619   2.683   0.304  13.941 -0.6689 -1.0360  3.1585
 5054SOL     OW26620   1.845   1.987  14.250 -0.2706  0.1097 -0.2816
 5054SOL    HW126621   1.918   2.037  14.212  0.3730 -1.0771 -0.5896
 5054SOL    HW226622   1.877   1.927  14.317  1.1976  1.2316  0.0367
 5055SOL     OW26623   1.002   0.624   6.801  0.3625 -0.1920 -0.0079
 5055SOL    HW126624   0.968   0.539   6.774  1.8470 -0.7969  0.0663
 5055SOL    HW226625   0.923   0.675   6.822  0.8576  0.6560 -0.2148
 5056SOL     OW26626   3.094   1.987  11.704  0.3382  0.0835 -0.6008
 5056SOL    HW126627   3.109   2.034  11.622 -0.8380 -2.2891 -2.1733
 5056SOL    HW226628   3.021   1.927  11.686  0.6911 -0.6479  0.4627
 5057SOL     OW26629   2.444   3.678   4.184  0.8535  0.3621  1.0008
 5057SOL    HW126630   2.519   3.619   4.174  0.0243 -0.1246 -2.0389
 5057SOL    HW226631   2.378   3.614   4.211  2.1384 -2.1114 -1.7982
 5058SOL     OW26632   3.529   0.043  17.500  0.4807  0.9225 -0.0643
 5058SOL    HW126633   3.584   0.090  17.438 -1.0114  0.1682 -1.9643
 5058SOL    HW226634   3.547   4.672  17.491  3.0637  1.6377 -2.5853
 5059SOL     OW26635   3.923   1.871   8.611 -0.3136 -0.1661 -0.1543
 5059SOL    HW126636   3.996   1.863   8.549 -1.3684  0.3236 -1.4495
 5059SOL    HW226637   3.929   1.964   8.635 -0.9998 -0.1797  0.0688
 5060SOL     OW26638   4.718   0.438   6.534  0.3582  0.5626 -0.2858
 5060SOL    HW126639   4.698   0.529   6.553 -2.7601 -0.2433  0.4564
 5060SOL    HW226640   0.037   0.435   6.449  0.1154  1.2308 -0.4256
 5061SOL     OW26641   4.032   1.465  16.345  0.1621 -0.5611  0.2450
 5061SOL    HW126642   3.967   1.531  16.368 -1.4679 -1.7277 -0.9502
 5061SOL    HW226643   4.101   1.522  16.313 -3.0366  2.0654 -2.0181
 5062SOL     OW26644   4.523   2.334  14.358  0.2777  0.0005  0.2386
 5062SOL    HW126645   4.463   2.298  14.293 -0.5800 -1.4598  1.8475
 5062SOL    HW226646   4.464   2.367  14.425  0.3690  1.2196 -0.2804
 5063SOL     OW26647   0.532   2.546   6.032  0.1919  0.1674  0.1219
 5063SOL    HW126648   0.614   2.511   6.065  0.2282  0.2137  0.0803
 5063SOL    HW226649   0.466   2.499   6.083 -0.3722  1.3140  0.4682
 5064SOL     OW26650   2.807   0.461   3.681 -0.1397  0.0395  0.2561
 5064SOL    HW126651   2.858   0.485   3.604  1.6339  0.4211  1.5609
 5064SOL    HW226652   2.747   0.536   3.686  0.3419  0.4430 -0.0279
 5065SOL     OW26653   2.884   0.721   4.502 -0.4151 -0.0284 -0.6618
 5065SOL    HW126654   2.913   0.761   4.583 -1.6480  1.9406 -1.2107
 5065SOL    HW226655   2.827   0.786   4.462 -0.6469  1.3621  1.9626
 5066SOL     OW26656   4.009   3.515   5.328 -0.0986  0.2300  0.0973
 5066SOL    HW126657   4.063   3.445   5.291  1.3772 -0.0285  2.7530
 5066SOL    HW226658   4.037   3.536   5.417 -2.8461  2.3444  0.4652
 5067SOL     OW26659   0.330   3.430   8.427 -0.1116  0.2850 -0.6700
 5067SOL    HW126660   0.414   3.419   8.472 -0.4762 -2.4018 -0.6772
 5067SOL    HW226661   0.331   3.354   8.369 -1.5317  1.3075 -2.0042
 5068SOL     OW26662   2.499   4.582   2.952 -0.7095  0.7186  0.4274
 5068SOL    HW126663   2.474   4.665   2.992 -2.9157 -0.7103  2.0106
 5068SOL    HW226664   2.420   4.568   2.900  1.7453 -2.5179 -2.4859
 5069SOL     OW26665   4.511   3.276   4.490 -0.6835 -0.0742  0.5032
 5069SOL    HW126666   4.495   3.183   4.473 -2.4864  0.6738 -1.9377
 5069SOL    HW226667   4.605   3.278   4.511 -0.7815 -2.7277  1.2269
 5070SOL     OW26668   2.184   1.269  15.599 -0.0751  0.1653  0.0309
 5070SOL    HW126669   2.131   1.212  15.543 -1.3004 -1.1050  2.4753
 5070SOL    HW226670   2.272   1.237  15.582  0.1163  0.5566  0.2889
 5071SOL     OW26671   1.859   4.182  14.227 -0.1635 -0.1668 -0.1962
 5071SOL    HW126672   1.824   4.116  14.287 -2.5372  1.5496  0.2611
 5071SOL    HW226673   1.906   4.233  14.293  1.5386 -0.7967 -0.8960
 5072SOL     OW26674   4.080   0.306   4.149 -0.4333 -0.1246  0.3449
 5072SOL    HW126675   4.110   0.286   4.061  1.0973 -2.2622  1.3541
 5072SOL    HW226676   3.986   0.290   4.144 -0.5225 -0.0750  1.6680
 5073SOL     OW26677   1.630   1.791   2.907  0.2955 -0.3317 -0.5425
 5073SOL    HW126678   1.693   1.793   2.835 -0.7537  1.9443 -1.3810
 5073SOL    HW226679   1.546   1.801   2.863  1.6513 -1.2187 -3.3372
 5074SOL     OW26680   0.973   1.786   3.842  0.3603 -0.2108  0.0916
 5074SOL    HW126681   0.962   1.859   3.781 -0.4938 -1.1908 -0.9195
 5074SOL    HW226682   1.012   1.837   3.914  1.4173  1.8622 -1.9501
 5075SOL     OW26683   3.965   4.476   7.272 -0.2316  0.7019  0.4954
 5075SOL    HW126684   3.901   4.465   7.342  0.0872 -2.3105  0.3095
 5075SOL    HW226685   3.959   4.570   7.254 -1.2035  0.4725 -0.3920
 5076SOL     OW26686   3.451   3.914   7.817 -0.1189 -0.1711  0.3411
 5076SOL    HW126687   3.438   3.819   7.819  0.1862 -0.2018  1.1579
 5076SOL    HW226688   3.512   3.920   7.744 -0.6052  0.4584 -0.0084
 5077SOL     OW26689   0.842   2.885   5.881  0.2256 -0.2278 -0.0496
 5077SOL    HW126690   0.910   2.879   5.948 -0.5611 -0.6435  0.7112
 5077SOL    HW226691   0.802   2.799   5.870 -0.8746 -0.0134  2.1707
 5078SOL     OW26692   4.287   3.787   8.431 -0.1173 -0.0465  0.0366
 5078SOL    HW126693   4.341   3.829   8.364  0.8744 -1.1988  0.1135
 5078SOL    HW226694   4.244   3.867   8.463 -0.2425 -0.7326  1.6015
 5079SOL     OW26695   3.228   1.405  11.417 -0.1826  0.0151 -0.2788
 5079SOL    HW126696   3.277   1.479  11.380  1.1877 -0.4903  0.5318
 5079SOL    HW226697   3.185   1.364  11.341 -1.7235  1.5123 -0.2058
 5080SOL     OW26698   2.602   2.780   2.419  0.2350 -0.2452 -0.7270
 5080SOL    HW126699   2.615   2.693   2.382 -1.1285  0.4203 -2.7509
 5080SOL    HW226700   2.645   2.771   2.504 -1.7397 -0.2700  0.2879
 5081SOL     OW26701   2.797   4.490   2.219 -0.0111  0.6667 -0.3128
 5081SOL    HW126702   2.702   4.499   2.216 -0.0899  0.9412  2.5321
 5081SOL    HW226703   2.826   4.555   2.155 -0.5045  1.2232  0.0204
 5082SOL     OW26704   0.525   4.078   8.661  0.1320  0.5014 -0.3736
 5082SOL    HW126705   0.495   4.090   8.751  1.7083  0.8801  0.0870
 5082SOL    HW226706   0.484   3.995   8.636  1.6832  0.2278 -1.9868
 5083SOL     OW26707   1.927   1.331   2.738  0.2562 -0.3738  0.4133
 5083SOL    HW126708   1.882   1.365   2.661  0.4497  1.0818  0.9404
 5083SOL    HW226709   1.921   1.237   2.722  0.7436 -0.4278  0.5353
 5084SOL     OW26710   0.604   1.458  12.600 -0.5915 -0.5247 -0.2772
 5084SOL    HW126711   0.696   1.480  12.612 -1.5256  0.9979  4.2919
 5084SOL    HW226712   0.619   1.382  12.544 -0.3790 -2.1597  2.0030
 5085SOL     OW26713   1.833   1.733   2.752 -0.3513 -0.3684  0.0511
 5085SOL    HW126714   1.878   1.701   2.674  1.0621  0.4695  0.5244
 5085SOL    HW226715   1.842   1.652   2.802 -0.0248  0.2900  1.0378
 5086SOL     OW26716   3.594   3.152   9.347  0.4687  0.6066 -0.1698
 5086SOL    HW126717   3.640   3.213   9.289 -0.6791  1.3394 -0.3158
 5086SOL    HW226718   3.548   3.213   9.405 -0.7986 -0.1092 -0.4297
 5087SOL     OW26719   3.579   1.307  13.809 -0.3051 -0.4966 -0.2940
 5087SOL    HW126720   3.640   1.375  13.836 -1.4757 -0.4727  2.2563
 5087SOL    HW226721   3.502   1.362  13.800  0.5186  0.2791 -2.6475
 5088SOL     OW26722   2.327   0.366   2.723 -0.4880 -0.0749 -0.0949
 5088SOL    HW126723   2.285   0.439   2.677  0.3979  0.4373 -0.0888
 5088SOL    HW226724   2.339   0.405   2.810 -1.9426  0.0791  0.0420
 5089SOL     OW26725   0.186   3.046  11.364  0.5564 -0.1524  0.2093
 5089SOL    HW126726   0.256   3.067  11.426  2.3617  1.5599 -2.4396
 5089SOL    HW226727   0.120   3.115  11.377 -0.4876 -0.6836 -2.3804
 5090SOL     OW26728   0.467   1.259  16.008  0.5245 -0.3321 -0.8324
 5090SOL    HW126729   0.399   1.258  15.941  1.1649  0.5040 -1.4992
 5090SOL    HW226730   0.421   1.272  16.091 -2.0743 -1.0666 -2.1649
 5091SOL     OW26731   1.319   2.440   5.347 -0.4402 -0.1260  0.6952
 5091SOL    HW126732   1.246   2.498   5.329  0.8341  1.5822  0.9792
 5091SOL    HW226733   1.343   2.457   5.438  1.8557 -0.0168  0.0785
 5092SOL     OW26734   2.683   3.550   1.081 -0.2754  0.0421 -0.0091
 5092SOL    HW126735   2.606   3.588   1.123  0.0491 -1.7948  2.2580
 5092SOL    HW226736   2.746   3.546   1.152  0.7085  1.4833 -0.7960
 5093SOL     OW26737   2.921   3.468   6.433  0.4866  0.1558  0.2322
 5093SOL    HW126738   2.913   3.390   6.377  2.5250 -0.2945  0.5725
 5093SOL    HW226739   2.843   3.514   6.401  2.4336  1.5205 -2.5652
 5094SOL     OW26740   1.150   0.517  14.514  0.0855 -0.6930 -0.3392
 5094SOL    HW126741   1.239   0.540  14.537 -0.4396 -0.4834  1.4301
 5094SOL    HW226742   1.127   0.468  14.592 -3.1258  1.2209 -0.0991
 5095SOL     OW26743   2.792   0.688   3.312  0.1258 -0.2119 -0.1620
 5095SOL    HW126744   2.866   0.666   3.368 -0.8184  0.1579  1.2269
 5095SOL    HW226745   2.746   0.755   3.364  1.8905 -0.4300  1.6503
 5096SOL     OW26746   1.502   4.522   9.385 -0.7182 -0.2973 -0.7201
 5096SOL    HW126747   1.567   4.455   9.405 -0.0785  0.5958  0.2686
 5096SOL    HW226748   1.555   4.601   9.398 -0.8398  0.0194 -2.1723
 5097SOL     OW26749   4.481   2.256   7.911  0.4934  0.0544 -0.4638
 5097SOL    HW126750   4.459   2.254   7.818 -1.5112 -0.1841  0.0203
 5097SOL    HW226751   4.490   2.163   7.929 -0.9742 -0.1678 -0.9298
 5098SOL     OW26752   0.571   4.253   1.452  0.1143 -0.2502 -0.2846
 5098SOL    HW126753   0.521   4.333   1.436  0.3848  0.2486  1.3438
 5098SOL    HW226754   0.653   4.285   1.491 -0.3909  1.2740 -0.4971
 5099SOL     OW26755   2.266   0.119   8.662 -0.4271  0.0567  0.4506
 5099SOL    HW126756   2.183   0.165   8.648 -0.2008  0.4212  0.3291
 5099SOL    HW226757   2.317   0.167   8.597  0.8796 -2.8120 -0.6131
 5100SOL     OW26758   1.252   4.007   3.256 -0.4019  0.0098  0.2148
 5100SOL    HW126759   1.291   3.922   3.235  0.4993  0.2466  0.9306
 5100SOL    HW226760   1.323   4.068   3.238  2.3116 -2.6354  1.9995
 5101SOL     OW26761   1.052   4.718   4.585  0.0491  0.1700 -0.0330
 5101SOL    HW126762   1.030   0.033   4.500  1.6157  1.9072  0.3307
 5101SOL    HW226763   1.011   4.635   4.560 -0.5576  0.8688 -1.3444
 5102SOL     OW26764   1.254   3.920   1.436 -0.4516 -0.1894 -0.1589
 5102SOL    HW126765   1.179   3.973   1.408 -1.1330 -0.9925  0.1572
 5102SOL    HW226766   1.330   3.955   1.390 -3.1275  1.6836 -3.2305
 5103SOL     OW26767   0.312   0.134   2.513 -0.0325  1.1429  0.1263
 5103SOL    HW126768   0.316   0.219   2.469 -0.6789  0.5014 -1.1686
 5103SOL    HW226769   0.228   0.142   2.558 -0.9008 -0.6649 -1.2022
 5104SOL     OW26770   3.730   1.862   6.299  0.2439 -0.0536  0.7824
 5104SOL    HW126771   3.656   1.802   6.297 -0.6677  1.0650  1.2077
 5104SOL    HW226772   3.774   1.815   6.370 -3.0979 -1.3997  1.9487
 5105SOL     OW26773   4.274   4.556  11.294  0.3053 -0.5800  0.5973
 5105SOL    HW126774   4.355   4.506  11.281  1.5255  2.1888 -2.6212
 5105SOL    HW226775   4.217   4.537  11.220  0.9664 -1.0028  0.1979
 5106SOL     OW26776   1.286   1.580   4.593  0.3878  0.6549  0.1076
 5106SOL    HW126777   1.323   1.600   4.679 -1.0313 -2.3875  1.4390
 5106SOL    HW226778   1.254   1.668   4.575 -0.9613  0.0149 -0.6848
 5107SOL     OW26779   0.206   4.031  13.311  0.0904  0.2717  0.1505
 5107SOL    HW126780   0.288   4.079  13.313 -0.1833  0.7314  0.4327
 5107SOL    HW226781   0.204   4.000  13.401  0.5182 -1.0176 -0.2880
 5108SOL     OW26782   4.166   2.651   1.244 -0.1422  0.1019 -0.1009
 5108SOL    HW126783   4.180   2.739   1.278 -3.0323  0.4536  0.1661
 5108SOL    HW226784   4.234   2.600   1.288 -0.0757 -0.8083 -1.2624
 5109SOL     OW26785   3.382   1.165   4.872 -0.6235  0.2936  0.3913
 5109SOL    HW126786   3.332   1.174   4.953  1.3199 -0.0727  1.6214
 5109SOL    HW226787   3.410   1.253   4.846  0.0186 -0.3586 -1.1369
 5110SOL     OW26788   3.101   2.180  13.502 -0.5545 -0.3006  0.2535
 5110SOL    HW126789   3.031   2.223  13.550 -1.1176 -1.2205  0.2476
 5110SOL    HW226790   3.180   2.184  13.556  1.4871 -0.5258 -2.6732
 5111SOL     OW26791   3.802   1.356   8.933  0.4824 -0.4777  0.0727
 5111SOL    HW126792   3.853   1.347   8.853 -2.0441  0.1729 -1.6269
 5111SOL    HW226793   3.867   1.339   9.001  1.3398 -0.0374 -0.6431
 5112SOL     OW26794   0.739   0.523  15.789  0.2667  0.3970 -0.1377
 5112SOL    HW126795   0.747   0.432  15.761  2.9712  0.8753 -0.9704
 5112SOL    HW226796   0.651   0.519  15.825  0.4871 -0.0235  0.3563
 5113SOL     OW26797   1.479   1.846   4.291 -0.7448 -0.2035  0.0474
 5113SOL    HW126798   1.527   1.766   4.310  1.5695  1.3154  0.5687
 5113SOL    HW226799   1.550   1.905   4.267  0.3420 -1.0814  1.1212
 5114SOL     OW26800   4.446   1.662   6.488 -0.3860  0.6287 -0.3299
 5114SOL    HW126801   4.533   1.671   6.527 -1.5274 -0.7117  2.5390
 5114SOL    HW226802   4.394   1.729   6.533 -1.7420 -0.5249 -0.1727
 5115SOL     OW26803   0.337   2.437   6.172 -0.4762 -0.1303 -0.6319
 5115SOL    HW126804   0.298   2.507   6.225 -0.7765 -0.2678 -0.6685
 5115SOL    HW226805   0.392   2.389   6.234  0.2258  2.6060  0.8537
 5116SOL     OW26806   2.323   4.085   2.578 -0.3064  0.3296  0.0498
 5116SOL    HW126807   2.265   4.148   2.537  0.2388  0.2625 -0.8332
 5116SOL    HW226808   2.391   4.140   2.617  0.9913 -1.4316  0.2916
 5117SOL     OW26809   3.654   1.021  14.581 -0.1112 -0.3378  0.1523
 5117SOL    HW126810   3.687   1.102  14.543 -0.1480 -0.5030 -0.2395
 5117SOL    HW226811   3.620   0.987  14.498  1.3690 -0.2512 -0.4744
 5118SOL     OW26812   3.096   1.328   4.911 -0.0391 -0.0949  0.2821
 5118SOL    HW126813   3.133   1.307   4.997  1.0691  0.2747 -0.1002
 5118SOL    HW226814   3.130   1.416   4.900  0.6284 -0.1295  2.0823
 5119SOL     OW26815   3.785   1.155  14.781  0.1930  0.1133 -0.0954
 5119SOL    HW126816   3.760   1.247  14.773 -0.2713  0.0727  0.8272
 5119SOL    HW226817   3.715   1.106  14.737 -1.3260  0.0915  2.3216
 5120SOL     OW26818   3.979   3.086   7.711  0.2530  0.0812 -0.4443
 5120SOL    HW126819   3.987   3.125   7.798 -0.1688  0.0798 -0.4051
 5120SOL    HW226820   4.014   2.998   7.722  1.5945  0.4808 -1.4957
 5121SOL     OW26821   3.694   3.707   8.001  0.2920 -0.3664  0.6531
 5121SOL    HW126822   3.666   3.704   7.910 -1.1401 -1.2381  1.1332
 5121SOL    HW226823   3.736   3.622   8.016  1.1643  0.4659  2.9751
 5122SOL     OW26824   2.490   3.564   0.643  0.3718  0.5202 -0.1821
 5122SOL    HW126825   2.520   3.476   0.669 -0.1367  0.2407 -0.5395
 5122SOL    HW226826   2.524   3.615   0.716  1.4036  1.0956 -1.0582
 5123SOL     OW26827   4.653   2.990  10.446 -0.6861  0.3538  0.2493
 5123SOL    HW126828   4.591   2.981  10.518  0.8955  0.8535  1.6773
 5123SOL    HW226829   4.606   3.054  10.393 -1.2885  0.3866  0.8215
 5124SOL     OW26830   2.990   0.546   2.540  0.2715  0.2485 -0.1728
 5124SOL    HW126831   3.058   0.576   2.600 -0.5712 -0.2437  1.0143
 5124SOL    HW226832   3.044   0.511   2.469  0.3310  0.8789 -0.4445
 5125SOL     OW26833   0.343   3.770   2.786  0.4481 -0.4119 -0.6928
 5125SOL    HW126834   0.302   3.722   2.714 -0.4364  0.0794 -0.5046
 5125SOL    HW226835   0.356   3.699   2.849 -1.3960  0.1166  0.2681
 5126SOL     OW26836   1.933   0.342   4.369 -0.2868 -0.4944 -0.6100
 5126SOL    HW126837   1.939   0.283   4.445 -1.4169 -1.5317 -1.3186
 5126SOL    HW226838   1.839   0.361   4.373  0.0677  0.6780  1.9436
 5127SOL     OW26839   3.234   4.221   4.170 -0.3863 -0.1853  0.0675
 5127SOL    HW126840   3.156   4.167   4.179  0.0091 -0.5338  1.3713
 5127SOL    HW226841   3.190   4.296   4.131  0.7072  0.6355  0.4085
 5128SOL     OW26842   1.117   3.466   1.733 -0.2642 -0.3063 -0.4559
 5128SOL    HW126843   1.206   3.449   1.762  0.3750  0.3620 -2.0099
 5128SOL    HW226844   1.111   3.535   1.667  0.5432  2.2556  2.1623
 5129SOL     OW26845   4.625   2.933   3.036  0.2943  0.0194  0.4729
 5129SOL    HW126846   4.532   2.954   3.025  0.3724 -0.0972 -0.4015
 5129SOL    HW226847   4.645   2.980   3.118 -2.6529 -1.9468  2.3181
 5130SOL     OW26848   0.739   3.240   9.033 -0.8146  0.0956  0.5186
 5130SOL    HW126849   0.703   3.164   8.987 -1.6970  1.0780 -0.4198
 5130SOL    HW226850   0.662   3.295   9.048 -0.3616  0.8284  0.1525
 5131SOL     OW26851   3.486   0.888   8.213  0.1276  0.4180  0.6260
 5131SOL    HW126852   3.459   0.846   8.132  1.9072  0.3648  0.0609
 5131SOL    HW226853   3.580   0.896   8.195  0.5806  0.6671  3.0955
 5132SOL     OW26854   1.338   4.573   4.371  0.4953 -1.0355 -0.0358
 5132SOL    HW126855   1.329   4.584   4.466 -0.0242  0.2119 -0.2247
 5132SOL    HW226856   1.417   4.519   4.368  1.5115  0.4213  0.6193
 5133SOL     OW26857   2.091   2.967   3.766 -0.0957  0.2431 -0.1376
 5133SOL    HW126858   2.057   3.053   3.741  0.7761  0.7960  0.6122
 5133SOL    HW226859   2.168   2.962   3.709 -0.0367  1.3920 -0.1429
 5134SOL     OW26860   0.068   0.006  11.560  0.5555  0.4467  0.4323
 5134SOL    HW126861   0.066   4.696  11.469 -2.6741  0.4767  0.5149
 5134SOL    HW226862   0.126   4.669  11.608  1.3319  2.2969  1.8128
 5135SOL     OW26863   0.457   3.675   0.684  0.2906 -0.1466  0.2255
 5135SOL    HW126864   0.432   3.694   0.593  0.6121 -0.8793 -0.0246
 5135SOL    HW226865   0.435   3.582   0.689  1.3036 -0.2500  2.6898
 5136SOL     OW26866   1.483   2.713  11.983  0.2490  0.8029 -0.9542
 5136SOL    HW126867   1.478   2.631  11.935  1.2381 -0.4718  1.1498
 5136SOL    HW226868   1.389   2.730  11.981  0.3860  1.8462  1.6653
 5137SOL     OW26869   0.436   0.467  16.489 -0.2389 -0.0410  0.1986
 5137SOL    HW126870   0.482   0.383  16.496 -0.3123 -0.1308 -0.4492
 5137SOL    HW226871   0.509   0.523  16.463 -0.3565  0.9401  2.0238
 5138SOL     OW26872   1.033   1.300   7.311 -0.0571 -0.2135 -0.3550
 5138SOL    HW126873   0.943   1.269   7.309 -0.2388  0.3445 -0.9389
 5138SOL    HW226874   1.040   1.314   7.216  0.2855 -0.7921 -0.4158
 5139SOL     OW26875   2.075   4.564   3.326 -0.3860  0.4224  0.1555
 5139SOL    HW126876   2.151   4.559   3.383  0.7764 -0.5592 -1.4979
 5139SOL    HW226877   2.106   4.615   3.251 -1.6172 -0.6833 -1.1151
 5140SOL     OW26878   3.261   3.121   5.492  0.0425  0.7238 -0.1442
 5140SOL    HW126879   3.327   3.149   5.555  1.8979 -1.2481 -1.2182
 5140SOL    HW226880   3.313   3.089   5.419  0.6723  1.2464  0.0750
 5141SOL     OW26881   1.698   3.519   6.386 -0.1868  0.3491  0.4744
 5141SOL    HW126882   1.785   3.536   6.421 -0.9656  0.6147  2.2997
 5141SOL    HW226883   1.635   3.537   6.457 -0.1713 -0.1330  0.6123
 5142SOL     OW26884   2.602   0.868   9.435  0.0864  0.1691  0.0621
 5142SOL    HW126885   2.601   0.957   9.399  0.6754  1.1825  2.5380
 5142SOL    HW226886   2.564   0.825   9.358 -0.2899  1.1844 -0.3241
 5143SOL     OW26887   3.758   0.515   4.372 -0.0638  0.4452  0.0524
 5143SOL    HW126888   3.773   0.422   4.389  0.5591  0.5655  0.1381
 5143SOL    HW226889   3.669   0.518   4.336 -0.1494 -1.1264  0.1329
 5144SOL     OW26890   1.064   3.747   6.897  0.1567  0.8998  0.0553
 5144SOL    HW126891   1.061   3.814   6.965 -2.1049  0.6403  0.2169
 5144SOL    HW226892   0.980   3.701   6.906  0.9993 -0.4297  0.9680
 5145SOL     OW26893   1.568   0.124   5.892 -0.2148 -0.4612 -0.1872
 5145SOL    HW126894   1.518   0.068   5.833 -1.6996  1.8963 -1.1595
 5145SOL    HW226895   1.581   0.205   5.843  1.9088 -0.3406  0.5780
 5146SOL     OW26896   1.036   2.816   9.686  0.2427  0.1456  0.5344
 5146SOL    HW126897   1.068   2.732   9.719 -1.7829 -0.0199  2.1105
 5146SOL    HW226898   0.946   2.812   9.719 -0.0973 -0.5139 -0.4820
 5147SOL     OW26899   2.458   3.691   2.744  0.7385  0.0799 -0.5041
 5147SOL    HW126900   2.364   3.679   2.757  0.9068 -0.1729  0.4647
 5147SOL    HW226901   2.473   3.760   2.810  1.4617 -0.0551 -0.5287
 5148SOL     OW26902   0.012   0.707  12.931 -0.1667 -0.5453 -0.3509
 5148SOL    HW126903   0.092   0.760  12.932  0.1170 -0.9930  2.4037
 5148SOL    HW226904   0.037   0.625  12.974 -1.7461 -0.1269  1.3464
 5149SOL     OW26905   0.009   2.880   7.793  0.0463 -0.4235 -0.0074
 5149SOL    HW126906   0.075   2.890   7.724 -0.1159  1.1548  0.0577
 5149SOL    HW226907   4.708   2.789   7.775 -0.9399 -0.2097  0.2141
 5150SOL     OW26908   2.470   3.408   1.862  0.0236 -0.0184  0.1381
 5150SOL    HW126909   2.395   3.360   1.826  0.4525 -1.7459  1.5459
 5150SOL    HW226910   2.444   3.498   1.848  1.3651  0.5046  0.9744
 5151SOL     OW26911   1.109   4.558  10.913  0.1011 -0.1085 -0.3342
 5151SOL    HW126912   1.050   4.486  10.890  0.7884 -0.0795 -2.2138
 5151SOL    HW226913   1.050   4.632  10.898 -1.7840 -2.0247 -2.5054
 5152SOL     OW26914   0.781   4.092   1.027 -0.2887 -0.0954 -0.9742
 5152SOL    HW126915   0.744   4.011   1.062  1.0807  0.2329  1.2756
 5152SOL    HW226916   0.721   4.102   0.954 -0.3706 -0.7362 -0.9975
 5153SOL     OW26917   2.061   1.993   3.186 -0.2467  0.1016 -0.4523
 5153SOL    HW126918   2.098   1.942   3.114  3.6373  0.4151  1.3280
 5153SOL    HW226919   2.002   2.043   3.130 -0.8253 -0.2105 -0.1308
 5154SOL     OW26920   2.780   1.197   6.460 -0.4275  0.0988  0.0127
 5154SOL    HW126921   2.772   1.236   6.373  4.1597 -0.3654 -0.6124
 5154SOL    HW226922   2.812   1.109   6.440  0.4593  0.3413  0.3863
 5155SOL     OW26923   2.051   2.426   4.621 -0.3975  0.7438  0.3069
 5155SOL    HW126924   2.055   2.415   4.526 -1.2196 -3.9391  0.8219
 5155SOL    HW226925   1.962   2.400   4.647  1.6094 -2.7972  3.6516
 5156SOL     OW26926   3.312   2.785   7.290 -0.4720 -0.3819  0.1284
 5156SOL    HW126927   3.325   2.776   7.384 -2.1405 -1.8114  0.2114
 5156SOL    HW226928   3.374   2.854   7.266 -1.9994  0.7488 -0.5272
 5157SOL     OW26929   0.077   3.856  11.331  0.4561  0.5288  0.6494
 5157SOL    HW126930   0.039   3.932  11.286 -0.4307 -0.4948 -0.3312
 5157SOL    HW226931   4.716   3.813  11.346  0.4760  0.7352  1.3872
 5158SOL     OW26932   2.012   2.755   4.085  0.0230 -0.4690 -0.8028
 5158SOL    HW126933   2.018   2.839   4.130  0.6904 -0.8958 -0.0886
 5158SOL    HW226934   1.918   2.738   4.083 -0.3249  0.9953  3.0629
 5159SOL     OW26935   4.516   3.492  12.177 -0.1092 -0.0410 -0.8931
 5159SOL    HW126936   4.480   3.489  12.265  0.7373  3.4882 -0.4417
 5159SOL    HW226937   4.611   3.497  12.192 -0.2385 -0.9796  0.2077
 5160SOL     OW26938   4.572   2.328   2.358 -0.0989  0.0375 -0.0914
 5160SOL    HW126939   4.651   2.340   2.411 -0.8328 -1.5237  1.3367
 5160SOL    HW226940   4.528   2.254   2.399 -0.5154  0.1963 -0.2563
 5161SOL     OW26941   2.294   2.026  14.064  0.2299 -0.0638 -0.4148
 5161SOL    HW126942   2.204   2.053  14.078  0.5028  1.3314 -1.3699
 5161SOL    HW226943   2.329   2.097  14.010 -2.0835  1.1926 -0.2531
 5162SOL     OW26944   2.578   2.922   2.765  0.0504  0.1767  0.0210
 5162SOL    HW126945   2.618   2.963   2.842 -1.3285  0.5925  0.5169
 5162SOL    HW226946   2.530   2.997   2.731 -0.3907 -1.0540 -2.0425
 5163SOL     OW26947   0.766   4.314   4.568 -0.3019  0.1885 -0.0922
 5163SOL    HW126948   0.764   4.277   4.656  0.5383  3.1558  1.1895
 5163SOL    HW226949   0.681   4.287   4.533  1.5078 -3.0828 -1.8562
 5164SOL     OW26950   1.228   1.630   2.055  0.2246  0.0237  0.5618
 5164SOL    HW126951   1.305   1.685   2.072  1.1140 -1.4458  1.2303
 5164SOL    HW226952   1.238   1.602   1.964  0.2335  0.2569  0.4912
 5165SOL     OW26953   4.543   1.018   7.209 -0.3878  0.4278  0.5441
 5165SOL    HW126954   4.568   1.088   7.269  1.9560 -0.1905  0.2905
 5165SOL    HW226955   4.580   1.048   7.126  2.8769  0.0369  1.8806
 5166SOL     OW26956   1.443   1.846   9.109  0.3515  0.0896 -0.2385
 5166SOL    HW126957   1.442   1.940   9.093  0.9475  0.2217  0.5267
 5166SOL    HW226958   1.524   1.829   9.157  0.4637  1.1142 -0.0767
 5167SOL     OW26959   1.368   3.830   8.214 -0.0488 -0.4614 -0.4276
 5167SOL    HW126960   1.331   3.900   8.268 -2.4182 -1.9630 -0.1299
 5167SOL    HW226961   1.282   3.796   8.192 -0.7560 -0.3253  2.1029
 5168SOL     OW26962   1.217   2.704  11.888  0.1091  0.2481  0.3077
 5168SOL    HW126963   1.148   2.649  11.925 -0.6537  0.8883 -0.1825
 5168SOL    HW226964   1.234   2.655  11.807 -1.2856 -0.0831  0.2242
 5169SOL     OW26965   2.912   4.131  10.944 -0.2886 -0.0414 -0.0531
 5169SOL    HW126966   2.965   4.054  10.925  1.4107  0.6036  2.0306
 5169SOL    HW226967   2.972   4.182  10.999  0.2713  0.2301 -0.9176
 5170SOL     OW26968   3.885   1.942   9.901 -0.3405  0.5933  0.0626
 5170SOL    HW126969   3.891   1.863   9.954  1.7404  0.9682  0.4165
 5170SOL    HW226970   3.933   1.904   9.827 -0.8526  0.6950 -0.3233
 5171SOL     OW26971   3.746   1.390  16.822 -0.3491  0.1996 -0.2835
 5171SOL    HW126972   3.759   1.298  16.842 -0.0833  0.4197  0.5505
 5171SOL    HW226973   3.726   1.426  16.908 -1.9167  0.3441 -0.7079
 5172SOL     OW26974   2.495   0.699   4.763  0.5759 -0.7286  0.0199
 5172SOL    HW126975   2.486   0.736   4.675  1.4750  1.2154  0.7304
 5172SOL    HW226976   2.547   0.764   4.810 -1.7944  1.4798 -0.4342
 5173SOL     OW26977   1.296   0.343  17.427  0.6733 -0.0668  0.2226
 5173SOL    HW126978   1.377   0.394  17.433  0.3899  0.1344  2.1583
 5173SOL    HW226979   1.271   0.351  17.519  1.4026 -0.0427  0.4172
 5174SOL     OW26980   3.879   1.675   4.833 -0.4763  0.1283 -0.7919
 5174SOL    HW126981   3.934   1.749   4.858 -0.7504  0.0190  0.1623
 5174SOL    HW226982   3.812   1.718   4.781 -1.4113  0.4899  0.7012
 5175SOL     OW26983   1.559   3.212  17.586  0.2899 -0.2287 -0.2827
 5175SOL    HW126984   1.505   3.133  17.592  0.8721 -0.3667  3.2974
 5175SOL    HW226985   1.578   3.205  17.492 -1.0113  1.8086 -0.7039
 5176SOL     OW26986   4.460   0.959  14.207  0.0173 -0.0616  0.2616
 5176SOL    HW126987   4.498   0.912  14.281 -0.0138  1.0043  0.9535
 5176SOL    HW226988   4.372   0.923  14.208 -0.3778  0.8419 -2.2359
 5177SOL     OW26989   3.807   4.495  11.598 -0.0176 -0.1588 -0.3738
 5177SOL    HW126990   3.742   4.510  11.530 -0.5763  1.1821  0.4663
 5177SOL    HW226991   3.880   4.493  11.537 -1.1183 -3.6186 -1.5948
 5178SOL     OW26992   2.729   0.138   7.152 -0.1169 -0.2526 -0.7036
 5178SOL    HW126993   2.651   0.103   7.108  0.5351  0.0793 -2.0904
 5178SOL    HW226994   2.766   0.201   7.091  0.3060 -0.7367 -0.9477
 5179SOL     OW26995   1.026   0.190   4.797  0.2604  0.2951  0.5227
 5179SOL    HW126996   1.020   0.111   4.743  0.8834  0.8837 -0.4000
 5179SOL    HW226997   0.982   0.159   4.876 -0.8527  0.1453 -0.1550
 5180SOL     OW26998   3.841   1.281   9.793 -0.1152 -0.3291 -0.5010
 5180SOL    HW126999   3.748   1.284   9.814  0.3865  2.6288  1.1949
 5180SOL    HW227000   3.869   1.320   9.875  3.2788  0.7688 -2.1786
 5181SOL     OW27001   0.714   0.570  16.671  0.3285 -0.5145 -0.0317
 5181SOL    HW127002   0.780   0.553  16.739 -0.6789  1.2575  1.3952
 5181SOL    HW227003   0.743   0.503  16.609 -0.4542  0.6927 -1.6854
 5182SOL     OW27004   0.963   1.764  12.881  0.6198  0.4854  0.4814
 5182SOL    HW127005   1.048   1.808  12.880 -0.6461  2.8853  0.6301
 5182SOL    HW227006   0.993   1.675  12.901  1.2037  0.3645 -0.9349
 5183SOL     OW27007   2.681   0.359  16.246  0.6412 -0.2675  0.4158
 5183SOL    HW127008   2.609   0.391  16.300  0.7820  1.7194 -0.5835
 5183SOL    HW227009   2.740   0.338  16.318  1.2489  1.1046  0.3323
 5184SOL     OW27010   1.969   0.594   8.424  0.2959 -0.0177  0.5924
 5184SOL    HW127011   1.907   0.524   8.447  1.2782 -1.3571 -0.8494
 5184SOL    HW227012   1.939   0.651   8.495 -1.0883 -0.7755  0.6181
 5185SOL     OW27013   0.086   2.893   4.966  0.6698 -0.0696  0.0511
 5185SOL    HW127014   0.181   2.902   4.956  0.3849 -2.1429 -4.4063
 5185SOL    HW227015   0.077   2.934   5.052 -1.5428  1.4807 -0.9297
 5186SOL     OW27016   4.519   2.813   7.130  0.4353  0.1405 -0.3715
 5186SOL    HW127017   4.473   2.793   7.049 -0.2752  0.8426 -0.1446
 5186SOL    HW227018   4.608   2.829   7.099 -0.1035  0.3266 -1.8330
 5187SOL     OW27019   0.790   4.196   3.007 -0.1083 -0.1088  0.0123
 5187SOL    HW127020   0.774   4.115   2.958  1.3153  0.5404 -1.4817
 5187SOL    HW227021   0.865   4.173   3.061  0.7878  1.4624 -0.5744
 5188SOL     OW27022   3.272   0.348   9.000 -0.0513  0.0403 -0.1363
 5188SOL    HW127023   3.233   0.395   9.073  2.2592 -1.5911  2.1525
 5188SOL    HW227024   3.297   0.266   9.042 -1.7655  0.9736  2.6588
 5189SOL     OW27025   0.489   0.516   2.956  0.0889  0.0987  0.5014
 5189SOL    HW127026   0.434   0.442   2.981 -0.2728  0.0404 -0.4611
 5189SOL    HW227027   0.484   0.509   2.861 -0.8303 -0.7071  0.6122
 5190SOL     OW27028   3.381   3.476   7.130  0.2297  0.0670  0.0023
 5190SOL    HW127029   3.287   3.497   7.136  0.5110  1.1764  0.5334
 5190SOL    HW227030   3.383   3.393   7.082 -0.2373  2.0008 -3.3402
 5191SOL     OW27031   1.352   0.141   7.820  0.0050 -0.3564  0.8821
 5191SOL    HW127032   1.332   0.140   7.727  0.1362 -1.1302  0.8567
 5191SOL    HW227033   1.446   0.123   7.819  0.0269 -0.2255  0.7443
 5192SOL     OW27034   2.664   1.510   6.961 -0.3761 -0.1105 -0.2556
 5192SOL    HW127035   2.633   1.431   7.005 -0.1183  0.9237  1.8098
 5192SOL    HW227036   2.617   1.510   6.877  0.8589 -0.7579 -0.9342
 5193SOL     OW27037   0.937   3.003   4.595  0.2629 -0.2149  0.5913
 5193SOL    HW127038   0.858   3.037   4.636 -1.0482 -1.7393 -0.6886
 5193SOL    HW227039   0.905   2.928   4.545  2.0572 -0.5378 -0.0963
 5194SOL     OW27040   3.307   1.300   6.584 -0.2060  0.1426  0.0212
 5194SOL    HW127041   3.242   1.299   6.514 -0.4253 -0.3602  0.2292
 5194SOL    HW227042   3.352   1.381   6.562 -0.9699  0.9953  1.5521
 5195SOL     OW27043   3.683   1.915   4.983  0.6294  0.4105  0.4440
 5195SOL    HW127044   3.721   1.989   5.032 -1.1346  0.3078  1.9777
 5195SOL    HW227045   3.680   1.937   4.890  2.7340 -1.5605 -0.1032
 5196SOL     OW27046   0.747   1.236   7.288 -0.2732 -0.1992  0.2743
 5196SOL    HW127047   0.693   1.301   7.333 -0.3830 -1.6496  2.2443
 5196SOL    HW227048   0.726   1.259   7.198  1.4209  0.6481  0.0886
 5197SOL     OW27049   1.137   2.355  13.119  1.3604  0.2400 -0.1011
 5197SOL    HW127050   1.049   2.323  13.097  0.5723  1.7226  0.9009
 5197SOL    HW227051   1.128   2.384  13.210  1.0434 -3.8139  1.1513
 5198SOL     OW27052   1.804   1.644   0.522 -0.4616  0.3490 -0.1462
 5198SOL    HW127053   1.721   1.636   0.569 -0.7182  1.2387 -0.4599
 5198SOL    HW227054   1.845   1.700   0.588  0.6343 -0.0829 -0.4660
 5199SOL     OW27055   4.659   3.529   4.833  0.1120 -0.2895  0.6561
 5199SOL    HW127056   4.582   3.581   4.855  1.1566  1.1263  0.9317
 5199SOL    HW227057   4.682   3.563   4.746 -0.5613 -1.4920  0.0110
 5200SOL     OW27058   3.537   2.204   4.122 -0.4537 -0.5023  0.2804
 5200SOL    HW127059   3.466   2.225   4.184 -0.0110 -2.5010  1.4536
 5200SOL    HW227060   3.507   2.124   4.080 -1.9323 -0.7518  1.7870
 5201SOL     OW27061   0.583   2.692   1.583 -0.2978 -0.4708 -0.1251
 5201SOL    HW127062   0.489   2.686   1.564 -0.5990 -0.4815  1.3958
 5201SOL    HW227063   0.593   2.640   1.662 -2.5401 -0.9594 -0.1549
 5202SOL     OW27064   3.891   2.316   1.572  0.0932 -0.0043  0.1646
 5202SOL    HW127065   3.819   2.343   1.630  0.7491 -2.0256  1.9235
 5202SOL    HW227066   3.921   2.399   1.536  1.6470 -0.2512  0.9016
 5203SOL     OW27067   0.590   1.934   9.283 -0.1963 -0.2411  0.0980
 5203SOL    HW127068   0.617   1.843   9.290  1.5347  0.3494  1.2841
 5203SOL    HW227069   0.576   1.964   9.373 -1.6442 -2.0302  0.4642
 5204SOL     OW27070   1.815   3.286  13.919 -0.1096 -0.2928 -0.2741
 5204SOL    HW127071   1.885   3.348  13.941  0.7510 -1.7124  1.0525
 5204SOL    HW227072   1.753   3.352  13.889 -0.5142  0.1576  1.5040
 5205SOL     OW27073   0.025   2.111   7.620 -0.0928  0.4080 -0.2259
 5205SOL    HW127074   0.101   2.131   7.674 -0.1484 -0.8536  0.3119
 5205SOL    HW227075   4.715   2.199   7.600  1.4963  0.8570 -0.8795
 5206SOL     OW27076   4.717   2.556   9.585 -0.2745  0.5252  0.4549
 5206SOL    HW127077   0.001   2.568   9.680  2.3712 -2.8184  0.6973
 5206SOL    HW227078   0.058   2.485   9.576 -1.3029 -0.1789 -1.2404
 5207SOL     OW27079   1.581   4.024   3.028  0.4684 -0.0390  0.4196
 5207SOL    HW127080   1.494   4.062   3.022  1.3384  1.9535  0.3666
 5207SOL    HW227081   1.642   4.084   2.985 -0.1600 -0.9580 -1.7883
 5208SOL     OW27082   0.891   3.488   0.599 -0.2867 -0.0652  0.3009
 5208SOL    HW127083   0.973   3.463   0.642  0.3787  0.9415 -0.4140
 5208SOL    HW227084   0.888   3.580   0.624 -1.7314  0.0857 -0.4287
 5209SOL     OW27085   0.794   0.698   4.105 -0.3637  0.3179  0.1463
 5209SOL    HW127086   0.768   0.779   4.061 -0.8028  1.1217  1.8776
 5209SOL    HW227087   0.786   0.635   4.034  1.2624  0.0844  0.1569
 5210SOL     OW27088   3.363   0.517   2.292 -0.4560  0.6157  0.7939
 5210SOL    HW127089   3.377   0.561   2.376 -0.7914  1.9799  0.1451
 5210SOL    HW227090   3.326   0.581   2.231 -0.4276 -0.3042 -0.1854
 5211SOL     OW27091   3.161   4.124   6.885 -0.3518 -0.0130  0.5977
 5211SOL    HW127092   3.240   4.071   6.882 -0.5355 -0.2990  0.8230
 5211SOL    HW227093   3.191   4.212   6.910 -1.1212  0.1024  1.1132
 5212SOL     OW27094   4.024   3.102   3.511 -0.4333 -0.1341 -0.2843
 5212SOL    HW127095   4.086   3.129   3.579 -0.7011  0.9347 -0.4771
 5212SOL    HW227096   3.984   3.187   3.495 -0.4833 -0.1255 -0.1116
 5213SOL     OW27097   2.616   0.420   8.528  0.8971 -0.6023 -0.8433
 5213SOL    HW127098   2.697   0.375   8.551 -0.2532 -1.4521  1.5588
 5213SOL    HW227099   2.642   0.497   8.477  0.7182  0.9943  1.4491
 5214SOL     OW27100   2.422   0.854   4.217  0.0288  0.5310 -0.0087
 5214SOL    HW127101   2.439   0.851   4.123  1.4614 -0.1603  0.2750
 5214SOL    HW227102   2.345   0.798   4.216  0.5350 -0.1744  0.2700
 5215SOL     OW27103   1.225   0.580   2.452  0.3471  0.5066  0.0089
 5215SOL    HW127104   1.169   0.551   2.380 -1.9752 -0.2475  2.1140
 5215SOL    HW227105   1.310   0.585   2.409  1.0327  0.6341  1.3823
 5216SOL     OW27106   0.802   2.728   9.184  0.4442 -0.0703 -0.1807
 5216SOL    HW127107   0.820   2.680   9.103 -0.1922  2.2747 -1.6927
 5216SOL    HW227108   0.892   2.748   9.212  0.4862 -0.6153  0.0885
 5217SOL     OW27109   2.281   3.076   5.382 -0.6907  0.7831 -0.4393
 5217SOL    HW127110   2.199   3.064   5.431  1.6403  0.0990  3.3470
 5217SOL    HW227111   2.309   2.986   5.371 -2.1218  0.3491 -0.4769
 5218SOL     OW27112   0.899   2.889   7.214  0.0052  0.0791 -0.4596
 5218SOL    HW127113   0.840   2.959   7.188 -1.1496 -1.3891 -1.8134
 5218SOL    HW227114   0.838   2.819   7.191  0.3709 -0.3935  0.0133
 5219SOL     OW27115   0.961   2.025   2.264 -0.0899  0.2427 -0.6060
 5219SOL    HW127116   1.027   2.028   2.195  0.7160  0.6280  0.1700
 5219SOL    HW227117   0.997   2.034   2.353  0.7743 -3.1535 -0.6055
 5220SOL     OW27118   2.007   3.030   2.821  0.0743 -0.3028 -0.0276
 5220SOL    HW127119   1.968   2.944   2.808 -0.0626 -0.1310 -0.7687
 5220SOL    HW227120   2.093   3.014   2.860  0.6036 -0.4305 -1.2460
 5221SOL     OW27121   2.666   0.079  15.914  0.3564 -0.3631 -0.3708
 5221SOL    HW127122   2.624   0.153  15.958  0.6027 -0.0386 -0.6762
 5221SOL    HW227123   2.699   0.113  15.830  2.3667 -0.3250  0.4255
 5222SOL     OW27124   0.734   0.125   7.474  0.0686  0.1041  0.1110
 5222SOL    HW127125   0.813   0.170   7.504 -0.1845  0.0294  0.8859
 5222SOL    HW227126   0.672   0.198   7.472  0.8425  0.7706  0.6622
 5223SOL     OW27127   1.061   4.362   3.247  0.7263 -0.0134  0.4660
 5223SOL    HW127128   1.052   4.274   3.210 -1.0738 -0.3724  1.7761
 5223SOL    HW227129   1.052   4.403   3.161  1.2075 -2.8088 -0.9466
 5224SOL     OW27130   2.309   3.944   3.874  0.2900  0.2540  1.3460
 5224SOL    HW127131   2.242   3.881   3.899 -0.4232 -1.0038 -3.7142
 5224SOL    HW227132   2.364   3.891   3.816  0.9756  0.4511  1.8172
 5225SOL     OW27133   1.766   1.110   7.516 -0.0909 -0.3087 -0.2334
 5225SOL    HW127134   1.732   1.181   7.570  1.2158  1.0649 -1.2140
 5225SOL    HW227135   1.718   1.125   7.434 -1.1580 -0.5519  0.3586
 5226SOL     OW27136   4.059   4.665  10.438  0.0610 -0.7546 -0.1469
 5226SOL    HW127137   4.065   0.038  10.443 -0.8284 -0.6648 -0.7434
 5226SOL    HW227138   4.145   4.640  10.471  0.3701 -1.3311 -1.3874
 5227SOL     OW27139   2.146   4.445  10.808 -0.0506 -0.1161  0.0093
 5227SOL    HW127140   2.199   4.473  10.882  0.9333 -2.2903  0.1353
 5227SOL    HW227141   2.097   4.527  10.799  3.1034  1.7354 -0.0181
 5228SOL     OW27142   0.959   2.266   3.931  0.1941  0.3091  0.5959
 5228SOL    HW127143   0.944   2.360   3.939 -1.9550 -0.1051  1.4539
 5228SOL    HW227144   1.054   2.270   3.937  0.0005  1.0805  2.9336
 5229SOL     OW27145   1.214   4.117  15.321 -0.0649 -0.0620 -0.3391
 5229SOL    HW127146   1.300   4.147  15.349  0.8591 -1.4426 -1.7331
 5229SOL    HW227147   1.164   4.135  15.400  1.6464  0.9461  0.5029
 5230SOL     OW27148   3.614   3.711   1.193  0.1064 -0.2420 -0.3561
 5230SOL    HW127149   3.531   3.693   1.238 -0.2584 -1.0767 -1.3815
 5230SOL    HW227150   3.674   3.661   1.248  0.6657  1.2536  0.4054
 5231SOL     OW27151   3.059   1.935   6.079  0.0003 -0.4278 -0.0387
 5231SOL    HW127152   3.054   1.854   6.130 -0.3147  0.1700  0.8933
 5231SOL    HW227153   3.136   1.970   6.125  1.3967 -0.4502 -2.4082
 5232SOL     OW27154   4.373   3.275   4.869 -0.0725 -0.7272 -0.1304
 5232SOL    HW127155   4.425   3.293   4.947 -0.2447  2.1288 -0.6901
 5232SOL    HW227156   4.423   3.311   4.796  0.9894 -0.6523  0.6451
 5233SOL     OW27157   1.280   3.562   6.941  0.0209 -0.5988  0.0258
 5233SOL    HW127158   1.278   3.470   6.916 -1.5747 -0.6273  0.2441
 5233SOL    HW227159   1.192   3.590   6.915  0.8668  0.0734 -2.1219
 5234SOL     OW27160   1.362   3.664   2.986  0.1446  0.2678 -0.1413
 5234SOL    HW127161   1.445   3.652   2.941 -0.4002  0.8018 -1.2800
 5234SOL    HW227162   1.392   3.693   3.072  2.9916  0.3816 -1.1632
 5235SOL     OW27163   1.581   2.868   5.221  0.2868  0.6398  0.2146
 5235SOL    HW127164   1.545   2.812   5.152  0.2753  1.2208 -0.2511
 5235SOL    HW227165   1.650   2.913   5.172 -1.5926  1.9859 -1.2085
 5236SOL     OW27166   3.597   0.906   2.108 -1.0333 -0.1308 -0.3238
 5236SOL    HW127167   3.567   0.989   2.145 -0.4425  0.2441 -0.6771
 5236SOL    HW227168   3.655   0.875   2.178 -1.7288  1.1058  0.7797
 5237SOL     OW27169   2.515   2.058   9.988 -0.2403  0.0871 -0.2589
 5237SOL    HW127170   2.566   2.114  10.047  0.0226  0.6588 -1.0406
 5237SOL    HW227171   2.578   2.001   9.944 -0.7676 -0.0887 -0.7818
 5238SOL     OW27172   3.854   0.054   5.118  0.4039  0.3472  0.6095
 5238SOL    HW127173   3.878   4.690   5.087  0.7504 -0.0063  1.8834
 5238SOL    HW227174   3.768   0.037   5.156  0.2255  0.7834  0.4063
 5239SOL     OW27175   2.624   4.268   9.221 -0.8197 -0.3261 -0.0340
 5239SOL    HW127176   2.568   4.200   9.258 -0.2699 -0.1817  1.0788
 5239SOL    HW227177   2.577   4.300   9.144 -1.5209 -1.2008  0.0376
 5240SOL     OW27178   2.771   3.023   5.324  0.1144 -0.2338 -0.2947
 5240SOL    HW127179   2.699   3.016   5.387  0.6164  0.4351  0.3493
 5240SOL    HW227180   2.782   2.930   5.303 -0.9345 -0.4276 -0.0082
 5241SOL     OW27181   0.931   4.277   8.928 -0.3730  1.0667  0.6168
 5241SOL    HW127182   0.898   4.335   8.997 -0.7429  1.3022  0.2419
 5241SOL    HW227183   0.981   4.211   8.976 -2.2568 -1.4479 -0.8521
 5242SOL     OW27184   2.289   0.340   1.869  0.2543 -0.5276  0.1196
 5242SOL    HW127185   2.256   0.296   1.947  2.2361 -0.7099  0.8521
 5242SOL    HW227186   2.322   0.264   1.821 -4.6677 -0.8156 -2.8066
 5243SOL     OW27187   4.492   2.513   6.067 -0.5169  0.3695 -0.4640
 5243SOL    HW127188   4.547   2.435   6.063 -1.0302  0.0214 -0.6968
 5243SOL    HW227189   4.414   2.467   6.095  0.4213 -1.0447 -0.1816
 5244SOL     OW27190   4.114   4.043   7.898 -0.6416 -0.3263 -0.1009
 5244SOL    HW127191   4.090   4.038   7.806 -1.0371  0.1698 -0.0257
 5244SOL    HW227192   4.172   4.118   7.889  1.2237 -1.7257  0.0788
 5245SOL     OW27193   0.388   0.703   5.750 -0.3101  0.4037  0.2284
 5245SOL    HW127194   0.300   0.696   5.712  0.7170  0.7969 -2.2403
 5245SOL    HW227195   0.406   0.796   5.752 -0.7199  0.4264  2.3234
 5246SOL     OW27196   4.147   3.049  13.084  0.3238 -0.5510 -0.5747
 5246SOL    HW127197   4.239   3.069  13.100  0.0131  2.2132 -2.2403
 5246SOL    HW227198   4.157   2.954  13.077 -0.6882 -0.6987  0.0644
 5247SOL     OW27199   3.732   4.489   8.030  0.1873 -0.2034  0.0197
 5247SOL    HW127200   3.658   4.430   8.043  0.0827 -0.1849 -0.5092
 5247SOL    HW227201   3.793   4.419   8.051  1.9177  0.6329 -2.2964
 5248SOL     OW27202   4.258   1.539   8.056 -0.1632  0.1056  0.3432
 5248SOL    HW127203   4.302   1.508   8.134 -0.5968  0.0206  0.5520
 5248SOL    HW227204   4.336   1.570   8.009 -0.7663  0.2839 -0.5336
 5249SOL     OW27205   3.781   0.489  11.552  0.5020 -0.6099 -0.1974
 5249SOL    HW127206   3.694   0.471  11.516 -0.4597  2.2809  0.6243
 5249SOL    HW227207   3.813   0.553  11.488 -0.3777  0.6334  0.5991
 5250SOL     OW27208   2.734   3.848  15.622  0.2154  0.1612  0.2042
 5250SOL    HW127209   2.793   3.810  15.688  0.3597 -0.8325 -0.4929
 5250SOL    HW227210   2.732   3.781  15.553 -2.7794 -0.7011  1.1467
 5251SOL     OW27211   3.740   4.059   0.925 -0.0750 -0.3221 -0.1048
 5251SOL    HW127212   3.705   4.120   0.990  1.2936 -0.6177  0.8838
 5251SOL    HW227213   3.797   4.002   0.975 -2.4221 -1.6019  1.0909
 5252SOL     OW27214   4.316   0.449   1.730  0.4810  0.3238  0.0856
 5252SOL    HW127215   4.228   0.482   1.708  1.0926  2.6111  1.0888
 5252SOL    HW227216   4.292   0.386   1.798  1.3676  1.1227  1.1320
 5253SOL     OW27217   3.738   2.334   3.366  0.2778 -0.3657 -1.0670
 5253SOL    HW127218   3.780   2.250   3.349 -1.0371 -0.6879 -2.6824
 5253SOL    HW227219   3.676   2.327   3.294  0.7565 -1.2747 -1.3828
 5254SOL     OW27220   1.767   3.939   5.828  0.3240  0.0672 -0.0753
 5254SOL    HW127221   1.725   3.971   5.908 -1.5289 -0.0227 -0.9965
 5254SOL    HW227222   1.798   3.852   5.854  3.0964  1.0851  0.0375
 5255SOL     OW27223   1.471   3.122   4.667 -0.1107  0.1975  0.2903
 5255SOL    HW127224   1.397   3.084   4.619  1.8355 -2.4074 -0.6475
 5255SOL    HW227225   1.421   3.158   4.741  2.3190 -0.2836  2.1627
 5256SOL     OW27226   1.208   2.965  14.985  0.0077  0.0614 -0.2201
 5256SOL    HW127227   1.249   2.895  15.035 -2.1370 -1.0589 -0.0539
 5256SOL    HW227228   1.147   2.999  15.051 -0.8502 -0.5430 -0.7128
 5257SOL     OW27229   4.591   1.132   3.500  0.3061  0.4285  0.0510
 5257SOL    HW127230   4.536   1.065   3.541  0.8568  0.4078  0.7657
 5257SOL    HW227231   4.536   1.151   3.424  0.6693 -1.8323 -0.8054
 5258SOL     OW27232   4.587   3.800   7.841  0.0184  0.8184 -0.0024
 5258SOL    HW127233   4.628   3.806   7.928 -0.6246  1.1294  0.2823
 5258SOL    HW227234   4.664   3.799   7.785  1.4647  0.9521  1.9613
 5259SOL     OW27235   1.392   1.967  10.295  0.2526  0.5600  0.0199
 5259SOL    HW127236   1.440   2.020  10.232  1.5607  1.9260  2.1267
 5259SOL    HW227237   1.463   1.943  10.356  2.1969  1.7854 -1.7698
 5260SOL     OW27238   1.000   2.463   1.203 -0.1032  0.3844 -0.5043
 5260SOL    HW127239   1.027   2.379   1.166 -0.9782 -0.7335  1.3204
 5260SOL    HW227240   1.008   2.456   1.298 -2.1989 -0.8808 -0.4158
 5261SOL     OW27241   1.079   2.791  12.470 -0.4420 -0.2945 -0.0793
 5261SOL    HW127242   1.167   2.794  12.432  0.4635 -0.1699  1.9778
 5261SOL    HW227243   1.102   2.745  12.551 -2.0632 -0.4858  0.2679
 5262SOL     OW27244   1.758   3.744  10.290 -0.3985  0.1680 -0.1097
 5262SOL    HW127245   1.828   3.742  10.355  0.7126 -0.2009 -1.3190
 5262SOL    HW227246   1.718   3.829  10.309 -1.8620  0.2052 -3.3317
 5263SOL     OW27247   3.261   1.116   6.825 -0.3310  0.1124  0.4205
 5263SOL    HW127248   3.302   1.155   6.748 -0.2003 -0.1660  0.3500
 5263SOL    HW227249   3.169   1.116   6.797 -0.0015 -1.1969 -0.6659
 5264SOL     OW27250   1.186   3.443   1.386 -0.1572 -0.3029  0.3093
 5264SOL    HW127251   1.155   3.524   1.426  1.9265 -0.8688  3.0645
 5264SOL    HW227252   1.252   3.407   1.446  1.0202 -0.8903 -1.3394
 5265SOL     OW27253   0.657   4.063  16.098  0.4871 -0.7472  0.2445
 5265SOL    HW127254   0.638   3.975  16.132  3.6232 -1.9848 -1.1840
 5265SOL    HW227255   0.640   4.101  16.184  1.1483  0.7756 -0.3033
 5266SOL     OW27256   0.714   1.270  11.107 -0.1777 -0.0324  0.6323
 5266SOL    HW127257   0.798   1.310  11.085 -0.5104  1.3988  1.9712
 5266SOL    HW227258   0.660   1.341  11.144  0.8385  1.4963 -0.8281
 5267SOL     OW27259   2.795   0.640  14.425  0.4878  0.6485  0.5784
 5267SOL    HW127260   2.888   0.655  14.444  1.3881 -3.4296 -0.6603
 5267SOL    HW227261   2.794   0.569  14.361  0.9435  0.4954  0.7396
 5268SOL     OW27262   0.151   0.065   3.688 -0.1100 -0.2083  0.3219
 5268SOL    HW127263   0.174   0.084   3.597 -3.3723  1.2595 -0.1985
 5268SOL    HW227264   0.122   4.697   3.681  1.0980 -0.5010 -0.7768
 5269SOL     OW27265   3.563   4.229   8.042  0.0748  0.1274  0.4415
 5269SOL    HW127266   3.588   4.143   8.075  0.5528  0.6912  1.5368
 5269SOL    HW227267   3.468   4.230   8.055  0.1899 -0.1930  1.3104
 5270SOL     OW27268   0.780   2.758   9.817 -0.1465  0.2366  0.5048
 5270SOL    HW127269   0.792   2.669   9.785 -0.1143 -0.1827  1.6917
 5270SOL    HW227270   0.691   2.746   9.850 -0.4129  1.8888  0.3683
 5271SOL     OW27271   2.777   4.478   1.752 -0.6155  0.1252  0.2973
 5271SOL    HW127272   2.759   4.522   1.669 -0.9715 -0.1619  0.2198
 5271SOL    HW227273   2.758   4.543   1.819  1.0971 -1.9245  2.7659
 5272SOL     OW27274   1.418   0.842  16.867  0.6856  0.0557  0.0303
 5272SOL    HW127275   1.461   0.803  16.791  0.1529 -0.2410 -0.1223
 5272SOL    HW227276   1.496   0.889  16.897  0.2348 -0.7651  2.5561
 5273SOL     OW27277   3.818   4.437   7.502 -0.4595  0.0293  0.2227
 5273SOL    HW127278   3.829   4.393   7.586 -2.3422 -1.0550 -0.0915
 5273SOL    HW227279   3.814   4.531   7.523 -0.3996  0.2131 -0.6077
 5274SOL     OW27280   3.483   3.751  16.922  0.0364  0.0837  0.5432
 5274SOL    HW127281   3.397   3.781  16.951  0.1451  2.2022 -1.4357
 5274SOL    HW227282   3.472   3.660  16.893 -0.2263  0.2507  0.1275
 5275SOL     OW27283   1.407   4.653  16.731  0.1034  0.0597 -0.5426
 5275SOL    HW127284   1.424   4.675  16.822  1.3477  1.2498 -1.0621
 5275SOL    HW227285   1.486   4.606  16.702 -1.6096 -2.5532 -0.9871
 5276SOL     OW27286   1.459   3.134   5.185 -0.2153 -0.1301 -0.0628
 5276SOL    HW127287   1.447   3.040   5.193  0.2951 -0.6164 -5.1183
 5276SOL    HW227288   1.548   3.136   5.149 -0.1739 -0.5930  0.0135
 5277SOL     OW27289   1.414   3.343   0.956 -0.3337 -0.3117  0.7306
 5277SOL    HW127290   1.480   3.300   0.902 -0.3771  0.9229 -0.2895
 5277SOL    HW227291   1.457   3.423   0.988 -0.0510 -1.5863  3.5571
 5278SOL     OW27292   2.962   0.696   0.324  0.3407  0.7248  0.9592
 5278SOL    HW127293   3.047   0.730   0.296  0.1243 -1.5689 -2.4328
 5278SOL    HW227294   2.919   0.780   0.339 -0.1444  0.2676  2.1146
 5279SOL     OW27295   1.662   2.374   9.422  0.0130 -0.3243 -0.1504
 5279SOL    HW127296   1.582   2.322   9.410 -0.6397  1.0270 -1.5885
 5279SOL    HW227297   1.697   2.368   9.333  0.1803 -1.3371 -0.0222
 5280SOL     OW27298   1.526   0.685  13.730  0.2452 -0.6093 -0.2898
 5280SOL    HW127299   1.532   0.707  13.637 -0.5295 -0.7218 -0.3727
 5280SOL    HW227300   1.432   0.704  13.727  0.4084  0.5126  1.7557
 5281SOL     OW27301   0.719   0.408   6.737  0.1810  0.1915  0.9850
 5281SOL    HW127302   0.655   0.447   6.678 -0.9598 -2.4632  0.4609
 5281SOL    HW227303   0.793   0.404   6.676  1.9955  2.5556  3.0257
 5282SOL     OW27304   4.223   4.224   6.456  0.0161  0.0463  0.2233
 5282SOL    HW127305   4.154   4.233   6.521 -0.7513  1.3523 -0.7503
 5282SOL    HW227306   4.249   4.316   6.445 -0.1739  0.0928  0.1506
 5283SOL     OW27307   2.323   2.831   7.973  0.4436  0.5099 -0.0869
 5283SOL    HW127308   2.397   2.868   8.021 -0.3200  0.5587  1.0566
 5283SOL    HW227309   2.367   2.773   7.910  1.7300  0.7102  0.6316
 5284SOL     OW27310   4.486   3.084   2.094 -0.5972 -0.7800 -0.7382
 5284SOL    HW127311   4.456   3.092   2.004 -0.6445  3.1214 -0.3808
 5284SOL    HW227312   4.580   3.077   2.077  0.1491 -2.0384  3.7248
 5285SOL     OW27313   0.907   3.477   4.000  0.3659  0.0019  0.0620
 5285SOL    HW127314   0.844   3.420   3.956  0.4996  0.1730 -0.3435
 5285SOL    HW227315   0.890   3.442   4.088 -0.1097  2.6407  1.0345
 5286SOL     OW27316   0.172   2.576   2.925  0.5842 -0.1254 -0.4663
 5286SOL    HW127317   0.078   2.570   2.941  0.8029  0.8121  1.1368
 5286SOL    HW227318   0.168   2.628   2.844  1.4691  0.3488 -0.2088
 5287SOL     OW27319   4.454   3.944   0.731  0.6017 -0.3868  0.1441
 5287SOL    HW127320   4.448   3.853   0.759 -0.7552 -0.2075  0.4318
 5287SOL    HW227321   4.550   3.954   0.729  0.5577  0.0458  0.3666
 5288SOL     OW27322   3.689   3.756   4.916 -0.5187  0.2441  0.2409
 5288SOL    HW127323   3.738   3.774   4.836  1.0016 -0.5380  0.9869
 5288SOL    HW227324   3.704   3.663   4.937  0.0293 -0.1589 -2.0025
 5289SOL     OW27325   0.035   4.707   8.619 -0.3075  0.0892  0.0008
 5289SOL    HW127326   0.098   4.635   8.619  1.2854  1.4579 -0.2457
 5289SOL    HW227327   0.026   4.711   8.714  0.5253 -1.2061  0.1360
 5290SOL     OW27328   4.001   1.812   4.119 -0.2252 -0.0230 -0.4698
 5290SOL    HW127329   4.010   1.734   4.173 -1.6836 -0.1002 -0.3231
 5290SOL    HW227330   3.925   1.851   4.163 -0.8835 -3.0343  1.0996
 5291SOL     OW27331   0.368   0.770   4.173 -0.1804 -0.1412  0.2024
 5291SOL    HW127332   0.433   0.758   4.103 -0.8231  0.4212 -0.4916
 5291SOL    HW227333   0.373   0.865   4.165  0.9455 -0.0665  1.7869
 5292SOL     OW27334   2.432   3.850  13.208  0.1912 -0.1607 -0.3732
 5292SOL    HW127335   2.361   3.787  13.211  0.0159  0.1255  1.3680
 5292SOL    HW227336   2.411   3.896  13.289 -0.2039  0.2117 -0.6886
 5293SOL     OW27337   1.698   3.426   8.920 -0.1466  0.5769  0.4548
 5293SOL    HW127338   1.703   3.359   8.988  1.6970  0.1977 -0.0651
 5293SOL    HW227339   1.778   3.408   8.872 -1.3163  0.0327 -1.3012
 5294SOL     OW27340   0.014   3.150   2.015 -0.2222 -0.0518 -0.1281
 5294SOL    HW127341   4.715   3.217   1.951  2.4740  0.3002 -0.6863
 5294SOL    HW227342   0.087   3.099   1.977  2.1032  0.3917  3.8149
 5295SOL     OW27343   0.273   1.269  15.825  0.2156 -0.3307  0.4530
 5295SOL    HW127344   0.239   1.359  15.819 -2.8569 -1.5498 -0.4793
 5295SOL    HW227345   0.197   1.216  15.801  1.7663 -1.2596 -2.3716
 5296SOL     OW27346   3.140   1.295   7.355 -0.0430  0.0507 -0.5561
 5296SOL    HW127347   3.150   1.389   7.365 -1.0855 -0.3030  3.6992
 5296SOL    HW227348   3.230   1.263   7.349  1.1551  3.1694  0.8856
 5297SOL     OW27349   4.586   3.146   7.201  0.1385  0.0401 -0.7433
 5297SOL    HW127350   4.644   3.172   7.272 -1.7505 -0.0447  0.8452
 5297SOL    HW227351   4.503   3.190   7.224 -0.5275 -1.7103  0.2058
 5298SOL     OW27352   3.376   1.581   2.408 -0.1974  0.1266  0.7040
 5298SOL    HW127353   3.299   1.619   2.366  1.4673  3.1341  0.4154
 5298SOL    HW227354   3.412   1.533   2.334  1.5083 -0.3266  1.8222
 5299SOL     OW27355   2.806   0.380   5.771 -0.6654  0.1421 -0.4550
 5299SOL    HW127356   2.738   0.315   5.755 -0.2939 -0.4979  0.5353
 5299SOL    HW227357   2.866   0.316   5.808 -0.6856  0.0171 -0.6383
 5300SOL     OW27358   2.409   3.686   5.355  0.0792 -0.5223  0.2277
 5300SOL    HW127359   2.330   3.740   5.354 -0.5804 -1.4854  0.3189
 5300SOL    HW227360   2.457   3.739   5.291 -0.3247  1.2259  1.3594
 5301SOL     OW27361   0.875   3.876   1.680  0.0982 -0.0181 -0.4272
 5301SOL    HW127362   0.824   3.831   1.747  1.3883 -0.9960 -0.1103
 5301SOL    HW227363   0.945   3.916   1.731 -1.4724  0.0405  1.7112
 5302SOL     OW27364   3.201   1.554   5.612 -0.2072 -0.3178  0.0567
 5302SOL    HW127365   3.214   1.498   5.689 -0.0871 -2.9544 -1.8757
 5302SOL    HW227366   3.179   1.636   5.657 -0.1008 -0.3311  0.1315
 5303SOL     OW27367   1.195   2.310   6.979  0.4552  0.1621  0.3386
 5303SOL    HW127368   1.272   2.315   6.923  0.9191  0.1014  0.9751
 5303SOL    HW227369   1.235   2.312   7.066 -0.8038 -0.3089  0.9279
 5304SOL     OW27370   4.129   4.067   5.055  0.0991  0.1822 -0.0344
 5304SOL    HW127371   4.091   3.981   5.034  0.4613 -0.1183  0.5421
 5304SOL    HW227372   4.069   4.090   5.126  0.7416  0.9746  0.2554
 5305SOL     OW27373   2.584   2.791   1.113 -0.1506  0.4870  0.0318
 5305SOL    HW127374   2.570   2.712   1.164  0.5623  0.8373  0.7755
 5305SOL    HW227375   2.564   2.758   1.025 -1.3711  1.8586 -0.2082
 5306SOL     OW27376   4.588   4.216   5.163 -0.2950 -0.5552 -0.0695
 5306SOL    HW127377   4.609   4.123   5.158  2.0950 -0.0219  0.2690
 5306SOL    HW227378   4.499   4.219   5.126 -0.3690  0.6662  0.2003
 5307SOL     OW27379   2.561   3.205  15.015 -0.0073 -0.5009  0.1535
 5307SOL    HW127380   2.479   3.226  14.971  0.3150  0.9580  0.2324
 5307SOL    HW227381   2.528   3.154  15.089 -2.2267  2.9924  1.6064
 5308SOL     OW27382   3.731   2.046   2.476  0.0275 -0.0179  0.2710
 5308SOL    HW127383   3.785   1.968   2.469  0.0913 -0.1023  1.8202
 5308SOL    HW227384   3.798   2.115   2.474  0.3712 -0.4921 -4.0430
 5309SOL     OW27385   0.899   2.288   3.541 -0.5359  0.2446  0.1843
 5309SOL    HW127386   0.839   2.360   3.521 -1.6772 -0.8723 -0.4167
 5309SOL    HW227387   0.855   2.220   3.490 -0.0698 -0.8181  1.1827
 5310SOL     OW27388   2.408   3.524   7.013  0.1291  0.2089  0.0694
 5310SOL    HW127389   2.391   3.573   7.093 -2.3511 -1.6743  0.6924
 5310SOL    HW227390   2.503   3.536   7.019  0.3277 -1.6362  0.6150
 5311SOL     OW27391   0.443   4.655   5.306  0.5005  0.2713  0.3154
 5311SOL    HW127392   0.401   4.584   5.355 -1.5799  1.0745 -0.2985
 5311SOL    HW227393   0.392   0.006   5.340  0.5239 -0.0444  1.0363
 5312SOL     OW27394   3.551   2.320  10.122  0.5081 -0.0163 -0.2160
 5312SOL    HW127395   3.621   2.351  10.063  1.6641 -1.2286  0.5116
 5312SOL    HW227396   3.515   2.245  10.075 -0.2974 -1.1264  2.1884
 5313SOL     OW27397   1.445   4.573   2.654  0.1734  0.1126 -0.0515
 5313SOL    HW127398   1.481   4.604   2.571  0.8389  0.3575  0.3308
 5313SOL    HW227399   1.513   4.599   2.716  0.4388 -0.4543 -0.1030
 5314SOL     OW27400   0.044   2.111   7.078 -0.0966 -0.2767 -0.0378
 5314SOL    HW127401   0.072   2.202   7.075 -2.3778  0.4803  1.9121
 5314SOL    HW227402   4.683   2.133   7.118  0.5755 -0.8835  1.7055
 5315SOL     OW27403   4.237   1.541  14.146 -0.4794  0.5277 -0.0244
 5315SOL    HW127404   4.238   1.452  14.178 -1.9329  0.8403  0.8388
 5315SOL    HW227405   4.219   1.520  14.054 -0.2501  2.1101 -0.4495
 5316SOL     OW27406   1.142   0.361   4.591  0.6026  0.0910  0.3087
 5316SOL    HW127407   1.137   0.297   4.661  0.7182  1.3265  1.4544
 5316SOL    HW227408   1.204   0.313   4.537  3.1446  4.1125 -0.3856
 5317SOL     OW27409   1.043   4.097   0.956 -0.7144 -0.4856  0.1136
 5317SOL    HW127410   0.954   4.119   0.986 -0.2298  0.4514  0.8566
 5317SOL    HW227411   1.097   4.135   1.025  0.5595  0.5475 -1.4500
 5318SOL     OW27412   0.937   4.352   1.812 -0.5336 -0.4993 -0.3145
 5318SOL    HW127413   0.864   4.411   1.829  0.0359 -0.0985  0.8077
 5318SOL    HW227414   0.909   4.280   1.870 -0.8422  0.3152  0.5505
 5319SOL     OW27415   4.214   1.757  10.924  0.5745  0.8695  0.0751
 5319SOL    HW127416   4.201   1.689  10.990  4.2436 -0.6884 -0.7678
 5319SOL    HW227417   4.195   1.829  10.983  1.7801  0.3292  1.1342
 5320SOL     OW27418   4.039   4.226   8.580  0.2092  0.7233  0.1300
 5320SOL    HW127419   3.964   4.176   8.613 -0.8198  0.5332 -2.4797
 5320SOL    HW227420   4.023   4.314   8.614 -0.9830  1.1750 -1.5615
 5321SOL     OW27421   0.023   0.106   2.186  0.2954  0.4162  0.1066
 5321SOL    HW127422   4.696   0.143   2.112 -2.4093  1.8528  2.6541
 5321SOL    HW227423   0.039   0.185   2.238 -2.8694 -0.8124  2.9707
 5322SOL     OW27424   4.180   2.016   5.499  0.5566 -0.2330  0.0271
 5322SOL    HW127425   4.152   1.925   5.513 -1.6703  0.8502  2.5352
 5322SOL    HW227426   4.156   2.033   5.408 -1.7150 -3.4068  0.0388
 5323SOL     OW27427   1.080   4.423   3.985  0.5270 -0.3127  0.3253
 5323SOL    HW127428   1.095   4.492   4.049 -0.0503 -1.7751  2.0552
 5323SOL    HW227429   1.053   4.470   3.907 -0.2890 -2.3038 -0.6036
 5324SOL     OW27430   2.084   0.783   4.113  0.3876 -0.1580 -0.5812
 5324SOL    HW127431   2.096   0.690   4.131 -0.3019  0.2351  1.8205
 5324SOL    HW227432   2.066   0.805   4.204  1.3830  0.2568 -0.4788
 5325SOL     OW27433   0.372   1.171   8.637 -0.0412 -0.3463  0.3751
 5325SOL    HW127434   0.443   1.230   8.660 -1.1308  0.7357  0.9441
 5325SOL    HW227435   0.335   1.234   8.575  1.1323 -0.7258 -0.7138
 5326SOL     OW27436   0.197   2.996  14.779  0.5980  0.1360 -0.2145
 5326SOL    HW127437   0.257   3.070  14.784 -0.9360  1.3276  0.3643
 5326SOL    HW227438   0.240   2.955  14.704  1.0884  1.0537 -0.4378
 5327SOL     OW27439   0.575   3.042   5.697 -0.2643 -0.3793 -0.2275
 5327SOL    HW127440   0.480   3.030   5.701 -0.0735 -1.7280  0.0408
 5327SOL    HW227441   0.588   2.956   5.657  1.4930 -1.0281  1.7667
 5328SOL     OW27442   1.730   4.020   5.009 -0.3202 -0.1417  0.0249
 5328SOL    HW127443   1.670   3.978   5.070 -1.1240  0.6787 -0.1977
 5328SOL    HW227444   1.670   4.059   4.945 -1.5212  1.4744  2.1393
 5329SOL     OW27445   2.678   2.212   0.820  0.0269 -0.1645 -0.0398
 5329SOL    HW127446   2.620   2.189   0.747  1.1968  1.9338 -1.6245
 5329SOL    HW227447   2.742   2.262   0.770  0.5152 -1.1738 -0.4196
 5330SOL     OW27448   3.853   2.875   4.635  0.0301  0.3301  0.3853
 5330SOL    HW127449   3.883   2.834   4.716 -0.7597  0.1555  0.5860
 5330SOL    HW227450   3.926   2.868   4.574 -1.0548  1.9355 -1.1125
 5331SOL     OW27451   1.576   4.248   8.017  0.4280 -0.3956 -0.1602
 5331SOL    HW127452   1.489   4.263   7.978  0.2547 -0.6340  0.1318
 5331SOL    HW227453   1.635   4.265   7.944  0.9652 -1.3223  0.0604
 5332SOL     OW27454   2.992   1.123   3.343 -0.1817 -0.0932 -0.2824
 5332SOL    HW127455   2.997   1.054   3.277  2.3121  0.3428 -0.5582
 5332SOL    HW227456   3.010   1.073   3.423 -1.0648  1.1037  0.6512
 5333SOL     OW27457   4.426   0.237  11.566  0.3147  0.7518 -0.2129
 5333SOL    HW127458   4.491   0.167  11.580 -2.0629 -0.7917  3.1643
 5333SOL    HW227459   4.367   0.179  11.518  2.4841 -2.5034  1.0431
 5334SOL     OW27460   1.804   2.854   9.915 -0.1456 -0.3166  0.1470
 5334SOL    HW127461   1.756   2.936   9.907 -1.1905 -0.6800  2.6485
 5334SOL    HW227462   1.875   2.872   9.854 -0.0681 -0.5965  0.1541
 5335SOL     OW27463   0.605   0.273   6.290  0.4451 -0.3449 -0.1278
 5335SOL    HW127464   0.683   0.291   6.341  0.0815 -0.4069  0.4447
 5335SOL    HW227465   0.588   0.180   6.308  3.5385 -1.0035 -0.5832
 5336SOL     OW27466   0.564   3.572   3.980 -0.0101  0.1475  0.5619
 5336SOL    HW127467   0.615   3.627   4.040 -1.0194  1.3492  0.3085
 5336SOL    HW227468   0.629   3.504   3.962 -2.6668 -2.0274 -0.7023
 5337SOL     OW27469   3.049   3.945  16.240 -0.2425 -0.0185 -0.2619
 5337SOL    HW127470   3.064   3.993  16.158 -0.5946  0.2519 -0.1701
 5337SOL    HW227471   2.984   4.005  16.277  1.6871  1.0458  1.3345
 5338SOL     OW27472   3.217   3.226  11.199 -0.2626 -0.4464  0.1685
 5338SOL    HW127473   3.253   3.144  11.164 -0.6764 -0.3715 -0.4301
 5338SOL    HW227474   3.135   3.191  11.235  0.3595 -1.2038  0.8501
 5339SOL     OW27475   1.081   4.471   5.217  0.1948  0.1690  0.1063
 5339SOL    HW127476   1.067   4.397   5.275  0.2863  0.8989  1.0719
 5339SOL    HW227477   1.151   4.511   5.268 -0.1127  0.1981  0.5028
 5340SOL     OW27478   2.959   3.410  17.049  0.3947 -0.2956 -0.0212
 5340SOL    HW127479   2.915   3.325  17.038 -1.5758  1.1905 -3.6393
 5340SOL    HW227480   3.051   3.384  17.052  0.4663  0.1849  1.7867
 5341SOL     OW27481   3.710   0.928   9.449 -0.2577  0.0952  0.5146
 5341SOL    HW127482   3.645   0.990   9.482  0.2747  1.8655 -1.7531
 5341SOL    HW227483   3.772   0.997   9.425  1.8243 -1.5396  1.2234
 5342SOL     OW27484   2.480   1.302   4.806 -0.0011 -0.2947 -0.9613
 5342SOL    HW127485   2.418   1.375   4.806 -0.4309 -0.6519  0.8597
 5342SOL    HW227486   2.557   1.359   4.809 -0.5283  0.4563 -1.6095
 5343SOL     OW27487   1.487   3.289  14.684 -0.1550 -0.2093  0.2435
 5343SOL    HW127488   1.447   3.375  14.699 -0.4910 -0.9154  3.5219
 5343SOL    HW227489   1.428   3.258  14.615  2.4011 -0.4553 -1.8332
 5344SOL     OW27490   1.888   0.302  14.876 -0.4646  0.2804 -0.5171
 5344SOL    HW127491   1.902   0.321  14.784 -0.4728  3.3197  0.0929
 5344SOL    HW227492   1.935   0.219  14.884 -0.2620  0.5657  1.2494
 5345SOL     OW27493   4.090   3.704   7.928  0.1116  0.0412  0.5401
 5345SOL    HW127494   4.166   3.760   7.912  0.2088 -0.2381  0.0119
 5345SOL    HW227495   4.122   3.641   7.993 -0.9975 -1.1561 -0.0736
 5346SOL     OW27496   4.021   2.258   7.195 -0.1120  0.4419  0.0609
 5346SOL    HW127497   3.937   2.245   7.239 -0.4748  2.6943  0.0588
 5346SOL    HW227498   4.006   2.222   7.107 -1.5573  1.5275 -0.1418
 5347SOL     OW27499   3.119   2.306   6.194  0.4196 -1.0608 -0.7212
 5347SOL    HW127500   3.129   2.331   6.102  0.3572 -0.9981 -0.7116
 5347SOL    HW227501   3.127   2.212   6.179 -0.2859 -0.9796 -1.6142
 5348SOL     OW27502   2.347   0.508   9.527  0.1163  0.0330 -0.4450
 5348SOL    HW127503   2.370   0.490   9.618  1.2719 -0.5785 -0.8640
 5348SOL    HW227504   2.374   0.423   9.494 -0.3603 -0.3583  0.1858
 5349SOL     OW27505   3.801   2.188   9.331  0.6015 -0.5134  0.4991
 5349SOL    HW127506   3.756   2.133   9.396  0.2031 -3.1199 -1.9825
 5349SOL    HW227507   3.862   2.238   9.385 -2.3970  3.4713  0.2095
 5350SOL     OW27508   2.238   1.194  10.749  0.0214  0.2272 -0.1925
 5350SOL    HW127509   2.321   1.193  10.701  0.0327 -0.6058 -0.1565
 5350SOL    HW227510   2.258   1.127  10.815 -2.4629 -2.0521 -1.7732
 5351SOL     OW27511   1.534   3.883  14.304  0.1878 -0.4204 -0.3819
 5351SOL    HW127512   1.472   3.955  14.297 -0.9900 -1.5768 -1.7662
 5351SOL    HW227513   1.587   3.900  14.226  0.0535 -0.1523 -0.4142
 5352SOL     OW27514   0.254   1.061   2.313  0.0498 -0.2509 -0.0762
 5352SOL    HW127515   0.338   1.092   2.346 -0.6233 -1.3654  2.6764
 5352SOL    HW227516   0.263   0.966   2.301 -1.2417 -0.2734 -0.9008
 5353SOL     OW27517   2.254   3.964  15.508  0.1299 -0.7071 -0.0759
 5353SOL    HW127518   2.342   3.998  15.492  0.4967 -1.6741 -0.0912
 5353SOL    HW227519   2.226   4.015  15.585  1.5453 -0.2720  0.1518
 5354SOL     OW27520   1.535   2.000  17.428  0.1270  0.8536  0.1126
 5354SOL    HW127521   1.528   1.965  17.517 -2.2675  0.6751 -0.1488
 5354SOL    HW227522   1.628   1.999  17.407  0.0946  0.1390 -0.0095
 5355SOL     OW27523   2.254   2.085  10.066  0.1743 -0.1376  0.3091
 5355SOL    HW127524   2.348   2.073  10.075  0.4199  2.5387  1.2239
 5355SOL    HW227525   2.242   2.178  10.046 -1.0915 -0.3048  0.2769
 5356SOL     OW27526   3.712   3.257   3.461 -0.2497 -0.8032  0.5489
 5356SOL    HW127527   3.792   3.302   3.434 -0.6798 -0.7660 -0.6943
 5356SOL    HW227528   3.740   3.183   3.515 -0.4478 -0.3193  1.3095
 5357SOL     OW27529   2.626   0.103   8.714 -0.1563  0.1720  0.1501
 5357SOL    HW127530   2.583   0.018   8.720 -1.5553  0.9006  0.2539
 5357SOL    HW227531   2.637   0.111   8.620 -0.3148  2.5395  0.3553
 5358SOL     OW27532   3.540   2.373  16.031  0.4366 -0.3798 -0.2317
 5358SOL    HW127533   3.504   2.352  16.117 -1.1162  1.0946 -0.5071
 5358SOL    HW227534   3.622   2.327  16.018  0.5766 -0.5551  1.2897
 5359SOL     OW27535   1.395   3.596   4.874  0.1984 -0.2723  0.2981
 5359SOL    HW127536   1.460   3.624   4.939 -1.0788  1.8851  0.6439
 5359SOL    HW227537   1.430   3.515   4.837  0.8794  0.8271 -1.4753
 5360SOL     OW27538   0.257   4.101   9.969 -0.2661  0.3232 -0.4855
 5360SOL    HW127539   0.258   4.014   9.928  1.2051  0.4581 -0.7464
 5360SOL    HW227540   0.303   4.066  10.045  0.2819  2.9964  0.4034
 5361SOL     OW27541   0.456   4.047   9.019 -0.2272  0.5309  0.2251
 5361SOL    HW127542   0.532   4.077   9.069 -0.7011  0.6554  0.8620
 5361SOL    HW227543   0.424   4.132   8.987 -2.0905 -0.6730 -1.0724
 5362SOL     OW27544   2.803   1.554   5.502 -0.5863  0.1158 -0.2338
 5362SOL    HW127545   2.807   1.640   5.461 -0.5060  0.0379 -0.3890
 5362SOL    HW227546   2.740   1.563   5.574 -0.2727 -2.0137  0.2932
 5363SOL     OW27547   2.102   2.288   7.302 -0.4802 -0.0467  0.1611
 5363SOL    HW127548   2.153   2.341   7.364 -2.0935  0.7009  0.8504
 5363SOL    HW227549   2.155   2.214   7.275  0.4245 -0.0963  2.0767
 5364SOL     OW27550   3.752   4.671  12.398 -0.5160  0.3058  0.1527
 5364SOL    HW127551   3.736   0.029  12.348 -1.6114  0.6356  1.0317
 5364SOL    HW227552   3.799   4.707  12.473  0.7346 -1.0898  0.0365
 5365SOL     OW27553   0.772   0.640   7.770 -0.2526  0.0732 -0.2037
 5365SOL    HW127554   0.843   0.615   7.828 -0.4027 -1.5869 -0.7166
 5365SOL    HW227555   0.710   0.571   7.793  0.1094  0.3014  1.4395
 5366SOL     OW27556   3.557   1.239   2.587 -0.1827 -0.0418  0.3589
 5366SOL    HW127557   3.595   1.267   2.503  0.4488  1.2263  1.0662
 5366SOL    HW227558   3.522   1.326   2.607  1.0732  0.1882  1.4884
 5367SOL     OW27559   4.608   3.812   7.520  0.2329  0.2305 -0.1151
 5367SOL    HW127560   4.682   3.861   7.554 -0.6399 -0.1224  2.2569
 5367SOL    HW227561   4.633   3.792   7.430  1.2736 -0.6630  0.3823
 5368SOL     OW27562   1.274   2.228   0.674 -0.5177  0.3297 -0.0711
 5368SOL    HW127563   1.255   2.284   0.750  0.2147  1.0786 -0.4447
 5368SOL    HW227564   1.342   2.280   0.631  0.2644  0.3650  1.1976
 5369SOL     OW27565   1.426   3.785   3.218 -0.4882  0.5813  0.5229
 5369SOL    HW127566   1.408   3.736   3.298 -0.8163  0.3818  0.3242
 5369SOL    HW227567   1.481   3.858   3.248  0.3857 -0.8690  2.4472
 5370SOL     OW27568   4.542   3.993  12.772  0.1398  0.0829 -0.2531
 5370SOL    HW127569   4.615   3.984  12.712 -1.0505 -0.4470 -1.6415
 5370SOL    HW227570   4.505   3.904  12.766 -0.0489  0.0484  1.4249
 5371SOL     OW27571   4.428   4.449   3.706  0.1005  0.0999  0.1913
 5371SOL    HW127572   4.497   4.496   3.752  1.1834 -1.1810 -0.1113
 5371SOL    HW227573   4.365   4.521   3.707 -0.1137 -0.0788 -0.5987
 5372SOL     OW27574   4.176   4.227  14.455 -0.2312 -0.3539  0.4088
 5372SOL    HW127575   4.247   4.172  14.421 -0.3514  1.0504 -2.0752
 5372SOL    HW227576   4.221   4.265  14.531 -0.3689  1.9911 -0.7164
 5373SOL     OW27577   3.530   3.448   7.365 -0.6955  0.2248  0.3691
 5373SOL    HW127578   3.497   3.527   7.409  1.2774  1.7849 -0.9123
 5373SOL    HW227579   3.487   3.456   7.281  0.0437 -0.8027 -0.0973
 5374SOL     OW27580   2.337   0.906  14.192 -0.2819 -0.0535 -0.2458
 5374SOL    HW127581   2.372   0.985  14.234  0.6071  0.2453 -1.5535
 5374SOL    HW227582   2.415   0.853  14.206 -1.1692 -1.5363 -0.8896
 5375SOL     OW27583   4.109   4.666   2.932  0.4498 -0.3196  0.0238
 5375SOL    HW127584   4.125   4.604   2.861 -2.4082  1.0741 -1.8345
 5375SOL    HW227585   4.028   4.702   2.897  0.7271 -0.8316 -1.1519
 5376SOL     OW27586   4.572   3.739   4.595 -0.4175  0.5107 -0.5090
 5376SOL    HW127587   4.478   3.717   4.594  0.5463 -3.6545 -1.0159
 5376SOL    HW227588   4.552   3.828   4.624 -1.8158  0.4308 -1.2029
 5377SOL     OW27589   2.468   0.997   6.660 -0.3223 -0.1829 -0.0852
 5377SOL    HW127590   2.496   0.908   6.636 -0.0167 -0.6035  1.8139
 5377SOL    HW227591   2.373   0.984   6.664 -0.1918 -1.4933 -0.9367
 5378SOL     OW27592   2.616   2.142   6.577 -0.8111 -0.3282  0.3254
 5378SOL    HW127593   2.588   2.197   6.504 -0.1450 -0.5391 -0.0887
 5378SOL    HW227594   2.562   2.168   6.652  1.1125  1.2004  1.1678
 5379SOL     OW27595   0.510   3.146   3.652 -0.3355 -0.2274  0.8417
 5379SOL    HW127596   0.429   3.096   3.645 -1.4653  1.7184 -0.2311
 5379SOL    HW227597   0.474   3.202   3.721 -4.7267 -0.7083 -1.0744
 5380SOL     OW27598   0.460   4.285   4.127 -0.3816  0.0841  0.7567
 5380SOL    HW127599   0.429   4.196   4.144 -0.2622 -0.2317 -0.6986
 5380SOL    HW227600   0.483   4.277   4.035 -2.1955  1.3511  0.1938
 5381SOL     OW27601   2.039   0.883   3.864 -0.0454 -0.1270  0.4754
 5381SOL    HW127602   2.009   0.799   3.829 -0.6147  0.5718 -0.7113
 5381SOL    HW227603   2.055   0.859   3.955  2.2220  1.1022  0.4092
 5382SOL     OW27604   4.317   1.080   0.332 -0.1354  0.3444  0.0363
 5382SOL    HW127605   4.335   1.102   0.424  0.0934 -2.7083  0.7484
 5382SOL    HW227606   4.229   1.042   0.330 -0.3565  0.8534  0.1217
 5383SOL     OW27607   0.910   1.287   0.126  0.4788  0.4744 -0.2985
 5383SOL    HW127608   0.939   1.252   0.209 -0.0553  0.0136 -0.3094
 5383SOL    HW227609   0.816   1.297   0.140  0.5834 -1.0688  1.5154
 5384SOL     OW27610   0.528   3.039  12.319 -0.3834  0.4891  0.0079
 5384SOL    HW127611   0.610   3.077  12.350 -0.7830  1.1573  0.2637
 5384SOL    HW227612   0.555   2.948  12.309  1.2912  0.9198  0.6140
 5385SOL     OW27613   3.871   0.545  11.246 -0.0133  0.0710  0.0926
 5385SOL    HW127614   3.874   0.486  11.171  1.0922 -0.1772  0.3377
 5385SOL    HW227615   3.958   0.580  11.261 -0.3950  2.1416 -2.5821
 5386SOL     OW27616   0.663   2.923  11.888  0.1956  0.1591 -0.0765
 5386SOL    HW127617   0.728   2.883  11.945 -0.6760  0.4530  1.1338
 5386SOL    HW227618   0.711   2.997  11.852 -1.1379  2.1312  2.1678
 5387SOL     OW27619   3.317   4.089   8.373 -0.2856  0.1384 -0.3368
 5387SOL    HW127620   3.255   4.142   8.424 -1.3031  0.8240 -2.2585
 5387SOL    HW227621   3.337   4.149   8.301 -1.0491  0.7146 -0.0704
 5388SOL     OW27622   1.805   1.929   8.628  0.0265 -0.1272 -0.5540
 5388SOL    HW127623   1.892   1.953   8.597 -0.2406  2.6654  0.8225
 5388SOL    HW227624   1.787   1.859   8.565 -1.7131  0.5036 -0.7604
 5389SOL     OW27625   2.905   2.346   8.778 -0.4491  0.9920 -0.4632
 5389SOL    HW127626   2.892   2.253   8.796 -0.7059  0.8830 -1.2347
 5389SOL    HW227627   2.833   2.373   8.836 -0.9986 -1.0662 -0.1836
 5390SOL     OW27628   1.625   2.593   4.825 -0.0553 -0.2060 -0.4802
 5390SOL    HW127629   1.635   2.501   4.850 -0.8558 -0.2581 -0.3488
 5390SOL    HW227630   1.559   2.594   4.756 -0.1290 -0.0018 -0.4075
 5391SOL     OW27631   1.626   2.305   4.298 -0.3221 -0.2032  0.1306
 5391SOL    HW127632   1.556   2.259   4.344 -2.6503  0.7643 -2.4123
 5391SOL    HW227633   1.598   2.397   4.294 -0.3391 -0.2206 -0.1524
 5392SOL     OW27634   1.255   4.075  15.672 -0.4817  0.3229  0.1639
 5392SOL    HW127635   1.326   4.130  15.702  1.1658 -0.5407 -2.1755
 5392SOL    HW227636   1.304   3.993  15.674  2.2813  1.9258 -3.5359
 5393SOL     OW27637   0.961   4.156   2.507  0.4495  0.2313 -0.5549
 5393SOL    HW127638   0.934   4.071   2.472 -1.4161  0.1449  1.0811
 5393SOL    HW227639   0.887   4.202   2.468 -0.7767 -0.8382  0.5256
 5394SOL     OW27640   2.777   3.775   8.162 -0.1870 -0.3209 -0.0660
 5394SOL    HW127641   2.728   3.850   8.198  1.2844  0.7903 -0.3528
 5394SOL    HW227642   2.827   3.732   8.231 -0.7955  0.0124  0.5918
 5395SOL     OW27643   3.042   4.531   9.335 -0.4323 -0.3979  0.1068
 5395SOL    HW127644   2.997   4.471   9.275  0.2175  0.6554 -1.4526
 5395SOL    HW227645   3.012   4.614   9.297 -1.5550 -1.0007 -0.3252
 5396SOL     OW27646   2.664   2.729   8.676  0.2330  0.0984 -0.2208
 5396SOL    HW127647   2.715   2.766   8.748  0.4868  1.0412 -0.8853
 5396SOL    HW227648   2.585   2.693   8.717 -0.5595  1.2173 -0.7449
 5397SOL     OW27649   0.381   3.117  13.023  0.4592 -0.4158 -0.0039
 5397SOL    HW127650   0.336   3.048  13.073  1.6118  0.2481  1.9516
 5397SOL    HW227651   0.437   3.062  12.968  2.7975  0.8674  1.0940
 5398SOL     OW27652   0.818   0.727  15.951  0.5405 -0.6427  0.0711
 5398SOL    HW127653   0.777   0.666  15.890 -1.3802  0.7950 -0.0600
 5398SOL    HW227654   0.907   0.733  15.915  0.4009 -2.3038 -0.5419
 5399SOL     OW27655   1.325   2.101   7.999  0.0462 -0.0315  0.4954
 5399SOL    HW127656   1.291   2.190   7.996  0.2357  0.0061 -0.5736
 5399SOL    HW227657   1.389   2.107   7.927 -0.8260 -3.0498 -0.5438
 5400SOL     OW27658   4.374   1.669   3.717  0.0735  0.0794  0.7251
 5400SOL    HW127659   4.361   1.760   3.746  2.0956  0.6633 -0.1857
 5400SOL    HW227660   4.323   1.662   3.637  0.9705  0.7678  0.0785
 5401SOL     OW27661   2.921   2.406   2.831  0.1754  0.1575  0.7483
 5401SOL    HW127662   2.961   2.458   2.900 -1.1026 -0.2221  1.7826
 5401SOL    HW227663   2.919   2.318   2.869 -0.6822  0.0633  0.4883
 5402SOL     OW27664   2.408   1.449  13.855 -0.1736  0.7546  0.0336
 5402SOL    HW127665   2.493   1.470  13.893  0.1511 -0.6409  0.0673
 5402SOL    HW227666   2.355   1.528  13.843 -1.4267  0.0235  0.7537
 5403SOL     OW27667   1.489   1.517  10.962 -0.3194  0.3691  0.5256
 5403SOL    HW127668   1.496   1.553  10.873 -1.1113  1.6424  0.9647
 5403SOL    HW227669   1.551   1.444  10.961  0.0309  0.6609  1.6187
 5404SOL     OW27670   4.385   3.778  12.711  0.0926  0.1830 -0.6010
 5404SOL    HW127671   4.328   3.742  12.779 -0.6720  1.1755 -0.7267
 5404SOL    HW227672   4.455   3.713  12.713 -1.6550 -1.6270  2.3417
 5405SOL     OW27673   0.017   0.160  12.554 -0.2742 -0.0958 -0.1909
 5405SOL    HW127674   4.677   0.153  12.482 -2.9900 -0.7310  2.2169
 5405SOL    HW227675   0.095   0.165  12.498 -0.9727  2.9983 -0.8522
 5406SOL     OW27676   2.854   4.206   2.497 -0.1109 -0.2065  0.1982
 5406SOL    HW127677   2.929   4.169   2.544  1.0651  0.3016 -1.3068
 5406SOL    HW227678   2.814   4.261   2.564 -0.6392  1.5996 -1.6013
 5407SOL     OW27679   1.271   1.865   2.440  0.4389  0.4889  0.4442
 5407SOL    HW127680   1.346   1.836   2.492  0.5140 -1.1885 -0.5905
 5407SOL    HW227681   1.317   1.922   2.379 -0.2616 -1.2795 -1.7160
 5408SOL     OW27682   2.493   2.338   5.818 -0.4694 -0.0575 -0.3332
 5408SOL    HW127683   2.489   2.398   5.892  0.3969 -0.8663  0.3494
 5408SOL    HW227684   2.508   2.256   5.864  1.9383 -0.1767 -1.3380
 5409SOL     OW27685   1.544   2.136   2.484 -0.2745  0.5604 -0.0732
 5409SOL    HW127686   1.509   2.225   2.484 -0.9314  0.3060 -0.8781
 5409SOL    HW227687   1.497   2.098   2.410  0.3253 -1.4237  0.5766
 5410SOL     OW27688   3.339   1.645   0.660 -0.6165  0.0635  0.1617
 5410SOL    HW127689   3.434   1.653   0.652 -0.6781  0.5445 -0.1295
 5410SOL    HW227690   3.317   1.731   0.624  1.8926  0.6558  0.0393
 5411SOL     OW27691   2.857   0.345  17.620  0.2934 -0.5750 -0.0429
 5411SOL    HW127692   2.854   0.441  17.615 -2.9060 -0.7554 -1.5009
 5411SOL    HW227693   2.877   0.334   0.020  3.0331  0.8365 -0.4788
 5412SOL     OW27694   4.429   2.848  16.557  0.1117  0.6241 -0.0065
 5412SOL    HW127695   4.396   2.929  16.596  1.3394  1.1018  0.0153
 5412SOL    HW227696   4.491   2.874  16.489 -0.3727  1.2936 -0.1961
 5413SOL     OW27697   0.263   3.758  16.796 -0.1085  0.2636  0.3445
 5413SOL    HW127698   0.231   3.823  16.858  1.3362  1.8844 -0.5946
 5413SOL    HW227699   0.195   3.777  16.732 -0.2048  0.5062  0.5215
 5414SOL     OW27700   1.696   1.502   7.959 -0.3111  0.0372 -0.6605
 5414SOL    HW127701   1.630   1.468   8.020 -0.8604 -0.8787 -1.7599
 5414SOL    HW227702   1.643   1.541   7.890  0.6379  0.7942 -0.9547
 5415SOL     OW27703   1.608   4.603   2.420  0.2785  0.2866 -0.2350
 5415SOL    HW127704   1.679   4.629   2.362 -0.5377  1.7053 -0.5839
 5415SOL    HW227705   1.603   4.508   2.408  1.8360  0.2241 -0.3544
 5416SOL     OW27706   2.439   3.080   3.144  0.0591 -0.2484  0.1468
 5416SOL    HW127707   2.441   3.019   3.217  0.9363  0.5158  0.7665
 5416SOL    HW227708   2.375   3.146   3.171  0.4545 -0.3694  1.3844
 5417SOL     OW27709   2.856   1.530   3.779 -0.5303  0.0288  0.4891
 5417SOL    HW127710   2.949   1.504   3.781 -1.1309 -1.8308  3.9237
 5417SOL    HW227711   2.845   1.620   3.748  1.3896  0.1422  0.1097
 5418SOL     OW27712   3.118   1.708   5.194  0.6644  0.6762 -0.2110
 5418SOL    HW127713   3.179   1.661   5.252 -2.4376  1.2700  3.5083
 5418SOL    HW227714   3.066   1.752   5.261  0.6135 -1.9091  1.4724
 5419SOL     OW27715   0.793   4.038  14.773  0.6996  0.1528  0.3782
 5419SOL    HW127716   0.808   3.995  14.689  0.4386 -1.1658  1.0068
 5419SOL    HW227717   0.756   3.966  14.824  0.8996 -0.0491  0.2377
 5420SOL     OW27718   4.379   0.033   4.796 -0.7035  0.4508 -0.1555
 5420SOL    HW127719   4.355   0.111   4.845 -0.2104 -0.0524  0.8913
 5420SOL    HW227720   4.364   4.689   4.862  2.9189 -2.4623 -2.2053
 5421SOL     OW27721   2.654   1.522   5.164  0.3353 -0.6902 -0.7597
 5421SOL    HW127722   2.665   1.616   5.175  2.1252 -1.1491  1.2860
 5421SOL    HW227723   2.745   1.494   5.159 -0.3490 -3.1419  0.6087
 5422SOL     OW27724   0.055   2.035   5.808 -0.3202  0.0613  0.1593
 5422SOL    HW127725   0.099   2.058   5.727  1.0838 -2.0389  0.3294
 5422SOL    HW227726   4.702   2.094   5.803  0.0216  0.4206 -0.7700
 5423SOL     OW27727   0.976   1.173   6.740  0.3472 -0.0634 -0.4524
 5423SOL    HW127728   0.895   1.213   6.771 -0.1518 -0.8081 -0.7922
 5423SOL    HW227729   0.933   1.093   6.708 -0.2666 -0.1991  0.7274
 5424SOL     OW27730   2.422   0.218   2.107 -0.0930  0.2248 -0.0742
 5424SOL    HW127731   2.470   0.156   2.163 -0.8692 -0.1695  0.1500
 5424SOL    HW227732   2.494   0.264   2.064  0.5840 -1.5680 -0.8913
 5425SOL     OW27733   3.166   0.890   0.580  0.3861  0.8326  0.3136
 5425SOL    HW127734   3.256   0.875   0.554  0.4180  0.6839  0.5106
 5425SOL    HW227735   3.152   0.801   0.613  1.6916 -0.1140 -1.6904
 5426SOL     OW27736   1.846   3.441   2.934  0.1041 -0.3976 -0.0548
 5426SOL    HW127737   1.848   3.372   2.868  1.4535 -1.6103  1.2734
 5426SOL    HW227738   1.924   3.428   2.987  0.4174 -0.4581 -0.5282
 5427SOL     OW27739   2.234   0.303   7.392  0.1365 -0.1295  0.1620
 5427SOL    HW127740   2.215   0.251   7.470 -1.0277  1.9641  1.2988
 5427SOL    HW227741   2.206   0.390   7.420 -0.4160 -0.4499  0.6074
 5428SOL     OW27742   3.957   0.634   7.094  0.3198  0.0075 -0.6034
 5428SOL    HW127743   3.939   0.632   7.188  1.6593  0.6950 -0.3319
 5428SOL    HW227744   3.929   0.545   7.072  1.1283 -0.5234  0.5075
 5429SOL     OW27745   2.862   0.471   4.283 -0.2605  0.0037 -0.3292
 5429SOL    HW127746   2.816   0.457   4.366  0.7384  0.8029  0.3624
 5429SOL    HW227747   2.949   0.433   4.285 -0.0149  0.5523 -0.5002
 5430SOL     OW27748   3.203   4.255   1.815  0.3876 -0.5944  0.2351
 5430SOL    HW127749   3.203   4.323   1.882 -1.0995  0.2084 -0.5849
 5430SOL    HW227750   3.226   4.178   1.867  1.6313  1.3881  2.6588
 5431SOL     OW27751   0.287   3.208   9.655 -0.4556 -0.1335  0.1358
 5431SOL    HW127752   0.347   3.153   9.706 -0.7158 -2.5953 -2.1882
 5431SOL    HW227753   0.332   3.203   9.570 -1.0850  0.7604 -0.2421
 5432SOL     OW27754   4.085   3.902   4.218 -0.1551 -0.9584 -0.0816
 5432SOL    HW127755   4.143   3.963   4.264  0.3898 -0.1937 -1.7909
 5432SOL    HW227756   4.007   3.948   4.188  1.1667  0.6724 -1.0251
 5433SOL     OW27757   0.183   0.969   8.714 -0.1038  0.0034 -0.0965
 5433SOL    HW127758   0.264   1.015   8.691 -0.3665  0.2066 -0.6276
 5433SOL    HW227759   0.162   1.006   8.799  1.1165  2.9085 -1.0658
 5434SOL     OW27760   1.923   3.140   5.838  0.2741  0.5016  0.5905
 5434SOL    HW127761   1.855   3.192   5.880  2.1688  1.9828  1.8146
 5434SOL    HW227762   1.878   3.101   5.763 -0.1836 -0.5967  1.4367
 5435SOL     OW27763   1.211   2.318   4.614  0.2915 -0.6786  0.0725
 5435SOL    HW127764   1.187   2.268   4.536 -1.2977 -1.6854  1.2124
 5435SOL    HW227765   1.242   2.246   4.670  1.6958 -0.5755 -0.5726
 5436SOL     OW27766   0.558   2.664   9.333  0.3306 -0.0782 -0.1428
 5436SOL    HW127767   0.635   2.624   9.373  0.0934 -2.0043 -1.5961
 5436SOL    HW227768   0.606   2.694   9.255 -1.1136  1.4771 -0.4253
 5437SOL     OW27769   0.625   0.587   5.765 -0.2981  0.1707 -0.2509
 5437SOL    HW127770   0.644   0.635   5.684  0.9550 -1.0804 -0.6939
 5437SOL    HW227771   0.530   0.599   5.767 -0.1021  1.6948 -0.0237
 5438SOL     OW27772   1.066   1.406   6.586 -0.3041 -0.3316  0.3305
 5438SOL    HW127773   1.037   1.370   6.670 -0.6016 -0.7868  0.0281
 5438SOL    HW227774   1.001   1.474   6.571  0.2162  0.0291 -0.2890
 5439SOL     OW27775   4.519   2.264   6.561  0.0614  0.5612 -0.3084
 5439SOL    HW127776   4.485   2.350   6.535  1.1275  0.9626 -0.3742
 5439SOL    HW227777   4.568   2.256   6.479  2.1878  1.1087  0.9031
 5440SOL     OW27778   0.343   3.550   9.481 -0.2558 -0.4943 -0.0955
 5440SOL    HW127779   0.324   3.490   9.409  1.5957 -1.8433  0.5440
 5440SOL    HW227780   0.259   3.586   9.512 -0.0773 -0.3840  0.2615
 5441SOL     OW27781   1.978   2.770  10.768 -0.4400 -0.1359  0.1128
 5441SOL    HW127782   1.933   2.833  10.711  0.1446  0.3146  0.1426
 5441SOL    HW227783   1.919   2.695  10.765 -0.1191 -0.3243 -2.1211
 5442SOL     OW27784   3.813   4.558   5.789 -0.5844  0.0831 -0.0603
 5442SOL    HW127785   3.780   4.647   5.774 -2.2132 -0.5397 -0.1055
 5442SOL    HW227786   3.867   4.556   5.710 -1.3502  1.1281 -0.6045
 5443SOL     OW27787   0.315   2.660   7.949  0.6344  0.3329  0.5068
 5443SOL    HW127788   0.286   2.598   8.016 -0.8649 -0.1315 -0.5791
 5443SOL    HW227789   0.250   2.650   7.880  2.6827 -4.7343 -0.6243
 5444SOL     OW27790   0.784   0.527  13.331 -0.3342 -0.1283  0.4949
 5444SOL    HW127791   0.813   0.448  13.377  0.2362  1.1634  2.3680
 5444SOL    HW227792   0.703   0.495  13.291 -1.2434 -0.1407  2.3617
 5445SOL     OW27793   0.881   2.865   7.547 -0.1141  0.1562  0.1913
 5445SOL    HW127794   0.886   2.811   7.468 -3.0069 -1.0668  0.8707
 5445SOL    HW227795   0.941   2.814   7.601 -0.4033 -1.5651 -1.1309
 5446SOL     OW27796   2.138   0.063   6.801 -0.9959  0.0527 -0.4695
 5446SOL    HW127797   2.192   0.111   6.739  1.2935 -0.9872  0.7230
 5446SOL    HW227798   2.110   4.710   6.750  0.3569 -0.8180  0.0919
 5447SOL     OW27799   3.980   1.364  10.092 -0.4184  0.3137 -0.7205
 5447SOL    HW127800   4.004   1.415  10.169  0.3360  0.1714 -0.8573
 5447SOL    HW227801   3.933   1.291  10.132 -1.1549  0.6465 -0.9808
 5448SOL     OW27802   1.915   4.337   7.440 -0.1191 -0.1633 -0.0802
 5448SOL    HW127803   2.009   4.346   7.458  0.3145 -1.6191 -1.5921
 5448SOL    HW227804   1.881   4.410   7.389 -1.8982 -0.6400  0.4359
 5449SOL     OW27805   0.009   2.192  17.472 -0.5125  0.0189  0.0539
 5449SOL    HW127806   0.024   2.151  17.386  0.9557  1.2329 -0.2642
 5449SOL    HW227807   4.656   2.248  17.458 -0.8431 -0.7146 -1.0855
 5450SOL     OW27808   3.651   1.341   7.234  0.0092 -0.5882 -0.1802
 5450SOL    HW127809   3.590   1.317   7.164 -0.1014  0.2656 -0.3869
 5450SOL    HW227810   3.727   1.312   7.185  0.5482  1.5198 -0.6264
 5451SOL     OW27811   3.049   3.412   0.260  0.0539  0.5050  0.4819
 5451SOL    HW127812   2.963   3.437   0.226  2.0831  3.5370 -2.4438
 5451SOL    HW227813   3.064   3.466   0.338 -1.6960 -1.3392  2.0889
 5452SOL     OW27814   2.046   4.466   5.888 -0.0955 -0.0163 -0.6756
 5452SOL    HW127815   2.083   4.379   5.903  1.6404  1.2316  2.2507
 5452SOL    HW227816   1.961   4.435   5.858 -0.8420 -0.4422  1.9334
 5453SOL     OW27817   4.031   1.971  13.187 -0.5910  0.1924  0.8082
 5453SOL    HW127818   4.014   2.065  13.184  0.2826  0.3851  2.4595
 5453SOL    HW227819   4.083   1.961  13.266  1.2739 -1.3682 -0.6095
 5454SOL     OW27820   2.234   3.874   9.105  0.1537 -0.0166 -0.0655
 5454SOL    HW127821   2.190   3.956   9.081  1.0630 -0.2652 -2.5181
 5454SOL    HW227822   2.266   3.903   9.191 -0.0193  3.2911 -1.0856
 5455SOL     OW27823   1.213   4.432   0.316 -0.1982 -0.0374  0.0064
 5455SOL    HW127824   1.143   4.374   0.343 -0.8382  0.3168 -0.9013
 5455SOL    HW227825   1.286   4.383   0.354 -0.8433 -1.5215 -0.7143
 5456SOL     OW27826   2.220   0.084   0.503 -0.3684  0.2661 -0.3840
 5456SOL    HW127827   2.307   0.058   0.473 -1.2167 -3.4789  0.3689
 5456SOL    HW227828   2.212   0.058   0.595  0.7040  0.2776 -0.2872
 5457SOL     OW27829   4.095   2.178   8.329 -0.2170  0.6561  0.2243
 5457SOL    HW127830   4.129   2.209   8.245 -0.3944 -0.0560 -0.1147
 5457SOL    HW227831   4.079   2.087   8.304  0.2369  1.1638 -1.8799
 5458SOL     OW27832   4.271   3.338   9.202 -0.2326  0.4979 -0.6295
 5458SOL    HW127833   4.333   3.287   9.255  0.3424 -0.4572 -2.2177
 5458SOL    HW227834   4.215   3.349   9.279  0.6980  0.0581  0.1220
 5459SOL     OW27835   0.576   3.871   6.979  0.2292  0.1567 -0.5701
 5459SOL    HW127836   0.623   3.917   7.048  1.6435 -1.0559 -0.7237
 5459SOL    HW227837   0.563   3.940   6.914  2.7570 -0.5443 -1.8157
 5460SOL     OW27838   0.586   2.370   2.427 -0.7054 -0.2938  0.1689
 5460SOL    HW127839   0.664   2.399   2.474 -0.8941  0.5873 -0.0589
 5460SOL    HW227840   0.623   2.314   2.358  0.8106  1.3036 -0.3057
 5461SOL     OW27841   1.703   3.369  14.808  0.4555 -0.1138  0.0931
 5461SOL    HW127842   1.625   3.332  14.766  0.9346 -0.3968 -0.5568
 5461SOL    HW227843   1.763   3.298  14.786  1.4914  0.8569 -0.1858
 5462SOL     OW27844   1.920   1.741  15.842  0.1500  0.5784 -0.3226
 5462SOL    HW127845   1.828   1.742  15.815 -0.2332  1.6115  0.9992
 5462SOL    HW227846   1.925   1.656  15.886  0.6937  0.0602 -1.4071
 5463SOL     OW27847   2.141   1.467  15.755 -0.4153 -0.1248 -0.4322
 5463SOL    HW127848   2.176   1.397  15.701  0.2467  0.6693 -1.0220
 5463SOL    HW227849   2.050   1.441  15.739 -0.1721 -1.1692 -0.1291
 5464SOL     OW27850   0.208   4.530   9.002  0.5530 -0.0144  0.3485
 5464SOL    HW127851   0.144   4.462   9.022 -0.0891 -0.7506 -4.3883
 5464SOL    HW227852   0.255   4.521   9.085  3.1607 -2.5940 -1.4684
 5465SOL     OW27853   0.626   0.818   2.869 -0.3608 -0.5665 -0.0889
 5465SOL    HW127854   0.702   0.777   2.827 -0.7463  0.0953 -1.4026
 5465SOL    HW227855   0.571   0.841   2.795 -0.1782  1.2649  0.3583
 5466SOL     OW27856   2.719   1.652   7.261  0.3478 -0.4801  0.5160
 5466SOL    HW127857   2.701   1.607   7.179 -3.3951 -0.1453  1.1531
 5466SOL    HW227858   2.813   1.667   7.255  0.1172  1.2650  1.1940
 5467SOL     OW27859   2.021   2.072  15.888 -0.3515 -0.0298 -0.2267
 5467SOL    HW127860   2.012   2.137  15.818 -0.4314  1.9088  1.6184
 5467SOL    HW227861   2.007   1.993  15.834  2.5700 -1.3622  0.9809
 5468SOL     OW27862   0.075   0.669  17.367 -0.5401 -0.3945  0.3492
 5468SOL    HW127863   0.154   0.623  17.394 -0.1235  0.4093  0.4751
 5468SOL    HW227864   0.045   0.705  17.450  1.0843  1.2409  0.2299
 5469SOL     OW27865   4.618   2.243   5.812 -0.6528  0.0666 -0.4266
 5469SOL    HW127866   4.529   2.211   5.817 -0.8968  0.9991  1.2186
 5469SOL    HW227867   4.598   2.310   5.746  1.0125  2.8127  1.8323
 5470SOL     OW27868   4.559   0.443  16.170 -0.3513 -0.1555  0.5502
 5470SOL    HW127869   4.564   0.381  16.098 -1.8368  0.9299 -0.4972
 5470SOL    HW227870   4.633   0.417  16.224 -0.6840 -1.6418  0.2904
 5471SOL     OW27871   4.370   4.228   0.275  0.6360  0.0564 -0.0812
 5471SOL    HW127872   4.296   4.282   0.301 -2.4367 -4.7639  1.1356
 5471SOL    HW227873   4.387   4.173   0.352 -0.0104  1.3221  0.9631
 5472SOL     OW27874   3.229   1.211   5.117  0.1398  0.2930  0.2087
 5472SOL    HW127875   3.292   1.277   5.144  1.9563 -0.5907 -1.8615
 5472SOL    HW227876   3.280   1.134   5.143 -1.0064 -0.1552  1.1423
 5473SOL     OW27877   0.271   0.027  13.069 -0.5623  1.1360  0.2182
 5473SOL    HW127878   0.200   0.015  13.006 -1.1768  2.2731  0.6820
 5473SOL    HW227879   0.343   4.697  13.035 -1.6419  0.7942 -1.5380
 5474SOL     OW27880   2.902   4.300   7.368 -0.0220  0.4016 -0.2535
 5474SOL    HW127881   2.857   4.384   7.358  0.4128  0.8922  1.8579
 5474SOL    HW227882   2.849   4.242   7.314 -0.5301 -0.0510  0.7369
 5475SOL     OW27883   3.554   0.141   7.494 -0.0847 -0.6618  0.2772
 5475SOL    HW127884   3.477   0.087   7.511 -0.5131 -0.5320 -1.2498
 5475SOL    HW227885   3.547   0.214   7.555 -1.8758  0.5111 -1.3328
 5476SOL     OW27886   4.208   0.494  17.150  0.4083  0.6087 -0.4721
 5476SOL    HW127887   4.194   0.400  17.138 -1.4212  0.6597  1.1718
 5476SOL    HW227888   4.143   0.534  17.092 -2.2066 -1.5218  0.9513
 5477SOL     OW27889   3.926   3.983   7.381 -0.2781  0.2938 -0.2314
 5477SOL    HW127890   3.869   3.916   7.345  1.5607 -0.8698 -0.9587
 5477SOL    HW227891   4.007   3.971   7.332 -1.3354 -2.1771 -1.3447
 5478SOL     OW27892   0.792   1.930  16.856 -0.1592  0.4301  0.3614
 5478SOL    HW127893   0.720   1.909  16.917  0.6097 -1.2346  0.6972
 5478SOL    HW227894   0.794   1.852  16.801 -4.1170  0.2611  0.4549
 5479SOL     OW27895   2.773   4.143  12.364 -0.0443  0.6293 -0.0213
 5479SOL    HW127896   2.774   4.064  12.310  1.1989  0.7930 -0.2413
 5479SOL    HW227897   2.805   4.206  12.299 -3.2298  1.5729 -0.6376
 5480SOL     OW27898   3.841   3.163   3.111 -0.5857  0.1759 -0.0573
 5480SOL    HW127899   3.746   3.153   3.122 -0.7367 -0.5982 -2.1956
 5480SOL    HW227900   3.860   3.170   3.018 -0.8740 -2.5440 -0.3171
 5481SOL     OW27901   2.575   4.619   7.895  0.5048  0.8209  0.5501
 5481SOL    HW127902   2.490   4.660   7.882  0.0030 -1.2194 -2.9341
 5481SOL    HW227903   2.569   4.581   7.983 -0.9041 -1.8066 -0.6636
 5482SOL     OW27904   0.703   0.443   2.469  0.0570  0.4580  0.0409
 5482SOL    HW127905   0.783   0.393   2.458  1.2182  1.8239  2.1620
 5482SOL    HW227906   0.721   0.522   2.418  0.5061  0.0640 -0.4017
 5483SOL     OW27907   1.495   2.388   0.621 -0.3926  0.2130 -0.1301
 5483SOL    HW127908   1.460   2.414   0.536 -1.7069 -0.3243  0.2405
 5483SOL    HW227909   1.587   2.409   0.613 -0.5414 -0.4643 -3.3193
 5484SOL     OW27910   4.379   0.968   3.610  0.0968  0.4932 -0.3883
 5484SOL    HW127911   4.404   0.913   3.684 -3.8937 -0.1151  0.5443
 5484SOL    HW227912   4.302   1.013   3.646  0.7908  0.8517  0.6298
 5485SOL     OW27913   3.942   1.913   5.846 -0.0379 -0.5895 -0.2149
 5485SOL    HW127914   3.925   1.976   5.916  0.0410 -2.0175  1.0957
 5485SOL    HW227915   3.862   1.919   5.794 -0.8205  1.3281  1.2365
 5486SOL     OW27916   1.132   0.566   2.696  0.8280  0.5300  0.2063
 5486SOL    HW127917   1.148   0.561   2.602  2.7846 -0.0680  0.5846
 5486SOL    HW227918   1.147   0.472   2.703 -0.0402  0.3556 -0.2166
 5487SOL     OW27919   3.105   3.860  11.203 -0.3538 -0.0639 -0.0208
 5487SOL    HW127920   3.056   3.789  11.162 -2.0839  0.7016  0.7312
 5487SOL    HW227921   3.033   3.890  11.259  1.3613  0.3099  1.9801
 5488SOL     OW27922   0.283   4.572   1.228 -0.5833  0.1239 -0.8061
 5488SOL    HW127923   0.360   4.525   1.197 -0.1247  1.3807 -1.5863
 5488SOL    HW227924   0.263   4.616   1.145  0.0082  1.4707 -0.2293
 5489SOL     OW27925   0.292   2.352   3.578  0.0171 -0.3964 -0.2029
 5489SOL    HW127926   0.333   2.320   3.497  0.1183 -0.6236 -0.0620
 5489SOL    HW227927   0.358   2.327   3.642  0.4114 -3.1352 -1.6769
 5490SOL     OW27928   1.223   3.873   3.892  0.6316  0.2175  0.2776
 5490SOL    HW127929   1.189   3.819   3.964 -0.8586 -0.4976 -0.9636
 5490SOL    HW227930   1.144   3.924   3.873 -0.1136 -0.5016  1.4534
 5491SOL     OW27931   0.941   0.202   6.299 -0.0226 -0.0727  0.0037
 5491SOL    HW127932   0.901   0.194   6.212  1.6335 -0.3722 -0.7307
 5491SOL    HW227933   0.977   0.291   6.301  1.2539 -0.6076  1.5064
 5492SOL     OW27934   2.595   3.905  15.225 -0.6395 -0.0208 -0.4535
 5492SOL    HW127935   2.573   3.945  15.141  0.9978  0.1322 -0.8140
 5492SOL    HW227936   2.616   3.812  15.215 -0.2331 -0.0479  0.5753
 5493SOL     OW27937   0.558   4.241  12.169  0.0671 -0.8099 -0.3915
 5493SOL    HW127938   0.583   4.179  12.100  0.8344  0.4089 -1.2040
 5493SOL    HW227939   0.475   4.205  12.199  1.2157 -0.4464  3.1442
 5494SOL     OW27940   0.138   2.961   0.867 -0.0987 -0.0433 -0.0881
 5494SOL    HW127941   0.171   2.923   0.785  1.4111 -1.4261  1.1817
 5494SOL    HW227942   0.065   2.901   0.884  0.0742  0.2686  1.7530
 5495SOL     OW27943   1.643   4.220   4.616 -0.1017 -0.1338  0.0021
 5495SOL    HW127944   1.733   4.188   4.620  0.5792  1.8022  0.0772
 5495SOL    HW227945   1.673   4.311   4.610  2.6624 -1.0250  0.3098
 5496SOL     OW27946   3.982   2.265   5.130 -0.7372 -0.1214 -1.2286
 5496SOL    HW127947   4.034   2.331   5.177 -1.3914 -0.4837  0.0245
 5496SOL    HW227948   4.019   2.279   5.043  0.8946  1.1542 -0.3371
 5497SOL     OW27949   1.133   2.423   9.430 -0.3295  0.1385 -0.1158
 5497SOL    HW127950   1.072   2.484   9.387  0.2428  0.3444 -0.6303
 5497SOL    HW227951   1.207   2.483   9.435  0.6591 -1.2290  1.3862
 5498SOL     OW27952   4.222   1.957   6.035  0.5272  0.2738 -0.3553
 5498SOL    HW127953   4.130   1.932   6.042  0.9740 -0.6701  2.1670
 5498SOL    HW227954   4.245   1.919   5.951 -0.7572 -1.6952  0.1939
 5499SOL     OW27955   1.616   1.451   5.290 -0.2215 -0.0111 -0.5582
 5499SOL    HW127956   1.594   1.361   5.312  2.5658 -1.6226 -4.4002
 5499SOL    HW227957   1.545   1.484   5.234 -1.2994 -0.7986  0.3502
 5500SOL     OW27958   1.116   2.796   4.675 -0.6675 -0.0564 -0.2524
 5500SOL    HW127959   1.093   2.718   4.625 -0.8771 -1.7662  2.5222
 5500SOL    HW227960   1.056   2.865   4.646 -0.6823 -0.1076 -0.3418
 5501SOL     OW27961   2.270   1.743   3.604  0.7061  0.5802  0.4978
 5501SOL    HW127962   2.295   1.830   3.575  0.4773  0.3378 -0.4343
 5501SOL    HW227963   2.208   1.759   3.676  0.0045  3.0037 -0.6483
 5502SOL     OW27964   3.180   0.694   3.585  0.1751 -0.1303  0.1696
 5502SOL    HW127965   3.197   0.671   3.494  1.2846  1.5055 -0.0347
 5502SOL    HW227966   3.246   0.639   3.627 -1.7466 -1.5134  1.3599
 5503SOL     OW27967   4.666   2.894   3.750  0.2719  0.1236 -0.2418
 5503SOL    HW127968   4.615   2.819   3.780  0.6381  0.1281  0.3737
 5503SOL    HW227969   4.707   2.917   3.833 -2.4842  4.2028  0.0274
 5504SOL     OW27970   2.759   4.379   5.975 -0.2793 -0.2379 -0.0083
 5504SOL    HW127971   2.846   4.397   6.012 -0.3416  1.3660 -0.6316
 5504SOL    HW227972   2.731   4.316   6.042  1.2560 -1.2409 -0.3104
 5505SOL     OW27973   1.280   3.213  14.525  0.3476 -0.1024  0.0043
 5505SOL    HW127974   1.211   3.180  14.468  0.4979 -0.2126 -0.1143
 5505SOL    HW227975   1.233   3.231  14.606  0.0431  0.7800 -0.3579
 5506SOL     OW27976   2.561   3.338   7.433  0.1284  0.3904  0.1934
 5506SOL    HW127977   2.519   3.285   7.500  0.8789 -0.9642 -0.4003
 5506SOL    HW227978   2.580   3.420   7.478 -0.4689  0.3230  0.5679
 5507SOL     OW27979   0.991   3.747   7.776  0.2898  0.5715  0.1158
 5507SOL    HW127980   0.934   3.821   7.754  0.0089  0.2170 -0.3528
 5507SOL    HW227981   1.007   3.774   7.867 -3.2062  0.9211  0.6579
 5508SOL     OW27982   4.643   1.176   4.247  0.1894 -0.4167 -0.0921
 5508SOL    HW127983   4.568   1.218   4.288  0.3450  0.0738 -0.3040
 5508SOL    HW227984   4.713   1.238   4.267 -0.7249  0.7913 -0.6235
 5509SOL     OW27985   0.220   0.212  10.790 -0.1299 -0.4026  0.4300
 5509SOL    HW127986   0.225   0.158  10.869 -0.8273  0.4979  1.0728
 5509SOL    HW227987   0.289   0.277  10.807  1.5702 -2.4552  1.4356
 5510SOL     OW27988   2.431   1.687  10.285 -0.2575  0.5658 -1.2243
 5510SOL    HW127989   2.380   1.727  10.214 -1.7867  1.2382  0.2685
 5510SOL    HW227990   2.391   1.729  10.362  1.2924  1.7599 -1.0753
 5511SOL     OW27991   0.388   0.664   3.145  0.3058  0.5737  0.5977
 5511SOL    HW127992   0.437   0.598   3.096  1.3499 -0.1330  2.6014
 5511SOL    HW227993   0.303   0.623   3.128  1.2046 -1.8272  1.9522
 5512SOL     OW27994   0.423   2.293   3.826  0.2256 -0.0560  0.4848
 5512SOL    HW127995   0.359   2.322   3.891  0.7692  1.4979  0.3392
 5512SOL    HW227996   0.502   2.339   3.855  0.4888 -0.9386  1.1762
 5513SOL     OW27997   2.560   4.566   5.346  0.4936  0.3594  0.3376
 5513SOL    HW127998   2.621   4.496   5.324 -2.5095 -1.8843 -0.9060
 5513SOL    HW227999   2.618   4.642   5.345  1.5838 -0.4731  0.0279
 5514SOL     OW28000   4.260   0.445   6.690 -0.0663 -0.8903  0.6507
 5514SOL    HW128001   4.208   0.364   6.691  2.1780 -2.3449  1.1858
 5514SOL    HW228002   4.325   0.424   6.757  0.0036  1.2049  1.2159
 5515SOL     OW28003   0.969   2.929   3.339 -0.6054 -0.1273 -0.0219
 5515SOL    HW128004   0.965   2.928   3.434 -1.8819 -1.0975 -0.0829
 5515SOL    HW228005   0.902   2.869   3.307 -1.5280 -0.5600  2.7218
 5516SOL     OW28006   0.321   4.129   6.209  0.0860  0.1556  0.4495
 5516SOL    HW128007   0.296   4.041   6.181  0.0862  0.0828  0.6786
 5516SOL    HW228008   0.353   4.159   6.124 -2.1058 -0.8398 -0.7352
 5517SOL     OW28009   1.089   2.484   1.460 -0.5442  0.2729 -0.2610
 5517SOL    HW128010   1.007   2.489   1.508  0.2743  0.0506  1.1562
 5517SOL    HW228011   1.141   2.551   1.503 -1.6579  0.9169  0.0847
 5518SOL     OW28012   4.373   4.450  12.942 -0.3347  0.4838 -0.9742
 5518SOL    HW128013   4.468   4.466  12.941 -0.5817  1.9444 -0.7207
 5518SOL    HW228014   4.375   4.359  12.970  2.0279  0.3304 -1.6444
 5519SOL     OW28015   4.650   0.533   0.827 -0.2086 -0.3832  0.4210
 5519SOL    HW128016   4.699   0.492   0.755 -0.1762  1.9800 -0.8880
 5519SOL    HW228017   4.561   0.502   0.813 -0.7973 -0.0230  3.3117
 5520SOL     OW28018   1.470   2.271   2.884  0.2403 -0.0377 -0.2034
 5520SOL    HW128019   1.468   2.317   2.968  0.3659  1.3852 -0.9877
 5520SOL    HW228020   1.552   2.310   2.854 -1.2251  2.1842 -1.3138
 5521SOL     OW28021   1.295   3.875   7.406  0.2638 -0.2482 -0.5229
 5521SOL    HW128022   1.259   3.791   7.380 -0.1289 -0.7314  1.6260
 5521SOL    HW228023   1.241   3.902   7.480  3.5859  2.4329  0.9192
 5522SOL     OW28024   0.353   0.088   6.346 -0.3478 -0.4529 -0.3385
 5522SOL    HW128025   0.381   0.011   6.296 -0.3713 -0.2671 -0.6369
 5522SOL    HW228026   0.261   0.066   6.362 -0.8221 -0.1361 -2.5874
 5523SOL     OW28027   3.655   3.714   8.313 -0.4976  0.1102 -0.1477
 5523SOL    HW128028   3.745   3.731   8.285 -1.2011  0.4423 -2.1916
 5523SOL    HW228029   3.612   3.714   8.227  1.5502 -0.4418 -1.1640
 5524SOL     OW28030   0.518   4.450   1.133  0.2410  0.4313 -0.0401
 5524SOL    HW128031   0.501   4.356   1.124  1.6209  0.1750 -0.0249
 5524SOL    HW228032   0.613   4.442   1.127  0.2455  0.4171  0.0535
 5525SOL     OW28033   2.783   3.663   6.736 -0.1843  0.3649  0.4908
 5525SOL    HW128034   2.875   3.645   6.719 -0.0171 -2.1395  4.0710
 5525SOL    HW228035   2.756   3.595   6.798 -0.7975  0.7650  0.6673
 5526SOL     OW28036   4.688   1.994  17.117 -0.2031 -0.0098 -0.3012
 5526SOL    HW128037   0.023   1.967  17.189 -1.1095 -2.1192 -0.3608
 5526SOL    HW228038   0.027   2.053  17.075  0.1323 -0.4128 -0.3800
 5527SOL     OW28039   4.589   4.461  12.516  0.0234  0.1613 -0.1333
 5527SOL    HW128040   4.601   4.443  12.609 -0.4399  1.7590  0.2506
 5527SOL    HW228041   4.663   4.509  12.479  0.2678  0.2806  0.5222
 5528SOL     OW28042   1.552   0.089   7.330 -0.3817  0.4064  0.1670
 5528SOL    HW128043   1.475   0.068   7.278 -0.1929  0.3663 -0.0960
 5528SOL    HW228044   1.617   0.107   7.262 -0.9427 -1.2814 -0.8108
 5529SOL     OW28045   3.970   0.880   4.120 -0.7019  0.6882  0.4857
 5529SOL    HW128046   3.897   0.869   4.180 -0.7973 -2.5494 -0.2122
 5529SOL    HW228047   4.015   0.948   4.171 -0.4430  0.5382  0.4597
 5530SOL     OW28048   3.977   2.279   5.439  0.0148 -0.3944 -0.4296
 5530SOL    HW128049   4.002   2.333   5.514 -3.7224  0.6119  0.0899
 5530SOL    HW228050   4.040   2.313   5.375  1.4493 -0.2761  1.0545
 5531SOL     OW28051   4.177   0.074   6.352  0.5239 -0.1092  0.0385
 5531SOL    HW128052   4.163   0.127   6.431 -1.3798  1.7149 -1.5334
 5531SOL    HW228053   4.091   0.033   6.343  1.7760 -2.1608 -2.4949
 5532SOL     OW28054   1.286   3.003   6.969 -0.1307  0.6703 -0.3545
 5532SOL    HW128055   1.281   2.969   6.880 -0.5048  0.2257 -0.1622
 5532SOL    HW228056   1.302   3.095   6.950  1.1466  0.9896  2.2649
 5533SOL     OW28057   3.211   2.399  16.252  0.0539 -0.1938  0.2605
 5533SOL    HW128058   3.238   2.389  16.161  1.2771 -0.9522  0.7047
 5533SOL    HW228059   3.295   2.409  16.297 -0.5187  2.4209  0.7357
 5534SOL     OW28060   0.350   1.884   4.821  0.1258 -0.2014  0.3649
 5534SOL    HW128061   0.298   1.808   4.848 -1.6261 -0.1167 -2.8312
 5534SOL    HW228062   0.311   1.958   4.867  0.3914 -0.3248  0.7972
 5535SOL     OW28063   3.699   4.215   1.884  0.3366 -0.2963 -0.1874
 5535SOL    HW128064   3.794   4.218   1.874  0.3609 -0.0271  0.1291
 5535SOL    HW228065   3.691   4.171   1.969 -1.1411  0.1001 -0.1240
 5536SOL     OW28066   0.229   2.771   4.508 -0.1259  0.2013 -0.3422
 5536SOL    HW128067   0.234   2.723   4.425 -3.3434  1.7466 -1.4428
 5536SOL    HW228068   0.133   2.771   4.512 -0.2855  0.3216 -3.6266
 5537SOL     OW28069   3.321   0.571   9.497 -0.0385  0.2034  0.2443
 5537SOL    HW128070   3.273   0.577   9.415  0.4104 -0.6697 -0.0916
 5537SOL    HW228071   3.343   0.477   9.491  1.2767  0.7224 -3.1471
 5538SOL     OW28072   4.683   3.701  14.442 -0.3418 -0.3749  0.4340
 5538SOL    HW128073   0.025   3.770  14.427  0.7799 -1.2360  1.3293
 5538SOL    HW228074   0.006   3.625  14.407 -0.3722  0.1278 -0.6885
 5539SOL     OW28075   1.619   0.502   3.530  0.0199 -0.0299  0.1213
 5539SOL    HW128076   1.611   0.434   3.597  1.1386 -0.7700 -0.4850
 5539SOL    HW228077   1.681   0.457   3.472 -0.1252  0.9413 -0.8004
 5540SOL     OW28078   1.363   2.565  12.581  0.3085 -0.1807 -0.2091
 5540SOL    HW128079   1.280   2.602  12.611  1.1536  1.0003  0.6887
 5540SOL    HW228080   1.420   2.641  12.595 -0.6407  0.4791  0.0721
 5541SOL     OW28081   0.333   2.953   1.160  0.0486 -0.2163 -0.1143
 5541SOL    HW128082   0.239   2.968   1.171  0.1333  0.5492 -0.4322
 5541SOL    HW228083   0.332   2.878   1.101 -0.0029 -1.3421  1.3256
 5542SOL     OW28084   3.369   1.032  16.300  0.2247  0.0965 -0.1718
 5542SOL    HW128085   3.420   1.043  16.220 -0.0840  2.3183 -0.0770
 5542SOL    HW228086   3.413   0.960  16.345  0.2293 -0.2954 -0.8029
 5543SOL     OW28087   4.614   4.308   2.907  0.2635 -0.3454  0.1374
 5543SOL    HW128088   4.706   4.285   2.901  0.7373  1.6183 -0.1608
 5543SOL    HW228089   4.614   4.400   2.932 -0.7981 -1.0507  2.7859
 5544SOL     OW28090   3.168   3.752  11.489 -0.1051  0.6552 -0.3298
 5544SOL    HW128091   3.244   3.791  11.531 -0.3385 -1.3609  2.0376
 5544SOL    HW228092   3.171   3.787  11.400 -0.4829  2.5499  0.4214
 5545SOL     OW28093   2.455   1.770   3.256 -0.1064 -0.3208 -0.0669
 5545SOL    HW128094   2.379   1.715   3.270 -2.2534  2.4956 -0.5690
 5545SOL    HW228095   2.450   1.766   3.160 -2.1170  2.2265 -0.0645
 5546SOL     OW28096   2.389   3.606   6.599 -0.0940  0.2128 -0.1954
 5546SOL    HW128097   2.387   3.568   6.511  0.0822  0.0745 -0.1389
 5546SOL    HW228098   2.371   3.535   6.660  1.2314 -1.6097 -1.9502
 5547SOL     OW28099   1.449   3.698   7.599  0.3957  0.3691  0.0060
 5547SOL    HW128100   1.389   3.763   7.636  0.9251  0.4116  0.7983
 5547SOL    HW228101   1.483   3.754   7.530  2.5950 -1.1447 -0.1544
 5548SOL     OW28102   2.894   3.115   4.997 -0.3032  0.0350 -0.7161
 5548SOL    HW128103   2.873   3.207   5.016 -1.1065 -0.6987  1.9756
 5548SOL    HW228104   2.974   3.133   4.949 -0.8233  1.1058 -1.1760
 5549SOL     OW28105   2.071   4.439  16.744  0.2520 -0.2059  0.3538
 5549SOL    HW128106   2.040   4.368  16.688  1.1720 -1.6148  1.5969
 5549SOL    HW228107   2.002   4.502  16.764 -1.7291 -1.9983 -0.8334
 5550SOL     OW28108   0.535   1.188   3.989 -0.2773  0.5678  0.8233
 5550SOL    HW128109   0.563   1.277   3.972 -0.5020  0.7404  1.3720
 5550SOL    HW228110   0.496   1.161   3.905  0.8081 -1.0846  0.8411
 5551SOL     OW28111   4.272   0.975   7.199 -0.0205 -0.7813  0.5241
 5551SOL    HW128112   4.266   0.899   7.257  2.1406 -0.9584  0.4851
 5551SOL    HW228113   4.364   0.998   7.195 -0.1420 -0.4016 -0.1443
 5552SOL     OW28114   2.474   2.617   0.907 -0.0064  0.7695 -0.0715
 5552SOL    HW128115   2.417   2.550   0.869  3.5197 -1.5673 -1.1684
 5552SOL    HW228116   2.443   2.696   0.861 -2.5081 -0.0287  0.2647
 5553SOL     OW28117   1.814   1.007  13.047 -0.7953  0.0943  0.3274
 5553SOL    HW128118   1.834   0.958  13.127  2.8680  0.5607 -0.3457
 5553SOL    HW228119   1.748   0.951  13.006  0.6844 -2.4798  1.4965
 5554SOL     OW28120   4.016   0.074  13.474  0.7481  0.6403  0.4090
 5554SOL    HW128121   4.050   0.137  13.410 -0.8742  2.2599  1.1559
 5554SOL    HW228122   4.099   0.060  13.520  1.1551 -0.6715 -0.7123
 5555SOL     OW28123   0.162   3.146   3.227  0.1938 -0.6167 -0.2831
 5555SOL    HW128124   0.201   3.060   3.210  1.5098  0.3168 -1.9572
 5555SOL    HW228125   0.231   3.189   3.278 -0.3566  1.1806 -1.0439
 5556SOL     OW28126   3.781   0.537   8.570 -0.0133 -0.8062 -0.8738
 5556SOL    HW128127   3.717   0.551   8.640  0.1556  0.4489 -0.9781
 5556SOL    HW228128   3.723   0.550   8.495 -4.2314  0.2888  2.6031
 5557SOL     OW28129   4.477   3.943  16.777  0.6610  0.1898  0.2032
 5557SOL    HW128130   4.468   3.926  16.871 -2.2396 -0.7185 -0.2366
 5557SOL    HW228131   4.425   4.023  16.771 -1.4695 -1.0345  2.1031
 5558SOL     OW28132   2.689   1.165   1.796  0.3139 -0.7596 -0.6049
 5558SOL    HW128133   2.690   1.080   1.753 -0.2981 -0.8803 -0.3830
 5558SOL    HW228134   2.684   1.222   1.719  2.3089 -0.4561 -0.5152
 5559SOL     OW28135   2.783   3.866   3.205  0.0884 -0.1708  0.0762
 5559SOL    HW128136   2.744   3.834   3.286  0.7952 -2.3110 -0.4184
 5559SOL    HW228137   2.765   3.960   3.206  0.5785 -0.0909  1.9929
 5560SOL     OW28138   3.558   1.032  13.864  0.0924  0.2030 -0.2382
 5560SOL    HW128139   3.501   1.052  13.938 -0.5230  0.6088 -0.8276
 5560SOL    HW228140   3.566   1.120  13.828 -1.3284  0.1311 -0.7219
 5561SOL     OW28141   1.263   3.650   5.614  0.2624  0.0697 -0.2120
 5561SOL    HW128142   1.309   3.732   5.632  0.3226  0.2166 -1.0531
 5561SOL    HW228143   1.207   3.659   5.691  1.0143  0.4795  0.2877
 5562SOL     OW28144   3.841   0.623   2.438  0.2761  0.4268 -0.6953
 5562SOL    HW128145   3.901   0.582   2.376 -0.1625  0.0073 -0.8450
 5562SOL    HW228146   3.865   0.573   2.516  3.3930  2.8317 -0.1518
 5563SOL     OW28147   0.671   3.847   3.529  0.0835  0.1454  0.0128
 5563SOL    HW128148   0.742   3.820   3.472 -1.6593  0.8129 -2.4466
 5563SOL    HW228149   0.598   3.797   3.493 -0.3366  1.2214 -0.6276
 5564SOL     OW28150   0.408   4.641  10.871 -0.2678  0.1505 -0.0240
 5564SOL    HW128151   0.328   4.645  10.923 -1.1518  3.6985 -1.6441
 5564SOL    HW228152   0.447   4.561  10.907 -0.7936 -0.5145 -0.9272
 5565SOL     OW28153   2.734   3.574  15.489  0.2098 -0.3265 -0.1380
 5565SOL    HW128154   2.828   3.567  15.505 -0.4432  0.3841  4.2772
 5565SOL    HW228155   2.695   3.502  15.539 -0.9751  0.9983  0.8783
 5566SOL     OW28156   4.046   0.959   3.863  0.0535  0.0764 -0.8891
 5566SOL    HW128157   4.000   0.903   3.925 -1.4510  0.5731 -1.5803
 5566SOL    HW228158   4.097   0.895   3.813  1.6148  0.3662  0.2925
 5567SOL     OW28159   0.491   0.680   3.549 -0.6326 -0.2376 -0.2455
 5567SOL    HW128160   0.464   0.727   3.470 -2.3410  2.0708  1.7028
 5567SOL    HW228161   0.582   0.710   3.546  0.0305 -2.1555  1.2561
 5568SOL     OW28162   1.592   0.784  11.419 -0.8701 -1.0515 -0.2047
 5568SOL    HW128163   1.629   0.746  11.339  0.6969 -0.8179  0.4038
 5568SOL    HW228164   1.671   0.821  11.460 -0.9513 -0.6232 -0.4363
 5569SOL     OW28165   1.569   2.339   1.493 -0.9572 -0.1647 -0.0624
 5569SOL    HW128166   1.478   2.353   1.468 -0.7963  0.3991 -0.3384
 5569SOL    HW228167   1.597   2.292   1.415  1.6521 -0.0021  0.7830
 5570SOL     OW28168   4.315   1.299  14.227 -0.3184  0.3265  0.0104
 5570SOL    HW128169   4.390   1.302  14.167  0.3104  0.3187  0.7914
 5570SOL    HW228170   4.354   1.323  14.311 -0.0416 -1.3205  0.3605
 5571SOL     OW28171   2.802   1.220   0.336 -0.2027  0.2529 -0.3011
 5571SOL    HW128172   2.885   1.185   0.368 -0.7024 -2.0617 -1.5834
 5571SOL    HW228173   2.766   1.247   0.421  1.9723  0.1130  0.6754
 5572SOL     OW28174   1.416   4.275   0.147 -0.7180 -0.6799 -0.2912
 5572SOL    HW128175   1.453   4.280   0.235  0.8886 -1.6130 -0.9293
 5572SOL    HW228176   1.353   4.203   0.149  0.2839 -1.5304  0.4054
 5573SOL     OW28177   2.632   2.175   8.193  0.6913 -0.1137  0.3735
 5573SOL    HW128178   2.696   2.240   8.164 -0.5833  1.1109  0.3113
 5573SOL    HW228179   2.658   2.100   8.139  1.0079  0.5029 -0.3215
 5574SOL     OW28180   3.773   4.259   2.669  0.2800  0.4583 -0.2539
 5574SOL    HW128181   3.833   4.197   2.627 -0.2402 -0.0478 -0.2454
 5574SOL    HW228182   3.805   4.342   2.634 -1.5543  0.4369 -1.9952
 5575SOL     OW28183   2.696   3.856   7.662 -0.4855 -0.6283 -0.8115
 5575SOL    HW128184   2.787   3.845   7.687 -0.5288  0.9778  0.0703
 5575SOL    HW228185   2.694   3.951   7.674 -0.1637 -0.5968 -0.9948
 5576SOL     OW28186   2.910   4.345  17.680  0.9439 -0.5186 -0.1879
 5576SOL    HW128187   2.861   4.269  17.648 -1.1500  1.6456 -2.1348
 5576SOL    HW228188   2.915   4.392  17.597 -0.9719  2.0120  1.1448
 5577SOL     OW28189   0.640   0.845   7.613  0.1654 -0.0514 -0.4008
 5577SOL    HW128190   0.645   0.881   7.701  0.1669  0.9579 -0.8067
 5577SOL    HW228191   0.686   0.761   7.618 -0.8502 -0.6612 -1.3484
 5578SOL     OW28192   2.995   2.050  16.695 -0.4454  0.1301 -0.0702
 5578SOL    HW128193   2.905   2.080  16.685 -0.4210  0.1283 -0.3020
 5578SOL    HW228194   3.047   2.117  16.650  0.3841  1.3503  2.7390
 5579SOL     OW28195   3.275   2.919   5.073  0.2181  0.1043 -0.2034
 5579SOL    HW128196   3.187   2.952   5.092  0.3073 -0.0478  0.4955
 5579SOL    HW228197   3.318   2.935   5.157 -1.7133  2.1082  0.3961
 5580SOL     OW28198   1.575   0.618   3.270 -0.0195  0.0794  0.1096
 5580SOL    HW128199   1.668   0.634   3.253 -0.0070 -0.4995 -0.3834
 5580SOL    HW228200   1.577   0.566   3.350 -0.4455 -0.2593 -0.0994
 5581SOL     OW28201   4.587   3.679  14.763  0.5473 -0.6722  0.1742
 5581SOL    HW128202   4.552   3.693  14.851  0.2411 -0.2451 -0.0178
 5581SOL    HW228203   4.668   3.729  14.767  0.0517 -0.0169  1.9365
 5582SOL     OW28204   2.585   1.066   0.275  0.2633 -0.0532  0.1647
 5582SOL    HW128205   2.525   1.093   0.344 -0.3431  1.0575 -0.7977
 5582SOL    HW228206   2.654   1.131   0.291  0.6035 -0.8365  1.8796
 5583SOL     OW28207   0.679   0.910  11.849  0.4313  0.1347 -0.6700
 5583SOL    HW128208   0.664   0.972  11.777 -1.0550 -0.0835 -0.5474
 5583SOL    HW228209   0.676   0.830  11.796  1.0122 -0.6922  0.5549
 5584SOL     OW28210   1.214   3.555   2.260 -0.0103  0.0264 -0.6331
 5584SOL    HW128211   1.208   3.472   2.307 -0.2157  1.8264  2.5270
 5584SOL    HW228212   1.294   3.591   2.299  0.5461 -0.0993 -1.6639
 5585SOL     OW28213   0.432   3.208   2.035  0.2130  0.0280 -0.0778
 5585SOL    HW128214   0.391   3.286   1.997 -1.0175 -0.7997 -0.4297
 5585SOL    HW228215   0.500   3.240   2.095  0.3256 -2.6521  1.1924
 5586SOL     OW28216   2.463   3.611   0.156  0.1755  0.0071  0.7554
 5586SOL    HW128217   2.443   3.642   0.244 -1.9661 -2.8224  1.2661
 5586SOL    HW228218   2.390   3.549   0.152  0.1602  0.1481 -1.4064
 5587SOL     OW28219   1.392   2.406   7.172 -0.0202  1.0386  0.3039
 5587SOL    HW128220   1.422   2.331   7.224 -0.9896  0.1231 -0.4520
 5587SOL    HW228221   1.472   2.458   7.168  0.1382  0.6945 -1.2356
 5588SOL     OW28222   4.682   2.635   6.342 -0.3249 -0.2588 -0.1541
 5588SOL    HW128223   4.606   2.676   6.383  0.2758 -0.0733  0.8024
 5588SOL    HW228224   4.659   2.544   6.361 -0.7424 -0.4754 -1.7532
 5589SOL     OW28225   1.455   2.090   5.815  0.4751 -0.4985 -0.1157
 5589SOL    HW128226   1.423   2.045   5.893 -0.6473  1.5503  0.6015
 5589SOL    HW228227   1.376   2.137   5.790  2.4796  2.5552 -0.6619
 5590SOL     OW28228   3.263   1.718  15.648 -0.6382  0.5487 -0.2587
 5590SOL    HW128229   3.186   1.747  15.697  0.3084  0.2477  1.4076
 5590SOL    HW228230   3.225   1.644  15.600  0.1099 -1.1651  1.7652
 5591SOL     OW28231   0.695   1.263   0.388 -0.3581  0.2253 -0.4935
 5591SOL    HW128232   0.789   1.246   0.375 -0.3977  0.3900 -0.9973
 5591SOL    HW228233   0.662   1.174   0.398  0.9271  0.1058  2.8434
 5592SOL     OW28234   4.573   2.705  10.728  0.4130 -0.2570  0.3006
 5592SOL    HW128235   4.528   2.720  10.811 -0.6083  1.9321 -0.6554
 5592SOL    HW228236   4.555   2.790  10.688 -0.5375  0.2071  1.7153
 5593SOL     OW28237   1.322   2.175  10.988  0.3079 -0.4925  0.2556
 5593SOL    HW128238   1.411   2.195  11.017  0.6494 -2.3831  0.5156
 5593SOL    HW228239   1.315   2.087  11.023 -0.2170  0.0640  1.5654
 5594SOL     OW28240   3.526   3.443  16.214 -0.0036  0.2934 -0.1120
 5594SOL    HW128241   3.556   3.352  16.216  0.7549  0.5585  0.6058
 5594SOL    HW228242   3.450   3.423  16.269  0.8535  0.2580  1.0720
 5595SOL     OW28243   1.488   2.424  12.840 -0.1223  0.0674  0.2328
 5595SOL    HW128244   1.525   2.386  12.919  2.1325 -0.6616 -1.1874
 5595SOL    HW228245   1.450   2.502  12.880  0.3289 -1.7458  4.1517
 5596SOL     OW28246   1.839   3.573   4.978  0.1029 -0.0643 -0.3097
 5596SOL    HW128247   1.928   3.543   4.995  0.5394 -0.2178 -2.8553
 5596SOL    HW228248   1.861   3.666   4.972 -0.7216  0.0099 -2.2390
 5597SOL     OW28249   1.390   1.956   4.519 -0.5071  0.4741 -0.2118
 5597SOL    HW128250   1.303   1.926   4.547  0.0282 -0.2029  0.7561
 5597SOL    HW228251   1.414   1.913   4.438  0.9025 -0.0167  0.4624
 5598SOL     OW28252   3.847   0.654   7.992  0.0664  0.4192 -0.8947
 5598SOL    HW128253   3.934   0.653   7.952  0.8002  1.5524  0.7042
 5598SOL    HW228254   3.803   0.726   7.947  0.6430  0.0498 -2.0397
 5599SOL     OW28255   1.226   3.845   7.698 -0.5354  0.5594 -0.1973
 5599SOL    HW128256   1.177   3.926   7.706 -0.5345  0.7954 -2.4271
 5599SOL    HW228257   1.162   3.782   7.730  1.3036 -0.8989  0.6466
 5600SOL     OW28258   2.365   0.867   2.516 -0.2683 -0.3479 -0.1709
 5600SOL    HW128259   2.459   0.859   2.501 -0.2566 -2.5541  1.0866
 5600SOL    HW228260   2.352   0.950   2.562 -0.4197 -1.6620  2.1667
 5601SOL     OW28261   1.960   2.955  11.090 -0.3068 -0.6206  0.2402
 5601SOL    HW128262   1.907   3.022  11.132  0.2629  1.3147 -2.1256
 5601SOL    HW228263   1.922   2.947  11.002  0.3984  4.2089 -0.4853
 5602SOL     OW28264   1.022   2.898   6.100 -0.1594  0.2731 -0.1676
 5602SOL    HW128265   1.008   2.986   6.135  0.2409 -0.2131  1.2153
 5602SOL    HW228266   1.112   2.887   6.130 -0.2978 -0.2223  0.0670
 5603SOL     OW28267   2.239   0.020  13.804  0.9707  0.2931  0.8517
 5603SOL    HW128268   2.229   0.031  13.710  1.2094 -2.5255  0.5003
 5603SOL    HW228269   2.194   0.092  13.849  0.0556 -1.5615  2.9132
 5604SOL     OW28270   3.942   0.141   5.663  0.4953 -0.0316  0.2743
 5604SOL    HW128271   3.856   0.100   5.672  1.4705 -1.7870  1.5172
 5604SOL    HW228272   3.930   0.205   5.733  0.1654 -0.7466  0.8583
 5605SOL     OW28273   4.535   0.278   8.803  0.3828 -0.6322  0.0362
 5605SOL    HW128274   4.501   0.293   8.891 -0.6998 -0.1117 -0.4775
 5605SOL    HW228275   4.532   0.368   8.771 -0.2591  0.3645  2.9088
 5606SOL     OW28276   4.603   3.631  12.717  0.3766  0.0152  0.1650
 5606SOL    HW128277   4.616   3.538  12.696  0.7820  0.5509 -1.8620
 5606SOL    HW228278   4.690   3.650  12.753 -0.0572  0.7829  0.8196
 5607SOL     OW28279   2.401   0.053   6.424 -0.4837  0.1810 -0.0490
 5607SOL    HW128280   2.318   0.044   6.377 -0.1649 -1.9580 -0.2189
 5607SOL    HW228281   2.363   0.061   6.511  0.0340 -0.6503  0.2569
 5608SOL     OW28282   0.365   3.820   5.962  0.4570  0.4125 -0.2563
 5608SOL    HW128283   0.310   3.831   6.040 -1.3424  1.2769 -1.6428
 5608SOL    HW228284   0.302   3.848   5.896  2.2667  0.0767 -2.1177
 5609SOL     OW28285   0.939   1.663  13.169  0.4090 -0.1006 -0.3824
 5609SOL    HW128286   0.972   1.591  13.115  1.2547 -0.3433  0.4401
 5609SOL    HW228287   0.845   1.661  13.152  0.3723 -0.0895 -0.1859
 5610SOL     OW28288   0.760   4.534   1.902  0.5614  1.0377  0.0460
 5610SOL    HW128289   0.748   4.609   1.844 -2.3630  0.4745 -0.0485
 5610SOL    HW228290   0.740   4.567   1.990  2.2908 -0.7826  1.1211
 5611SOL     OW28291   2.003   1.024   8.078  0.0082  0.2425 -0.0140
 5611SOL    HW128292   1.977   0.948   8.131  2.9259 -2.2982 -2.2605
 5611SOL    HW228293   1.924   1.077   8.070  0.9558  1.1792 -2.9390
 5612SOL     OW28294   3.082   3.611   2.691 -0.0258  0.9164 -0.4405
 5612SOL    HW128295   3.075   3.693   2.642  0.0456  0.0679 -1.8573
 5612SOL    HW228296   3.081   3.644   2.781 -0.6902  0.7327 -0.3823
 5613SOL     OW28297   0.516   4.113   6.847  0.3522 -0.3429 -0.1289
 5613SOL    HW128298   0.546   4.076   6.764  0.6071 -0.5426  0.0549
 5613SOL    HW228299   0.521   4.204   6.816  2.3194 -0.1608  0.6919
 5614SOL     OW28300   1.725   4.690   6.302  0.0646  0.2047  0.4244
 5614SOL    HW128301   1.639   4.655   6.329 -0.0029 -0.8486 -1.1703
 5614SOL    HW228302   1.788   4.666   6.370  0.1083 -2.1867 -0.4542
 5615SOL     OW28303   3.653   0.135   4.839  0.1156 -0.6113  0.3690
 5615SOL    HW128304   3.674   0.200   4.772  1.8514 -1.2084  0.3345
 5615SOL    HW228305   3.615   0.200   4.897  0.6774 -0.0263  0.0746
 5616SOL     OW28306   2.565   0.305   0.163 -0.1921  0.5219 -0.2522
 5616SOL    HW128307   2.571   0.372   0.096 -1.6307 -0.3288 -1.2339
 5616SOL    HW228308   2.532   0.355   0.237  0.1623  0.6944 -0.2085
 5617SOL     OW28309   2.800   2.854  11.548 -0.3188 -0.1754 -0.0512
 5617SOL    HW128310   2.863   2.785  11.569 -1.3099 -0.4697  2.0218
 5617SOL    HW228311   2.856   2.931  11.550 -2.9599  1.7482  0.5864
 5618SOL     OW28312   2.923   4.065   5.349  0.0325 -0.4842  0.7075
 5618SOL    HW128313   2.955   4.095   5.264  0.8602 -1.0999  0.8045
 5618SOL    HW228314   2.959   4.138   5.401 -0.3252 -0.5905  1.1012
 5619SOL     OW28315   2.677   0.977   0.588  0.0985 -0.0448 -0.3363
 5619SOL    HW128316   2.588   1.011   0.592  0.3367  0.6569 -1.1152
 5619SOL    HW228317   2.712   1.031   0.658  2.6739 -0.9801 -0.8708
 5620SOL     OW28318   3.272   2.935   6.225  0.1212 -0.2460  0.1441
 5620SOL    HW128319   3.300   2.930   6.133  2.2305 -1.1475  0.8371
 5620SOL    HW228320   3.284   3.027   6.246 -2.7847 -0.0383  0.9261
 5621SOL     OW28321   4.617   0.395   7.286  0.1343 -0.4534 -0.4090
 5621SOL    HW128322   4.531   0.403   7.245  0.3021 -0.6355 -0.8007
 5621SOL    HW228323   4.666   0.349   7.217 -1.6343  2.7191 -3.8063
 5622SOL     OW28324   0.169   4.624   4.916  0.2818 -0.1359  0.2259
 5622SOL    HW128325   0.122   4.552   4.958  2.6348 -3.3614 -2.6930
 5622SOL    HW228326   0.204   4.587   4.835  0.2660  1.1114 -0.3438
 5623SOL     OW28327   1.560   3.351  10.147  0.2096  0.2153  0.0350
 5623SOL    HW128328   1.617   3.416  10.105 -0.3424  0.9681  0.4379
 5623SOL    HW228329   1.586   3.367  10.238  0.2307 -1.1526  0.2682
 5624SOL     OW28330   2.506   0.485   7.008  0.0465  0.0859 -0.1589
 5624SOL    HW128331   2.475   0.410   6.959  1.0086 -1.4042  1.5247
 5624SOL    HW228332   2.423   0.530   7.019  0.1458 -0.0074  0.9403
 5625SOL     OW28333   4.329   4.232  11.664 -0.0165  0.3202 -0.0244
 5625SOL    HW128334   4.316   4.281  11.746 -1.1378 -2.1518  1.2660
 5625SOL    HW228335   4.243   4.246  11.626 -1.5491 -0.3896  3.1773
 5626SOL     OW28336   3.367   2.246   8.572 -0.5127  0.4066  0.4691
 5626SOL    HW128337   3.361   2.164   8.524  1.0636 -0.2322  1.3754
 5626SOL    HW228338   3.274   2.244   8.593 -0.0320 -0.8201  2.4020
 5627SOL     OW28339   1.623   3.587   2.028  0.3135 -0.1023 -0.3622
 5627SOL    HW128340   1.685   3.562   1.959  0.1584 -1.9256  0.1694
 5627SOL    HW228341   1.674   3.633   2.095 -0.3633  1.2919 -0.8031
 5628SOL     OW28342   2.923   1.414  12.823 -0.4600  0.4363 -0.5736
 5628SOL    HW128343   2.908   1.322  12.804  2.5059 -0.3349  0.9459
 5628SOL    HW228344   3.003   1.430  12.773 -0.6844 -3.7170 -2.2355
 5629SOL     OW28345   0.477   3.822   8.565 -0.5453  0.4450 -0.6960
 5629SOL    HW128346   0.384   3.824   8.588 -0.8026 -0.4528 -1.6573
 5629SOL    HW228347   0.476   3.740   8.516 -0.4649  0.0969 -0.1172
 5630SOL     OW28348   1.904   4.256  17.434  0.1124 -0.4649 -0.0621
 5630SOL    HW128349   1.872   4.170  17.463 -1.8424  1.3464  3.1479
 5630SOL    HW228350   1.852   4.320  17.482  2.8147  0.6178  1.4231
 5631SOL     OW28351   0.550   0.730  17.559  0.7056  0.0757  0.4237
 5631SOL    HW128352   0.627   0.769  17.517 -0.9123  2.3582 -0.4704
 5631SOL    HW228353   0.512   0.698  17.477  1.2260 -0.4105  0.3718
 5632SOL     OW28354   1.219   0.714  15.656 -0.1716 -0.1794 -0.3137
 5632SOL    HW128355   1.126   0.716  15.634 -0.6204  3.4570  1.9467
 5632SOL    HW228356   1.242   0.638  15.602  0.4040  0.7212 -1.3285
 5633SOL     OW28357   0.412   3.448   5.961 -0.2181  0.3908 -0.5937
 5633SOL    HW128358   0.406   3.482   6.051  2.0524 -0.1605 -0.2274
 5633SOL    HW228359   0.351   3.507   5.917  0.7564  0.9519 -1.2149
 5634SOL     OW28360   1.074   3.830  16.831 -0.0220  0.6844 -0.3169
 5634SOL    HW128361   1.107   3.745  16.801  1.9069  1.1490  0.4669
 5634SOL    HW228362   1.001   3.831  16.770  1.1397 -1.2919 -1.7778
 5635SOL     OW28363   2.687   3.507   6.954 -0.9874  0.2174 -0.1434
 5635SOL    HW128364   2.703   3.426   6.905  0.9404  1.7847 -2.0820
 5635SOL    HW228365   2.724   3.491   7.041  0.4329 -0.5039 -0.8822
 5636SOL     OW28366   0.645   1.243   9.198  0.0663  0.0658  0.2548
 5636SOL    HW128367   0.590   1.249   9.276 -1.7483  1.4926 -1.1367
 5636SOL    HW228368   0.733   1.244   9.236  0.2734 -0.6914 -0.2015
 5637SOL     OW28369   3.013   1.713   6.207 -0.4316 -0.0408  0.1230
 5637SOL    HW128370   2.966   1.670   6.279 -1.0841  0.0119 -0.2722
 5637SOL    HW228371   3.036   1.644   6.144  0.3993  1.0620 -0.7603
 5638SOL     OW28372   0.213   0.526  13.021 -0.2883  0.1309 -0.3862
 5638SOL    HW128373   0.181   0.454  13.075  0.7744  0.4417  0.6801
 5638SOL    HW228374   0.258   0.583  13.084  1.1088 -2.1304  0.6585
 5639SOL     OW28375   3.707   2.035   3.359 -0.1263  0.6796 -0.3108
 5639SOL    HW128376   3.713   2.003   3.269  0.6582 -2.5508  0.8705
 5639SOL    HW228377   3.754   1.971   3.414  0.6502  2.6298  1.2840
 5640SOL     OW28378   4.691   0.029   2.505 -0.7142 -0.4641  0.0319
 5640SOL    HW128379   4.688   4.657   2.517 -2.6864 -0.1445  2.0235
 5640SOL    HW228380   4.709   0.036   2.412  1.0384 -0.1903  0.3864
 5641SOL     OW28381   1.675   3.204   5.964 -0.1997 -0.0795  0.2768
 5641SOL    HW128382   1.663   3.276   6.025  1.5606 -0.0390  0.5589
 5641SOL    HW228383   1.589   3.165   5.980 -1.2295  1.8259 -0.6804
 5642SOL     OW28384   0.103   1.593   5.817 -0.4961  0.8492  0.3596
 5642SOL    HW128385   0.068   1.536   5.748  0.6842 -0.4803  0.8608
 5642SOL    HW228386   0.147   1.535   5.879  1.4776  0.8903 -0.9964
 5643SOL     OW28387   1.213   1.444   0.274  0.4428 -0.1599  0.7164
 5643SOL    HW128388   1.178   1.363   0.312  1.5980 -0.8648  0.2993
 5643SOL    HW228389   1.270   1.479   0.342 -1.9892  2.3663  1.4388
 5644SOL     OW28390   2.274   1.420   7.906 -0.0531  0.3373  0.1489
 5644SOL    HW128391   2.202   1.359   7.888  0.0651  0.4041 -0.5584
 5644SOL    HW228392   2.296   1.406   7.998 -1.2395  0.4272  0.4458
 5645SOL     OW28393   3.820   1.458   1.347 -0.0028  0.3217 -0.0722
 5645SOL    HW128394   3.843   1.374   1.386 -2.6254  0.8190  2.5175
 5645SOL    HW228395   3.732   1.487   1.370  0.4087 -0.1424  2.0305
 5646SOL     OW28396   2.488   0.918   2.163  0.3935 -0.1779 -0.9359
 5646SOL    HW128397   2.526   0.850   2.219  0.4837 -0.8491 -1.7988
 5646SOL    HW228398   2.547   0.920   2.087  1.6805 -1.3027  0.0216
 5647SOL     OW28399   1.479   1.600  15.340 -0.2639  0.3781 -0.2209
 5647SOL    HW128400   1.503   1.640  15.256  0.3500 -2.2359 -1.2894
 5647SOL    HW228401   1.544   1.529  15.339 -1.2786 -0.5493  0.7383
 5648SOL     OW28402   1.278   0.019   6.209 -0.1418  0.0819  0.3004
 5648SOL    HW128403   1.186   4.720   6.194 -0.2124 -0.2254  1.1924
 5648SOL    HW228404   1.298   0.088   6.146  0.1220 -1.1720 -0.9907
 5649SOL     OW28405   2.290   3.708   0.573  0.0201  0.2756 -0.3494
 5649SOL    HW128406   2.354   3.755   0.520  1.3976 -0.5920  0.5406
 5649SOL    HW228407   2.354   3.644   0.603 -1.8265 -0.9679  0.9039
 5650SOL     OW28408   3.053   4.159   3.239  0.2703 -0.3547  0.2123
 5650SOL    HW128409   2.963   4.131   3.256  0.0089 -0.3675 -1.1796
 5650SOL    HW228410   3.104   4.117   3.309  0.9830  0.0992 -0.0405
 5651SOL     OW28411   1.888   4.614  16.842 -1.0703 -0.2988  0.1182
 5651SOL    HW128412   1.827   4.592  16.913 -1.3455  0.1136  0.0111
 5651SOL    HW228413   1.954   4.674  16.877  0.1855 -1.3976 -0.3811
 5652SOL     OW28414   1.108   2.780   8.835  0.1759  0.3351 -0.5059
 5652SOL    HW128415   1.194   2.751   8.805 -0.7593 -1.5856 -1.3456
 5652SOL    HW228416   1.108   2.860   8.783 -1.6938  1.0661  0.6376
 5653SOL     OW28417   0.100   1.466   3.325  0.2101  0.3853  0.4282
 5653SOL    HW128418   0.080   1.528   3.396 -1.4105 -1.0430  1.2222
 5653SOL    HW228419   0.010   1.445   3.299  0.2873 -0.2982  0.7264
 5654SOL     OW28420   3.397   0.075   8.457 -0.6449  0.1863 -0.3386
 5654SOL    HW128421   3.319   0.061   8.511 -0.1095 -0.5150  0.2593
 5654SOL    HW228422   3.436   4.710   8.460 -3.9616 -1.2035  1.8822
 5655SOL     OW28423   1.602   2.965   5.456 -0.3716 -0.1474 -0.0153
 5655SOL    HW128424   1.526   2.928   5.499 -1.0566  0.7647 -0.4514
 5655SOL    HW228425   1.582   2.940   5.366 -3.0928  1.8380  0.0627
 5656SOL     OW28426   3.677   2.413   6.648  0.4501 -0.0848  0.3543
 5656SOL    HW128427   3.745   2.425   6.714  0.1544 -0.3153  0.7011
 5656SOL    HW228428   3.719   2.355   6.585 -0.4466 -0.9087  0.5148
 5657SOL     OW28429   2.068   3.819   4.655  0.0295 -0.0114 -0.0976
 5657SOL    HW128430   2.018   3.845   4.577 -0.7583  0.7833  0.6801
 5657SOL    HW228431   2.131   3.762   4.611  0.4278 -0.4228  1.0130
 5658SOL     OW28432   3.505   1.263  11.189  0.4101  0.4404 -0.4884
 5658SOL    HW128433   3.508   1.349  11.231 -0.2382  0.1315  0.1897
 5658SOL    HW228434   3.531   1.200  11.255 -0.5529 -0.5634 -1.0739
 5659SOL     OW28435   1.196   2.971   0.383  0.2218  0.2248  0.4471
 5659SOL    HW128436   1.208   3.042   0.319  3.9971 -0.4599  0.3989
 5659SOL    HW228437   1.155   3.021   0.453  0.2220  0.6754  0.1242
 5660SOL     OW28438   3.805   4.713   7.921  0.3511  0.2599  0.1605
 5660SOL    HW128439   3.889   4.696   7.879  1.0427  1.1103  1.2198
 5660SOL    HW228440   3.763   4.630   7.946 -0.5296  1.1681  1.6578
 5661SOL     OW28441   3.076   3.059   5.230 -0.2608  0.1813 -0.0057
 5661SOL    HW128442   3.029   3.093   5.306 -1.0564  1.5330 -1.0926
 5661SOL    HW228443   3.020   3.088   5.158 -2.0640  0.3376  1.4513
 5662SOL     OW28444   2.026   2.285   7.716 -0.4691  0.0454 -0.0204
 5662SOL    HW128445   1.985   2.202   7.741 -1.8856  1.1658  1.3961
 5662SOL    HW228446   2.100   2.271   7.775  2.5100  3.2942 -3.0152
 5663SOL     OW28447   3.452   4.696   8.790 -0.0931  0.5050  0.8248
 5663SOL    HW128448   3.468   4.602   8.785 -2.7345  0.1244 -0.3445
 5663SOL    HW228449   3.434   4.702   8.884 -1.0776  0.4083  0.6436
 5664SOL     OW28450   0.095   3.963   7.473  0.7477 -0.1066  0.1050
 5664SOL    HW128451   0.118   4.052   7.500 -2.2576  0.6404  0.1471
 5664SOL    HW228452   0.174   3.931   7.429 -1.2443 -2.8695 -1.4197
 5665SOL     OW28453   2.962   2.371  12.451 -0.3737 -0.2047 -0.7074
 5665SOL    HW128454   2.966   2.467  12.447 -1.1015 -0.2154 -1.5957
 5665SOL    HW228455   3.027   2.341  12.388 -0.6095  1.8837 -1.9602
 5666SOL     OW28456   3.419   3.735   5.379 -0.4371 -0.0597  0.3903
 5666SOL    HW128457   3.333   3.727   5.420 -1.4318 -0.3349 -1.7399
 5666SOL    HW228458   3.466   3.784   5.447 -0.3354 -0.6995  0.7881
 5667SOL     OW28459   0.359   1.046   6.852 -0.3057  0.8810  0.4806
 5667SOL    HW128460   0.319   0.988   6.916 -1.1215 -0.0140 -0.8355
 5667SOL    HW228461   0.331   1.133   6.880 -3.0371 -0.1671  0.9982
 5668SOL     OW28462   3.981   1.514   8.327 -0.3771 -0.0504  0.5270
 5668SOL    HW128463   4.066   1.557   8.327 -1.0462  1.3004 -0.4026
 5668SOL    HW228464   4.017   1.429   8.352  0.3168  0.2531  0.5364
 5669SOL     OW28465   3.179   2.250  16.500  0.4680 -0.1643 -0.6059
 5669SOL    HW128466   3.133   2.280  16.422  0.2175  2.0157  0.3816
 5669SOL    HW228467   3.215   2.166  16.470 -0.7365 -1.1316  0.6354
 5670SOL     OW28468   3.060   2.087  11.961  0.3733  0.6765  0.4217
 5670SOL    HW128469   3.136   2.136  11.930  1.2342  0.0378  1.5289
 5670SOL    HW228470   3.025   2.081  11.872  0.3972  0.8337  0.4022
 5671SOL     OW28471   3.782   4.359  12.144  0.0282  0.8009  0.0569
 5671SOL    HW128472   3.854   4.419  12.126  1.9297 -1.2499  0.8220
 5671SOL    HW228473   3.744   4.358  12.056  1.4545 -1.3810 -0.5278
 5672SOL     OW28474   0.732   0.563   4.346  0.2033 -0.0769 -0.6190
 5672SOL    HW128475   0.811   0.539   4.395  0.1148  2.5608  0.7964
 5672SOL    HW228476   0.770   0.613   4.274  0.8837 -0.6861 -0.6801
 5673SOL     OW28477   2.029   1.656   5.196 -0.1619  0.0266 -0.1009
 5673SOL    HW128478   2.041   1.648   5.102 -0.3791 -0.6323 -0.0737
 5673SOL    HW228479   2.118   1.677   5.225 -0.3229  1.2170 -0.4529
 5674SOL     OW28480   1.803   1.719   9.647  0.1559  0.0711 -0.4837
 5674SOL    HW128481   1.791   1.624   9.658  0.0500  0.0566 -0.7337
 5674SOL    HW228482   1.792   1.737   9.741 -4.4242 -0.4544 -0.9033
 5675SOL     OW28483   2.607   3.807   6.580  0.4345 -0.0670 -0.1717
 5675SOL    HW128484   2.533   3.771   6.628  1.8882  0.2440  2.2764
 5675SOL    HW228485   2.675   3.781   6.641  0.6152  0.5800 -0.0937
 5676SOL     OW28486   4.004   3.272   0.107  0.7056  0.2213  0.4549
 5676SOL    HW128487   4.001   3.295   0.014 -1.9477 -0.7183  0.3079
 5676SOL    HW228488   4.096   3.268   0.135  1.3652 -1.8669 -2.0136
 5677SOL     OW28489   2.394   3.767   8.259 -0.1462  0.2798  0.3031
 5677SOL    HW128490   2.437   3.851   8.277  0.1937  0.0329  0.6460
 5677SOL    HW228491   2.308   3.790   8.294 -0.4717 -0.8490  0.2359
 5678SOL     OW28492   2.195   0.597   2.702  0.2083 -0.1176  0.2452
 5678SOL    HW128493   2.214   0.584   2.609 -1.7293 -1.4994  0.0640
 5678SOL    HW228494   2.100   0.593   2.702  0.1290  1.4740 -0.8024
 5679SOL     OW28495   2.416   3.612  14.995 -0.5825 -0.6663 -0.6052
 5679SOL    HW128496   2.480   3.628  15.064 -1.8271 -0.1806  0.4345
 5679SOL    HW228497   2.467   3.571  14.925 -0.3020  0.2432 -0.9292
 5680SOL     OW28498   2.544   2.938   4.546 -0.1807  0.2992  0.3750
 5680SOL    HW128499   2.497   3.022   4.541 -3.7263 -1.8012 -1.5950
 5680SOL    HW228500   2.468   2.880   4.538  1.3850 -1.9806  2.1667
 5681SOL     OW28501   2.471   3.232   4.409  0.0289 -0.2281  0.0162
 5681SOL    HW128502   2.548   3.246   4.465  0.4289 -2.9541  0.1183
 5681SOL    HW228503   2.504   3.230   4.319  0.4587 -2.9482  0.2408
 5682SOL     OW28504   2.899   3.673  15.760  0.5581  0.3176  0.1960
 5682SOL    HW128505   2.944   3.640  15.682  0.6002  1.2375 -0.1648
 5682SOL    HW228506   2.964   3.669  15.830  2.0454  2.1192 -1.0997
 5683SOL     OW28507   1.056   2.754   7.708  0.5037  0.2222 -0.1274
 5683SOL    HW128508   1.022   2.681   7.760  1.1037 -0.1729 -0.2814
 5683SOL    HW228509   1.089   2.813   7.776  0.5517  0.5122 -0.4041
 5684SOL     OW28510   2.139   2.698   3.824 -0.3154  0.1953 -0.2514
 5684SOL    HW128511   2.135   2.789   3.795 -0.9185  0.2965  0.1577
 5684SOL    HW228512   2.101   2.702   3.912  2.8954  0.1951  1.1367
 5685SOL     OW28513   2.182   0.903   2.312  0.3771  0.7960 -0.0345
 5685SOL    HW128514   2.220   0.878   2.396 -1.4710 -0.3120  0.4547
 5685SOL    HW228515   2.090   0.893   2.338  0.5422 -0.6755 -0.0391
 5686SOL     OW28516   4.440   1.236  15.354 -0.2143  0.0572  0.5929
 5686SOL    HW128517   4.403   1.325  15.355 -1.0986 -0.2858 -2.2358
 5686SOL    HW228518   4.389   1.194  15.423 -0.6662 -1.3037 -0.5854
 5687SOL     OW28519   3.032   1.077   0.424  0.3429  0.0995 -0.5188
 5687SOL    HW128520   2.980   1.013   0.375  0.0942 -0.2137  0.1492
 5687SOL    HW228521   3.089   1.019   0.474 -1.3520 -0.0507  1.2488
 5688SOL     OW28522   1.945   0.541   9.367  0.2807  0.1763 -0.1066
 5688SOL    HW128523   1.986   0.466   9.322  0.6788 -0.8257  1.9448
 5688SOL    HW228524   2.014   0.607   9.364  0.8163 -0.4971 -3.1664
 5689SOL     OW28525   0.560   4.318   6.705  0.1783  0.0873 -0.7243
 5689SOL    HW128526   0.564   4.413   6.716 -1.5803 -0.2091  2.6403
 5689SOL    HW228527   0.561   4.314   6.609 -0.0431  2.1598 -0.8250
 5690SOL     OW28528   1.621   3.786   8.551 -0.2813 -0.6119  0.5512
 5690SOL    HW128529   1.663   3.845   8.488  1.1140 -0.3577  1.7111
 5690SOL    HW228530   1.695   3.739   8.589 -0.7986 -2.0446 -0.2483
 5691SOL     OW28531   3.759   0.571   1.759  0.1887 -0.0485 -0.4311
 5691SOL    HW128532   3.726   0.640   1.701 -1.6754  0.7585  1.5769
 5691SOL    HW228533   3.834   0.610   1.805 -1.0905  0.4328  1.2960
 5692SOL     OW28534   3.102   2.012   7.317 -0.7228  0.4034  0.0517
 5692SOL    HW128535   3.009   2.016   7.293 -1.7983 -3.5711  3.5479
 5692SOL    HW228536   3.132   2.056   7.237 -0.1024 -0.2237 -0.0496
 5693SOL     OW28537   4.285   2.422  15.978 -0.5332  0.0800 -0.3073
 5693SOL    HW128538   4.314   2.455  16.063 -2.2199 -2.5828  1.2547
 5693SOL    HW228539   4.207   2.473  15.953 -0.4194 -0.1562 -1.1526
 5694SOL     OW28540   0.032   1.701   0.925  0.0651  0.2925 -0.1559
 5694SOL    HW128541   0.068   1.649   0.997 -0.2773  1.9777  1.2289
 5694SOL    HW228542   4.697   1.758   0.975 -0.5794 -0.4121 -0.0999
 5695SOL     OW28543   4.136   2.505   9.151  0.6189  0.0805  0.1625
 5695SOL    HW128544   4.074   2.541   9.215  2.5632 -0.2753  2.2445
 5695SOL    HW228545   4.083   2.443   9.102  0.0861 -1.4950  2.7301
 5696SOL     OW28546   0.195   1.157  16.471 -0.3988 -0.5476  0.2298
 5696SOL    HW128547   0.203   1.132  16.563 -2.1634  0.7586  0.7396
 5696SOL    HW228548   0.188   1.070  16.432  1.2788 -0.7001  0.2637
 5697SOL     OW28549   4.435   3.271   8.258 -0.3574 -0.5608  0.3424
 5697SOL    HW128550   4.507   3.218   8.225 -1.4075 -2.1207  0.5728
 5697SOL    HW228551   4.460   3.361   8.238  5.5799 -2.1439  0.5777
 5698SOL     OW28552   4.287   1.109  12.923  0.5323  0.2933 -0.1527
 5698SOL    HW128553   4.214   1.053  12.896  1.2663 -0.6738 -0.1514
 5698SOL    HW228554   4.356   1.043  12.918  0.9342  0.5585  2.1899
 5699SOL     OW28555   4.388   0.515   8.714  0.5286  0.1073 -0.0332
 5699SOL    HW128556   4.324   0.459   8.671 -0.5744  1.5644 -0.3312
 5699SOL    HW228557   4.325   0.568   8.763  0.1359 -0.7524  0.3924
 5700SOL     OW28558   1.428   0.327   7.211  0.0446  0.3205 -0.3172
 5700SOL    HW128559   1.356   0.299   7.154 -0.7427  0.5538  0.5756
 5700SOL    HW228560   1.458   0.399   7.155  0.6421 -1.1697 -1.9213
 5701SOL     OW28561   1.879   2.331   1.532  0.0065  0.4392  0.4926
 5701SOL    HW128562   1.891   2.302   1.442  2.1996 -1.7997  1.4962
 5701SOL    HW228563   1.971   2.348   1.553 -0.2956  2.2667  0.3057
 5702SOL     OW28564   0.195   0.702   6.322 -0.0508 -0.1872 -0.2069
 5702SOL    HW128565   0.215   0.723   6.413 -0.1445  2.0956 -0.7290
 5702SOL    HW228566   0.163   0.613   6.336 -1.3914  0.0446 -1.7350
 5703SOL     OW28567   2.742   4.202   5.783  0.4973 -0.0928 -0.3912
 5703SOL    HW128568   2.746   4.282   5.835 -0.2063  0.1334 -0.6824
 5703SOL    HW228569   2.648   4.210   5.764  0.7828 -1.6801 -2.3905
 5704SOL     OW28570   2.958   3.589   4.296  0.0963 -0.0328  0.5844
 5704SOL    HW128571   2.878   3.596   4.349 -0.8208 -1.9277 -0.5445
 5704SOL    HW228572   2.947   3.667   4.241  1.0481  0.1158  0.6090
 5705SOL     OW28573   1.307   2.306   1.413 -0.3399 -0.0788  0.0182
 5705SOL    HW128574   1.237   2.370   1.401 -0.3753 -0.1407 -0.1122
 5705SOL    HW228575   1.278   2.272   1.498  1.3553  0.5076  0.8388
 5706SOL     OW28576   1.750   1.648   5.167  0.1689  0.3067  0.0690
 5706SOL    HW128577   1.843   1.628   5.181 -0.3239 -0.4798  2.0791
 5706SOL    HW228578   1.712   1.568   5.202 -0.2605  0.3575 -0.2913
 5707SOL     OW28579   3.354   1.530   9.560  0.1938  0.4212  0.2703
 5707SOL    HW128580   3.399   1.514   9.643 -2.1470 -1.2758  1.2095
 5707SOL    HW228581   3.414   1.493   9.494 -0.8677 -0.9339  0.0536
 5708SOL     OW28582   2.624   1.098   9.298  0.3158  0.9276  0.0371
 5708SOL    HW128583   2.623   1.170   9.361  0.6035 -0.0086  1.1209
 5708SOL    HW228584   2.543   1.107   9.247  0.9095 -1.8170 -1.3904
 5709SOL     OW28585   0.751   1.256  12.203  0.2453 -0.0596  0.1479
 5709SOL    HW128586   0.812   1.274  12.275  1.2965  0.6287 -0.9103
 5709SOL    HW228587   0.670   1.248  12.254  0.9492 -0.2898  1.2255
 5710SOL     OW28588   0.417   1.016   2.973 -0.1952 -0.3935  0.7260
 5710SOL    HW128589   0.427   1.022   3.068 -0.5860 -1.5951  0.8459
 5710SOL    HW228590   0.504   0.981   2.954 -0.3551 -0.4866  0.1495
 5711SOL     OW28591   3.593   4.239  13.511 -0.2129 -0.8609 -0.0549
 5711SOL    HW128592   3.644   4.306  13.464 -0.6327 -1.4113 -1.2803
 5711SOL    HW228593   3.629   4.165  13.463 -1.9733 -1.3086 -0.6767
 5712SOL     OW28594   4.028   0.619   1.881  0.3939 -0.2163 -0.1013
 5712SOL    HW128595   4.099   0.607   1.944 -0.6228 -1.0744  0.8833
 5712SOL    HW228596   4.015   0.714   1.879 -0.5278 -0.3474 -0.1503
 5713SOL     OW28597   0.848   4.449  17.052 -0.0913 -0.2890  0.3581
 5713SOL    HW128598   0.828   4.542  17.056 -0.4254 -0.3574  0.2906
 5713SOL    HW228599   0.934   4.445  17.010 -0.6952 -0.3557 -0.8663
 5714SOL     OW28600   2.162   2.119   9.078 -0.2956 -0.5507 -0.3076
 5714SOL    HW128601   2.104   2.111   9.002  1.5138 -0.9841 -1.6666
 5714SOL    HW228602   2.100   2.095   9.146  0.1318 -1.5977 -0.2862
 5715SOL     OW28603   0.240   1.417   5.995  0.1484  0.9244  0.2811
 5715SOL    HW128604   0.301   1.406   6.069  1.0142 -0.2166 -0.6043
 5715SOL    HW228605   0.163   1.416   6.051  1.0923 -0.5645  1.5583
 5716SOL     OW28606   0.165   3.902   1.967 -0.3681 -0.0956 -0.2901
 5716SOL    HW128607   0.251   3.942   1.953 -1.0048  0.3830 -2.7326
 5716SOL    HW228608   0.179   3.854   2.049 -0.0515  0.4330 -0.0331
 5717SOL     OW28609   4.079   2.677  13.423  0.1948 -0.2790  0.2892
 5717SOL    HW128610   4.065   2.591  13.384  0.7866  0.3191 -1.2690
 5717SOL    HW228611   4.017   2.690  13.495  0.1332  2.9680 -0.3205
 5718SOL     OW28612   1.909   2.344   6.123  0.3090 -0.0927 -0.3682
 5718SOL    HW128613   1.964   2.334   6.045  0.5417  0.1188 -0.2294
 5718SOL    HW228614   1.840   2.281   6.105  0.5754 -0.2851 -0.7206
 5719SOL     OW28615   2.059   4.074   8.972 -0.1692  0.0307 -0.0067
 5719SOL    HW128616   2.016   4.009   8.916  0.5519 -1.1637  0.8270
 5719SOL    HW228617   1.998   4.144   8.995  1.3795  1.5521 -0.5333
 5720SOL     OW28618   0.256   1.495  10.006  0.0112 -0.4972  0.1087
 5720SOL    HW128619   0.216   1.576  10.038  0.5463 -0.4999  0.7760
 5720SOL    HW228620   0.341   1.534   9.985 -0.3378 -0.3539 -1.0239
 5721SOL     OW28621   1.491   1.262   8.601  0.3213  0.0919  0.0220
 5721SOL    HW128622   1.446   1.181   8.624  2.6880 -1.2918 -0.1098
 5721SOL    HW228623   1.524   1.296   8.684 -0.6132 -0.0259  0.4401
 5722SOL     OW28624   2.183   0.937   5.024  0.0366  0.2329 -0.0780
 5722SOL    HW128625   2.148   1.019   5.059  0.0003  0.5308 -0.8061
 5722SOL    HW228626   2.207   0.886   5.101  0.9252 -1.2604 -1.3400
 5723SOL     OW28627   1.227   1.878  13.717  0.1366  0.0087  0.4770
 5723SOL    HW128628   1.165   1.920  13.777  0.9177  0.7525  0.7697
 5723SOL    HW228629   1.306   1.918  13.752  0.9804  0.4220 -1.9144
 5724SOL     OW28630   1.480   3.197   0.712  0.2295  0.0124  0.4547
 5724SOL    HW128631   1.571   3.174   0.730  0.0697  1.6797  3.3381
 5724SOL    HW228632   1.440   3.113   0.735  0.2975 -0.8579 -2.5749
 5725SOL     OW28633   0.196   2.025  14.420 -0.3810  0.1121 -0.3498
 5725SOL    HW128634   0.132   2.017  14.492 -1.2699  0.5726 -1.0990
 5725SOL    HW228635   0.238   2.103  14.456 -0.1616 -0.3098  0.3294
 5726SOL     OW28636   3.682   4.634  15.887 -0.1579  0.6941 -0.5293
 5726SOL    HW128637   3.720   4.722  15.889  2.2636 -0.2898 -2.5471
 5726SOL    HW228638   3.755   4.578  15.861 -0.1599  1.0305 -1.2673
 5727SOL     OW28639   4.020   0.555   2.677  0.5756 -0.1413 -0.5089
 5727SOL    HW128640   4.070   0.592   2.750 -0.8500 -3.3516  2.0784
 5727SOL    HW228641   4.067   0.586   2.600 -0.4717 -0.3206 -1.2192
 5728SOL     OW28642   1.961   2.407   5.801  0.1855 -0.0116  0.5609
 5728SOL    HW128643   2.039   2.389   5.748  0.7401  0.6619  1.1541
 5728SOL    HW228644   1.898   2.344   5.766 -1.1803  2.6379 -1.8245
 5729SOL     OW28645   2.037   2.987   3.433 -0.4883 -0.1342  1.0206
 5729SOL    HW128646   2.071   2.901   3.458 -1.6159 -1.0867 -0.6973
 5729SOL    HW228647   1.946   2.976   3.461  0.0237  0.6762  2.9840
 5730SOL     OW28648   0.556   3.746  12.958 -0.5429  0.0627 -0.3592
 5730SOL    HW128649   0.620   3.707  13.017 -0.1308  0.0257 -0.8324
 5730SOL    HW228650   0.598   3.746  12.872  0.6707 -0.7702  0.2447
 5731SOL     OW28651   0.328   4.667   5.834  0.0588  0.5768 -0.1147
 5731SOL    HW128652   0.382   0.007   5.785 -0.5547  1.6448  0.5869
 5731SOL    HW228653   0.243   4.682   5.792 -0.8867  0.7853  1.9124
 5732SOL     OW28654   0.438   2.005  17.209  0.3730 -0.0623 -0.0448
 5732SOL    HW128655   0.352   2.043  17.226 -0.4718 -1.8901 -0.2861
 5732SOL    HW228656   0.402   1.930  17.255  1.5474 -1.0476 -0.7445
 5733SOL     OW28657   4.003   3.107   4.836 -0.0709  0.1215  0.0063
 5733SOL    HW128658   4.070   3.039   4.839 -0.9811 -0.8356 -1.5089
 5733SOL    HW228659   4.014   3.142   4.925 -1.0279 -0.7263  0.4548
 5734SOL     OW28660   2.186   3.495  15.063  0.1300  0.0331 -0.1652
 5734SOL    HW128661   2.265   3.544  15.043 -0.1198 -0.6834 -2.9850
 5734SOL    HW228662   2.143   3.494  14.977 -0.9009 -0.0570  0.3544
 5735SOL     OW28663   2.845   0.847   8.967  0.2705 -0.2704  0.1981
 5735SOL    HW128664   2.924   0.861   8.915  0.7232 -1.2343  0.6219
 5735SOL    HW228665   2.824   0.929   9.011 -0.3531  0.4778 -1.4907
 5736SOL     OW28666   2.952   1.617   4.523 -0.2081  0.2513  0.3422
 5736SOL    HW128667   2.968   1.526   4.496  0.9324  0.7405 -0.6187
 5736SOL    HW228668   2.881   1.641   4.464 -0.8122 -0.5542  0.7325
 5737SOL     OW28669   0.448   3.545   6.803 -0.2020 -0.3550 -0.4052
 5737SOL    HW128670   0.373   3.508   6.757  0.2253 -0.6400 -0.8686
 5737SOL    HW228671   0.415   3.536   6.892 -1.2707 -2.7707 -1.0480
 5738SOL     OW28672   0.457   4.358   3.330  0.2455  0.1606 -0.1377
 5738SOL    HW128673   0.530   4.419   3.317 -0.6001  1.2920  0.4053
 5738SOL    HW228674   0.457   4.301   3.254 -1.4855  2.4235 -1.8191
 5739SOL     OW28675   1.973   2.344  12.132  0.2929 -0.2573 -0.1992
 5739SOL    HW128676   1.970   2.438  12.118 -2.1610 -0.0050  1.9624
 5739SOL    HW228677   2.060   2.317  12.103  0.7332  1.0269 -0.0727
 5740SOL     OW28678   0.149   3.769   1.463 -0.0042  0.1067 -0.3769
 5740SOL    HW128679   0.090   3.758   1.389 -1.0931 -0.0358  0.4976
 5740SOL    HW228680   0.193   3.853   1.453 -0.8083  0.5322 -0.3664
 5741SOL     OW28681   0.420   2.884  15.013  0.4380  0.5912  0.9828
 5741SOL    HW128682   0.331   2.848  15.024  0.4652 -0.3362 -1.9104
 5741SOL    HW228683   0.403   2.974  15.041  0.1205  0.8053  0.1035
 5742SOL     OW28684   3.877   4.085   7.020 -0.2160 -0.1062  0.1087
 5742SOL    HW128685   3.963   4.123   7.007  0.0838 -0.5765  0.7143
 5742SOL    HW228686   3.823   4.162   7.034  1.9011  1.5341 -0.7973
 5743SOL     OW28687   3.621   1.548  10.639 -0.3069  0.2386  0.1037
 5743SOL    HW128688   3.686   1.480  10.618 -1.9060 -1.8263  1.8799
 5743SOL    HW228689   3.550   1.533  10.577 -1.7975  2.2060  1.3639
 5744SOL     OW28690   4.616   1.678   2.195 -0.2429  0.1184 -0.1818
 5744SOL    HW128691   4.657   1.596   2.166  1.4376  1.0267 -0.4068
 5744SOL    HW228692   4.602   1.719   2.109 -1.7876  2.0154  0.9830
 5745SOL     OW28693   4.051   0.675  16.741  0.4815 -0.1588  0.0455
 5745SOL    HW128694   4.115   0.725  16.690 -0.4351 -0.1078 -1.0539
 5745SOL    HW228695   4.027   0.622  16.666 -0.0991  0.5202 -0.2470
 5746SOL     OW28696   2.671   0.269   3.525  0.0985 -0.1246 -0.8127
 5746SOL    HW128697   2.741   0.244   3.465  0.2268  0.0016 -0.7163
 5746SOL    HW228698   2.720   0.311   3.595 -0.7751 -0.7160  0.1542
 5747SOL     OW28699   1.341   2.510   4.359 -0.5641  0.4124 -0.3714
 5747SOL    HW128700   1.424   2.544   4.327 -0.1667 -0.6004 -0.4144
 5747SOL    HW228701   1.368   2.435   4.412  0.3724  0.9411 -0.1040
 5748SOL     OW28702   1.746   2.501   0.646 -0.0450 -0.4396  0.1176
 5748SOL    HW128703   1.756   2.504   0.741 -0.5887 -0.3553  0.1740
 5748SOL    HW228704   1.837   2.506   0.618 -1.2280  0.1230 -3.6459
 5749SOL     OW28705   3.388   2.691  16.737  0.5255  0.1435  0.3064
 5749SOL    HW128706   3.385   2.731  16.650 -1.7749 -0.1390  0.2597
 5749SOL    HW228707   3.311   2.635  16.731 -0.6821  1.7777  0.5588
 5750SOL     OW28708   1.006   3.532   4.965  0.2507 -0.5987  0.7317
 5750SOL    HW128709   0.975   3.551   5.054 -2.4193  0.5846 -0.4571
 5750SOL    HW228710   0.957   3.460   4.927  0.3793 -1.5792  2.4048
 5751SOL     OW28711   2.028   3.612   6.481  0.7632 -0.2267  0.5193
 5751SOL    HW128712   1.976   3.657   6.548  0.5462 -2.9832  2.2175
 5751SOL    HW228713   2.063   3.546   6.541  2.9297  0.1481 -0.3348
 5752SOL     OW28714   0.486   2.034   4.042 -0.2165 -0.4950 -0.0949
 5752SOL    HW128715   0.472   2.010   4.134 -0.0486 -0.5741 -0.0914
 5752SOL    HW228716   0.527   2.118   4.062  1.9524 -1.7366  0.6244
 5753SOL     OW28717   2.603   2.456  16.226 -0.6079  0.6555  0.4531
 5753SOL    HW128718   2.653   2.488  16.150 -0.9224  0.2434  0.0740
 5753SOL    HW228719   2.625   2.363  16.228  0.6725  0.9633  1.1522
 5754SOL     OW28720   0.388   0.607  15.656  0.3551  0.4914  0.7074
 5754SOL    HW128721   0.396   0.660  15.577 -0.0375 -0.3079  0.1342
 5754SOL    HW228722   0.441   0.531  15.634 -0.5718  0.3511 -1.0804
 5755SOL     OW28723   1.289   2.644  17.432  0.3412  0.4355  0.0114
 5755SOL    HW128724   1.365   2.598  17.468 -0.6084 -1.9435 -1.0397
 5755SOL    HW228725   1.329   2.730  17.420 -0.1836  1.0841  2.9890
 5756SOL     OW28726   1.216   0.287   7.002  0.4227  0.3954 -0.1072
 5756SOL    HW128727   1.136   0.303   6.951  0.5449  0.7266 -0.1875
 5756SOL    HW228728   1.263   0.361   6.965 -0.3056  2.0696  2.2680
 5757SOL     OW28729   4.007   2.393   8.896 -0.1757 -0.2858  0.4016
 5757SOL    HW128730   4.086   2.345   8.870  0.1464 -0.2876  1.3650
 5757SOL    HW228731   3.946   2.363   8.829  0.0724  0.2267 -0.0463
 5758SOL     OW28732   4.289   0.624   6.365  0.0104  0.3197 -0.4914
 5758SOL    HW128733   4.272   0.657   6.277 -2.6492  0.8182  0.2058
 5758SOL    HW228734   4.201   0.615   6.402 -0.0683  3.9025  0.2116
 5759SOL     OW28735   3.616   1.699  13.853 -0.1286  0.1702  0.0865
 5759SOL    HW128736   3.664   1.763  13.800 -2.0186 -0.0525 -1.9312
 5759SOL    HW228737   3.682   1.668  13.914 -0.1953 -0.8759 -0.3839
 5760SOL     OW28738   3.461   2.374   6.388 -0.0740 -0.2931 -0.5263
 5760SOL    HW128739   3.509   2.324   6.323  0.0063 -0.7863 -0.0864
 5760SOL    HW228740   3.460   2.326   6.471  0.2862 -0.1164 -0.4193
 5761SOL     OW28741   0.943   1.722   5.004 -0.1149 -0.5074  0.4130
 5761SOL    HW128742   0.924   1.631   4.981  1.4605 -0.1895 -2.0478
 5761SOL    HW228743   0.988   1.754   4.926  1.3824 -2.3787  0.5132
 5762SOL     OW28744   0.634   4.141  10.458 -0.6502  0.5822  0.0305
 5762SOL    HW128745   0.665   4.068  10.405 -0.7903  1.2252 -0.9516
 5762SOL    HW228746   0.542   4.124  10.476 -0.8509 -0.3302 -1.8466
 5763SOL     OW28747   3.609   0.621   7.256  0.0308 -0.0181  0.1506
 5763SOL    HW128748   3.625   0.677   7.332  1.9455  2.0552 -1.7943
 5763SOL    HW228749   3.561   0.547   7.292 -0.7334  0.2881 -0.2383
 5764SOL     OW28750   2.861   1.104   9.062 -0.1546 -0.3377  0.1252
 5764SOL    HW128751   2.889   1.195   9.059 -3.4054  0.7449  3.0234
 5764SOL    HW228752   2.873   1.088   9.155  4.6839  0.5108 -0.3525
 5765SOL     OW28753   0.729   2.700   7.124 -0.2382  0.0797 -0.1685
 5765SOL    HW128754   0.642   2.733   7.101  0.0212  1.1270  0.3068
 5765SOL    HW228755   0.763   2.692   7.035 -0.6107 -0.3076 -0.2778
 5766SOL     OW28756   3.273   3.410   2.770 -0.4780  0.3666 -0.2674
 5766SOL    HW128757   3.297   3.382   2.681  0.5078  1.5735 -0.3831
 5766SOL    HW228758   3.212   3.479   2.745  1.2462  2.6818  1.9302
 5767SOL     OW28759   1.225   1.308   8.782  0.6722 -0.9088 -0.0009
 5767SOL    HW128760   1.285   1.343   8.848 -0.4664 -1.7002  1.4696
 5767SOL    HW228761   1.237   1.213   8.787 -0.2667 -0.9688  1.1527
 5768SOL     OW28762   4.275   2.248   3.783  0.0544  0.1146  0.0645
 5768SOL    HW128763   4.199   2.252   3.724  1.6996  1.9660 -1.9445
 5768SOL    HW228764   4.329   2.319   3.746  0.6484 -1.8126 -2.7764
 5769SOL     OW28765   4.693   2.248   4.145 -0.3658 -0.5271  1.0051
 5769SOL    HW128766   4.629   2.179   4.128 -1.6688  0.8908  0.2235
 5769SOL    HW228767   0.055   2.203   4.150 -0.3531 -0.6226 -0.0333
 5770SOL     OW28768   1.448   1.664  10.449  0.4699 -0.7157  0.7225
 5770SOL    HW128769   1.356   1.691  10.457 -0.4231 -3.3908 -0.5021
 5770SOL    HW228770   1.493   1.747  10.468 -0.7703  0.7618 -2.9501
 5771SOL     OW28771   0.644   3.427  16.572  0.4507 -0.1545  0.0497
 5771SOL    HW128772   0.617   3.338  16.593  0.5895 -0.4459 -0.9712
 5771SOL    HW228773   0.690   3.441  16.655  2.1697  3.1882 -1.4786
 5772SOL     OW28774   0.206   1.847   2.106  0.0135 -0.5953  0.0721
 5772SOL    HW128775   0.291   1.883   2.128 -0.5408  1.4214 -1.0874
 5772SOL    HW228776   0.196   1.880   2.016  2.1121  0.4058  0.2224
 5773SOL     OW28777   2.191   3.725   2.762 -0.0359 -0.4330  0.2028
 5773SOL    HW128778   2.189   3.818   2.783 -0.0589 -0.1104 -1.3046
 5773SOL    HW228779   2.131   3.692   2.829 -0.1517  3.9156  2.2220
 5774SOL     OW28780   4.357   2.666   9.049  0.1224  0.1983 -0.5345
 5774SOL    HW128781   4.428   2.606   9.027  0.0212 -0.4245  0.7814
 5774SOL    HW228782   4.289   2.602   9.072  1.0990 -0.8060 -0.4730
 5775SOL     OW28783   4.062   0.464   1.633  0.2844  0.2656 -0.5156
 5775SOL    HW128784   3.989   0.403   1.641  0.2904  0.6655  2.4731
 5775SOL    HW228785   4.025   0.539   1.679  2.0301  0.5910  0.3666
 5776SOL     OW28786   4.562   3.551   7.182  0.1172 -0.2633 -0.8714
 5776SOL    HW128787   4.510   3.511   7.113 -0.7021  0.3623 -0.6077
 5776SOL    HW228788   4.567   3.481   7.247  0.0718  0.8588  0.3196
 5777SOL     OW28789   0.501   1.924   3.275  0.1672 -0.4935  0.1406
 5777SOL    HW128790   0.541   1.864   3.213  1.3409 -0.3089  0.7227
 5777SOL    HW228791   0.572   1.988   3.276 -0.8038  0.5920  0.8375
 5778SOL     OW28792   4.205   2.167  15.842 -0.3066 -0.6010  0.3245
 5778SOL    HW128793   4.250   2.235  15.893 -2.9188 -0.0737  1.9350
 5778SOL    HW228794   4.254   2.086  15.853  1.7389  0.9807  3.0194
 5779SOL     OW28795   0.416   1.939   5.528  0.2501  0.1726  0.0753
 5779SOL    HW128796   0.477   1.868   5.507 -1.0987 -0.9498 -0.0059
 5779SOL    HW228797   0.435   2.005   5.461 -0.5366 -1.1507 -1.4575
 5780SOL     OW28798   2.151   4.035   4.800 -0.3346  0.0778  0.1180
 5780SOL    HW128799   2.115   3.966   4.744 -0.0402  0.3163 -0.3647
 5780SOL    HW228800   2.206   4.083   4.737  0.6192 -1.8258 -0.4796
 5781SOL     OW28801   0.698   2.098   4.589  0.0956  0.1500  0.0471
 5781SOL    HW128802   0.674   2.017   4.634  0.2459 -0.2491 -0.5935
 5781SOL    HW228803   0.764   2.122   4.655 -2.3470  0.7202  2.2772
 5782SOL     OW28804   0.251   3.567   7.328 -0.0063  0.1557  0.0735
 5782SOL    HW128805   0.246   3.498   7.262  1.9047 -1.2933  1.4469
 5782SOL    HW228806   0.325   3.532   7.379 -1.7226  0.3649  2.7435
 5783SOL     OW28807   4.292   2.567  13.645 -0.1050 -0.3058 -0.5082
 5783SOL    HW128808   4.308   2.537  13.555  0.8257 -0.9911 -0.1065
 5783SOL    HW228809   4.239   2.646  13.633  2.3918  1.5812  0.9768
 5784SOL     OW28810   0.509   1.307   9.954 -0.1408  0.0460 -0.6875
 5784SOL    HW128811   0.477   1.312  10.044  2.4990 -1.8183  0.3475
 5784SOL    HW228812   0.580   1.372   9.956 -0.3838  0.3338 -1.6776
 5785SOL     OW28813   0.601   2.243  13.453 -0.2992 -0.3109  0.3966
 5785SOL    HW128814   0.640   2.298  13.385 -1.7301  1.1529  0.7456
 5785SOL    HW228815   0.566   2.163  13.414 -3.6730  1.2463  0.1921
 5786SOL     OW28816   2.995   2.634   8.967  0.1086  0.2481 -0.6726
 5786SOL    HW128817   3.077   2.587   8.951  0.2922  0.6218 -0.8253
 5786SOL    HW228818   3.004   2.656   9.059 -1.1690 -0.2262 -0.4425
 5787SOL     OW28819   2.216   1.450   2.502 -0.1999 -0.2029 -0.0614
 5787SOL    HW128820   2.189   1.362   2.476 -2.0869 -0.6384  3.3058
 5787SOL    HW228821   2.233   1.441   2.596  0.4499 -0.3416 -0.1959
 5788SOL     OW28822   0.567   1.548   8.695 -0.0752 -0.0424 -0.2981
 5788SOL    HW128823   0.633   1.617   8.708  1.5886 -1.8310  0.6947
 5788SOL    HW228824   0.585   1.537   8.602  0.1074  2.8444 -0.6175
 5789SOL     OW28825   0.020   1.640  10.732  0.1760  0.5271  0.3130
 5789SOL    HW128826   4.716   1.561  10.684  0.7223  2.3360 -3.0045
 5789SOL    HW228827   0.113   1.622  10.726  0.5962  2.5890  0.4676
 5790SOL     OW28828   0.563   2.086   2.005 -0.2431 -0.2225  0.0285
 5790SOL    HW128829   0.518   2.116   1.926 -1.2409  0.1604  0.7467
 5790SOL    HW228830   0.654   2.099   1.976  0.3956 -1.8735  1.2719
 5791SOL     OW28831   1.590   2.645   2.979 -0.6234 -0.0070  0.0175
 5791SOL    HW128832   1.509   2.682   2.944 -2.5669 -4.5383 -0.1873
 5791SOL    HW228833   1.627   2.720   3.027  0.4607 -0.6408  0.1690
 5792SOL     OW28834   0.419   1.332   3.048 -0.1206 -0.2199 -0.1817
 5792SOL    HW128835   0.369   1.258   3.085 -1.0536  1.5733  2.1510
 5792SOL    HW228836   0.362   1.405   3.072 -0.6830 -1.2947  1.7944
 5793SOL     OW28837   4.279   0.838   3.339  0.2460 -0.2592 -0.1387
 5793SOL    HW128838   4.341   0.872   3.404 -0.0467  0.7594 -0.3916
 5793SOL    HW228839   4.308   0.888   3.263 -1.2455 -0.6529 -0.9618
 5794SOL     OW28840   1.750   2.981  17.583 -0.1242  0.0910  0.4012
 5794SOL    HW128841   1.698   2.936  17.649  0.7644  0.3822  1.3015
 5794SOL    HW228842   1.792   3.055  17.628  1.3903 -1.0122  0.8199
 5795SOL     OW28843   2.580   2.886  13.456 -0.0819 -0.4315 -0.1023
 5795SOL    HW128844   2.582   2.836  13.374 -0.9190 -0.6139 -0.0060
 5795SOL    HW228845   2.674   2.900  13.470 -0.1140  0.1351 -0.4537
 5796SOL     OW28846   1.604   1.890   2.117  0.5639  0.0522 -0.6488
 5796SOL    HW128847   1.668   1.934   2.062  1.0855  0.0358 -0.0474
 5796SOL    HW228848   1.572   1.830   2.049  1.1750 -0.6904 -0.2824
 5797SOL     OW28849   3.402   3.230   1.591 -0.1553 -0.2541 -0.0909
 5797SOL    HW128850   3.330   3.183   1.549 -0.7703  0.5169  0.0888
 5797SOL    HW228851   3.351   3.285   1.651  0.2262  0.5637 -0.5214
 5798SOL     OW28852   3.951   1.421   3.517 -0.6391 -0.3680  0.0491
 5798SOL    HW128853   3.920   1.421   3.608  1.0362  2.3169  0.6032
 5798SOL    HW228854   4.040   1.386   3.522 -1.4024 -2.2761  0.2281
 5799SOL     OW28855   0.654   2.175   5.524 -0.0926  0.8749  0.4195
 5799SOL    HW128856   0.661   2.102   5.462  0.1663  2.2426 -1.1768
 5799SOL    HW228857   0.565   2.208   5.512 -0.4835 -0.9194 -1.6087
 5800SOL     OW28858   4.161   2.129   9.023 -0.0671  0.1766  0.0385
 5800SOL    HW128859   4.072   2.094   9.020  0.3779 -0.9923  0.3736
 5800SOL    HW228860   4.201   2.074   9.091  0.3897 -0.7738 -1.0121
 5801SOL     OW28861   0.700   1.636   2.810 -0.0242  0.0166  0.0326
 5801SOL    HW128862   0.622   1.622   2.756  0.3335 -1.1405 -0.1976
 5801SOL    HW228863   0.701   1.549   2.850  2.8839  0.2072  0.3882
 5802SOL     OW28864   3.156   3.540   0.039  0.0742 -0.3193  0.4088
 5802SOL    HW128865   3.107   3.621   0.054  1.3773  0.4201  0.7074
 5802SOL    HW228866   3.118   3.479   0.102 -0.9355 -0.6799 -0.5681
 5803SOL     OW28867   3.399   4.653   9.428 -0.0821 -0.3848  0.6191
 5803SOL    HW128868   3.428   0.005   9.376  0.3303 -2.3265 -1.9691
 5803SOL    HW228869   3.341   4.698   9.489 -1.2965  0.4481 -1.1253
 5804SOL     OW28870   0.283   4.363  12.646 -0.0427 -0.3013  0.0685
 5804SOL    HW128871   0.315   4.451  12.627 -0.2609 -0.4202 -0.8477
 5804SOL    HW228872   0.194   4.383  12.676 -0.5074 -0.3728 -1.2241
 5805SOL     OW28873   0.007   3.671   9.326  0.1198  0.2664 -0.3326
 5805SOL    HW128874   0.026   3.594   9.271 -0.6488  0.1413 -0.4139
 5805SOL    HW228875   4.664   3.714   9.271  0.6021  0.0994 -1.0373
 5806SOL     OW28876   0.955   3.279   4.838 -0.1156  0.2436  0.0180
 5806SOL    HW128877   0.986   3.223   4.908 -0.0571  0.3976  0.1155
 5806SOL    HW228878   0.880   3.226   4.810 -0.0182  0.2867 -0.3221
 5807SOL     OW28879   3.873   1.049  13.230  0.3723  0.3039  0.3617
 5807SOL    HW128880   3.816   1.042  13.306 -1.2440 -1.7836 -1.0556
 5807SOL    HW228881   3.835   1.128  13.190 -2.0714 -0.5059  1.1100
 5808SOL     OW28882   0.311   1.345   4.164  0.3377 -0.1538  0.3026
 5808SOL    HW128883   0.293   1.318   4.074 -0.3047 -0.1695  0.4343
 5808SOL    HW228884   0.404   1.366   4.159  0.6349 -1.1032  1.7730
 5809SOL     OW28885   4.530   0.535   6.291  0.2334  0.6969  0.0535
 5809SOL    HW128886   4.549   0.493   6.375 -0.8994 -0.3985 -0.2420
 5809SOL    HW228887   4.435   0.539   6.286  0.0394 -0.2973  3.1131
 5810SOL     OW28888   3.476   2.558   9.206 -0.2704  0.4861  0.4698
 5810SOL    HW128889   3.463   2.562   9.301  2.6118 -0.8142  0.9075
 5810SOL    HW228890   3.528   2.478   9.201  0.6404  1.1420 -0.5182
 5811SOL     OW28891   0.499   4.102   2.677 -0.8134 -0.1255 -0.5462
 5811SOL    HW128892   0.578   4.137   2.718 -1.4372  1.1362 -0.4199
 5811SOL    HW228893   0.511   4.114   2.583 -1.8175  0.5084 -0.6013
 5812SOL     OW28894   3.070   1.149  11.645  0.0108  0.5366  0.9567
 5812SOL    HW128895   3.020   1.209  11.590  1.3327  2.2346  1.6160
 5812SOL    HW228896   3.059   1.070  11.593  1.7424  0.6953  0.3802
 5813SOL     OW28897   4.594   3.120   5.676 -0.1096  0.2004 -0.6794
 5813SOL    HW128898   4.654   3.176   5.726 -2.1527  0.8827  0.9954
 5813SOL    HW228899   4.647   3.041   5.668  0.3795  0.5943 -1.3409
 5814SOL     OW28900   0.689   1.665   4.288 -0.5755  0.4861  0.3912
 5814SOL    HW128901   0.606   1.618   4.285  1.7618 -3.7093 -0.4237
 5814SOL    HW228902   0.693   1.707   4.373  0.2883 -1.6770  1.4419
 5815SOL     OW28903   1.971   1.276   3.082  0.4196 -0.0724  1.2292
 5815SOL    HW128904   1.893   1.297   3.133 -1.1439 -1.2043 -0.6701
 5815SOL    HW228905   1.955   1.190   3.044  0.8143  0.6093 -0.5149
 5816SOL     OW28906   0.119   4.187   6.391 -0.2153 -0.2352 -0.1363
 5816SOL    HW128907   0.171   4.151   6.320 -0.6493 -0.6425 -0.2475
 5816SOL    HW228908   0.041   4.132   6.396  0.4899 -1.1963  0.3554
 5817SOL     OW28909   2.784   3.693   0.376  0.4908 -0.2485  0.8853
 5817SOL    HW128910   2.785   3.718   0.468 -0.7129  0.6465  0.6548
 5817SOL    HW228911   2.802   3.777   0.333 -0.2223 -0.9674 -0.8234
 5818SOL     OW28912   1.068   3.352   7.492 -0.3646 -0.3721 -0.3619
 5818SOL    HW128913   1.108   3.273   7.528 -1.5851 -0.6675  0.3723
 5818SOL    HW228914   1.049   3.324   7.402 -2.0637 -1.2807  0.2782
 5819SOL     OW28915   3.535   1.685  16.134 -0.2591 -0.0303 -0.3819
 5819SOL    HW128916   3.511   1.687  16.041  2.9741  1.2381 -1.1700
 5819SOL    HW228917   3.576   1.599  16.127  0.2053 -0.0247  2.2282
 5820SOL     OW28918   1.375   2.057  14.626 -0.0003 -0.2451  0.4747
 5820SOL    HW128919   1.380   2.133  14.569  0.2103 -0.0795  0.7193
 5820SOL    HW228920   1.317   2.001  14.573  1.1835 -1.1127  0.0829
 5821SOL     OW28921   1.767   3.508  10.103  0.0249 -0.0546  0.0995
 5821SOL    HW128922   1.836   3.442  10.112  0.6679  0.2986 -2.2584
 5821SOL    HW228923   1.783   3.574  10.170 -0.1831  2.1605 -2.0373
 5822SOL     OW28924   1.929   3.365   8.818 -0.1027 -0.2367  0.1797
 5822SOL    HW128925   1.988   3.439   8.797 -1.0887  0.7593  0.9368
 5822SOL    HW228926   1.992   3.294   8.805  0.3162  0.2014 -0.2150
 5823SOL     OW28927   3.492   3.376   2.298 -0.2448 -0.2229 -0.4390
 5823SOL    HW128928   3.515   3.360   2.207 -0.1082 -3.3622  0.1638
 5823SOL    HW228929   3.511   3.469   2.314 -1.9032 -0.0447  0.6045
 5824SOL     OW28930   2.236   2.345  15.997 -0.0800  0.2982 -0.1947
 5824SOL    HW128931   2.184   2.318  15.921 -0.7390  0.3926  0.2200
 5824SOL    HW228932   2.172   2.334  16.068 -0.0163 -1.3356 -0.3834
 5825SOL     OW28933   3.346   4.613   6.211 -0.4609  0.3999  0.0773
 5825SOL    HW128934   3.259   4.629   6.175 -1.0976  1.2910  1.9684
 5825SOL    HW228935   3.348   4.520   6.232  2.2836  0.5651  0.5304
 5826SOL     OW28936   3.094   2.859   7.983 -0.4728  0.4716  0.0182
 5826SOL    HW128937   3.178   2.821   7.955 -0.5064  0.3176  0.1306
 5826SOL    HW228938   3.084   2.922   7.911 -2.9536 -1.0192 -0.9183
 5827SOL     OW28939   3.721   1.793   2.283  0.5088 -0.0988 -0.1754
 5827SOL    HW128940   3.631   1.798   2.251  0.1528  2.4692  1.2417
 5827SOL    HW228941   3.710   1.759   2.372  3.3354 -0.5205  0.0324
 5828SOL     OW28942   3.219   1.025   4.690 -0.2793 -0.3545  0.0720
 5828SOL    HW128943   3.236   1.043   4.598 -0.5159 -0.4155  0.0152
 5828SOL    HW228944   3.279   1.087   4.731 -0.4278  0.4715 -0.9826
 5829SOL     OW28945   0.687   2.354  17.488 -0.3698 -0.1304  0.6137
 5829SOL    HW128946   0.678   2.288  17.419  2.0371  0.2060 -0.0165
 5829SOL    HW228947   0.760   2.316  17.536  0.9782  0.3738 -0.9973
 5830SOL     OW28948   1.179   2.533   8.641 -0.0836  0.3167  0.3620
 5830SOL    HW128949   1.142   2.619   8.621 -0.9336  0.2280  1.5203
 5830SOL    HW228950   1.152   2.481   8.565 -0.1793  1.5513 -0.4475
 5831SOL     OW28951   0.024   4.177   5.605  0.5898 -0.1178 -0.1677
 5831SOL    HW128952   4.684   4.106   5.591 -0.4411  0.9901 -1.1992
 5831SOL    HW228953   4.698   4.255   5.579  1.0653 -0.8995 -3.5168
 5832SOL     OW28954   0.137   4.387   3.086 -0.1590 -0.2674 -0.2111
 5832SOL    HW128955   0.187   4.434   3.020 -0.0162  0.1166  0.1694
 5832SOL    HW228956   0.206   4.338   3.130  2.1733  3.9390  0.7943
 5833SOL     OW28957   2.465   1.084   6.004  0.3317 -0.1989  0.4840
 5833SOL    HW128958   2.547   1.038   6.023  1.2627  1.6003  0.7473
 5833SOL    HW228959   2.501   1.135   5.932  1.3590  0.6116  1.5708
 5834SOL     OW28960   3.639   0.468   8.960 -0.5583  0.1581  0.1135
 5834SOL    HW128961   3.730   0.437   8.954 -1.2817 -1.9361  0.0629
 5834SOL    HW228962   3.620   0.481   9.053  0.5488  0.7800  0.2614
 5835SOL     OW28963   1.655   0.695   2.512  0.3687  0.2288 -0.3519
 5835SOL    HW128964   1.603   0.646   2.449  0.0001 -1.7027  1.4530
 5835SOL    HW228965   1.601   0.691   2.591  0.5404  1.5072 -0.1619
 5836SOL     OW28966   4.024   1.267   5.611  0.4792 -0.6485 -0.6332
 5836SOL    HW128967   3.963   1.254   5.539 -0.2527 -3.3895  0.4974
 5836SOL    HW228968   4.077   1.330   5.562  0.9249 -0.1220  0.5020
 5837SOL     OW28969   3.122   4.194   6.014 -0.4472 -0.7551  0.0611
 5837SOL    HW128970   3.063   4.123   6.039 -1.7189  0.9710  1.9976
 5837SOL    HW228971   3.195   4.153   5.969  1.5254  0.1480  2.4409
 5838SOL     OW28972   1.317   4.301   2.590 -0.3325  0.3031 -0.0582
 5838SOL    HW128973   1.248   4.315   2.526  0.4815 -0.4889 -1.1079
 5838SOL    HW228974   1.354   4.389   2.597  0.5993 -0.0036 -1.1559
 5839SOL     OW28975   2.358   1.917   3.984 -0.2164  0.1139  0.2301
 5839SOL    HW128976   2.317   1.991   4.030 -0.6552  0.3765 -0.5749
 5839SOL    HW228977   2.279   1.881   3.943  0.4526  0.2741 -1.1907
 5840SOL     OW28978   0.790   4.409   3.794 -0.3626  0.9541  0.3414
 5840SOL    HW128979   0.874   4.441   3.763 -0.9130 -0.9845 -3.0849
 5840SOL    HW228980   0.728   4.431   3.725  0.3622 -0.8352 -0.8558
 5841SOL     OW28981   2.985   3.811   3.036 -0.4871  0.1739  0.0142
 5841SOL    HW128982   2.962   3.900   3.010 -2.2944 -0.3466 -0.1744
 5841SOL    HW228983   2.960   3.819   3.128  0.0160  0.2130  0.1466
 5842SOL     OW28984   3.179   2.824   4.135  0.5602  0.2715  0.2069
 5842SOL    HW128985   3.134   2.906   4.154 -1.9124 -0.7660 -1.2644
 5842SOL    HW228986   3.195   2.834   4.041 -1.1763  4.3761  0.3632
 5843SOL     OW28987   2.263   0.305   3.930  0.0301  0.5702  0.2249
 5843SOL    HW128988   2.337   0.312   3.990  0.1575  2.0148 -0.0989
 5843SOL    HW228989   2.324   0.296   3.857 -1.0095 -0.3759 -0.5354
 5844SOL     OW28990   3.409   0.181   6.795  0.3727 -0.2057  0.0833
 5844SOL    HW128991   3.389   0.195   6.887  1.0908 -0.4034  0.2683
 5844SOL    HW228992   3.458   0.262   6.779 -0.9819  0.7995  1.0682
 5845SOL     OW28993   0.747   2.188   2.285 -0.5996 -0.0896 -0.2118
 5845SOL    HW128994   0.730   2.227   2.200 -1.5116 -0.6685 -0.2972
 5845SOL    HW228995   0.822   2.130   2.272  0.3667  0.7359  1.7257
 5846SOL     OW28996   1.076   0.256   3.652 -0.3120  0.1200 -0.3106
 5846SOL    HW128997   1.051   0.200   3.578  0.9776 -0.6426 -0.1509
 5846SOL    HW228998   1.070   0.202   3.730  1.4396  1.8166  1.0013
 5847SOL     OW28999   3.010   4.407   1.945 -0.7818  1.1781  0.6730
 5847SOL    HW129000   2.991   4.334   2.004  0.5448 -0.3982 -0.8683
 5847SOL    HW229001   2.924   4.419   1.904 -0.9862  1.5184  1.2004
 5848SOL     OW29002   2.486   0.967   0.920 -0.0982 -0.7839  0.5940
 5848SOL    HW129003   2.418   1.018   0.964 -0.3453  1.6511 -2.6246
 5848SOL    HW229004   2.420   0.904   0.890  0.0014  0.6341 -2.6143
 5849SOL     OW29005   0.680   1.643  13.728 -0.6875 -0.5539  0.4619
 5849SOL    HW129006   0.587   1.662  13.738 -0.7829 -1.0782  0.6054
 5849SOL    HW229007   0.713   1.727  13.697  0.2442 -1.8905 -2.1507
 5850SOL     OW29008   3.042   2.484   7.310  0.2851  0.0745 -0.5285
 5850SOL    HW129009   3.005   2.541   7.243  0.9593  1.5105  0.3245
 5850SOL    HW229010   3.062   2.412   7.250 -0.5586 -0.9347  0.4156
 5851SOL     OW29011   4.626   3.565   8.438  0.6851  0.0406 -0.0882
 5851SOL    HW129012   4.548   3.566   8.382  1.0133 -0.5247 -0.5523
 5851SOL    HW229013   4.603   3.623   8.511 -1.7052 -1.5105  0.3904
 5852SOL     OW29014   3.690   1.205   7.469 -0.1440  0.2517 -0.2462
 5852SOL    HW129015   3.671   1.221   7.376  1.4356  2.1529 -0.2368
 5852SOL    HW229016   3.642   1.276   7.512  4.1907  1.9459  1.7734
 5853SOL     OW29017   1.053   4.470   8.104  0.5175  0.2451  0.1233
 5853SOL    HW129018   1.109   4.418   8.047 -0.5669 -0.0912 -0.6307
 5853SOL    HW229019   1.124   4.528   8.130  2.0635  0.3200 -4.2927
 5854SOL     OW29020   3.222   1.184  13.279  0.1757 -0.2855  0.1378
 5854SOL    HW129021   3.143   1.235  13.297  1.6500  2.1942 -0.3865
 5854SOL    HW229022   3.199   1.137  13.198  1.3539  1.8229 -1.4121
 5855SOL     OW29023   4.220   4.480   6.618 -0.0569  0.4150  0.3426
 5855SOL    HW129024   4.139   4.442   6.584  0.8653 -2.1213  1.0297
 5855SOL    HW229025   4.182   4.528   6.692 -1.4744 -0.1195 -0.0246
 5856SOL     OW29026   2.230   4.569  15.399 -0.3577 -0.1603  0.0627
 5856SOL    HW129027   2.255   4.509  15.469  0.1354 -0.2935 -0.2265
 5856SOL    HW229028   2.311   4.621  15.398  0.7362 -1.8690 -1.7085
 5857SOL     OW29029   2.961   1.126   6.869 -0.2330  0.2434 -0.1905
 5857SOL    HW129030   2.903   1.202   6.860  1.5835  1.6506 -0.1843
 5857SOL    HW229031   2.992   1.135   6.959  1.6023 -2.3115 -0.5535
 5858SOL     OW29032   3.628   2.231  14.639 -0.2826  0.4902  0.9115
 5858SOL    HW129033   3.679   2.263  14.714 -0.3092  3.7454 -0.4264
 5858SOL    HW229034   3.552   2.199  14.687 -0.5552 -1.1506 -0.6334
 5859SOL     OW29035   0.413   3.751  17.525 -0.0130 -0.0695  0.0928
 5859SOL    HW129036   0.458   3.787  17.449 -1.0934  1.0025 -0.0469
 5859SOL    HW229037   0.381   3.664  17.503  0.8831 -0.6454  1.0761
 5860SOL     OW29038   4.237   0.308   5.335  0.3337  0.1573  0.4411
 5860SOL    HW129039   4.304   0.240   5.331 -0.4156 -0.6040  0.8692
 5860SOL    HW229040   4.161   0.279   5.285  1.6934 -1.9174 -0.3958
 5861SOL     OW29041   3.981   0.311  13.194  0.1631 -0.0135  0.1878
 5861SOL    HW129042   3.917   0.241  13.213 -0.0036 -0.4490 -2.0318
 5861SOL    HW229043   3.925   0.388  13.204  1.5938  0.7027  2.5866
 5862SOL     OW29044   0.719   2.404   5.181 -0.7726  0.0490 -0.3648
 5862SOL    HW129045   0.675   2.409   5.266  0.1803 -1.0436  0.1778
 5862SOL    HW229046   0.789   2.347   5.213 -0.8015  0.7979  1.0298
 5863SOL     OW29047   1.094   1.921   7.976  0.1693 -0.2894 -0.1948
 5863SOL    HW129048   1.145   1.893   7.900 -0.5566 -0.1664 -0.7393
 5863SOL    HW229049   1.126   2.011   7.984 -1.2146  0.1999 -0.0025
 5864SOL     OW29050   1.916   3.146  14.922 -0.6153 -0.3534 -0.2743
 5864SOL    HW129051   1.854   3.084  14.883  0.4961 -0.7502 -1.4180
 5864SOL    HW229052   1.889   3.131  15.012 -0.7016 -0.7291 -0.3640
 5865SOL     OW29053   0.528   1.442  11.943 -0.1514 -0.0405  0.1053
 5865SOL    HW129054   0.540   1.537  11.935 -0.1737 -0.0191  0.3329
 5865SOL    HW229055   0.511   1.426  12.036  0.3671  1.2961  0.4311
 5866SOL     OW29056   1.025   2.496   6.862  0.2743 -0.5688  0.3870
 5866SOL    HW129057   1.076   2.417   6.843 -0.4945 -0.1927 -3.2132
 5866SOL    HW229058   1.020   2.480   6.956  0.7687 -1.5007  0.2490
 5867SOL     OW29059   2.983   2.523   7.939 -0.0693 -0.2917  0.6997
 5867SOL    HW129060   3.029   2.446   7.973  1.8571  1.4895  2.1736
 5867SOL    HW229061   3.014   2.518   7.849  0.7300  0.6090  0.9156
 5868SOL     OW29062   0.418   2.944   6.119 -0.1132  0.2084  0.2775
 5868SOL    HW129063   0.452   2.923   6.206  1.5676 -2.4100 -1.0112
 5868SOL    HW229064   0.441   3.035   6.102 -0.0754 -0.2770 -2.1565
 5869SOL     OW29065   4.693   4.480   1.082  0.1353  0.1066 -0.8535
 5869SOL    HW129066   4.654   4.440   1.005 -0.1342  1.1746 -1.2709
 5869SOL    HW229067   0.023   4.552   1.047  1.3615 -0.7759 -0.8230
 5870SOL     OW29068   0.739   1.578  15.834 -0.0111  0.3514  0.4797
 5870SOL    HW129069   0.689   1.622  15.902  0.0353  0.2194  0.5985
 5870SOL    HW229070   0.744   1.491  15.874  4.8315  1.1827  1.7690
 5871SOL     OW29071   0.479   1.632  11.433 -0.1345 -0.0608  0.2246
 5871SOL    HW129072   0.437   1.604  11.515  0.5589 -1.1736  0.2071
 5871SOL    HW229073   0.470   1.546  11.390  1.7895 -0.4628  0.6426
 5872SOL     OW29074   2.644   2.912   4.027 -0.2753 -0.3512  0.2647
 5872SOL    HW129075   2.694   2.928   4.108 -0.2542  1.9011 -0.1880
 5872SOL    HW229076   2.705   2.945   3.961 -0.1375 -0.0816  0.5262
 5873SOL     OW29077   3.876   0.432   8.180 -0.0013 -0.2443 -0.1566
 5873SOL    HW129078   3.946   0.476   8.228  0.5072  0.3758 -1.4778
 5873SOL    HW229079   3.867   0.493   8.107  0.6856  1.5817  1.2567
 5874SOL     OW29080   4.046   1.864   9.557 -0.1839  0.3451  0.0037
 5874SOL    HW129081   4.106   1.869   9.482  1.8197  1.6874  1.6969
 5874SOL    HW229082   4.097   1.907   9.626 -1.6784  2.0926  0.0141
 5875SOL     OW29083   1.480   0.051   2.233 -0.2975 -0.0634  0.8918
 5875SOL    HW129084   1.515   0.131   2.194 -0.9509 -1.7516 -3.1443
 5875SOL    HW229085   1.447   0.082   2.317 -2.0362 -0.8295  0.4897
 5876SOL     OW29086   0.670   2.831   0.635  0.3742 -0.0917 -0.0173
 5876SOL    HW129087   0.658   2.815   0.541 -0.5060  6.0984 -0.9497
 5876SOL    HW229088   0.580   2.851   0.659  0.8804  0.8274  1.1058
 5877SOL     OW29089   0.056   3.338  13.474  0.0124  0.9042  0.2524
 5877SOL    HW129090   0.072   3.268  13.536  0.4509  0.7873  0.0065
 5877SOL    HW229091   4.684   3.336  13.458  0.1063  0.5767 -0.2610
 5878SOL     OW29092   2.946   0.646   8.175  1.2772 -0.8180  0.2016
 5878SOL    HW129093   2.898   0.701   8.113 -1.8814 -1.6298  1.9276
 5878SOL    HW229094   3.016   0.620   8.115  1.7710 -0.5555  0.6554
 5879SOL     OW29095   0.562   2.790   5.572 -0.1038  0.5444  0.3614
 5879SOL    HW129096   0.483   2.736   5.571 -1.6629  2.7899  0.5558
 5879SOL    HW229097   0.612   2.738   5.635 -0.5587 -0.8134 -0.3987
 5880SOL     OW29098   3.374   1.671  15.891 -0.2858 -0.1164  0.3214
 5880SOL    HW129099   3.376   1.680  15.796 -1.6038 -1.7052  0.1387
 5880SOL    HW229100   3.280   1.685  15.905  0.1749  2.2431  1.0144
 5881SOL     OW29101   0.598   2.229   5.784  0.4391  0.5671 -0.0867
 5881SOL    HW129102   0.590   2.206   5.691  1.2302  2.1556 -0.5430
 5881SOL    HW229103   0.505   2.232   5.805  0.8101  1.2752  1.4634
 5882SOL     OW29104   0.329   4.252   8.941  0.1250  0.4029  0.5886
 5882SOL    HW129105   0.236   4.270   8.957  0.2508  1.0277  0.6083
 5882SOL    HW229106   0.360   4.338   8.968 -2.3625  1.8342 -1.1129
 5883SOL     OW29107   3.131   1.804  17.480  0.5542 -0.2627 -0.5134
 5883SOL    HW129108   3.065   1.872  17.470  0.2279 -0.7088 -1.4846
 5883SOL    HW229109   3.199   1.840  17.422 -1.4298  1.9297 -1.4846
 5884SOL     OW29110   0.093   0.113   6.835 -0.4100 -0.1093 -0.2729
 5884SOL    HW129111   0.146   0.106   6.914 -0.2780  1.9148 -0.1748
 5884SOL    HW229112   0.123   0.041   6.780  2.3687  0.1991  0.7954
 5885SOL     OW29113   0.618   0.112   2.786  0.4965 -0.0104 -0.3494
 5885SOL    HW129114   0.687   0.178   2.782 -0.0620  0.7248  1.8326
 5885SOL    HW229115   0.660   0.035   2.825  1.2690  0.5464 -0.0768
 5886SOL     OW29116   3.425   4.360   6.118 -0.1137  0.5997 -0.4395
 5886SOL    HW129117   3.410   4.272   6.083 -0.1177 -0.3466  1.9702
 5886SOL    HW229118   3.494   4.385   6.056 -1.4371  0.3146 -2.0253
 5887SOL     OW29119   2.735   1.007   2.436 -0.3430 -0.1280 -0.2299
 5887SOL    HW129120   2.782   1.073   2.385 -1.6814  1.5256  0.6878
 5887SOL    HW229121   2.800   0.937   2.428  0.1283  0.5864 -2.7084
 5888SOL     OW29122   2.803   0.049  13.666 -0.1533 -0.0197 -0.1283
 5888SOL    HW129123   2.860   4.695  13.669 -0.0633  0.0012 -1.4148
 5888SOL    HW229124   2.849   0.097  13.597  0.1724 -0.4419 -0.2067
 5889SOL     OW29125   2.678   0.457   1.991  0.2005 -0.2612 -0.0116
 5889SOL    HW129126   2.749   0.511   1.954 -1.0601  1.4718  0.1406
 5889SOL    HW229127   2.681   0.478   2.084 -1.0895 -1.6310  0.3298
 5890SOL     OW29128   4.166   0.421   4.708  0.0390 -0.2015  0.3865
 5890SOL    HW129129   4.187   0.334   4.743  1.8477  0.2467  0.4287
 5890SOL    HW229130   4.184   0.464   4.792 -0.6022 -1.1517  1.0144
 5891SOL     OW29131   4.171   3.933  11.618 -0.2256  0.0664  0.0719
 5891SOL    HW129132   4.159   3.991  11.694 -0.0193  0.8470 -0.4938
 5891SOL    HW229133   4.083   3.896  11.624 -0.5160  0.5639 -1.3091
 5892SOL     OW29134   2.228   4.240   8.223  0.6354 -0.1012 -0.1488
 5892SOL    HW129135   2.269   4.248   8.137  0.2132  2.4845 -0.1023
 5892SOL    HW229136   2.208   4.332   8.240  2.3285  0.4053 -0.9157
 5893SOL     OW29137   2.653   4.290   7.957  0.5232  0.0988 -0.1956
 5893SOL    HW129138   2.693   4.205   7.974 -0.4523 -0.4087 -0.3962
 5893SOL    HW229139   2.721   4.339   8.004  0.3612  1.7855 -1.7104
 5894SOL     OW29140   0.699   3.355   7.617  0.0116  0.4588 -0.0114
 5894SOL    HW129141   0.672   3.447   7.619 -3.0456 -0.4004 -1.3144
 5894SOL    HW229142   0.793   3.366   7.633 -0.0361 -0.5464  0.9142
 5895SOL     OW29143   2.344   1.884   6.272 -0.2495  0.1026 -0.0833
 5895SOL    HW129144   2.434   1.916   6.269  0.2391 -1.4142 -1.7365
 5895SOL    HW229145   2.345   1.842   6.358 -1.9788 -0.6314 -0.4200
 5896SOL     OW29146   3.931   2.425   6.212  0.0259 -0.4407  0.3687
 5896SOL    HW129147   3.906   2.516   6.227 -2.9286 -0.7015 -2.9474
 5896SOL    HW229148   3.981   2.415   6.293  0.6527 -0.7815 -0.0626
 5897SOL     OW29149   1.100   2.515   4.261  0.4784  0.6735 -0.2500
 5897SOL    HW129150   1.187   2.512   4.301 -0.1253 -0.8431  0.9195
 5897SOL    HW229151   1.046   2.445   4.298 -1.1780  2.1088  0.0465
 5898SOL     OW29152   2.472   2.277  12.141  0.0505 -0.0373  0.0859
 5898SOL    HW129153   2.387   2.246  12.110 -0.2212  1.4918 -0.6834
 5898SOL    HW229154   2.517   2.291  12.058 -0.0333  0.5334  0.1321
 5899SOL     OW29155   2.702   2.845   2.087 -0.0836 -0.4926 -0.2364
 5899SOL    HW129156   2.758   2.902   2.141 -1.2143  1.9050 -1.6144
 5899SOL    HW229157   2.706   2.767   2.143 -0.1521 -1.1367 -1.1319
 5900SOL     OW29158   1.257   1.703  17.397 -0.6149 -0.3245  0.2379
 5900SOL    HW129159   1.243   1.609  17.383 -1.1910 -0.0899 -0.7866
 5900SOL    HW229160   1.313   1.701  17.474 -0.4176  0.0390  0.1005
 5901SOL     OW29161   4.374   3.290   4.147  0.2161  0.0585 -0.1473
 5901SOL    HW129162   4.306   3.237   4.106  1.5647 -0.8653 -1.1666
 5901SOL    HW229163   4.316   3.321   4.217  0.2849  2.1900 -1.0305
 5902SOL     OW29164   0.809   3.042   2.333  0.3301  0.5512 -0.1089
 5902SOL    HW129165   0.733   3.084   2.292 -1.1864 -0.1718  1.8949
 5902SOL    HW229166   0.774   2.956   2.355 -1.3168  0.6789 -2.2479
 5903SOL     OW29167   4.532   4.602   8.842 -0.3784 -0.6605 -0.2665
 5903SOL    HW129168   4.608   4.653   8.870  0.3758 -0.8731 -1.9216
 5903SOL    HW229169   4.581   4.521   8.829 -1.4171 -0.8687 -3.1075
 5904SOL     OW29170   4.186   1.413  13.887  0.1039 -0.1154 -0.1893
 5904SOL    HW129171   4.107   1.460  13.861  0.0138  0.1779  0.6352
 5904SOL    HW229172   4.225   1.399  13.800  1.1648 -1.7169  0.5392
 5905SOL     OW29173   1.469   0.928   8.247  0.2694 -0.3584 -0.0757
 5905SOL    HW129174   1.442   1.019   8.233  1.7984 -0.0540 -1.0705
 5905SOL    HW229175   1.522   0.946   8.324 -0.7039 -0.2545  0.5651
 5906SOL     OW29176   1.006   4.183   9.366  0.2461  0.3534  1.0386
 5906SOL    HW129177   0.963   4.106   9.404  1.2726 -0.8255 -0.1882
 5906SOL    HW229178   0.929   4.240   9.368  0.3908  0.5873 -0.5657
 5907SOL     OW29179   3.072   2.449   3.450  0.1806  0.0567 -0.2195
 5907SOL    HW129180   3.145   2.505   3.425  0.3196  0.9166  2.0786
 5907SOL    HW229181   3.113   2.367   3.424  0.2732 -0.5303  1.7349
 5908SOL     OW29182   1.555   3.400   7.709  0.1634  0.2827 -0.2906
 5908SOL    HW129183   1.639   3.395   7.664  1.0723  1.1718  1.2697
 5908SOL    HW229184   1.502   3.430   7.636 -0.4222 -1.9597 -0.7833
 5909SOL     OW29185   3.399   3.311   8.373 -0.2694 -0.1520 -0.3092
 5909SOL    HW129186   3.354   3.365   8.438 -0.1335  2.0001 -2.0271
 5909SOL    HW229187   3.327   3.264   8.332 -1.1915 -0.5971  1.8272
 5910SOL     OW29188   3.306   4.067  16.314  0.0570  0.1149  0.1085
 5910SOL    HW129189   3.340   4.003  16.252  0.9277  0.2193  0.4713
 5910SOL    HW229190   3.235   4.011  16.344 -1.1157  1.7001  0.2822
 5911SOL     OW29191   3.496   0.069   3.737  0.6044  0.3280  0.6343
 5911SOL    HW129192   3.409   0.098   3.710  0.9278 -0.4206 -1.2009
 5911SOL    HW229193   3.502   4.708   3.690  0.6414  0.1509  0.9554
 5912SOL     OW29194   0.857   2.617  15.118 -0.2292  0.2047  0.0179
 5912SOL    HW129195   0.801   2.695  15.118  0.0833  0.4198  0.5701
 5912SOL    HW229196   0.846   2.593  15.210  0.3336 -1.1623 -0.2659
 5913SOL     OW29197   1.467   2.936   9.652 -0.3712 -0.0300  0.4709
 5913SOL    HW129198   1.493   2.871   9.718  0.6843  0.3642  0.4491
 5913SOL    HW229199   1.476   3.013   9.709  1.9516 -0.1338  0.2686
 5914SOL     OW29200   0.984   2.962   3.603 -0.8613  0.3051  0.3561
 5914SOL    HW129201   0.896   2.992   3.627 -1.2711 -1.9765  1.7291
 5914SOL    HW229202   1.016   2.907   3.674  2.7437  1.7476 -0.1293
 5915SOL     OW29203   4.150   1.006  13.163  0.5144  0.9496  0.0318
 5915SOL    HW129204   4.061   1.041  13.166 -0.1410 -1.0054  4.0430
 5915SOL    HW229205   4.160   1.010  13.068  2.0167 -0.8458  0.1042
 5916SOL     OW29206   2.039   0.220  10.913 -0.0277 -0.1596 -0.5509
 5916SOL    HW129207   2.015   0.284  10.980 -0.2151 -2.2342  1.3573
 5916SOL    HW229208   2.065   0.284  10.847  0.7672 -0.1925 -0.2600
 5917SOL     OW29209   2.014   1.583   1.095 -0.0050  0.3844 -0.6594
 5917SOL    HW129210   1.976   1.662   1.057 -1.5769 -1.1910 -2.4207
 5917SOL    HW229211   1.980   1.574   1.184  1.9000  0.2066  0.0466
 5918SOL     OW29212   0.838   2.719   6.885  0.0689  0.2969  0.5356
 5918SOL    HW129213   0.910   2.658   6.904 -1.6237 -1.3704  1.5289
 5918SOL    HW229214   0.886   2.777   6.824  0.0284 -0.1993  0.0349
 5919SOL     OW29215   1.478   0.581   4.073 -0.0347 -0.4242  0.1109
 5919SOL    HW129216   1.526   0.656   4.107  1.2997 -1.1450 -0.2134
 5919SOL    HW229217   1.507   0.578   3.982 -0.4977  0.7368 -0.0671
 5920SOL     OW29218   3.399   3.022   0.970 -0.0192  0.2570  0.3163
 5920SOL    HW129219   3.305   3.010   0.962  0.1943 -0.3692 -1.3494
 5920SOL    HW229220   3.403   3.116   0.986 -0.6201  0.4529 -0.7191
 5921SOL     OW29221   0.574   4.082   0.146  1.2316  0.0102 -0.3125
 5921SOL    HW129222   0.541   4.172   0.141 -1.0674 -0.7464  1.2169
 5921SOL    HW229223   0.594   4.053   0.057  2.3441 -0.1501 -0.0174
 5922SOL     OW29224   0.030   4.390   4.987  0.3694 -0.3190 -0.5312
 5922SOL    HW129225   0.045   4.334   4.910  0.3519 -2.1351  0.7875
 5922SOL    HW229226   4.694   4.340   5.044 -1.4145  1.5637 -0.7454
 5923SOL     OW29227   3.832   0.521   3.460  0.2078 -0.1521  0.3793
 5923SOL    HW129228   3.925   0.537   3.445  0.0480  0.1667 -0.2825
 5923SOL    HW229229   3.814   0.467   3.383 -1.0479  0.5419  0.1856
 5924SOL     OW29230   3.781   1.468  13.896 -0.6177 -0.0749 -0.2194
 5924SOL    HW129231   3.865   1.502  13.866  0.2172 -1.3991  0.5682
 5924SOL    HW229232   3.809   1.422  13.976 -0.2239  0.2112 -0.1934
 5925SOL     OW29233   2.208   1.730   9.507  0.1335  0.2313  0.3731
 5925SOL    HW129234   2.136   1.677   9.473  1.3494 -1.2341  0.1179
 5925SOL    HW229235   2.184   1.761   9.594  1.6189 -1.3245  1.3363
 5926SOL     OW29236   3.492   3.908   4.040 -0.2261 -0.2851  0.2454
 5926SOL    HW129237   3.481   3.997   4.074  1.7350 -1.2217  3.2736
 5926SOL    HW229238   3.404   3.871   4.050 -1.1037  2.2990  1.9673
 5927SOL     OW29239   0.904   0.883   6.057 -0.1163  0.2176  0.7574
 5927SOL    HW129240   0.954   0.878   5.975 -1.0159 -0.4628  0.2451
 5927SOL    HW229241   0.819   0.910   6.023  0.3693  1.2030  0.3409
 5928SOL     OW29242   0.034   2.377   3.314 -0.1957  0.3931 -0.2442
 5928SOL    HW129243   0.099   2.430   3.268 -1.0097 -0.2018 -2.0926
 5928SOL    HW229244   0.032   2.297   3.260  1.4128 -0.2168  0.5830
 5929SOL     OW29245   0.492   4.702   8.584  0.1296  0.0928 -0.3636
 5929SOL    HW129246   0.433   0.049   8.613 -0.4648 -0.3197 -0.5908
 5929SOL    HW229247   0.494   0.003   8.492  2.2448 -0.2459 -0.4159
 5930SOL     OW29248   0.166   2.010   7.892 -0.3181  0.2472  0.2406
 5930SOL    HW129249   0.203   2.095   7.866  0.2452  0.1861  0.8616
 5930SOL    HW229250   0.244   1.955   7.899  0.6843  1.3279 -2.2293
 5931SOL     OW29251   2.510   2.962   6.330 -0.0083 -0.1873 -0.2779
 5931SOL    HW129252   2.577   2.961   6.398 -0.5451  0.3665  0.2662
 5931SOL    HW229253   2.426   2.930   6.364 -0.5047  0.0026 -1.3082
 5932SOL     OW29254   0.104   4.280   9.257 -0.3158 -0.0367  0.4721
 5932SOL    HW129255   0.087   4.313   9.169  0.7263  0.3687  0.4239
 5932SOL    HW229256   0.131   4.188   9.246 -2.8112 -0.6854 -0.3119
 5933SOL     OW29257   1.853   2.308   9.188  0.3178  0.1298  0.2420
 5933SOL    HW129258   1.856   2.217   9.215  0.8346  0.4120  1.1334
 5933SOL    HW229259   1.829   2.293   9.096  1.1916  3.1056 -0.5039
 5934SOL     OW29260   1.712   3.641   3.165 -0.6301 -0.0343  0.0860
 5934SOL    HW129261   1.705   3.725   3.212 -1.1329 -0.7628  1.2978
 5934SOL    HW229262   1.795   3.604   3.194 -0.4753  2.3736  2.7646
 5935SOL     OW29263   1.118   4.685   8.876  0.5071  0.1218 -0.1214
 5935SOL    HW129264   1.097   4.695   8.969  0.6160 -3.3581  0.2522
 5935SOL    HW229265   1.163   0.046   8.865 -1.5674  1.0186 -1.9851
 5936SOL     OW29266   2.836   1.729   5.851  0.6337 -0.1002  0.0040
 5936SOL    HW129267   2.856   1.636   5.844 -1.3227 -0.3712 -2.1129
 5936SOL    HW229268   2.784   1.726   5.931  0.0802 -1.6195 -0.4103
 5937SOL     OW29269   2.582   2.273   1.249 -0.2604  0.0602  0.1587
 5937SOL    HW129270   2.645   2.289   1.179  0.7157 -0.7363  0.8305
 5937SOL    HW229271   2.545   2.191   1.216  1.8905 -0.3192 -1.3334
 5938SOL     OW29272   1.562   2.885   7.050 -0.3073  0.1589  0.0555
 5938SOL    HW129273   1.466   2.890   7.051 -0.2717  1.0535 -1.2539
 5938SOL    HW229274   1.574   2.862   7.142  0.4023 -1.0036 -0.3314
 5939SOL     OW29275   2.139   3.692   5.625  0.4920 -0.0251  0.8299
 5939SOL    HW129276   2.080   3.731   5.561  0.0409 -1.0487  0.6312
 5939SOL    HW229277   2.217   3.749   5.618 -0.5820  1.5353  1.5718
 5940SOL     OW29278   2.485   0.382   4.057 -0.1332 -0.1825  0.6453
 5940SOL    HW129279   2.442   0.418   4.135 -0.0973  1.0667  0.0904
 5940SOL    HW229280   2.580   0.388   4.065 -0.3394  2.8753  0.7051
 5941SOL     OW29281   4.712   0.260   3.287  0.3786 -0.9006  0.0181
 5941SOL    HW129282   4.675   0.348   3.286 -0.8190 -1.4029  1.8244
 5941SOL    HW229283   4.642   0.210   3.245 -0.4835  0.9841 -0.7814
 5942SOL     OW29284   4.179   2.166  10.090 -0.0964 -0.1886 -0.1464
 5942SOL    HW129285   4.247   2.099  10.100 -0.7309 -1.0920 -1.7968
 5942SOL    HW229286   4.229   2.222  10.032  0.4026 -1.2269 -0.7266
 5943SOL     OW29287   3.236   1.979   2.632  0.2620  0.0348  0.6399
 5943SOL    HW129288   3.234   2.058   2.687  1.4215  0.5005  0.0138
 5943SOL    HW229289   3.312   1.999   2.578  0.0961  0.4324  0.5501
 5944SOL     OW29290   2.855   1.099  11.239 -0.1651 -0.1596  0.4053
 5944SOL    HW129291   2.837   1.117  11.147  1.4226  3.7765  0.8808
 5944SOL    HW229292   2.886   1.184  11.269 -2.0190  0.3778  0.7566
 5945SOL     OW29293   0.370   1.251   2.803  0.0216 -0.2655  0.5862
 5945SOL    HW129294   0.431   1.182   2.779 -1.4521 -0.8851 -1.3666
 5945SOL    HW229295   0.399   1.268   2.893 -1.1267 -2.7181  1.4246
 5946SOL     OW29296   0.036   3.308   5.532  0.0678  0.4041 -0.1412
 5946SOL    HW129297   4.663   3.304   5.539  0.0568  2.2600  0.7371
 5946SOL    HW229298   0.029   3.325   5.438 -2.1051 -1.5858 -0.3400
 5947SOL     OW29299   3.671   2.385   7.820 -0.3004  0.3343  0.2074
 5947SOL    HW129300   3.682   2.325   7.894 -2.7087 -1.9677 -1.2906
 5947SOL    HW229301   3.708   2.327   7.753 -2.5547 -1.4702  0.5299
 5948SOL     OW29302   0.985   0.786   6.328  0.0499  0.2562 -0.0502
 5948SOL    HW129303   0.962   0.823   6.243  3.2151  0.8466 -0.6658
 5948SOL    HW229304   0.906   0.741   6.357  0.3981 -0.6497 -0.5140
 5949SOL     OW29305   1.174   1.499   5.296 -0.7320  0.1698  0.1991
 5949SOL    HW129306   1.193   1.406   5.314 -1.3403 -0.0700 -0.4002
 5949SOL    HW229307   1.124   1.520   5.375  1.1288  2.1622  0.8509
 5950SOL     OW29308   2.446   4.691   4.185 -0.5620  0.4156  0.1578
 5950SOL    HW129309   2.461   0.045   4.128  0.0018 -0.9626 -1.5500
 5950SOL    HW229310   2.509   4.706   4.256  1.7497  0.7220 -1.9198
 5951SOL     OW29311   0.553   1.365   5.907 -1.0039  0.3058  0.4124
 5951SOL    HW129312   0.530   1.455   5.883 -1.6313 -0.2058 -0.9266
 5951SOL    HW229313   0.523   1.313   5.832 -2.6016  0.7261  0.7560
 5952SOL     OW29314   4.685   1.079   4.003 -0.2899 -0.4847  0.0074
 5952SOL    HW129315   0.016   1.000   4.005  3.9266  2.4157 -0.3014
 5952SOL    HW229316   4.686   1.108   4.095 -0.3510  0.9310 -0.4372
 5953SOL     OW29317   4.171   1.558  12.891  0.3682 -0.0035 -0.4207
 5953SOL    HW129318   4.149   1.650  12.910  0.1304 -0.0341 -0.5437
 5953SOL    HW229319   4.128   1.565  12.806 -0.8227  2.2865  0.3651
 5954SOL     OW29320   3.352   2.008   4.885  0.1213 -0.0347  0.5148
 5954SOL    HW129321   3.398   2.090   4.901  0.9652 -0.1507 -1.3412
 5954SOL    HW229322   3.377   1.998   4.793  1.5826 -0.9538  1.0086
 5955SOL     OW29323   2.056   2.477  11.615  0.9393  0.1327  0.0077
 5955SOL    HW129324   2.000   2.484  11.538  0.8933 -0.2661  0.0023
 5955SOL    HW229325   2.024   2.559  11.652  0.9430  0.1064  0.0690
 5956SOL     OW29326   1.597   4.526   1.830  0.0319 -0.4213  0.1438
 5956SOL    HW129327   1.589   4.471   1.908 -0.6105 -1.9825 -1.0021
 5956SOL    HW229328   1.639   4.606   1.860 -1.8544  0.2379  1.0591
 5957SOL     OW29329   0.100   2.607   0.930 -0.1462 -0.0112  0.0130
 5957SOL    HW129330   0.036   2.536   0.933 -1.5825  1.3439  1.4875
 5957SOL    HW229331   0.048   2.686   0.943  1.5856  1.1353  0.0287
 5958SOL     OW29332   3.341   1.282   3.147  0.5345  0.0868  0.1585
 5958SOL    HW129333   3.434   1.281   3.170  0.4225 -0.2151  0.5999
 5958SOL    HW229334   3.304   1.340   3.212  0.9206  0.2926  0.1937
 5959SOL     OW29335   2.509   3.541   3.838 -0.5410  0.1281 -0.3898
 5959SOL    HW129336   2.548   3.456   3.817  1.2712  0.9993 -0.5640
 5959SOL    HW229337   2.423   3.521   3.874  1.0520 -1.4026  2.5487
 5960SOL     OW29338   4.207   2.368   6.874 -0.2722 -0.0973 -0.3960
 5960SOL    HW129339   4.151   2.307   6.923 -1.0682  0.0898 -1.0642
 5960SOL    HW229340   4.287   2.324   6.902 -0.4955 -0.9736 -1.1179
 5961SOL     OW29341   0.255   0.378  12.794  0.1653 -0.2171 -0.2025
 5961SOL    HW129342   0.243   0.444  12.863 -1.1982  0.0517 -0.6989
 5961SOL    HW229343   0.338   0.408  12.757  0.4032 -1.1369 -0.4305
 5962SOL     OW29344   0.594   3.887   1.077 -0.0198 -0.0732 -0.5180
 5962SOL    HW129345   0.631   3.800   1.086  1.5326  0.6920  0.4601
 5962SOL    HW229346   0.537   3.866   1.003 -2.7407  3.4435  0.5393
 5963SOL     OW29347   2.975   1.213   0.968  0.1379 -0.2505 -0.1110
 5963SOL    HW129348   2.889   1.225   0.928  0.7363 -3.1890 -2.3409
 5963SOL    HW229349   3.027   1.171   0.899 -1.2342 -0.3150 -1.0960
 5964SOL     OW29350   3.731   3.878   0.420  0.3339 -0.2855  0.2238
 5964SOL    HW129351   3.751   3.957   0.370  0.2947 -0.7379 -0.5021
 5964SOL    HW229352   3.804   3.879   0.482  1.7546  1.8034 -1.4729
 5965SOL     OW29353   1.139   4.067   7.879 -0.0518  0.0899 -0.6779
 5965SOL    HW129354   1.122   4.063   7.973  1.4307  1.0291 -0.3728
 5965SOL    HW229355   1.062   4.107   7.838  0.0302 -0.0998 -1.0171
 5966SOL     OW29356   3.426   0.024   7.169  0.5715 -0.2556 -0.3786
 5966SOL    HW129357   3.405   0.101   7.116 -0.4829  1.0551  1.9389
 5966SOL    HW229358   3.336   0.005   7.195  0.8361  0.0678  0.7757
 5967SOL     OW29359   3.846   2.368   8.661 -0.0172  0.0340  0.2163
 5967SOL    HW129360   3.808   2.437   8.715  2.6014  0.7507  1.1789
 5967SOL    HW229361   3.897   2.408   8.591  0.1279  0.5178  0.5949
 5968SOL     OW29362   2.483   1.508   6.776  0.0900 -0.1172  0.0409
 5968SOL    HW129363   2.389   1.519   6.762  0.3725 -0.3823 -2.0559
 5968SOL    HW229364   2.488   1.424   6.730 -0.3515  0.6038 -1.3508
 5969SOL     OW29365   3.012   2.941   4.405 -0.1290  0.0409 -0.0598
 5969SOL    HW129366   3.077   3.010   4.393 -0.4049  0.0680 -1.4672
 5969SOL    HW229367   2.989   2.964   4.495  3.7824  1.0205  0.6782
 5970SOL     OW29368   4.219   4.004   3.483  0.1866  0.2748  0.0192
 5970SOL    HW129369   4.170   3.930   3.520  2.3692  0.0157  2.3921
 5970SOL    HW229370   4.169   4.029   3.405 -0.0315  2.0587  0.7448
 5971SOL     OW29371   0.760   2.241   6.641 -0.4899  0.5892  0.0015
 5971SOL    HW129372   0.726   2.257   6.553  0.6625 -0.7490 -0.6950
 5971SOL    HW229373   0.731   2.152   6.662  0.1405  0.0457 -1.4466
 5972SOL     OW29374   0.351   4.686   7.988 -0.1686 -0.1841 -0.0932
 5972SOL    HW129375   0.288   4.662   7.920 -0.0826  1.3340 -0.7095
 5972SOL    HW229376   0.431   4.679   7.937 -0.0547  3.0030 -0.3238
 5973SOL     OW29377   3.118   2.641   0.948  0.2230 -0.8065  0.2616
 5973SOL    HW129378   3.095   2.727   0.983  1.9688 -0.4907  0.6326
 5973SOL    HW229379   3.159   2.672   0.867 -0.0376  0.1941  0.5095
 5974SOL     OW29380   3.590   1.658   5.420  0.4053 -0.0513  0.1698
 5974SOL    HW129381   3.637   1.587   5.463 -0.5674 -0.6089  0.3153
 5974SOL    HW229382   3.534   1.692   5.489  2.0110  1.2506  0.8494
 5975SOL     OW29383   2.050   4.697   8.080  0.3154 -0.0297  0.0608
 5975SOL    HW129384   1.993   4.654   8.016  0.3973  1.3039 -0.8966
 5975SOL    HW229385   2.002   4.687   8.162 -0.4097 -1.1350 -0.4963
 5976SOL     OW29386   0.871   0.935   1.908  0.5123 -0.2857 -0.6528
 5976SOL    HW129387   0.922   0.858   1.880 -2.7024 -3.0027  0.9443
 5976SOL    HW229388   0.799   0.930   1.845  0.0168 -1.2677 -0.0108
 5977SOL     OW29389   1.322   2.356   7.898 -0.3302 -0.0645  0.5026
 5977SOL    HW129390   1.362   2.394   7.819 -0.1930  2.5092  1.8090
 5977SOL    HW229391   1.270   2.430   7.929  1.1608  1.1571  0.0449
 5978SOL     OW29392   3.965   2.973   6.669 -0.1101  0.3788  0.2840
 5978SOL    HW129393   3.999   2.946   6.755 -2.3641  0.8946  1.3393
 5978SOL    HW229394   3.882   2.927   6.670  1.6906 -2.9033 -0.3300
 5979SOL     OW29395   1.910   4.165   5.698 -0.1246  0.4177  0.1135
 5979SOL    HW129396   1.848   4.125   5.757  1.8343 -1.5166  0.8670
 5979SOL    HW229397   1.995   4.123   5.714 -1.1452 -2.1598 -1.2926
 5980SOL     OW29398   2.053   4.263   7.962 -0.1116  0.6925  0.0083
 5980SOL    HW129399   2.140   4.300   7.946 -0.9788  2.9760  0.5691
 5980SOL    HW229400   2.025   4.232   7.876  0.3327  1.2372 -0.3292
 5981SOL     OW29401   2.544   1.437   8.690  0.0024  0.0047 -0.2418
 5981SOL    HW129402   2.456   1.463   8.662 -0.1767 -0.5874 -0.2313
 5981SOL    HW229403   2.600   1.506   8.655  0.5635 -0.6682 -0.6653
 5982SOL     OW29404   0.144   3.730   5.139  0.6517  0.7477 -0.5045
 5982SOL    HW129405   0.145   3.790   5.214 -0.5246 -0.1446  0.2411
 5982SOL    HW229406   0.213   3.769   5.086 -0.2564  0.4868 -1.8638
 5983SOL     OW29407   1.139   2.928  17.251  0.1050 -0.0748 -0.3528
 5983SOL    HW129408   1.197   2.939  17.326 -1.1074  0.2390  0.5429
 5983SOL    HW229409   1.201   2.943  17.180  0.2073 -0.7303 -0.4051
 5984SOL     OW29410   1.051   1.742  11.458  0.7001 -0.1900 -0.1886
 5984SOL    HW129411   1.042   1.832  11.427  2.8694  0.3254  0.7359
 5984SOL    HW229412   1.134   1.707  11.427  1.1451  0.6429  0.0803
 5985SOL     OW29413   2.358   2.052   9.461 -0.5443 -0.8987 -0.0674
 5985SOL    HW129414   2.281   2.083   9.509 -0.4940 -2.5175  1.0739
 5985SOL    HW229415   2.428   2.078   9.521 -1.4727  1.3322  0.0396
 5986SOL     OW29416   4.696   3.669   6.030  0.2407  0.4307 -0.0225
 5986SOL    HW129417   4.649   3.719   6.096  1.9620  1.1286  0.6763
 5986SOL    HW229418   0.043   3.639   6.089  0.0934  1.6870  0.7872
 5987SOL     OW29419   1.994   1.485  15.286 -0.6053 -0.0688  0.2449
 5987SOL    HW129420   2.002   1.469  15.380  1.2158 -0.7840 -0.0299
 5987SOL    HW229421   1.965   1.398  15.257  1.3237 -0.3845 -0.7666
 5988SOL     OW29422   3.919   0.097  12.093 -0.2477 -0.1161  0.3492
 5988SOL    HW129423   3.925   0.177  12.041 -0.7606  0.6321  1.4746
 5988SOL    HW229424   3.827   0.073  12.088 -0.1881 -0.9099  3.4937
 5989SOL     OW29425   2.108   1.794   8.394  0.3721  0.2847 -0.2469
 5989SOL    HW129426   2.127   1.713   8.346  0.5479  1.0608 -1.4678
 5989SOL    HW229427   2.196   1.818   8.422  0.5642 -1.6883  0.8969
 5990SOL     OW29428   3.207   3.690   5.542 -0.1216 -0.4090  0.6839
 5990SOL    HW129429   3.122   3.647   5.553 -0.4107  0.1587  0.6455
 5990SOL    HW229430   3.261   3.621   5.580 -0.1974 -0.3527  0.8931
 5991SOL     OW29431   0.734   4.504  16.491  0.5507 -0.0574 -0.0066
 5991SOL    HW129432   0.699   4.451  16.419  1.3106 -0.9881  0.3178
 5991SOL    HW229433   0.718   4.443  16.563 -1.1672 -1.0681 -1.2173
 5992SOL     OW29434   3.667   2.717   6.053  0.1161  0.2818  0.9640
 5992SOL    HW129435   3.584   2.680   6.085  0.7702 -1.6778  0.4367
 5992SOL    HW229436   3.680   2.791   6.112  0.0848  0.3331  0.9063
 5993SOL     OW29437   0.200   2.938   6.312  0.2004  0.3418 -0.0170
 5993SOL    HW129438   0.271   2.934   6.247 -0.0510  2.5435 -0.4290
 5993SOL    HW229439   0.218   2.866   6.372 -3.2302 -0.9034 -0.4897
 5994SOL     OW29440   2.683   0.649  16.539 -0.3845 -0.3278 -0.6591
 5994SOL    HW129441   2.622   0.576  16.528 -0.5726 -0.1229 -0.9796
 5994SOL    HW229442   2.720   0.660  16.451  0.8552 -0.5099 -0.1597
 5995SOL     OW29443   2.406   0.217   1.625 -0.1450  1.2556  0.0581
 5995SOL    HW129444   2.358   0.295   1.595  0.9774  1.5629 -0.9348
 5995SOL    HW229445   2.423   0.168   1.545 -0.1328  0.9299  0.2628
 5996SOL     OW29446   0.881   2.277  13.089  0.1029  0.0131  0.1529
 5996SOL    HW129447   0.808   2.230  13.048 -1.2125  1.8461  0.3825
 5996SOL    HW229448   0.845   2.361  13.119  1.2624  1.5953 -2.9275
 5997SOL     OW29449   1.240   4.431  13.106 -0.2958  0.2391 -0.6350
 5997SOL    HW129450   1.169   4.428  13.041 -0.0048  0.0272 -0.9464
 5997SOL    HW229451   1.266   4.339  13.114  0.0729  0.4758  0.8066
 5998SOL     OW29452   2.593   2.943   6.985 -0.0672 -0.4835 -0.3457
 5998SOL    HW129453   2.638   2.882   6.926  1.6636  1.2540 -0.8071
 5998SOL    HW229454   2.614   2.911   7.073 -1.1233 -0.2165  0.0036
 5999SOL     OW29455   3.072   1.763   8.041  0.3788  0.3906 -0.1131
 5999SOL    HW129456   3.047   1.806   7.960  0.7747  1.4827  0.3467
 5999SOL    HW229457   3.088   1.840   8.096 -1.6430 -0.2400  1.3748
 6000SOL     OW29458   0.910   0.531   5.210 -0.1915  0.1128 -0.1312
 6000SOL    HW129459   0.826   0.499   5.243 -0.1354 -1.4522 -1.5162
 6000SOL    HW229460   0.883   0.570   5.127 -1.3304  0.1767  0.2727
 6001SOL     OW29461   4.563   0.389   6.073 -0.7929  0.3036  0.1928
 6001SOL    HW129462   4.564   0.306   6.122 -0.2327  0.8098  1.0382
 6001SOL    HW229463   4.568   0.452   6.144 -0.7464 -0.5220  0.9309
 6002SOL     OW29464   2.630   3.635  15.246 -0.0436  0.0283  0.3296
 6002SOL    HW129465   2.655   3.655  15.336 -1.1841 -0.3978  0.7363
 6002SOL    HW229466   2.606   3.543  15.251  0.6674 -0.2391 -1.0319
 6003SOL     OW29467   2.286   0.611   4.908 -0.3018  0.3365  0.1537
 6003SOL    HW129468   2.368   0.626   4.861 -0.4359  2.3129  0.5387
 6003SOL    HW229469   2.226   0.678   4.873 -3.6547 -2.2539  1.0038
 6004SOL     OW29470   2.870   2.985   2.226  0.3952  0.6646 -0.0575
 6004SOL    HW129471   2.906   3.058   2.275 -1.3122 -0.8176  3.4254
 6004SOL    HW229472   2.914   2.908   2.263 -0.0886  0.1763 -0.4859
 6005SOL     OW29473   3.343   4.630   5.214  0.5789 -0.5140  0.3674
 6005SOL    HW129474   3.425   4.587   5.236  1.2114  0.6591  0.2882
 6005SOL    HW229475   3.298   4.557   5.172 -0.3089 -0.0219  0.4567
 6006SOL     OW29476   4.056   2.921   5.262  0.0576 -0.4309  0.4274
 6006SOL    HW129477   4.030   2.849   5.205 -1.1914  0.9060 -0.7119
 6006SOL    HW229478   4.004   2.891   5.336 -0.9345  0.3213  0.0350
 6007SOL     OW29479   1.579   2.388   3.116 -0.3517  0.2384  0.0989
 6007SOL    HW129480   1.663   2.368   3.159  0.5855  2.3056 -0.7961
 6007SOL    HW229481   1.592   2.479   3.091  0.2324  0.1279 -0.0045
 6008SOL     OW29482   1.948   0.298   1.960  0.5589 -0.1165 -0.0435
 6008SOL    HW129483   1.878   0.297   2.025  1.2062  1.5119  0.6581
 6008SOL    HW229484   2.013   0.245   2.006  0.9734  1.0670  0.7227
 6009SOL     OW29485   1.318   3.263   4.839 -0.8323 -0.2843  0.0437
 6009SOL    HW129486   1.269   3.308   4.907  0.6635 -0.1012  0.9993
 6009SOL    HW229487   1.249   3.240   4.777 -1.8030  2.8565 -0.0466
 6010SOL     OW29488   3.359   3.860   2.654  0.0542 -0.1938  1.0927
 6010SOL    HW129489   3.270   3.849   2.686 -0.5931  1.4448 -0.1170
 6010SOL    HW229490   3.399   3.884   2.738 -1.8668  0.4061  1.8339
 6011SOL     OW29491   3.126   2.607  11.841 -0.5883  0.4173 -0.1312
 6011SOL    HW129492   3.128   2.661  11.920  0.6943 -1.9996  1.4599
 6011SOL    HW229493   3.196   2.546  11.866 -0.1159 -0.2063 -2.9796
 6012SOL     OW29494   3.850   1.995   2.180 -1.0156 -0.2504 -0.2445
 6012SOL    HW129495   3.899   2.036   2.251 -1.9601 -1.3209  1.0168
 6012SOL    HW229496   3.808   1.921   2.223  0.5784 -2.1808 -1.9878
 6013SOL     OW29497   4.016   1.530   2.513  0.1832  0.0937 -0.2481
 6013SOL    HW129498   4.062   1.456   2.474  0.0030 -2.0411  3.6253
 6013SOL    HW229499   3.959   1.489   2.577 -0.3279 -0.2785 -0.9501
 6014SOL     OW29500   1.572   2.982  11.914  0.1202  0.4766  0.1902
 6014SOL    HW129501   1.552   2.888  11.917  0.5210  0.4129  0.9205
 6014SOL    HW229502   1.486   3.015  11.939 -0.2504 -0.2895 -0.0609
 6015SOL     OW29503   4.332   3.754   5.940 -0.2049  0.1496  0.0602
 6015SOL    HW129504   4.283   3.780   6.018  0.3304  0.0657  0.4320
 6015SOL    HW229505   4.407   3.814   5.947  1.0132 -1.2832 -0.4830
 6016SOL     OW29506   0.952   4.234   8.461 -0.3080 -0.1559  0.1927
 6016SOL    HW129507   0.878   4.210   8.517  0.5004  0.1479  1.4163
 6016SOL    HW229508   1.020   4.235   8.529  0.7647 -1.1307 -0.8841
 6017SOL     OW29509   1.856   1.573  14.942 -0.1326  0.4513 -0.2312
 6017SOL    HW129510   1.911   1.497  14.923 -1.8041 -1.8382  4.1790
 6017SOL    HW229511   1.915   1.647  14.957  0.4032 -0.4194  1.9526
 6018SOL     OW29512   1.687   2.113   2.743 -0.9541  0.0869  0.8372
 6018SOL    HW129513   1.640   2.127   2.661 -2.2417  0.9144  1.7158
 6018SOL    HW229514   1.625   2.097   2.815 -1.4260 -0.7770  0.2390
 6019SOL     OW29515   1.103   2.186   8.704 -0.1450  0.2114  0.3818
 6019SOL    HW129516   1.114   2.221   8.616  3.3840  0.6538  0.9821
 6019SOL    HW229517   1.154   2.106   8.690  0.5576  0.8660 -0.7756
 6020SOL     OW29518   0.696   2.383   7.286 -0.2789  1.0470 -0.6176
 6020SOL    HW129519   0.603   2.395   7.269 -0.3860  1.7526  0.5172
 6020SOL    HW229520   0.702   2.450   7.354 -0.8761  0.1831  0.2828
 6021SOL     OW29521   2.231   3.044   0.448  0.0610  0.6774  0.2088
 6021SOL    HW129522   2.273   2.990   0.381 -2.2965 -1.4130  0.3837
 6021SOL    HW229523   2.309   3.090   0.477  0.0705 -0.4644  2.0645
 6022SOL     OW29524   0.580   0.174   3.497  0.1319 -0.6297 -0.4883
 6022SOL    HW129525   0.499   0.217   3.527  1.4858 -0.7254  3.3327
 6022SOL    HW229526   0.575   0.186   3.402  1.2678  1.9648 -0.2350
 6023SOL     OW29527   2.655   0.664  16.253  0.0106  0.2017 -0.7311
 6023SOL    HW129528   2.579   0.615  16.221 -0.8268  0.3229  1.0373
 6023SOL    HW229529   2.666   0.731  16.186  0.1129 -0.1666 -1.0842
 6024SOL     OW29530   3.092   0.260  16.698  0.3438 -0.5104  0.2235
 6024SOL    HW129531   3.148   0.216  16.762 -0.0915 -1.1028  0.1946
 6024SOL    HW229532   3.020   0.293  16.752 -1.0736  2.5547 -3.4487
 6025SOL     OW29533   0.133   1.843   4.119 -0.6111  0.3813  0.7539
 6025SOL    HW129534   0.119   1.910   4.053  2.4793  0.9253  0.6360
 6025SOL    HW229535   0.131   1.767   4.061 -0.3073  0.6781  0.3637
 6026SOL     OW29536   2.696   2.642  10.351  0.2273 -0.0807  0.2193
 6026SOL    HW129537   2.767   2.669  10.409 -0.9520 -0.2164  1.7308
 6026SOL    HW229538   2.655   2.726  10.335  1.1998 -0.1941 -2.8607
 6027SOL     OW29539   1.456   2.296  17.377  0.0177  0.4785 -0.2852
 6027SOL    HW129540   1.427   2.217  17.423  0.4496  0.6129  0.2145
 6027SOL    HW229541   1.370   2.321  17.341  1.9924  3.6274 -2.8127
 6028SOL     OW29542   1.903   3.306   6.924 -0.3869  0.0917  0.0310
 6028SOL    HW129543   1.841   3.234   6.933  2.2243 -2.1795  0.0661
 6028SOL    HW229544   1.973   3.270   6.978 -0.6779 -2.6782 -1.4219
 6029SOL     OW29545   2.068   1.620   4.640  0.3573 -0.1549 -0.3139
 6029SOL    HW129546   2.081   1.682   4.568 -2.0385 -0.5591 -1.0722
 6029SOL    HW229547   2.015   1.554   4.595 -0.5880  0.5602 -0.2418
 6030SOL     OW29548   2.515   3.383  15.261  0.7948 -0.1832  0.0853
 6030SOL    HW129549   2.543   3.295  15.234 -0.6579  0.3604 -3.2233
 6030SOL    HW229550   2.421   3.388  15.246  0.3999 -2.5924  1.7935
 6031SOL     OW29551   3.870   4.323  16.410  0.3924  0.2892 -0.1398
 6031SOL    HW129552   3.799   4.258  16.404 -0.3297  0.9929  0.6925
 6031SOL    HW229553   3.908   4.315  16.498  0.5035  1.6974 -0.0742
 6032SOL     OW29554   2.216   0.821   9.884  0.0952 -0.1108 -0.1537
 6032SOL    HW129555   2.215   0.907   9.926  1.9008 -0.0874 -0.1548
 6032SOL    HW229556   2.159   0.774   9.946  1.8145  0.8411  2.1665
 6033SOL     OW29557   3.086   4.607  14.578 -0.1866  0.0015 -0.2395
 6033SOL    HW129558   3.040   4.527  14.554 -1.9110  1.1224 -0.6985
 6033SOL    HW229559   3.145   4.575  14.645 -1.1724 -0.7741  0.2470
 6034SOL     OW29560   3.465   3.352   3.898  0.4274 -0.2749 -0.0917
 6034SOL    HW129561   3.552   3.391   3.904  1.1358 -1.7437 -0.8409
 6034SOL    HW229562   3.469   3.284   3.831  1.1866 -1.2958  1.0144
 6035SOL     OW29563   0.561   4.437   9.029 -0.2140  0.4445  0.3824
 6035SOL    HW129564   0.583   4.472   8.942 -1.1583  0.8862  0.3171
 6035SOL    HW229565   0.648   4.426   9.069  0.4431  1.5341 -0.7406
 6036SOL     OW29566   1.332   4.672   1.293 -0.7253 -0.3080 -0.0248
 6036SOL    HW129567   1.350   4.671   1.387  2.4109  0.1453 -0.6242
 6036SOL    HW229568   1.374   0.027   1.257 -0.9852  0.2254  0.8130
 6037SOL     OW29569   1.475   3.699   1.240  0.1236  0.1180 -0.8904
 6037SOL    HW129570   1.494   3.648   1.318  1.9339 -1.2240 -2.1971
 6037SOL    HW229571   1.553   3.755   1.244  1.0512 -1.0799 -2.1265
 6038SOL     OW29572   2.178   3.477   5.991  0.0168 -0.4088 -0.3328
 6038SOL    HW129573   2.244   3.413   6.020 -0.1880  0.3401  1.7900
 6038SOL    HW229574   2.225   3.559   6.007 -1.9451  0.9622 -1.6243
 6039SOL     OW29575   0.200   2.529   1.822  0.2062  0.4530  0.4273
 6039SOL    HW129576   0.196   2.517   1.727 -0.4766  1.6937  0.2987
 6039SOL    HW229577   0.155   2.613   1.835  3.0366  1.6172  2.7808
 6040SOL     OW29578   3.112   0.265   8.791  0.7740 -0.9816 -0.3131
 6040SOL    HW129579   3.175   0.305   8.851  0.8946  0.0821 -1.1620
 6040SOL    HW229580   3.032   0.266   8.844 -0.3412 -1.7474 -2.0070
 6041SOL     OW29581   0.499   2.739   8.379  0.6396 -0.5872  0.1801
 6041SOL    HW129582   0.534   2.650   8.389  1.6935  0.0924  2.5554
 6041SOL    HW229583   0.405   2.730   8.394  0.5111  1.0989  0.3526
 6042SOL     OW29584   0.953   0.345   5.455  0.3564  0.0476 -0.4762
 6042SOL    HW129585   0.959   0.371   5.363 -2.1852 -0.7215 -0.8574
 6042SOL    HW229586   1.036   0.298   5.468 -0.7602 -1.2783  1.9186
 6043SOL     OW29587   4.680   4.657   6.067  0.0161 -0.1489 -0.0311
 6043SOL    HW129588   4.608   4.661   6.005 -0.9031  0.8648  1.1103
 6043SOL    HW229589   0.024   4.615   6.012  0.8605 -0.2849  1.0723
 6044SOL     OW29590   2.396   0.054  12.870 -0.4771  0.4796 -0.1097
 6044SOL    HW129591   2.348   4.712  12.921  1.1096  0.6117  1.5860
 6044SOL    HW229592   2.412   0.012  12.786  0.0406 -1.7063  1.0574
 6045SOL     OW29593   4.378   1.558   5.376 -0.2338 -0.0554  0.6866
 6045SOL    HW129594   4.388   1.566   5.281  1.2037 -1.2493  0.7430
 6045SOL    HW229595   4.453   1.505   5.400  1.0688  1.7961  0.7652
 6046SOL     OW29596   1.206   1.871   0.737  0.2789  0.4203 -0.1671
 6046SOL    HW129597   1.155   1.946   0.767  0.3167 -0.0448  1.0790
 6046SOL    HW229598   1.281   1.904   0.687  0.3798 -3.9280 -2.8970
 6047SOL     OW29599   1.599   1.004   4.089  0.5208  0.0195  0.0542
 6047SOL    HW129600   1.531   0.957   4.040 -0.7335  0.4716  1.3663
 6047SOL    HW229601   1.677   0.985   4.036  0.8507 -0.6023  0.7759
 6048SOL     OW29602   3.175   1.556   3.553 -0.7019  0.0238  0.4337
 6048SOL    HW129603   3.097   1.560   3.498 -0.6925 -0.9887  0.3411
 6048SOL    HW229604   3.242   1.598   3.500 -0.9029  1.1669  1.0924
 6049SOL     OW29605   4.641   3.660   2.680  0.2522  0.6302 -0.1387
 6049SOL    HW129606   4.589   3.714   2.739 -1.3090  0.2172 -1.1384
 6049SOL    HW229607   4.568   3.610   2.645 -1.2500  1.0017  2.4729
 6050SOL     OW29608   4.470   2.622   9.462 -0.2487 -0.5456 -0.1992
 6050SOL    HW129609   4.504   2.683   9.396  1.2615 -0.3030  0.7961
 6050SOL    HW229610   4.554   2.608   9.506  0.2158 -0.0833 -0.9360
 6051SOL     OW29611   4.268   2.212  13.107  0.3467  0.0490 -0.3083
 6051SOL    HW129612   4.327   2.172  13.171 -0.7685 -1.3166 -0.1276
 6051SOL    HW229613   4.181   2.223  13.145  0.0006 -2.0034 -0.4782
 6052SOL     OW29614   2.029   3.491   1.870  0.2146  0.0171 -0.5408
 6052SOL    HW129615   2.067   3.517   1.786 -1.0743  3.9711  0.0690
 6052SOL    HW229616   2.105   3.494   1.929 -0.3247 -1.4262  0.2247
 6053SOL     OW29617   3.138   4.433   2.250 -0.7891 -0.4546  0.0935
 6053SOL    HW129618   3.101   4.352   2.218 -0.6648 -0.6828  0.5283
 6053SOL    HW229619   3.204   4.447   2.182  0.1594 -0.8629  0.9255
 6054SOL     OW29620   4.240   3.036   6.886  0.3788 -0.2416 -0.1046
 6054SOL    HW129621   4.262   3.085   6.966 -0.5345 -1.5530  0.9595
 6054SOL    HW229622   4.194   3.104   6.837  0.6291 -0.4166 -0.5740
 6055SOL     OW29623   4.120   1.346  13.123  0.0496 -0.2073 -0.1242
 6055SOL    HW129624   4.051   1.406  13.095  1.3443  0.6481 -1.5313
 6055SOL    HW229625   4.112   1.337  13.218  1.3421 -1.0444 -0.0950
 6056SOL     OW29626   1.071   3.499  11.975  0.6403 -0.5697  0.8261
 6056SOL    HW129627   1.072   3.519  11.881  0.4255 -2.2773  0.4642
 6056SOL    HW229628   0.979   3.519  11.994  0.8652  1.5043 -0.2028
 6057SOL     OW29629   2.896   3.455   0.920 -0.2209  0.6821  0.3026
 6057SOL    HW129630   2.818   3.471   0.973 -0.3700  0.2608  0.2094
 6057SOL    HW229631   2.856   3.448   0.833 -0.9739  0.8493  0.6291
 6058SOL     OW29632   2.261   4.631   5.368 -0.4762 -0.2301 -0.4430
 6058SOL    HW129633   2.215   4.579   5.302  1.6735 -3.3711  0.5411
 6058SOL    HW229634   2.353   4.613   5.346 -0.0478  1.4037 -0.0162
 6059SOL     OW29635   0.906   4.182   4.022  0.1241  0.6512 -0.5253
 6059SOL    HW129636   0.843   4.239   4.065 -0.0106  0.3720 -0.3576
 6059SOL    HW229637   0.971   4.239   3.980  1.2329  1.2314  1.9760
 6060SOL     OW29638   0.872   1.084   1.202  0.3375 -0.1174  0.3634
 6060SOL    HW129639   0.882   1.157   1.263 -0.0741  0.0991  0.1794
 6060SOL    HW229640   0.931   1.106   1.130  0.8787  0.4710  0.9870
 6061SOL     OW29641   3.444   3.184  15.280  0.0721 -0.2034 -0.7379
 6061SOL    HW129642   3.503   3.203  15.353  0.8873 -1.2721 -1.1294
 6061SOL    HW229643   3.478   3.253  15.224  0.1673  0.4468  0.1095
 6062SOL     OW29644   4.601   4.640   8.374  0.3721 -0.4764 -0.2202
 6062SOL    HW129645   4.602   4.568   8.437 -1.5960 -1.0727 -0.9001
 6062SOL    HW229646   4.583   4.709   8.439 -0.1749 -0.7990 -0.0334
 6063SOL     OW29647   0.575   2.962   1.542 -0.7993  0.6227  0.0846
 6063SOL    HW129648   0.643   2.971   1.476 -0.8472 -0.7917 -0.1367
 6063SOL    HW229649   0.592   2.872   1.569 -2.4657  0.2359 -0.2069
 6064SOL     OW29650   0.263   0.650   4.805 -0.4395 -0.0304 -0.2131
 6064SOL    HW129651   0.176   0.637   4.842 -0.6785  2.4193  0.1226
 6064SOL    HW229652   0.293   0.566   4.772  1.3266 -0.0812  1.4954
 6065SOL     OW29653   0.075   2.973  12.918  0.2336 -0.3713 -0.3408
 6065SOL    HW129654   0.095   2.995  13.009  1.6020  0.2953 -0.7979
 6065SOL    HW229655   0.134   2.899  12.903  1.3372  0.6387 -1.0108
 6066SOL     OW29656   3.808   3.711  17.326  0.6814 -0.4367 -0.2550
 6066SOL    HW129657   3.746   3.642  17.303 -0.0176  0.5658 -1.3638
 6066SOL    HW229658   3.789   3.783  17.266 -0.5227  0.3433  1.0558
 6067SOL     OW29659   2.973   1.462   8.557 -0.0938  0.6890 -0.3163
 6067SOL    HW129660   3.006   1.487   8.471 -0.2733 -1.4864 -1.0172
 6067SOL    HW229661   3.051   1.441   8.607 -0.2176 -0.0132 -0.4208
 6068SOL     OW29662   2.596   2.164   9.562  0.4046 -0.3350  0.1164
 6068SOL    HW129663   2.606   2.249   9.519  0.6155  0.4184  1.6554
 6068SOL    HW229664   2.662   2.170   9.631  0.7197  0.7761 -0.2679
 6069SOL     OW29665   4.662   1.513   4.964  0.5763 -0.7280  0.1586
 6069SOL    HW129666   0.010   1.448   4.963  1.9625  0.7669  0.1313
 6069SOL    HW229667   4.628   1.498   5.052  0.6700 -0.4573  0.2425
 6070SOL     OW29668   1.311   2.280   1.687 -0.4297  0.0091  0.4698
 6070SOL    HW129669   1.318   2.192   1.723  1.5244 -0.4540 -1.0397
 6070SOL    HW229670   1.402   2.305   1.703 -0.1387 -0.5662 -0.3005
 6071SOL     OW29671   4.482   2.765   2.550 -0.1177 -0.4760 -0.3430
 6071SOL    HW129672   4.568   2.794   2.581 -0.6196  1.3855 -0.6963
 6071SOL    HW229673   4.431   2.743   2.628 -0.8788  0.9811 -0.4443
 6072SOL     OW29674   3.836   4.031   8.574 -0.2647 -0.0741  0.3777
 6072SOL    HW129675   3.764   4.033   8.512  2.1062 -3.2017 -2.4805
 6072SOL    HW229676   3.791   3.979   8.641 -2.7624  1.3478 -0.2096
 6073SOL     OW29677   2.597   4.367   9.482  0.0138 -0.1157 -0.4233
 6073SOL    HW129678   2.587   4.276   9.508  1.7100  0.1896  1.3293
 6073SOL    HW229679   2.640   4.355   9.397 -3.1529 -4.4782 -1.3467
 6074SOL     OW29680   3.832   0.685   3.083 -0.2404 -0.3686 -0.7115
 6074SOL    HW129681   3.761   0.745   3.105 -0.4065 -0.2508 -1.5696
 6074SOL    HW229682   3.911   0.723   3.121 -0.2473 -0.1562 -0.9072
 6075SOL     OW29683   0.020   0.236   5.749  0.2608  0.6344 -0.5603
 6075SOL    HW129684   0.003   0.243   5.655  2.8653 -1.5892 -1.1968
 6075SOL    HW229685   4.681   0.302   5.781 -1.0752 -0.6957 -0.3905
 6076SOL     OW29686   2.518   3.349   5.894 -0.5758  0.1202 -0.0369
 6076SOL    HW129687   2.493   3.435   5.861  0.6226 -0.2493 -1.9538
 6076SOL    HW229688   2.584   3.381   5.955  1.8305 -1.2520 -1.9223
 6077SOL     OW29689   2.785   0.182   8.312  0.4668 -0.4741 -0.0384
 6077SOL    HW129690   2.845   0.255   8.326  2.2619 -1.6512 -1.6010
 6077SOL    HW229691   2.704   0.216   8.272  1.9283  1.7481 -1.0936
 6078SOL     OW29692   2.699   3.945   5.012 -0.3223  0.9932  0.3030
 6078SOL    HW129693   2.666   3.966   4.924  0.1854  2.0931  0.3803
 6078SOL    HW229694   2.775   4.002   5.013  0.6454 -0.3511  2.7870
 6079SOL     OW29695   3.616   0.553   5.433  0.0018 -0.0660  0.6358
 6079SOL    HW129696   3.616   0.638   5.478 -2.1447  0.7476 -0.9207
 6079SOL    HW229697   3.524   0.541   5.410  0.3136 -0.0120 -0.6568
 6080SOL     OW29698   4.431   0.720   2.364  0.4768  0.1636  0.2645
 6080SOL    HW129699   4.468   0.799   2.324 -1.7911  1.7105  1.2749
 6080SOL    HW229700   4.501   0.654   2.357  1.3543  1.3887 -2.4623
 6081SOL     OW29701   3.286   3.257  11.853  0.2012  0.4581  0.0929
 6081SOL    HW129702   3.323   3.253  11.765  0.5263  1.6460  0.1861
 6081SOL    HW229703   3.194   3.281  11.842  0.1195 -0.0924 -0.4367
 6082SOL     OW29704   3.972   2.472   1.151 -0.2407 -0.3602 -0.2663
 6082SOL    HW129705   3.978   2.505   1.061 -1.3438 -0.2479 -0.3034
 6082SOL    HW229706   4.038   2.529   1.189 -0.9517  0.8644 -0.8420
 6083SOL     OW29707   2.969   4.172  12.702  0.2151  0.6400  0.2351
 6083SOL    HW129708   2.883   4.170  12.743 -0.4571  0.8775 -1.2105
 6083SOL    HW229709   3.016   4.245  12.742 -0.7377  2.0473 -1.2434
 6084SOL     OW29710   1.202   0.007  12.887  0.6098  0.4421 -0.3816
 6084SOL    HW129711   1.108   4.715  12.900  0.7216 -0.1035 -0.2173
 6084SOL    HW229712   1.190   0.083  12.829 -1.0673  2.0361  2.0085
 6085SOL     OW29713   0.251   0.855   1.661 -0.0139 -0.4899  0.4407
 6085SOL    HW129714   0.333   0.897   1.635  0.0362 -0.6048  0.4113
 6085SOL    HW229715   0.287   0.768   1.679  3.2079  0.6519 -0.3228
 6086SOL     OW29716   3.471   2.159   5.348 -0.1665 -0.0745 -0.4817
 6086SOL    HW129717   3.563   2.153   5.373 -0.3477 -0.5009  0.0834
 6086SOL    HW229718   3.441   2.249   5.357  2.3605  0.5166  1.7887
 6087SOL     OW29719   1.064   1.909   5.988 -0.8749 -0.4386 -0.0988
 6087SOL    HW129720   1.070   1.889   5.895 -0.3954 -0.6479 -0.0217
 6087SOL    HW229721   1.152   1.945   6.001 -0.6177 -0.3927 -2.0499
 6088SOL     OW29722   2.126   1.078   4.481  0.2728  0.1829 -0.0142
 6088SOL    HW129723   2.103   1.110   4.394  0.1919 -1.1781 -0.4854
 6088SOL    HW229724   2.210   1.122   4.495  0.8545 -0.2692 -2.0780
 6089SOL     OW29725   3.863   2.577   8.103  0.1095 -0.7931 -0.1352
 6089SOL    HW129726   3.817   2.658   8.121 -0.7784 -1.3145 -0.0833
 6089SOL    HW229727   3.809   2.511   8.146  1.2653 -2.7143 -1.6027
 6090SOL     OW29728   3.511   4.004   0.154  0.0554  0.4768  0.0079
 6090SOL    HW129729   3.554   4.089   0.146 -0.9082  0.9013 -0.6212
 6090SOL    HW229730   3.583   3.946   0.129  1.2348  1.4735  1.0991
 6091SOL     OW29731   2.962   1.043   4.942 -0.7147 -0.0559 -0.1063
 6091SOL    HW129732   3.031   1.099   4.906  0.3113 -0.0334  1.9143
 6091SOL    HW229733   2.895   1.107   4.966 -1.7155 -0.4932 -1.7049
 6092SOL     OW29734   2.592   2.961   5.492 -0.1075  0.2517  0.1398
 6092SOL    HW129735   2.554   3.047   5.512 -1.5853 -0.5553  0.7986
 6092SOL    HW229736   2.573   2.908   5.568 -3.3843  1.0781 -0.0758
 6093SOL     OW29737   0.738   2.456   8.104  0.2118  1.0397  0.1012
 6093SOL    HW129738   0.681   2.407   8.163 -0.1852  0.5945 -0.6577
 6093SOL    HW229739   0.684   2.477   8.028  0.8325  1.4902 -0.2190
 6094SOL     OW29740   2.428   4.107   3.090  0.3593  0.1874  0.2022
 6094SOL    HW129741   2.481   4.184   3.110  0.1738  0.5137 -0.5458
 6094SOL    HW229742   2.412   4.071   3.177  1.4700 -1.2288 -0.1807
 6095SOL     OW29743   1.789   1.723   9.934 -0.0873  0.2816  0.2309
 6095SOL    HW129744   1.720   1.681   9.986 -1.0178 -0.2485 -1.4581
 6095SOL    HW229745   1.863   1.693   9.987 -0.8814 -1.0650  0.5870
 6096SOL     OW29746   4.114   2.906   7.191 -0.0846  0.2004 -0.4246
 6096SOL    HW129747   4.174   2.980   7.178  0.5543 -0.2450 -0.0525
 6096SOL    HW229748   4.163   2.831   7.155  1.0461  1.2202 -1.0089
 6097SOL     OW29749   3.089   4.657   4.090 -0.0555 -0.7325 -0.1778
 6097SOL    HW129750   3.061   4.689   4.176  1.5702 -1.8189  0.7705
 6097SOL    HW229751   3.036   4.719   4.039 -0.8011  1.3525  3.1474
 6098SOL     OW29752   2.909   2.254  15.325 -0.1053  0.2617 -0.1701
 6098SOL    HW129753   2.824   2.264  15.281 -1.2348 -3.3657  1.1618
 6098SOL    HW229754   2.953   2.205  15.256  1.2997  1.7083 -0.2887
 6099SOL     OW29755   0.092   0.367   2.275 -0.5121  0.8457 -0.3221
 6099SOL    HW129756   0.175   0.402   2.241  1.5523 -3.2847  0.5320
 6099SOL    HW229757   0.030   0.429   2.236 -0.4542  1.1989  0.1544
 6100SOL     OW29758   0.925   1.527   3.871  0.1487 -0.2140 -0.4102
 6100SOL    HW129759   1.005   1.500   3.915 -0.3221 -1.0619 -0.0767
 6100SOL    HW229760   0.942   1.621   3.876  0.2277 -0.3934  2.4675
 6101SOL     OW29761   4.207   3.487   4.859 -0.0362 -0.1173 -0.2373
 6101SOL    HW129762   4.155   3.484   4.778 -1.3160  0.4152  0.5661
 6101SOL    HW229763   4.245   3.400   4.868  2.0529  0.8282 -0.0432
 6102SOL     OW29764   1.509   3.694   2.675  0.1746  0.1185  0.4587
 6102SOL    HW129765   1.560   3.703   2.755 -1.0689 -2.4786  1.5244
 6102SOL    HW229766   1.557   3.737   2.604 -0.9307 -0.7030 -0.7943
 6103SOL     OW29767   0.045   2.139   2.729 -0.7985  0.0637  0.3972
 6103SOL    HW129768   0.063   2.103   2.642 -0.3712  0.1195  0.4641
 6103SOL    HW229769   0.083   2.072   2.785  0.2320 -0.4085 -0.8725
 6104SOL     OW29770   2.423   0.814   7.496 -0.3258  0.2743  0.1080
 6104SOL    HW129771   2.403   0.837   7.405 -2.2303 -2.0071 -0.0318
 6104SOL    HW229772   2.350   0.756   7.516 -2.1408  2.4033 -0.2692
 6105SOL     OW29773   2.277   0.191  16.921 -0.1649 -0.3451  0.3460
 6105SOL    HW129774   2.294   0.278  16.959 -0.8586 -0.3018  0.5572
 6105SOL    HW229775   2.345   0.142  16.966  1.3635 -0.8790 -2.5541
 6106SOL     OW29776   3.501   3.572  12.354  0.2020 -0.2132 -0.3110
 6106SOL    HW129777   3.529   3.548  12.266 -0.8468 -1.3572 -0.3330
 6106SOL    HW229778   3.588   3.567  12.393 -0.1094 -1.7911  0.2245
 6107SOL     OW29779   1.227   0.101  11.392  0.3285  0.1436  0.4457
 6107SOL    HW129780   1.312   0.098  11.435  0.9179 -1.2591 -0.8250
 6107SOL    HW229781   1.233   0.032  11.326  0.1388  0.3283  0.2335
 6108SOL     OW29782   3.857   2.928   7.118  0.6267 -0.8973 -0.0852
 6108SOL    HW129783   3.950   2.933   7.141  1.1064 -2.7724 -1.6492
 6108SOL    HW229784   3.814   2.970   7.193 -1.0527 -0.3935 -1.3301
 6109SOL     OW29785   4.355   1.859   9.440  0.0438 -0.4356  0.2414
 6109SOL    HW129786   4.443   1.879   9.406  0.4107  0.1778  1.5770
 6109SOL    HW229787   4.370   1.873   9.533 -1.8809 -2.4174  0.8467
 6110SOL     OW29788   1.014   1.675   3.514  0.0101  0.5221 -0.0106
 6110SOL    HW129789   0.931   1.657   3.470 -1.3334  2.2336  1.8108
 6110SOL    HW229790   1.022   1.768   3.494 -2.7539  0.5285 -1.1234
 6111SOL     OW29791   2.343   4.325   5.404 -0.2476 -0.0397 -0.5417
 6111SOL    HW129792   2.422   4.370   5.375 -0.0292 -0.3903 -0.4902
 6111SOL    HW229793   2.336   4.384   5.479 -3.2596  0.1319 -0.9424
 6112SOL     OW29794   2.483   3.103   8.043  0.0124  0.0783  0.1586
 6112SOL    HW129795   2.575   3.079   8.030 -0.2337 -0.6781 -0.2071
 6112SOL    HW229796   2.482   3.187   8.088 -0.2726  0.2418 -0.1504
 6113SOL     OW29797   1.296   0.937   1.287  0.2372  0.0226  0.0542
 6113SOL    HW129798   1.305   0.915   1.195 -0.1060 -1.6882  0.4170
 6113SOL    HW229799   1.213   0.896   1.314  0.2182  0.1599  0.2066
 6114SOL     OW29800   2.233   2.728   5.629 -0.2989 -0.1331 -0.2959
 6114SOL    HW129801   2.141   2.753   5.628 -0.3848 -0.4555 -0.0104
 6114SOL    HW229802   2.257   2.779   5.551 -0.6671 -1.3226 -1.1812
 6115SOL     OW29803   2.755   2.014   5.893  0.2356  0.1130 -0.1280
 6115SOL    HW129804   2.848   2.016   5.870  0.0520 -0.8710 -0.9503
 6115SOL    HW229805   2.756   1.919   5.899 -0.3945 -0.0484 -2.9019
 6116SOL     OW29806   1.801   0.408   8.515  0.1643  0.6528 -0.0158
 6116SOL    HW129807   1.774   0.320   8.488  0.6563  0.1981  0.9853
 6116SOL    HW229808   1.722   0.436   8.561 -0.2625 -0.5026 -0.0605
 6117SOL     OW29809   0.149   1.034  13.447  0.4648 -1.0586 -0.0597
 6117SOL    HW129810   0.194   0.959  13.486 -0.2210 -2.0128 -1.1175
 6117SOL    HW229811   0.214   1.061  13.382 -0.7448  1.5190 -0.1884
 6118SOL     OW29812   2.276   2.579   4.476 -0.0080 -0.0888  0.5685
 6118SOL    HW129813   2.248   2.547   4.562  1.8712 -1.5144  0.6720
 6118SOL    HW229814   2.370   2.560   4.478 -0.3559 -1.7663  1.1153
 6119SOL     OW29815   0.978   2.534   7.135  0.2101 -0.2421 -0.2187
 6119SOL    HW129816   0.896   2.576   7.158  1.2398  1.7475 -0.1566
 6119SOL    HW229817   1.041   2.606   7.143  2.0608 -2.0263  1.5946
 6120SOL     OW29818   1.471   4.689   4.828  0.3063 -0.2020 -0.2690
 6120SOL    HW129819   1.513   4.603   4.828  0.2347 -0.2375 -0.7704
 6120SOL    HW229820   1.551   0.020   4.828  1.4069 -1.8991  2.4372
 6121SOL     OW29821   1.923   1.785  10.502  0.0522 -0.0958 -0.3419
 6121SOL    HW129822   1.924   1.690  10.491 -2.6966 -0.2589  0.6866
 6121SOL    HW229823   1.886   1.802  10.589  1.9307  0.7320  0.2798
 6122SOL     OW29824   1.976   2.285  16.633 -0.7443  0.4111 -0.5283
 6122SOL    HW129825   1.940   2.219  16.692  0.5737 -1.0399 -1.3455
 6122SOL    HW229826   2.058   2.306  16.680 -0.8373  0.1005 -0.2287
 6123SOL     OW29827   2.636   1.558   3.414  0.1611 -0.0501 -0.0922
 6123SOL    HW129828   2.551   1.515   3.407  0.1516  0.0750 -0.8292
 6123SOL    HW229829   2.612   1.629   3.474  0.1232 -0.6028  0.5348
 6124SOL     OW29830   4.305   3.717   2.542  0.3757 -0.0065  0.9532
 6124SOL    HW129831   4.354   3.639   2.515 -1.7094 -1.0077  0.1105
 6124SOL    HW229832   4.294   3.693   2.634 -0.5148  0.0084  0.8513
 6125SOL     OW29833   1.678   2.054   7.166  0.5110  0.5622  0.3895
 6125SOL    HW129834   1.763   2.026   7.133  0.4227  1.1548 -0.3254
 6125SOL    HW229835   1.632   2.080   7.087 -0.7691  0.4470  1.0889
 6126SOL     OW29836   4.262   1.954   3.568 -0.0074  0.1805  0.0294
 6126SOL    HW129837   4.349   1.993   3.570  0.4606 -1.0536  3.2263
 6126SOL    HW229838   4.214   2.033   3.544 -1.8105 -0.8834  0.0675
 6127SOL     OW29839   3.648   3.901   7.066 -0.0858 -0.5654 -0.4793
 6127SOL    HW129840   3.600   3.918   7.147  0.9064 -1.9348  0.4153
 6127SOL    HW229841   3.724   3.960   7.069  0.1666 -0.8249 -1.8663
 6128SOL     OW29842   2.180   2.078  11.079 -0.0964 -0.0349 -0.1166
 6128SOL    HW129843   2.259   2.047  11.122  0.6840  0.0987 -1.4473
 6128SOL    HW229844   2.199   2.077  10.985 -2.3065 -1.8085 -0.5651
 6129SOL     OW29845   3.872   2.750  13.624  0.6493 -0.0695 -0.6345
 6129SOL    HW129846   3.815   2.673  13.631  1.3466 -0.2584  2.7445
 6129SOL    HW229847   3.821   2.798  13.559  1.2311  2.7639  1.0304
 6130SOL     OW29848   4.034   1.102   5.095 -0.6672  0.5722 -0.0595
 6130SOL    HW129849   4.020   1.075   5.004 -0.7505 -0.8779  0.3901
 6130SOL    HW229850   3.985   1.035   5.143  0.0572 -0.5216 -0.8599
 6131SOL     OW29851   4.008   0.870   7.799 -0.5143  0.1957  0.2665
 6131SOL    HW129852   4.057   0.918   7.867  2.3869 -1.7278 -0.4456
 6131SOL    HW229853   3.954   0.944   7.773  0.0022 -0.1521 -1.7612
 6132SOL     OW29854   1.630   2.617   9.550  0.9517 -0.0929  0.3315
 6132SOL    HW129855   1.702   2.680   9.538  1.6211 -0.8307  0.4623
 6132SOL    HW229856   1.658   2.544   9.495  0.0349 -1.8814  2.2468
 6133SOL     OW29857   0.680   3.877   1.907  0.3976 -0.0726  0.2197
 6133SOL    HW129858   0.672   3.783   1.889  0.0611 -0.5478  2.9040
 6133SOL    HW229859   0.654   3.887   1.998 -0.4396 -2.0640  0.1999
 6134SOL     OW29860   4.225   2.130   7.484 -0.3374  0.3085 -0.4746
 6134SOL    HW129861   4.134   2.105   7.497 -0.4268  0.4705 -0.7842
 6134SOL    HW229862   4.246   2.091   7.399 -0.8196 -1.1362  0.0712
 6135SOL     OW29863   2.534   0.312  16.658 -0.3395  0.2550 -0.0736
 6135SOL    HW129864   2.593   0.238  16.646 -1.3773 -0.2082 -2.3190
 6135SOL    HW229865   2.585   0.360  16.723 -0.5622 -0.1335  0.3871
 6136SOL     OW29866   1.845   2.900   3.825  0.0057 -0.4153  0.3116
 6136SOL    HW129867   1.859   2.844   3.901  0.3823 -0.5930  0.1075
 6136SOL    HW229868   1.937   2.896   3.799 -0.6224 -1.4066 -1.7089
 6137SOL     OW29869   3.583   3.594   3.523 -0.2847  0.0619  0.3136
 6137SOL    HW129870   3.634   3.563   3.448 -2.5281  0.3772 -1.3838
 6137SOL    HW229871   3.520   3.522   3.525 -1.3729  0.9833 -0.0802
 6138SOL     OW29872   1.943   0.786   8.197  0.0358  0.5470 -0.1795
 6138SOL    HW129873   1.943   0.718   8.264  0.1977  0.6946 -0.0271
 6138SOL    HW229874   1.850   0.785   8.174  0.7083 -2.7079 -2.6228
 6139SOL     OW29875   0.667   1.595  14.001 -0.3223 -0.2234  0.0044
 6139SOL    HW129876   0.700   1.507  14.019  1.3053  0.5202  0.6776
 6139SOL    HW229877   0.674   1.599  13.905  2.4421 -1.3288  0.1455
 6140SOL     OW29878   2.227   0.834   6.080  0.1590 -0.1536 -0.3648
 6140SOL    HW129879   2.297   0.821   6.144  1.4556  3.4242 -1.0422
 6140SOL    HW229880   2.188   0.910   6.124  2.0619 -0.3999  1.7736
 6141SOL     OW29881   3.080   1.664  13.044 -0.0079 -0.5901  0.6195
 6141SOL    HW129882   3.036   1.748  13.030  0.6747 -0.5077 -1.1118
 6141SOL    HW229883   3.169   1.698  13.039  0.6400 -1.9833  3.1991
 6142SOL     OW29884   3.192   3.408   6.206  0.2148  0.1600  0.0589
 6142SOL    HW129885   3.154   3.479   6.257  1.7398  0.4200  0.8635
 6142SOL    HW229886   3.177   3.435   6.116  0.0143  1.6358  0.5354
 6143SOL     OW29887   3.124   2.728   4.522 -0.3050 -0.2314  0.3057
 6143SOL    HW129888   3.054   2.677   4.482 -0.4587  0.3105 -0.1320
 6143SOL    HW229889   3.111   2.811   4.476 -2.4426  0.9572  3.0488
 6144SOL     OW29890   3.593   4.508   4.059  0.3487 -0.5064  0.2967
 6144SOL    HW129891   3.658   4.570   4.092  1.7263 -1.9558  0.2911
 6144SOL    HW229892   3.603   4.437   4.121  2.0160  2.4730  3.4526
 6145SOL     OW29893   2.575   0.786   8.024 -0.2195  0.2136 -0.4396
 6145SOL    HW129894   2.565   0.717   8.090  1.1479  0.8845  0.4708
 6145SOL    HW229895   2.601   0.854   8.085  1.1748 -1.6072  1.0115
 6146SOL     OW29896   2.243   2.234   1.326 -0.0079 -0.0565  0.1413
 6146SOL    HW129897   2.227   2.142   1.346  0.0332 -0.0307  0.2910
 6146SOL    HW229898   2.310   2.263   1.388 -0.4607 -0.1954  0.6997
 6147SOL     OW29899   4.589   4.443  11.720  0.1014 -0.2231  0.2097
 6147SOL    HW129900   4.618   4.398  11.800  0.6237 -1.7109 -0.8182
 6147SOL    HW229901   4.508   4.392  11.723  0.6868 -1.1497  0.4889
 6148SOL     OW29902   3.959   1.744  10.743  0.2490 -0.2605 -0.2233
 6148SOL    HW129903   4.031   1.772  10.800 -1.5924  3.2552  0.4186
 6148SOL    HW229904   4.013   1.695  10.682 -0.5194  0.0211 -1.1184
 6149SOL     OW29905   0.484   0.800   3.927  0.2370 -0.1202 -0.7446
 6149SOL    HW129906   0.572   0.828   3.904  0.2614  1.2277  0.9787
 6149SOL    HW229907   0.430   0.872   3.895  0.5300  0.3330 -0.2089
 6150SOL     OW29908   1.621   2.253   5.279  0.0215 -0.0688  0.1126
 6150SOL    HW129909   1.564   2.300   5.218  2.2951 -0.4688 -2.3492
 6150SOL    HW229910   1.696   2.313   5.282  0.4049 -0.5614  0.3823
 6151SOL     OW29911   1.920   3.335   5.375 -0.2424  0.6744  0.1378
 6151SOL    HW129912   1.853   3.267   5.386  0.1704  0.1276 -0.7471
 6151SOL    HW229913   1.928   3.331   5.280 -0.9104 -0.5923  0.1318
 6152SOL     OW29914   2.945   0.846   5.790 -0.3381 -0.3241  0.6175
 6152SOL    HW129915   2.923   0.760   5.826  1.9610 -0.9906  0.4286
 6152SOL    HW229916   2.920   0.831   5.699  1.7177  2.0343 -0.3479
 6153SOL     OW29917   4.502   3.002   9.049 -0.0552 -0.1099 -0.0548
 6153SOL    HW129918   4.457   2.931   9.003 -0.0707 -0.0465 -0.1382
 6153SOL    HW229919   4.459   3.077   9.008 -0.6320  0.1271  0.9905
 6154SOL     OW29920   4.396   3.552   5.499  0.5514 -0.8953  0.0021
 6154SOL    HW129921   4.410   3.469   5.453  0.8352  0.9655 -3.2389
 6154SOL    HW229922   4.420   3.514   5.584  0.8400 -1.2571 -0.2371
 6155SOL     OW29923   0.671   4.638   7.982  0.1540 -0.6070 -0.5160
 6155SOL    HW129924   0.703   0.002   8.003 -0.3139 -0.1645 -1.5997
 6155SOL    HW229925   0.678   4.653   7.887  0.3965 -1.1682 -0.5931
 6156SOL     OW29926   1.949   2.954   8.441 -0.3631 -0.0844 -0.4108
 6156SOL    HW129927   1.857   2.980   8.431 -0.5262 -1.0120 -1.2545
 6156SOL    HW229928   1.991   3.034   8.409  1.3676 -0.7685  0.1827
 6157SOL     OW29929   4.078   4.594   4.781  0.0838  0.7290 -0.0293
 6157SOL    HW129930   4.009   4.579   4.717  1.2343 -0.9336 -0.8891
 6157SOL    HW229931   4.153   4.539   4.757  0.5530  0.2944  2.4426
 6158SOL     OW29932   0.708   3.617   1.861 -0.3963  0.2348 -0.5858
 6158SOL    HW129933   0.713   3.571   1.777 -1.5531  0.8962 -1.0017
 6158SOL    HW229934   0.779   3.571   1.906 -1.3600  0.0285  0.7215
 6159SOL     OW29935   3.881   2.475  12.924  0.1010  0.0770  0.0589
 6159SOL    HW129936   3.796   2.456  12.885  0.0054 -0.0100  0.3091
 6159SOL    HW229937   3.906   2.384  12.938  1.8879  0.6730  0.7266
 6160SOL     OW29938   0.390   2.531   4.859 -0.7579  1.1681  0.3187
 6160SOL    HW129939   0.397   2.626   4.852  2.5245  0.9075  0.2747
 6160SOL    HW229940   0.384   2.537   4.954  0.6171  1.1492  0.3963
 6161SOL     OW29941   2.793   3.397   7.711  0.2947 -0.1468  0.1962
 6161SOL    HW129942   2.862   3.396   7.777  2.4267  1.3027 -2.0179
 6161SOL    HW229943   2.852   3.392   7.636  1.1807 -2.5367  1.0485
 6162SOL     OW29944   0.247   1.169   3.177 -0.2580 -0.4185 -0.0644
 6162SOL    HW129945   0.241   1.213   3.262  0.8418  0.8564 -0.6553
 6162SOL    HW229946   0.196   1.089   3.190  0.7192 -0.8617  1.0611
 6163SOL     OW29947   1.492   3.913   6.267  0.1505  0.0959 -0.4383
 6163SOL    HW129948   1.451   3.990   6.306 -1.1243  0.4667 -2.4613
 6163SOL    HW229949   1.557   3.893   6.334 -0.6112 -1.7172 -0.2328
 6164SOL     OW29950   1.518   2.076   7.559  0.2349  0.4449 -0.2362
 6164SOL    HW129951   1.593   2.023   7.530  0.0212 -0.7606  1.3947
 6164SOL    HW229952   1.453   2.009   7.581 -2.8864  2.9431 -1.9204
 6165SOL     OW29953   2.778   3.091   8.502 -0.3561  0.1258 -0.0611
 6165SOL    HW129954   2.747   3.069   8.589 -0.3374 -1.6815 -0.5061
 6165SOL    HW229955   2.867   3.110   8.532  0.3084 -0.6621 -1.4796
 6166SOL     OW29956   4.284   3.038   5.386  0.2061 -0.0732  0.1183
 6166SOL    HW129957   4.199   3.015   5.348  0.1932 -0.3573  0.3239
 6166SOL    HW229958   4.283   2.980   5.462  0.6720  0.0807  0.2430
 6167SOL     OW29959   0.565   3.625   7.449 -0.1354 -0.3952  0.4710
 6167SOL    HW129960   0.624   3.682   7.499  1.0339  0.1341 -1.5089
 6167SOL    HW229961   0.619   3.561   7.402 -0.7890  0.2816 -1.1990
 6168SOL     OW29962   4.694   1.948   8.206  0.4979 -0.5528  0.2339
 6168SOL    HW129963   4.699   2.026   8.151  0.1609  0.5452  1.7493
 6168SOL    HW229964   4.599   1.940   8.208  0.2525  1.5565 -2.5601
 6169SOL     OW29965   1.018   0.856   1.309  0.1291 -0.1324  0.0110
 6169SOL    HW129966   0.964   0.933   1.293 -0.4649 -1.1273 -2.8124
 6169SOL    HW229967   1.030   0.825   1.219  2.0178  1.6615 -0.3602
 6170SOL     OW29968   2.036   3.274  17.318 -0.3733  0.1927 -0.3376
 6170SOL    HW129969   2.070   3.357  17.349 -1.2653  0.6591 -0.6223
 6170SOL    HW229970   2.074   3.208  17.376 -0.3281  3.1726  2.9316
 6171SOL     OW29971   4.573   3.170   2.406 -0.7306 -0.2101 -0.3419
 6171SOL    HW129972   4.654   3.172   2.356 -1.0821  0.1468 -0.9039
 6171SOL    HW229973   4.607   3.202   2.490 -3.8305  0.8014  0.5451
 6172SOL     OW29974   4.707   0.757   4.724 -0.5855 -0.2986 -0.2849
 6172SOL    HW129975   4.714   0.706   4.805 -0.1990 -0.0778 -0.1794
 6172SOL    HW229976   0.059   0.732   4.670  1.0875  1.8230  1.0612
 6173SOL     OW29977   4.180   1.250   1.974  0.2427 -0.1850 -0.2513
 6173SOL    HW129978   4.271   1.235   1.947  1.2656  0.0916  3.1237
 6173SOL    HW229979   4.125   1.232   1.897  0.6860  2.2132 -1.1360
 6174SOL     OW29980   3.804   3.821   5.393  0.4042  0.2372 -0.1576
 6174SOL    HW129981   3.867   3.793   5.459  2.2543  1.7536 -1.3001
 6174SOL    HW229982   3.792   3.913   5.417 -1.3411 -0.0018 -0.1249
 6175SOL     OW29983   2.169   3.010  14.841 -0.2767  0.3842 -0.2974
 6175SOL    HW129984   2.196   2.951  14.912 -0.1149  2.3971  1.2872
 6175SOL    HW229985   2.078   3.035  14.860 -0.2576 -1.2747  2.0232
 6176SOL     OW29986   4.200   3.146  10.999  0.0064  0.4432  0.5158
 6176SOL    HW129987   4.157   3.190  11.073  1.5247  0.5114  1.3747
 6176SOL    HW229988   4.121   3.111  10.959  0.3215  1.1044 -0.6811
 6177SOL     OW29989   2.689   0.849  16.068 -0.2142 -0.0338  0.1904
 6177SOL    HW129990   2.690   0.884  15.979 -2.1410  0.2322  0.2753
 6177SOL    HW229991   2.749   0.912  16.108  0.6682 -1.9221  1.8610
 6178SOL     OW29992   3.470   3.415   8.835  0.7473 -0.1428  0.1497
 6178SOL    HW129993   3.533   3.477   8.873  1.3439  0.4024 -1.7540
 6178SOL    HW229994   3.405   3.418   8.905 -0.8931  2.0752 -1.4760
 6179SOL     OW29995   3.162   3.380   9.569 -0.4932  0.6565 -0.0094
 6179SOL    HW129996   3.091   3.380   9.506  0.5206 -2.3499 -1.1742
 6179SOL    HW229997   3.146   3.291   9.602  0.1203  0.9900  1.2002
 6180SOL     OW29998   3.582   3.197   3.166 -0.0461 -0.7521 -0.2799
 6180SOL    HW129999   3.577   3.246   3.083  3.2710  0.3313  0.1605
 6180SOL    HW230000   3.613   3.275   3.212 -2.0440 -0.4118  0.4408
 6181SOL     OW30001   2.304   4.498  13.696  0.2189  0.1690  0.3338
 6181SOL    HW130002   2.398   4.514  13.692  0.1348  0.5686 -0.0855
 6181SOL    HW230003   2.266   4.586  13.695  0.0748  0.1113  1.3727
 6182SOL     OW30004   0.614   3.293  10.441 -0.3375 -0.3561 -0.1555
 6182SOL    HW130005   0.629   3.210  10.488 -1.5927 -0.9004 -0.6957
 6182SOL    HW230006   0.701   3.331  10.437 -0.5540 -0.0932 -2.4006
 6183SOL     OW30007   2.759   2.544  16.029 -0.5996 -0.0104 -0.3339
 6183SOL    HW130008   2.717   2.582  15.953  2.6220  2.9800 -0.6081
 6183SOL    HW230009   2.847   2.521  15.998  0.4995  4.1572 -0.2066
 6184SOL     OW30010   4.174   4.570   2.104 -0.4450  0.0968 -0.4119
 6184SOL    HW130011   4.131   4.655   2.090  2.2063  1.6830  1.2053
 6184SOL    HW230012   4.260   4.599   2.074  0.6163 -0.5155  2.0691
 6185SOL     OW30013   2.810   1.705   9.668  0.7915  0.0606  0.6601
 6185SOL    HW130014   2.737   1.738   9.720 -1.6376 -3.0963 -0.7199
 6185SOL    HW230015   2.847   1.787   9.634  2.2892 -0.1259  1.8258
 6186SOL     OW30016   0.012   0.274  11.064 -0.0262 -0.0778  0.1367
 6186SOL    HW130017   4.660   0.313  11.017  1.3604  1.0535 -1.1216
 6186SOL    HW230018   4.679   0.226  11.125 -1.1164 -1.0059 -1.5631
 6187SOL     OW30019   4.324   2.938  11.101 -0.0485  0.4911  0.0228
 6187SOL    HW130020   4.288   3.011  11.051 -1.2901  0.3644  0.7524
 6187SOL    HW230021   4.318   2.981  11.186 -0.1127  0.8863 -0.1828
 6188SOL     OW30022   3.028   0.260  14.503  0.4256  0.3787  0.2136
 6188SOL    HW130023   2.969   0.272  14.578  2.1211  0.6284  1.4950
 6188SOL    HW230024   2.971   0.267  14.426 -1.0688  0.8087  1.3577
 6189SOL     OW30025   1.740   2.397  11.579  0.1038 -0.4161 -0.2737
 6189SOL    HW130026   1.800   2.462  11.544 -1.0642  0.5884 -0.3757
 6189SOL    HW230027   1.680   2.455  11.625  0.3545  0.8719 -1.5604
 6190SOL     OW30028   1.695   1.856   6.512  0.1695  0.3641  0.1405
 6190SOL    HW130029   1.722   1.878   6.422 -1.4875 -0.5762 -0.5841
 6190SOL    HW230030   1.698   1.939   6.560  0.0968  0.2459  0.3445
 6191SOL     OW30031   1.347   1.501   0.054  0.1672  0.6892  0.0896
 6191SOL    HW130032   1.332   1.434  17.681 -0.6198  0.1856  0.7888
 6191SOL    HW230033   1.284   1.487   0.124  1.0637 -0.4111  0.6805
 6192SOL     OW30034   2.019   4.529   3.948  0.7363  0.1716 -0.4848
 6192SOL    HW130035   2.019   4.589   3.873 -1.6060  2.0914  1.0378
 6192SOL    HW230036   2.095   4.573   3.986  1.4188 -1.4032 -0.0068
 6193SOL     OW30037   3.814   1.077  12.509 -0.0775  0.1534 -0.3735
 6193SOL    HW130038   3.902   1.115  12.516  0.8218 -2.0270  0.2852
 6193SOL    HW230039   3.804   1.092  12.415  1.9875  1.4108 -0.3978
 6194SOL     OW30040   0.778   2.614   5.036  0.0298 -1.0923  0.7623
 6194SOL    HW130041   0.758   2.545   5.099 -1.9081 -0.2394  1.0668
 6194SOL    HW230042   0.808   2.687   5.091  0.5815 -1.3693  0.8271
 6195SOL     OW30043   0.461   0.963   6.589  0.1079  0.3113 -0.5788
 6195SOL    HW130044   0.395   0.902   6.556 -0.2241  0.2345  0.2327
 6195SOL    HW230045   0.439   0.977   6.681  0.5548 -1.0864 -0.2602
 6196SOL     OW30046   1.493   1.655   3.771  0.6944 -0.0093  0.1428
 6196SOL    HW130047   1.545   1.729   3.740  1.8100 -0.0983  1.7815
 6196SOL    HW230048   1.419   1.685   3.718  0.9487 -2.7132 -1.7468
 6197SOL     OW30049   2.448   0.474   5.664 -0.1760  0.3743 -0.4254
 6197SOL    HW130050   2.416   0.521   5.587  0.1184  0.1438 -0.6866
 6197SOL    HW230051   2.371   0.451   5.717  0.3675  1.1268  0.6941
 6198SOL     OW30052   2.697   4.409   3.485  0.8831  0.0475 -0.1145
 6198SOL    HW130053   2.752   4.381   3.558 -0.2250  1.3361  1.2164
 6198SOL    HW230054   2.618   4.363   3.515  0.9628 -0.3429 -0.5062
 6199SOL     OW30055   3.479   1.144   7.935  0.1310 -0.0857  0.1605
 6199SOL    HW130056   3.400   1.100   7.904  1.3391 -1.5382 -0.8788
 6199SOL    HW230057   3.551   1.109   7.882  1.6639  0.7183  1.6991
 6200SOL     OW30058   0.825   2.528   2.527  0.0955 -0.3070 -0.1347
 6200SOL    HW130059   0.780   2.530   2.611 -0.3441  0.9822 -0.3915
 6200SOL    HW230060   0.915   2.519   2.558 -0.3157  1.3396  1.5360
 6201SOL     OW30061   3.377   1.822   1.584 -0.0716  0.2106  0.8971
 6201SOL    HW130062   3.332   1.837   1.668 -1.9951 -0.2663 -0.0606
 6201SOL    HW230063   3.462   1.789   1.613  1.5911  4.5019  1.0128
 6202SOL     OW30064   3.127   3.689  10.482  0.2955 -0.7277 -0.2464
 6202SOL    HW130065   3.156   3.777  10.459 -0.3951 -0.0819  1.3741
 6202SOL    HW230066   3.105   3.693  10.575  1.5908 -1.4898  0.0956
 6203SOL     OW30067   1.048   3.041   7.847 -0.7530  0.4138 -0.1795
 6203SOL    HW130068   0.999   3.122   7.859 -0.6143  0.4346  0.2451
 6203SOL    HW230069   0.978   2.980   7.870 -0.9795  0.7105 -0.0960
 6204SOL     OW30070   1.580   3.987   4.162  0.1108 -0.5162  0.1507
 6204SOL    HW130071   1.554   4.014   4.250 -0.9510 -1.4799  0.1296
 6204SOL    HW230072   1.597   4.075   4.127  0.0336 -0.5182  0.1084
 6205SOL     OW30073   2.989   4.721   4.321  0.3501 -0.6756 -0.3188
 6205SOL    HW130074   3.064   4.719   4.381 -0.2407 -0.4820  0.4187
 6205SOL    HW230075   2.981   0.093   4.306 -3.8928 -0.6630  2.0724
 6206SOL     OW30076   3.457   1.829   9.377 -0.1019  0.1635 -0.1626
 6206SOL    HW130077   3.473   1.791   9.464 -1.1478 -0.2544 -0.1508
 6206SOL    HW230078   3.536   1.805   9.329 -0.0181  1.0461 -0.4552
 6207SOL     OW30079   2.040   0.999  11.040  0.0009  0.3294  0.3269
 6207SOL    HW130080   2.008   0.975  11.127 -0.9206 -2.2060 -0.7085
 6207SOL    HW230081   2.109   1.058  11.072  1.0708  0.1303 -1.5930
 6208SOL     OW30082   2.231   2.724  15.323 -0.0513 -0.2337  0.1430
 6208SOL    HW130083   2.272   2.646  15.284 -0.2430 -1.1195  1.7319
 6208SOL    HW230084   2.293   2.793  15.300 -0.5826  0.7180  1.5928
 6209SOL     OW30085   1.404   2.576  15.352  0.1772  0.1416  0.3638
 6209SOL    HW130086   1.473   2.556  15.289  2.0180  1.9424  1.8104
 6209SOL    HW230087   1.355   2.494  15.358  0.2958  0.0829  0.5221
 6210SOL     OW30088   3.467   4.177   4.721 -0.5169  0.4362 -0.2525
 6210SOL    HW130089   3.390   4.179   4.663 -0.1989 -2.1224 -0.7653
 6210SOL    HW230090   3.482   4.082   4.718 -3.6735 -0.0915 -0.1070
 6211SOL     OW30091   4.603   2.547   7.852 -0.0212 -0.5499 -0.4428
 6211SOL    HW130092   4.569   2.465   7.887 -1.2501  0.3220  0.4121
 6211SOL    HW230093   4.543   2.610   7.892  1.4880  0.8147 -0.2884
 6212SOL     OW30094   1.873   3.409  15.359  0.4887  0.0830  0.4642
 6212SOL    HW130095   1.839   3.487  15.403 -0.5552 -0.5129  0.7135
 6212SOL    HW230096   1.962   3.437  15.337  1.3712 -1.9322  1.5225
 6213SOL     OW30097   1.237   4.082   4.776 -0.4326  0.1997  0.3367
 6213SOL    HW130098   1.155   4.095   4.728 -0.3954  0.9812  0.4911
 6213SOL    HW230099   1.273   4.170   4.770 -1.8610  0.6606 -1.2616
 6214SOL     OW30100   0.488   4.361  15.055 -0.1742 -0.2763  0.0932
 6214SOL    HW130101   0.543   4.347  14.979  2.1965 -0.3170  1.8180
 6214SOL    HW230102   0.405   4.394  15.022 -0.6343  0.3573  1.8761
 6215SOL     OW30103   1.191   2.074   9.039 -0.0102 -0.3859  0.3064
 6215SOL    HW130104   1.174   1.989   9.079 -0.0770 -0.6598 -0.3032
 6215SOL    HW230105   1.214   2.124   9.117  0.0385  1.1179 -0.6697
 6216SOL     OW30106   1.640   3.352  12.773 -0.1008 -0.0445  0.0467
 6216SOL    HW130107   1.571   3.385  12.714 -0.6266  0.6034  1.0165
 6216SOL    HW230108   1.591   3.340  12.854 -1.3794  0.6800 -0.6032
 6217SOL     OW30109   1.633   1.584   3.305  0.3608 -0.1110 -0.1484
 6217SOL    HW130110   1.589   1.666   3.326  2.6762  1.5993 -1.8931
 6217SOL    HW230111   1.576   1.519   3.344 -2.1871  2.1341 -0.1450
 6218SOL     OW30112   0.066   0.921   2.526 -0.5712  0.0828 -0.3690
 6218SOL    HW130113   0.148   0.882   2.496  0.3588  0.6408  1.5135
 6218SOL    HW230114   0.088   1.013   2.538  0.0256  0.0626 -1.3164
 6219SOL     OW30115   4.260   1.265   2.621  0.4457  0.1820  0.4598
 6219SOL    HW130116   4.181   1.299   2.662 -0.7234 -3.5049  1.2828
 6219SOL    HW230117   4.273   1.179   2.661  1.4198 -0.5972 -1.5654
 6220SOL     OW30118   0.051   3.603   5.489 -0.2370  0.1161 -0.4655
 6220SOL    HW130119   4.704   3.646   5.538  0.8617  0.2405  0.9893
 6220SOL    HW230120   0.004   3.597   5.406 -1.0450 -1.5046  0.1155
 6221SOL     OW30121   4.216   1.344   3.564 -0.8243 -0.2445 -0.4283
 6221SOL    HW130122   4.190   1.269   3.618  0.1045 -0.3780 -0.1576
 6221SOL    HW230123   4.307   1.359   3.590 -0.5047 -2.3324 -0.3613
 6222SOL     OW30124   0.334   2.299   6.765 -0.2081  0.5066  0.3925
 6222SOL    HW130125   0.285   2.235   6.713  1.7099 -0.7503  0.1151
 6222SOL    HW230126   0.403   2.247   6.808 -2.2756 -0.7759  2.1264
 6223SOL     OW30127   2.456   1.143  14.322 -0.3513  0.1194  0.0391
 6223SOL    HW130128   2.527   1.161  14.384 -0.0240 -2.7910  0.4907
 6223SOL    HW230129   2.496   1.167  14.238 -1.4739 -1.2238 -0.8907
 6224SOL     OW30130   3.383   3.633   7.812  0.2781  0.8495 -0.2302
 6224SOL    HW130131   3.332   3.604   7.889  1.7229 -1.7535 -0.2528
 6224SOL    HW230132   3.390   3.559   7.752  1.0339 -0.7087  1.7473
 6225SOL     OW30133   4.074   0.909   4.454  0.2819  0.3754  0.2092
 6225SOL    HW130134   4.010   0.845   4.485  0.2512  1.1574  1.7483
 6225SOL    HW230135   4.089   0.955   4.536  0.2267  2.1221 -0.7521
 6226SOL     OW30136   1.361   1.278   6.995 -0.1947  0.5057 -0.4846
 6226SOL    HW130137   1.313   1.223   6.933  0.4954 -1.0604  0.3680
 6226SOL    HW230138   1.370   1.363   6.953  0.1840 -0.6944 -2.8363
 6227SOL     OW30139   2.681   2.555   3.865 -0.3211  0.0758 -0.5921
 6227SOL    HW130140   2.758   2.578   3.917 -1.6197  1.1622  0.8438
 6227SOL    HW230141   2.696   2.463   3.844 -1.1643  0.5394 -3.2562
 6228SOL     OW30142   2.358   2.464   9.270  0.4842 -0.3430  0.1814
 6228SOL    HW130143   2.339   2.401   9.200  1.7525  0.4596 -0.8688
 6228SOL    HW230144   2.291   2.532   9.257 -0.1577 -1.0599 -0.2471
 6229SOL     OW30145   0.698   1.651   9.438 -0.2810  0.6001 -0.3353
 6229SOL    HW130146   0.747   1.606   9.370 -1.0670  0.8320 -1.0434
 6229SOL    HW230147   0.682   1.569   9.485  1.4703 -0.5754 -1.8267
 6230SOL     OW30148   1.671   3.894   8.910  0.3428 -0.6303  0.4478
 6230SOL    HW130149   1.702   3.876   8.999  2.1669 -1.6891 -0.4288
 6230SOL    HW230150   1.610   3.966   8.928  0.2712 -0.6837  0.4186
 6231SOL     OW30151   1.932   3.708   7.868 -0.0898 -0.0342 -0.8114
 6231SOL    HW130152   1.966   3.626   7.833 -0.4889 -0.6563  0.2767
 6231SOL    HW230153   1.837   3.698   7.867 -0.1194  0.2783 -1.1803
 6232SOL     OW30154   4.650   4.635   8.093 -0.1370 -0.1280 -0.0311
 6232SOL    HW130155   4.596   4.557   8.081 -0.0855 -0.0245 -0.8854
 6232SOL    HW230156   4.607   4.670   8.171  0.7826 -2.4671  1.5206
 6233SOL     OW30157   2.309   0.286   9.077  0.4918 -0.5320 -0.1009
 6233SOL    HW130158   2.380   0.262   9.017  0.2965 -0.2002 -0.4723
 6233SOL    HW230159   2.337   0.355   9.138 -0.4455  0.4428 -0.7699
 6234SOL     OW30160   1.156   2.991   7.194 -0.2835  0.0887  0.2505
 6234SOL    HW130161   1.203   2.958   7.118  0.8201  1.0433  0.5226
 6234SOL    HW230162   1.070   2.950   7.185 -2.1721  4.6329 -2.1615
 6235SOL     OW30163   0.689   0.818   8.554 -0.4114 -0.2319 -0.4095
 6235SOL    HW130164   0.779   0.848   8.566 -0.9572  1.6082 -0.9516
 6235SOL    HW230165   0.645   0.885   8.607 -0.4068 -1.2576  0.8947
 6236SOL     OW30166   1.326   1.276   4.633  0.3729 -0.2941  0.1270
 6236SOL    HW130167   1.307   1.367   4.610  1.1719 -0.4633 -1.2347
 6236SOL    HW230168   1.376   1.301   4.711 -3.1445  2.3048  1.5263
 6237SOL     OW30169   1.730   2.221   2.076  0.1966 -0.0505 -0.1291
 6237SOL    HW130170   1.780   2.210   2.156 -0.4124  1.5855  0.4718
 6237SOL    HW230171   1.720   2.131   2.044 -0.5021 -0.0396  0.0655
 6238SOL     OW30172   0.376   1.261   4.952 -0.0909  0.3583  0.7803
 6238SOL    HW130173   0.392   1.289   5.042  0.5385  1.7595  0.2258
 6238SOL    HW230174   0.454   1.211   4.928 -0.4624  0.6749 -1.0098
 6239SOL     OW30175   3.955   1.535   5.312  0.6044  0.5424  0.5637
 6239SOL    HW130176   3.884   1.591   5.343 -1.4801 -1.6480 -0.2771
 6239SOL    HW230177   4.003   1.598   5.257  2.1813  0.5049  1.8784
 6240SOL     OW30178   3.236   3.356   6.782  0.2699  0.4534  0.2732
 6240SOL    HW130179   3.189   3.296   6.841 -0.4496 -0.4299 -1.1764
 6240SOL    HW230180   3.175   3.355   6.708  0.5658 -3.2334  0.0485
 6241SOL     OW30181   0.590   4.018   1.576  0.4735 -0.1235  0.0263
 6241SOL    HW130182   0.563   4.106   1.549  0.0740 -0.5880 -1.0517
 6241SOL    HW230183   0.681   4.013   1.546  0.5424 -1.0501  0.3922
 6242SOL     OW30184   3.010   2.053  17.587  0.1058 -0.0899  0.0460
 6242SOL    HW130185   3.064   2.132  17.592  1.7832 -1.2363  0.0800
 6242SOL    HW230186   3.015   2.033  17.681  1.6459  4.0579  0.8576
 6243SOL     OW30187   3.341   4.472   7.336 -0.3167 -0.2381 -0.3340
 6243SOL    HW130188   3.417   4.529   7.348 -0.5053 -0.6403  2.7708
 6243SOL    HW230189   3.272   4.538   7.331 -0.1717  0.1400  2.6618
 6244SOL     OW30190   0.737   1.755  15.639  0.2019  0.3613  0.7057
 6244SOL    HW130191   0.743   1.675  15.691  2.1147  0.4980  0.7072
 6244SOL    HW230192   0.691   1.804  15.708 -2.0120 -1.4991  0.5496
 6245SOL     OW30193   1.069   3.860   0.860 -0.1659 -0.4886  0.4466
 6245SOL    HW130194   1.037   3.815   0.938  0.9759 -1.3479  0.4206
 6245SOL    HW230195   1.045   3.948   0.887  2.9870  0.2324  0.8538
 6246SOL     OW30196   3.442   0.723   7.934  0.0441  0.5467  0.2443
 6246SOL    HW130197   3.389   0.661   7.884  0.1666 -0.2909  1.1583
 6246SOL    HW230198   3.526   0.686   7.906 -0.8309 -1.3954  0.1571
 6247SOL     OW30199   4.611   2.389   1.907 -0.1932  0.1283 -0.7208
 6247SOL    HW130200   4.664   2.330   1.854  0.7406 -0.6585  1.1059
 6247SOL    HW230201   4.545   2.333   1.948  0.4545 -0.1564 -0.0644
 6248SOL     OW30202   2.182   4.107  13.510 -0.0892  0.8036 -0.6233
 6248SOL    HW130203   2.275   4.106  13.487  0.1886 -0.3724  0.5739
 6248SOL    HW230204   2.137   4.099  13.426 -2.8083 -0.8078  1.0083
 6249SOL     OW30205   4.389   1.813  13.717  0.0506  0.3338 -0.1861
 6249SOL    HW130206   4.365   1.737  13.664  1.5390 -0.5653  0.4329
 6249SOL    HW230207   4.413   1.772  13.800 -0.8371  1.4775  0.6446
 6250SOL     OW30208   4.617   1.095   6.925  0.0572  0.0321 -0.1207
 6250SOL    HW130209   4.609   1.075   6.832  2.2417 -2.9718  0.3468
 6250SOL    HW230210   4.630   1.190   6.925  1.6080 -0.1895 -0.1600
 6251SOL     OW30211   3.579   2.869   9.357 -0.3695  0.2379  0.3152
 6251SOL    HW130212   3.569   2.962   9.374  1.5769  1.0530 -2.8691
 6251SOL    HW230213   3.559   2.823   9.438 -1.4594  0.8712  0.3940
 6252SOL     OW30214   1.923   1.790  10.809 -0.4995 -0.1006  0.3871
 6252SOL    HW130215   1.981   1.865  10.801  1.5339 -1.8659 -1.4196
 6252SOL    HW230216   1.997   1.731  10.817 -0.9516 -0.8151 -0.7296
 6253SOL     OW30217   4.663   2.937   8.560 -0.3474  0.0078 -0.0272
 6253SOL    HW130218   4.581   2.965   8.519 -0.2725  0.0062 -0.1781
 6253SOL    HW230219   4.719   3.013   8.545  0.7940 -1.5196 -3.4946
 6254SOL     OW30220   0.750   2.995   8.565 -0.3787 -0.2399  0.2475
 6254SOL    HW130221   0.654   2.989   8.564 -0.5029  1.6363 -0.4329
 6254SOL    HW230222   0.772   2.983   8.657  1.6593  3.6774  0.2966
 6255SOL     OW30223   3.876   0.071   2.784  0.3643 -0.0373  0.0998
 6255SOL    HW130224   3.869   0.139   2.851 -0.3596  1.2300 -1.2501
 6255SOL    HW230225   3.852   0.116   2.703  1.1259  2.6850  1.3957
 6256SOL     OW30226   0.056   2.379   2.530  0.5150  0.3278 -0.2048
 6256SOL    HW130227   0.140   2.340   2.507  0.5206 -0.8004  1.7642
 6256SOL    HW230228   0.035   2.313   2.597  1.6953  0.6911  0.5195
 6257SOL     OW30229   1.759   2.776   2.042  0.2787  0.5497 -0.4005
 6257SOL    HW130230   1.691   2.828   2.083 -0.4974  0.8197 -2.0346
 6257SOL    HW230231   1.835   2.831   2.023 -0.2853  0.8241 -1.8731
 6258SOL     OW30232   3.712   3.365   2.866 -0.2070 -0.4923 -0.2405
 6258SOL    HW130233   3.629   3.372   2.914  0.1534  2.8911 -0.1744
 6258SOL    HW230234   3.710   3.275   2.833 -1.0439 -0.2856 -0.7248
 6259SOL     OW30235   0.088   1.290   4.896 -0.2861 -0.0969  0.1911
 6259SOL    HW130236   0.180   1.285   4.922 -0.5282 -1.4223  0.7821
 6259SOL    HW230237   0.075   1.212   4.843  0.9316 -0.9733  1.1720
 6260SOL     OW30238   4.004   1.647   1.296  0.3623 -0.1379 -0.0528
 6260SOL    HW130239   4.024   1.696   1.376  1.3954 -0.8371  0.1109
 6260SOL    HW230240   3.941   1.582   1.329 -1.2184  2.0338  1.2376
 6261SOL     OW30241   1.859   3.669   5.899 -0.7491 -0.3844  0.4512
 6261SOL    HW130242   1.846   3.644   5.991  1.8396  2.7995  1.6694
 6261SOL    HW230243   1.892   3.594   5.848  0.9872  0.9757 -0.4075
 6262SOL     OW30244   1.688   0.028   8.948  1.0477 -0.3821 -0.6851
 6262SOL    HW130245   1.667   0.024   9.041 -1.3432 -0.2901 -1.2331
 6262SOL    HW230246   1.686   4.661   8.916  1.8389 -0.8104  0.4774
 6263SOL     OW30247   0.965   0.016  17.545  0.0978 -0.2665 -0.3574
 6263SOL    HW130248   1.027   0.057  17.605  1.5270 -0.9656 -1.3666
 6263SOL    HW230249   0.991   0.074  17.472 -0.8360  0.2446 -0.2801
 6264SOL     OW30250   2.850   0.942   6.403  0.1112 -0.1090  0.1572
 6264SOL    HW130251   2.786   0.931   6.473  2.2738 -0.1385  2.1414
 6264SOL    HW230252   2.833   0.858   6.361 -1.3579 -0.7756  2.0931
 6265SOL     OW30253   0.823   1.091  15.912 -0.1689 -0.2370  0.5530
 6265SOL    HW130254   0.776   1.061  15.834 -0.2349 -1.1358  0.9414
 6265SOL    HW230255   0.755   1.086  15.980 -2.1601 -0.9658 -1.4910
 6266SOL     OW30256   2.113   4.099   8.424 -0.3300 -0.3343 -0.1702
 6266SOL    HW130257   2.145   4.145   8.348 -0.3314 -2.4901 -1.4853
 6266SOL    HW230258   2.126   4.007   8.402  0.6594  0.3138 -2.2056
 6267SOL     OW30259   0.194   4.687   4.235  0.2397  0.1253  0.9234
 6267SOL    HW130260   0.261   4.624   4.207 -0.1857  0.2440 -0.3401
 6267SOL    HW230261   0.229   0.045   4.197 -0.8158  0.1852  0.0913
 6268SOL     OW30262   1.781   0.879   9.041 -0.6212 -0.3595  0.2413
 6268SOL    HW130263   1.868   0.880   9.081  0.1048 -0.3676 -1.3393
 6268SOL    HW230264   1.729   0.857   9.119 -0.4996  3.4261  1.3950
 6269SOL     OW30265   1.429   0.355  14.420 -0.3165  0.3302 -0.6386
 6269SOL    HW130266   1.453   0.267  14.391  1.0552  0.6984 -0.5967
 6269SOL    HW230267   1.432   0.397  14.334 -0.2908  0.9109 -0.3546
 6270SOL     OW30268   0.246   1.844   3.318  0.3435 -0.0265 -0.4720
 6270SOL    HW130269   0.200   1.868   3.237 -2.8074 -1.3425  0.9278
 6270SOL    HW230270   0.333   1.882   3.320  0.7530 -0.9392 -0.9461
 6271SOL     OW30271   2.587   3.279   8.433 -0.0043 -0.1480  0.2982
 6271SOL    HW130272   2.667   3.240   8.467 -0.6732 -1.2070  0.6677
 6271SOL    HW230273   2.631   3.359   8.404 -1.6957  0.4268 -0.7131
 6272SOL     OW30274   3.121   0.124   3.900  0.0367  0.1414 -0.1132
 6272SOL    HW130275   3.119   0.219   3.892  1.0242  0.0962 -0.7637
 6272SOL    HW230276   3.141   0.101   3.810  0.5428 -1.2130  0.3436
 6273SOL     OW30277   3.524   1.456  10.385  0.4048  0.2887 -0.3617
 6273SOL    HW130278   3.519   1.424  10.295  0.8915  1.3944 -0.7720
 6273SOL    HW230279   3.603   1.418  10.423  0.8625  2.6395  0.9917
 6274SOL     OW30280   2.353   0.868  11.158  0.2526  0.2193 -0.0410
 6274SOL    HW130281   2.430   0.879  11.213 -1.0648  1.4629  1.5689
 6274SOL    HW230282   2.298   0.937  11.195  0.4455  1.0487 -1.3262
 6275SOL     OW30283   0.880   2.855   1.774 -0.2413  0.1316  0.4785
 6275SOL    HW130284   0.934   2.871   1.851  0.9592  3.0219 -1.0122
 6275SOL    HW230285   0.840   2.941   1.765  1.0172  0.8086  1.4263
 6276SOL     OW30286   2.287   3.941   9.373  0.0566  0.6818  0.3331
 6276SOL    HW130287   2.229   3.960   9.447 -1.1989 -1.9178  0.0198
 6276SOL    HW230288   2.369   3.991   9.379  0.8673 -0.5592 -0.3811
 6277SOL     OW30289   3.239   2.527   6.319 -0.1308  0.1586  0.1431
 6277SOL    HW130290   3.318   2.474   6.334  0.4328  0.9878  0.1130
 6277SOL    HW230291   3.186   2.456   6.283 -1.0125  0.9227 -0.0720
 6278SOL     OW30292   4.563   0.734   4.496 -0.3629 -0.5002  0.2958
 6278SOL    HW130293   4.629   0.720   4.564 -1.5842  2.7077  2.1535
 6278SOL    HW230294   4.603   0.799   4.438  0.1921  1.1855  2.5655
 6279SOL     OW30295   2.579   0.539  16.819  0.0658 -0.6311  0.0929
 6279SOL    HW130296   2.519   0.524  16.892 -1.0514  0.2317 -0.6522
 6279SOL    HW230297   2.525   0.567  16.745 -0.2466  0.5226  0.7657
 6280SOL     OW30298   0.720   1.339  10.587 -0.4848 -0.4642  0.0010
 6280SOL    HW130299   0.751   1.297  10.668 -0.2994 -0.3229  0.0034
 6280SOL    HW230300   0.801   1.373  10.548 -1.4024  2.1711  0.4087
 6281SOL     OW30301   0.669   4.375  10.825 -0.3489  0.4612 -0.5575
 6281SOL    HW130302   0.605   4.384  10.896  0.2040  1.5921 -0.2003
 6281SOL    HW230303   0.651   4.282  10.806  3.4973  0.0066 -1.9364
 6282SOL     OW30304   0.205   3.343  16.822 -0.3186 -0.3184  0.1697
 6282SOL    HW130305   0.282   3.291  16.801 -0.5456  0.6345 -2.9165
 6282SOL    HW230306   0.179   3.392  16.744  0.0681 -1.8342 -0.8975
 6283SOL     OW30307   1.843   3.752   2.654 -0.0231  0.1607 -0.1161
 6283SOL    HW130308   1.784   3.814   2.697 -0.4286 -0.2998 -0.0048
 6283SOL    HW230309   1.897   3.728   2.729  0.6841  0.8814 -0.3969
 6284SOL     OW30310   4.000   4.672   4.306  0.1766  0.1434  0.1208
 6284SOL    HW130311   4.050   0.013   4.357  1.4281  0.1831 -1.1393
 6284SOL    HW230312   4.028   4.686   4.215 -0.4582  0.3444 -0.0428
 6285SOL     OW30313   3.672   3.564   7.759 -0.1746  0.5665  0.5777
 6285SOL    HW130314   3.767   3.572   7.755 -0.1243 -0.3082 -0.3254
 6285SOL    HW230315   3.677   3.473   7.789 -0.3699  0.7230  1.0654
 6286SOL     OW30316   2.862   1.753   1.120  0.2261 -0.2293 -0.3249
 6286SOL    HW130317   2.795   1.805   1.078  2.1204  1.4705 -1.2283
 6286SOL    HW230318   2.891   1.702   1.044  0.9655 -0.0261 -0.1837
 6287SOL     OW30319   4.061   2.052   3.152  0.6986  0.5164 -0.4766
 6287SOL    HW130320   4.106   2.030   3.234  1.2334 -1.4857 -1.2953
 6287SOL    HW230321   4.115   2.003   3.090 -0.0772 -1.6061  0.5351
 6288SOL     OW30322   3.970   4.086   3.605  0.1622  0.3590  0.1476
 6288SOL    HW130323   3.984   3.992   3.591 -2.8736 -0.4623  2.6358
 6288SOL    HW230324   4.058   4.114   3.629  0.4145  1.3564 -1.9372
 6289SOL     OW30325   2.548   4.242   8.955  0.4290 -0.2819  0.2774
 6289SOL    HW130326   2.496   4.316   8.923 -0.0836 -1.5191 -1.7702
 6289SOL    HW230327   2.482   4.174   8.944 -1.6832  1.7994 -0.0294
 6290SOL     OW30328   0.397   4.178  12.474 -0.0111  0.1245 -0.1169
 6290SOL    HW130329   0.354   4.199  12.391  0.1218 -0.2388 -0.2757
 6290SOL    HW230330   0.347   4.235  12.532 -0.2079  0.8627 -1.0155
 6291SOL     OW30331   3.845   0.026  16.963 -0.2959 -0.1536  0.4911
 6291SOL    HW130332   3.804   4.683  17.020  0.2359  0.1939  1.2756
 6291SOL    HW230333   3.915   4.691  16.933  0.9376  1.6548 -0.0940
 6292SOL     OW30334   2.426   1.325   7.104 -0.1526  0.0436  0.0267
 6292SOL    HW130335   2.346   1.375   7.084  1.2858  1.6347 -1.7547
 6292SOL    HW230336   2.400   1.282   7.185  2.3929 -3.7347 -1.1876
 6293SOL     OW30337   1.897   2.329   8.515  0.4168 -0.1844 -0.2003
 6293SOL    HW130338   1.958   2.317   8.588  2.4139 -0.3289 -1.8948
 6293SOL    HW230339   1.938   2.283   8.441  0.4839 -0.3146 -0.0819
 6294SOL     OW30340   0.810   2.480   9.767 -0.8122  0.2750 -0.7001
 6294SOL    HW130341   0.738   2.468   9.829  0.5885  1.3974  1.1597
 6294SOL    HW230342   0.799   2.395   9.724 -0.2486  0.7255 -1.7051
 6295SOL     OW30343   1.822   4.226  13.972  0.0139  0.4090  0.3781
 6295SOL    HW130344   1.863   4.212  14.057  0.8603  0.4822 -0.0148
 6295SOL    HW230345   1.883   4.175  13.918  1.0979  0.2197  1.8011
 6296SOL     OW30346   2.871   1.163  12.743 -0.6621 -0.1121 -0.0210
 6296SOL    HW130347   2.918   1.082  12.760  3.9426  2.6375  0.6163
 6296SOL    HW230348   2.785   1.135  12.773 -0.5870  0.6984  0.9540
 6297SOL     OW30349   2.299   0.934   9.404 -0.5580  0.0608 -0.4947
 6297SOL    HW130350   2.360   0.983   9.349  0.9257 -1.6795 -0.3809
 6297SOL    HW230351   2.324   0.963   9.492  1.7613  0.2414 -1.2140
 6298SOL     OW30352   1.918   3.921   8.784  0.2265  0.0482  0.0379
 6298SOL    HW130353   1.929   3.840   8.735  1.6093 -0.0309  0.4555
 6298SOL    HW230354   1.829   3.920   8.820 -0.0124  0.4378 -0.5507
 6299SOL     OW30355   1.362   2.140  13.843 -0.0355 -0.5802  0.5356
 6299SOL    HW130356   1.358   2.114  13.935 -0.9730  0.7600  0.8665
 6299SOL    HW230357   1.392   2.230  13.852  0.1181 -0.2905 -3.0750
 6300SOL     OW30358   3.973   2.763   0.871  0.3200  0.1360  0.6207
 6300SOL    HW130359   4.038   2.786   0.805  0.7032 -1.2244  0.5056
 6300SOL    HW230360   3.967   2.667   0.872 -3.6691  0.3742 -0.5666
 6301SOL     OW30361   1.689   4.249   3.439  0.0188  0.4073 -0.2600
 6301SOL    HW130362   1.742   4.317   3.397 -3.0726  3.0870  0.1784
 6301SOL    HW230363   1.655   4.288   3.520 -1.6308  1.3593 -1.4096
 6302SOL     OW30364   2.820   2.572   0.861 -0.2464  0.1906  0.2037
 6302SOL    HW130365   2.906   2.552   0.825 -0.6139 -0.2886 -0.4192
 6302SOL    HW230366   2.767   2.513   0.808 -2.1734  1.1992  0.9991
 6303SOL     OW30367   1.704   3.603  16.260  0.3448 -0.0339  1.0563
 6303SOL    HW130368   1.686   3.598  16.354 -1.0045 -1.5452  0.6976
 6303SOL    HW230369   1.615   3.589  16.230  1.0678 -1.0354 -0.5998
 6304SOL     OW30370   0.027   3.190  15.176 -0.0438  0.0131 -0.9885
 6304SOL    HW130371   0.003   3.120  15.236  2.6574 -1.3757 -1.5574
 6304SOL    HW230372   4.668   3.192  15.125 -2.0035 -0.7632  2.1158
 6305SOL     OW30373   0.831   0.327   8.534 -0.3426  0.1069  0.6761
 6305SOL    HW130374   0.753   0.312   8.481  1.6918 -1.4324 -1.8554
 6305SOL    HW230375   0.846   0.233   8.535 -1.4363 -0.1024 -2.2780
 6306SOL     OW30376   3.475   0.416   7.584  0.1702 -0.2506 -0.5492
 6306SOL    HW130377   3.441   0.372   7.662 -1.0086  2.5841  0.5611
 6306SOL    HW230378   3.423   0.497   7.584  0.7244  0.1071 -0.9713
 6307SOL     OW30379   2.230   0.662  14.178 -0.0053 -0.1683  0.0322
 6307SOL    HW130380   2.171   0.642  14.251 -0.4193 -0.2598 -0.3283
 6307SOL    HW230381   2.247   0.755  14.192  0.0763 -0.1737 -0.0304
 6308SOL     OW30382   2.452   1.928   5.761  0.0232 -0.0690  0.3019
 6308SOL    HW130383   2.403   2.007   5.783 -0.8785  0.0138 -2.0646
 6308SOL    HW230384   2.439   1.871   5.837  0.1999 -0.7460 -0.1759
 6309SOL     OW30385   4.418   2.139  12.865 -0.0818  0.4767 -0.2895
 6309SOL    HW130386   4.406   2.228  12.834 -0.7196  0.1332 -1.0207
 6309SOL    HW230387   4.355   2.119  12.934 -0.2892 -0.4795 -0.7626
 6310SOL     OW30388   1.329   4.360   8.413  0.2633 -0.5421 -0.3104
 6310SOL    HW130389   1.310   4.288   8.473  0.2650  0.2835  0.6663
 6310SOL    HW230390   1.247   4.410   8.410 -0.9558 -2.5712 -1.2507
 6311SOL     OW30391   2.605   4.082   9.980 -0.3474  0.0519  0.2366
 6311SOL    HW130392   2.612   3.991   9.949 -1.1970 -0.3673  1.2643
 6311SOL    HW230393   2.659   4.122   9.913  1.5819  0.3019  1.9529
 6312SOL     OW30394   2.995   1.216   5.303 -0.1174 -0.1143  0.1872
 6312SOL    HW130395   3.016   1.307   5.326  0.1649  0.1743 -1.2646
 6312SOL    HW230396   3.068   1.192   5.247  0.7273 -0.7370  1.5439
 6313SOL     OW30397   3.949   2.515   8.454  0.5117  1.2310 -0.2051
 6313SOL    HW130398   3.866   2.560   8.441 -0.6824 -0.9964 -0.2570
 6313SOL    HW230399   3.998   2.550   8.380  2.9948  0.0224  0.8654
 6314SOL     OW30400   1.949   3.334   8.413 -0.1581  0.0627 -0.0105
 6314SOL    HW130401   2.028   3.301   8.456 -0.3134  1.9886  1.7407
 6314SOL    HW230402   1.972   3.327   8.320 -0.2947 -0.6383  0.0110
 6315SOL     OW30403   4.397   3.315   6.518  0.3273  0.1563 -0.2521
 6315SOL    HW130404   4.460   3.367   6.469  0.6270 -2.0945 -2.2692
 6315SOL    HW230405   4.326   3.379   6.528  1.5647  1.0737  2.7081
 6316SOL     OW30406   3.479   0.657   6.947 -0.6193 -0.2827  0.4005
 6316SOL    HW130407   3.486   0.750   6.924  0.7016 -0.4348  0.1936
 6316SOL    HW230408   3.420   0.668   7.022 -1.9262 -0.3019 -0.6145
 6317SOL     OW30409   0.418   1.256  16.288 -0.3941 -0.1560 -0.4555
 6317SOL    HW130410   0.461   1.174  16.309  0.0595  0.7796  2.2543
 6317SOL    HW230411   0.339   1.241  16.341  0.1434 -0.6920  0.1905
 6318SOL     OW30412   0.837   1.096   6.355  0.2012 -0.4134  0.5674
 6318SOL    HW130413   0.858   1.046   6.276  0.4669  1.1490 -0.3625
 6318SOL    HW230414   0.776   1.039   6.402 -1.7934 -0.9976 -2.7262
 6319SOL     OW30415   2.475   1.107   5.255  0.6657 -0.1278 -0.0527
 6319SOL    HW130416   2.558   1.131   5.216  1.0435 -0.7901  0.3391
 6319SOL    HW230417   2.498   1.133   5.344 -0.6360 -1.6027  0.7239
 6320SOL     OW30418   0.113   0.015   2.870  0.4247 -0.4717  0.5177
 6320SOL    HW130419   0.202   0.020   2.835 -0.9687  2.0808 -2.7451
 6320SOL    HW230420   0.131   0.063   2.951  0.0364  2.2540 -0.9813
 6321SOL     OW30421   0.174   0.974   4.372 -0.2054 -0.5236  0.3146
 6321SOL    HW130422   0.221   0.944   4.450 -1.6373  0.0838  1.3988
 6321SOL    HW230423   0.248   1.009   4.322  0.0464  0.3767  1.3171
 6322SOL     OW30424   0.644   3.400   3.437  0.1089  0.1921  0.2319
 6322SOL    HW130425   0.698   3.397   3.516  0.8885  1.7973 -0.2508
 6322SOL    HW230426   0.685   3.466   3.381 -1.6220 -1.2354 -2.6825
 6323SOL     OW30427   2.294   2.502  13.070  0.0252  0.3959 -0.4385
 6323SOL    HW130428   2.257   2.581  13.030 -1.2519 -0.0193 -0.0606
 6323SOL    HW230429   2.329   2.461  12.991 -0.0934 -1.4077  0.4425
 6324SOL     OW30430   0.376   2.528   6.635 -0.3072  0.7942 -0.1013
 6324SOL    HW130431   0.368   2.509   6.729 -3.0954 -1.7542 -0.8363
 6324SOL    HW230432   0.364   2.442   6.595  3.4828  0.0620  0.3195
 6325SOL     OW30433   4.204   1.343   2.929 -0.6488 -0.3744 -0.1671
 6325SOL    HW130434   4.123   1.329   2.880 -1.4153  0.1774  0.9373
 6325SOL    HW230435   4.244   1.258   2.909 -0.6602 -0.2666 -0.6247
 6326SOL     OW30436   1.990   0.161   2.553 -0.2016 -0.0517  0.0738
 6326SOL    HW130437   1.931   0.206   2.492 -2.0470 -0.6628  1.4190
 6326SOL    HW230438   2.032   0.101   2.490  0.3093 -0.7769  1.1062
 6327SOL     OW30439   1.335   3.361   3.176  0.3067 -0.0304  0.2271
 6327SOL    HW130440   1.343   3.344   3.082  2.5589  0.3409  0.3498
 6327SOL    HW230441   1.407   3.422   3.191  0.3527 -0.2091  0.7342
 6328SOL     OW30442   1.042   4.397   8.678  0.4176  0.1801  0.1355
 6328SOL    HW130443   0.972   4.458   8.700 -0.1517 -1.5603  3.0815
 6328SOL    HW230444   1.076   4.376   8.765  0.5044 -1.2595 -0.2438
 6329SOL     OW30445   1.654   2.760   3.685  0.0884 -0.9064 -0.5589
 6329SOL    HW130446   1.567   2.799   3.693  1.1304  1.1421  0.9163
 6329SOL    HW230447   1.698   2.799   3.760  0.8543  0.6380 -1.8038
 6330SOL     OW30448   1.141   3.210   2.980 -0.3953 -0.2189 -0.1859
 6330SOL    HW130449   1.079   3.199   3.052 -0.6904 -0.7265 -0.5154
 6330SOL    HW230450   1.077   3.195   2.910  0.8712  0.8047 -1.5640
 6331SOL     OW30451   2.909   3.613  12.986 -0.3035  0.6609  0.4281
 6331SOL    HW130452   2.863   3.548  12.933  0.6170 -0.8110  1.4358
 6331SOL    HW230453   2.981   3.650  12.935 -1.6290  1.1615 -1.0838
 6332SOL     OW30454   0.540   1.902   7.337 -0.5185  0.2032  0.0031
 6332SOL    HW130455   0.462   1.950   7.308 -0.8443 -0.9366 -1.0305
 6332SOL    HW230456   0.614   1.961   7.321  1.1298 -1.1759  2.6240
 6333SOL     OW30457   1.216   4.551   2.173  0.3510 -0.2787  0.3246
 6333SOL    HW130458   1.197   4.637   2.134 -0.5738  0.1913  1.8230
 6333SOL    HW230459   1.310   4.537   2.159  0.4718  1.7510 -0.9905
 6334SOL     OW30460   2.838   3.766   7.449  0.5867 -0.0062 -0.0787
 6334SOL    HW130461   2.800   3.703   7.386  0.3281 -0.5136  0.5871
 6334SOL    HW230462   2.763   3.804   7.494  0.8160  1.1651 -0.6926
 6335SOL     OW30463   2.470   1.416  13.487  0.0949  0.1892  0.4516
 6335SOL    HW130464   2.564   1.409  13.470  0.4349  2.7779  1.2929
 6335SOL    HW230465   2.440   1.426  13.397  1.9335  1.5738  0.0056
 6336SOL     OW30466   3.059   1.454   5.406 -0.2966  0.4821  0.1206
 6336SOL    HW130467   2.974   1.492   5.428  1.3174  3.8930  0.5945
 6336SOL    HW230468   3.111   1.474   5.483 -0.8606 -0.6651  0.7884
 6337SOL     OW30469   2.856   3.581  16.873  0.4292  0.0784 -0.3721
 6337SOL    HW130470   2.877   3.523  16.946 -3.7025 -1.9212 -0.8123
 6337SOL    HW230471   2.948   3.603  16.859  0.6817 -1.6982 -1.4848
 6338SOL     OW30472   1.142   3.170   0.045 -0.0571 -0.2088  0.2981
 6338SOL    HW130473   1.103   3.089   0.014 -3.3417  1.2483  0.6792
 6338SOL    HW230474   1.084   3.234   0.004  0.9159 -1.2028 -2.6605
 6339SOL     OW30475   2.689   3.627   4.460 -0.2733  1.2928 -0.4008
 6339SOL    HW130476   2.600   3.634   4.494 -0.7740  0.2190 -1.5232
 6339SOL    HW230477   2.731   3.691   4.518  1.4546 -0.8380  0.6968
 6340SOL     OW30478   0.499   3.561   2.865 -0.0549 -0.0181  0.2692
 6340SOL    HW130479   0.594   3.576   2.859 -0.0761  1.3925  3.4857
 6340SOL    HW230480   0.494   3.467   2.850 -1.2439 -0.2360  2.1291
 6341SOL     OW30481   1.312   1.877   8.177 -0.2590 -0.3154 -0.6171
 6341SOL    HW130482   1.224   1.881   8.215  0.6754  0.2847  1.4928
 6341SOL    HW230483   1.305   1.937   8.102  0.3631 -2.2359 -2.1862
 6342SOL     OW30484   1.601   3.194   3.230 -0.3567 -0.3519  0.4041
 6342SOL    HW130485   1.653   3.164   3.156  2.6317  0.7125  2.1081
 6342SOL    HW230486   1.627   3.285   3.243 -1.3229  0.4555 -3.1926
 6343SOL     OW30487   2.563   1.813   3.508 -0.1811 -0.3534 -0.3155
 6343SOL    HW130488   2.524   1.806   3.421  0.1827 -1.5754 -0.3764
 6343SOL    HW230489   2.551   1.907   3.522  0.3097 -0.5993  1.8303
 6344SOL     OW30490   4.696   2.893   4.022  0.1220 -0.4563  0.0453
 6344SOL    HW130491   4.655   2.837   4.088 -0.8041  1.3178  0.9877
 6344SOL    HW230492   0.042   2.934   4.075 -0.2039 -1.0076  0.8862
 6345SOL     OW30493   3.135   1.308   8.164  0.0513 -0.2305  0.2098
 6345SOL    HW130494   3.162   1.355   8.085 -0.7469 -0.1618 -0.0263
 6345SOL    HW230495   3.080   1.376   8.204 -0.2258 -1.7390  2.3516
 6346SOL     OW30496   0.871   3.827  16.646  0.5507  0.3238 -0.2314
 6346SOL    HW130497   0.844   3.889  16.579 -0.1173 -0.1464 -0.3909
 6346SOL    HW230498   0.887   3.748  16.595  1.3240  0.1360  0.3022
 6347SOL     OW30499   1.591   4.457  16.647  0.2749 -0.2159 -0.5024
 6347SOL    HW130500   1.517   4.417  16.601 -1.8301  0.3458  2.3937
 6347SOL    HW230501   1.617   4.376  16.691  0.4564 -0.7287 -1.5607
 6348SOL     OW30502   3.809   2.969   8.091 -0.5104  0.4454  0.6497
 6348SOL    HW130503   3.755   2.929   8.159 -0.5581 -0.8031 -0.1221
 6348SOL    HW230504   3.769   2.933   8.012 -2.0605  0.4127  1.4507
 6349SOL     OW30505   2.403   4.481   8.931 -0.0818  0.3698 -0.3937
 6349SOL    HW130506   2.324   4.501   8.883 -1.6695  0.6948  2.3400
 6349SOL    HW230507   2.421   4.559   8.983 -1.4753  1.9423 -2.2773
 6350SOL     OW30508   2.246   4.494   6.850  0.1157 -0.3913  0.4084
 6350SOL    HW130509   2.266   4.547   6.928  1.2006  1.0160 -0.8423
 6350SOL    HW230510   2.330   4.450   6.846  0.5960  0.6587 -0.6748
 6351SOL     OW30511   1.314   2.796   4.271 -0.2263  0.3991 -0.4253
 6351SOL    HW130512   1.304   2.728   4.338 -0.4906  0.7676 -0.0918
 6351SOL    HW230513   1.240   2.786   4.212 -1.1605 -0.7664  0.9082
 6352SOL     OW30514   4.257   2.086   8.117  0.0744 -0.1747  0.6907
 6352SOL    HW130515   4.270   2.181   8.123  0.5884 -0.0303 -2.6560
 6352SOL    HW230516   4.279   2.065   8.026 -1.2390  1.5994 -0.0512
 6353SOL     OW30517   2.184   4.251   3.694  0.2083  0.2919  0.5256
 6353SOL    HW130518   2.171   4.217   3.782  0.0858  0.5060  0.5903
 6353SOL    HW230519   2.092   4.266   3.671  0.4310 -0.7046 -1.0079
 6354SOL     OW30520   4.289   3.068   9.504 -0.1394  0.3722 -0.5307
 6354SOL    HW130521   4.217   3.105   9.555 -0.7537  3.5929 -3.7405
 6354SOL    HW230522   4.363   3.096   9.559  0.5607  0.2170 -1.4062
 6355SOL     OW30523   2.731   1.555  17.357 -0.2826 -0.1194  0.0712
 6355SOL    HW130524   2.725   1.469  17.316  0.9194 -0.7814  1.2884
 6355SOL    HW230525   2.732   1.526  17.448  0.2148 -0.9666 -0.1997
 6356SOL     OW30526   2.996   1.235   6.135  0.0594 -0.1050  0.4231
 6356SOL    HW130527   2.968   1.176   6.064 -0.1667 -1.0064  1.2576
 6356SOL    HW230528   3.087   1.207   6.142 -0.2389 -0.8296  1.4194
 6357SOL     OW30529   3.482   2.078   7.731 -0.3685  0.1358 -0.1587
 6357SOL    HW130530   3.414   2.020   7.696  0.1525  0.3297 -1.4979
 6357SOL    HW230531   3.534   2.026   7.792 -1.5479 -2.0850 -1.0249
 6358SOL     OW30532   1.961   0.972   6.499  0.3686 -0.0695  0.6626
 6358SOL    HW130533   1.929   1.058   6.527  0.6827  0.2123  0.1657
 6358SOL    HW230534   1.881   0.919   6.507  0.4680 -0.4500 -0.8082
 6359SOL     OW30535   1.755   0.552  11.298  0.1587 -0.2597 -0.1697
 6359SOL    HW130536   1.785   0.510  11.378  2.3180  1.4833 -0.0558
 6359SOL    HW230537   1.672   0.507  11.281  0.6663 -1.5724  0.8763
 6360SOL     OW30538   4.269   2.898  13.329  0.3745  0.4178 -0.0252
 6360SOL    HW130539   4.225   2.813  13.341 -0.3682  0.9483  0.9826
 6360SOL    HW230540   4.197   2.960  13.324  0.5108  0.5165 -0.7758
 6361SOL     OW30541   1.601   2.324  13.442  0.4351  0.4009  0.3886
 6361SOL    HW130542   1.589   2.303  13.350  1.0004  2.2830 -0.1291
 6361SOL    HW230543   1.577   2.241  13.483  4.7000 -1.9711 -1.9225
 6362SOL     OW30544   3.751   1.182   5.721 -0.3367 -0.2885 -0.2891
 6362SOL    HW130545   3.842   1.211   5.715 -0.1059 -1.3829 -2.0881
 6362SOL    HW230546   3.741   1.128   5.642 -1.1536  1.1504 -1.1714
 6363SOL     OW30547   1.298   4.606   3.610  1.1276 -0.1700  0.1280
 6363SOL    HW130548   1.296   4.567   3.522 -0.1701  1.4947 -0.5759
 6363SOL    HW230549   1.341   4.690   3.593  1.2390 -0.3256 -0.3768
 6364SOL     OW30550   1.807   2.603   1.410  0.1212  0.8530  0.5670
 6364SOL    HW130551   1.897   2.617   1.439  1.7669 -3.2996 -2.6040
 6364SOL    HW230552   1.822   2.637   1.322  0.8639  1.8320  1.0728
 6365SOL     OW30553   3.135   4.215   9.129 -0.2256 -0.4387  0.4065
 6365SOL    HW130554   3.107   4.133   9.087 -1.5389 -0.1144  0.6313
 6365SOL    HW230555   3.065   4.230   9.193 -1.8426  0.6913 -1.6222
 6366SOL     OW30556   3.176   3.438  10.665  0.2002  0.0131  0.5127
 6366SOL    HW130557   3.135   3.398  10.742 -0.5526 -0.1207  0.0457
 6366SOL    HW230558   3.238   3.370  10.639 -0.4318 -0.6153  0.6648
 6367SOL     OW30559   4.253   4.053   0.103 -0.1020  0.5880  0.0940
 6367SOL    HW130560   4.163   4.078   0.084  0.1672  1.0616 -0.5320
 6367SOL    HW230561   4.288   4.125   0.155  1.1596 -0.1299  0.2551
 6368SOL     OW30562   0.307   1.702   5.177  0.3758  0.3473  0.2759
 6368SOL    HW130563   0.346   1.789   5.166  1.3449 -0.5193 -2.8281
 6368SOL    HW230564   0.248   1.702   5.101 -1.7318  2.9428  1.9064
 6369SOL     OW30565   0.372   0.824   7.528  0.8433  0.2253  0.0453
 6369SOL    HW130566   0.462   0.823   7.561  0.9398 -0.4968 -0.2327
 6369SOL    HW230567   0.368   0.910   7.485 -1.1846  0.6257  1.0261
 6370SOL     OW30568   3.594   0.799   3.203  0.1217  0.1146  0.3286
 6370SOL    HW130569   3.559   0.855   3.273 -1.6916 -0.5016 -0.0785
 6370SOL    HW230570   3.558   0.713   3.225  1.1959 -0.6610 -0.9538
 6371SOL     OW30571   3.773   1.216  12.910  0.0813  0.3491 -0.4738
 6371SOL    HW130572   3.741   1.304  12.932 -3.4794 -0.6310 -1.7109
 6371SOL    HW230573   3.859   1.238  12.876  0.1683 -0.5121 -0.8006
 6372SOL     OW30574   0.339   2.954   5.731 -0.1643  0.1510  0.6429
 6372SOL    HW130575   0.344   2.880   5.791 -1.0689 -2.0523 -2.0146
 6372SOL    HW230576   0.273   3.002   5.782  1.0989  1.6491  0.8901
 6373SOL     OW30577   4.312   1.242   4.663  0.2936  0.0463 -0.4766
 6373SOL    HW130578   4.350   1.159   4.634  1.2077 -0.7167  2.8367
 6373SOL    HW230579   4.378   1.308   4.639 -2.7695  1.7642 -4.0577
 6374SOL     OW30580   2.256   2.310   9.889 -0.1631 -0.1267  0.1808
 6374SOL    HW130581   2.266   2.223   9.851  0.6931  0.2697 -0.5051
 6374SOL    HW230582   2.334   2.347   9.847  1.1169 -0.7354  2.0767
 6375SOL     OW30583   3.949   1.324   8.708  0.5669  0.3475  0.1540
 6375SOL    HW130584   4.044   1.328   8.715  0.7294 -2.4928 -0.7846
 6375SOL    HW230585   3.933   1.233   8.686  1.9473  0.2626 -0.4346
 6376SOL     OW30586   0.914   0.590  11.842 -0.1584 -0.1354 -0.1579
 6376SOL    HW130587   0.879   0.602  11.754 -0.1912  0.0844 -0.1139
 6376SOL    HW230588   0.975   0.526  11.805  1.1640  1.1093 -0.1525
 6377SOL     OW30589   2.337   2.983  16.367 -0.1968 -0.2394  0.4772
 6377SOL    HW130590   2.394   2.994  16.443  1.6701 -1.0542 -0.8170
 6377SOL    HW230591   2.392   2.933  16.307 -1.3615  0.0044 -0.7989
 6378SOL     OW30592   0.454   4.539   3.659  0.1004 -0.8622  0.5082
 6378SOL    HW130593   0.360   4.555   3.668  0.1767 -0.9284  1.4166
 6378SOL    HW230594   0.490   4.616   3.704  1.1986 -0.6062 -0.7978
 6379SOL     OW30595   4.255   0.529   2.067 -0.2767  0.4971 -0.3228
 6379SOL    HW130596   4.302   0.612   2.062 -1.0304  1.1493  3.6076
 6379SOL    HW230597   4.322   0.477   2.021  1.7275  0.6882  2.3639
 6380SOL     OW30598   1.416   2.048  14.075  0.1160  0.0475  0.4132
 6380SOL    HW130599   1.365   2.059  14.155 -1.3356 -0.2618 -0.4680
 6380SOL    HW230600   1.433   1.954  14.087 -2.2747 -0.6326 -1.5151
 6381SOL     OW30601   1.304   1.409   3.706  0.2759  0.2861  0.6685
 6381SOL    HW130602   1.375   1.470   3.729  0.8841  0.9224 -3.0207
 6381SOL    HW230603   1.276   1.380   3.793 -0.9725  0.3594  0.2811
 6382SOL     OW30604   1.849   2.804   2.824 -0.6878  0.1014  0.3818
 6382SOL    HW130605   1.875   2.714   2.840 -0.1294 -0.2555 -2.4264
 6382SOL    HW230606   1.792   2.821   2.899 -0.1592 -4.6860  1.8591
 6383SOL     OW30607   3.638   2.225   5.996  0.4792 -0.1367 -0.4942
 6383SOL    HW130608   3.566   2.281   5.970 -1.4695 -3.4513 -2.2706
 6383SOL    HW230609   3.676   2.201   5.912  0.6895  0.9314 -0.6994
 6384SOL     OW30610   2.978   2.646   4.172 -0.3391 -0.2524 -0.1627
 6384SOL    HW130611   3.050   2.707   4.157 -1.6914  1.9595  2.2700
 6384SOL    HW230612   2.957   2.612   4.084  2.5576 -0.6535 -0.6917
 6385SOL     OW30613   0.189   3.072  17.087 -0.5614  0.1377 -0.0308
 6385SOL    HW130614   0.275   3.111  17.070 -1.1876  0.5358 -2.2732
 6385SOL    HW230615   0.223   3.003  17.143  0.9830  1.9366  1.2555
 6386SOL     OW30616   1.631   1.398  17.118  0.1211 -0.3505  0.5189
 6386SOL    HW130617   1.594   1.483  17.095  0.3561 -0.8245 -1.6447
 6386SOL    HW230618   1.549   1.363  17.154 -1.0698  1.1296 -0.7886
 6387SOL     OW30619   1.266   1.288   6.323 -0.2443 -0.7188  0.3608
 6387SOL    HW130620   1.204   1.342   6.274  1.9947  0.9843 -0.5602
 6387SOL    HW230621   1.210   1.241   6.386 -0.2105 -0.1909  0.7815
 6388SOL     OW30622   1.283   0.737   5.216 -0.0083  0.0951 -0.5185
 6388SOL    HW130623   1.201   0.734   5.265  0.3318 -1.0179 -0.0157
 6388SOL    HW230624   1.320   0.648   5.222 -4.3721 -1.6542  0.2850
 6389SOL     OW30625   3.499   0.195   2.426  0.0813  0.4203  0.0729
 6389SOL    HW130626   3.407   0.194   2.453 -0.0282  1.0339 -0.2637
 6389SOL    HW230627   3.505   0.262   2.357 -0.1993  0.4799  0.1063
 6390SOL     OW30628   4.082   2.967  17.402 -0.1544 -0.0645 -0.4954
 6390SOL    HW130629   4.083   2.922  17.317 -1.5312 -1.6953  0.3473
 6390SOL    HW230630   4.169   3.006  17.407 -0.1479 -0.2009  0.3933
 6391SOL     OW30631   3.753   3.925   8.814  0.1180 -0.5086  0.2311
 6391SOL    HW130632   3.821   3.887   8.868  1.1075 -0.7394 -1.1602
 6391SOL    HW230633   3.708   3.976   8.882  0.0853 -0.9305  0.5216
 6392SOL     OW30634   2.581   1.045  17.385  0.8642 -0.5197 -0.6435
 6392SOL    HW130635   2.619   1.099  17.315  0.6594  0.8198  0.2892
 6392SOL    HW230636   2.599   1.089  17.467  1.5035 -1.7456 -0.1262
 6393SOL     OW30637   2.527   1.226   6.773 -0.0241  0.0232  0.6940
 6393SOL    HW130638   2.528   1.192   6.863 -0.7759 -0.5530  0.4821
 6393SOL    HW230639   2.512   1.140   6.734 -1.1796 -0.6884  2.7016
 6394SOL     OW30640   3.894   2.767   4.876  0.9465  0.0362 -0.2786
 6394SOL    HW130641   3.978   2.751   4.919  0.8882  0.3875 -0.0376
 6394SOL    HW230642   3.834   2.731   4.941  0.7869 -0.6183 -0.7813
 6395SOL     OW30643   3.301   4.686  14.793 -0.2281  0.0517 -0.0963
 6395SOL    HW130644   3.314   4.685  14.888 -1.2754  1.6475  0.0707
 6395SOL    HW230645   3.266   4.600  14.772 -1.6873  0.4912  0.5208
 6396SOL     OW30646   4.534   0.818   1.742  0.2195  0.1600 -0.2007
 6396SOL    HW130647   4.610   0.874   1.728  0.6751 -0.5508 -0.5741
 6396SOL    HW230648   4.533   0.757   1.668  1.1927 -1.1144  0.8516
 6397SOL     OW30649   3.264   2.318   9.889 -0.3759 -0.3360  0.0318
 6397SOL    HW130650   3.345   2.284   9.850  0.2885  2.6361 -1.2402
 6397SOL    HW230651   3.267   2.402   9.843 -3.5757 -0.1459  0.1893
 6398SOL     OW30652   2.629   3.697  13.149  0.3221 -0.1594  0.1165
 6398SOL    HW130653   2.668   3.696  13.236 -0.9753 -1.5371  0.6880
 6398SOL    HW230654   2.571   3.772  13.164  2.0741  1.2497 -0.1201
 6399SOL     OW30655   3.687   2.704   2.793 -0.5673 -0.4319  0.1576
 6399SOL    HW130656   3.595   2.678   2.796 -0.2386 -1.5154  0.6081
 6399SOL    HW230657   3.690   2.749   2.878 -4.1738 -0.8693  0.5562
 6400SOL     OW30658   3.502   0.875  10.571  0.0865  0.1178 -0.0059
 6400SOL    HW130659   3.476   0.937  10.503  0.0373  0.5862  0.4412
 6400SOL    HW230660   3.465   0.792  10.540  0.8732 -0.7452  1.3260
 6401SOL     OW30661   2.989   3.904   8.590  0.6883  0.7045 -0.4340
 6401SOL    HW130662   2.933   3.885   8.666  1.7048 -1.9218 -0.3262
 6401SOL    HW230663   2.937   3.972   8.547  0.2015 -0.0084 -0.9719
 6402SOL     OW30664   3.695   1.336  13.559  0.6439  0.3465 -0.4952
 6402SOL    HW130665   3.655   1.308  13.642  0.3587  2.4781  0.0732
 6402SOL    HW230666   3.642   1.284  13.499  2.6800 -1.3164 -0.8764
 6403SOL     OW30667   0.678   1.976   6.607  0.0506  0.2435 -0.3508
 6403SOL    HW130668   0.736   1.976   6.531 -0.0014 -1.0491 -0.3855
 6403SOL    HW230669   0.682   1.889   6.645  2.8282  0.9569  0.9861
 6404SOL     OW30670   0.984   1.635  13.614  0.4589 -0.2098 -0.5902
 6404SOL    HW130671   0.922   1.706  13.632  2.8197  1.7859 -0.2668
 6404SOL    HW230672   1.044   1.673  13.549  1.5553  0.1840  0.6543
 6405SOL     OW30673   3.563   1.303   4.525  0.4156 -0.3062 -0.4234
 6405SOL    HW130674   3.558   1.209   4.507 -0.1765 -0.3724  0.1092
 6405SOL    HW230675   3.479   1.332   4.490 -0.4168 -0.8717  1.1355
 6406SOL     OW30676   3.978   1.580   4.249 -0.6169  0.8611  0.5517
 6406SOL    HW130677   3.975   1.631   4.330 -0.9101 -0.1258  1.1640
 6406SOL    HW230678   3.911   1.514   4.263  0.9418 -1.1030 -1.1336
 6407SOL     OW30679   3.979   2.530   2.886  0.4343  0.1997  0.5056
 6407SOL    HW130680   4.029   2.464   2.836 -0.4304  0.8097 -1.1796
 6407SOL    HW230681   3.923   2.459   2.919  1.4240 -0.6279  0.3946
 6408SOL     OW30682   3.862   1.703   7.365  0.4176 -0.0432 -0.2242
 6408SOL    HW130683   3.891   1.786   7.327  0.1843 -0.0714 -0.4605
 6408SOL    HW230684   3.899   1.641   7.302 -1.7784  1.7156 -3.2481
 6409SOL     OW30685   0.136   2.873   9.785 -0.1639 -0.4701 -0.2191
 6409SOL    HW130686   0.117   2.944   9.724 -1.9578 -0.4844  0.3226
 6409SOL    HW230687   0.231   2.884   9.785 -0.2350  0.1598 -1.6823
 6410SOL     OW30688   2.873   4.546  16.802  0.1006  0.3554  0.6330
 6410SOL    HW130689   2.787   4.540  16.761 -0.7056  4.7717  1.6261
 6410SOL    HW230690   2.867   4.464  16.851 -1.4619 -0.3231 -0.7063
 6411SOL     OW30691   0.018   3.938   0.699  0.0698  0.3905  0.4785
 6411SOL    HW130692   0.066   3.993   0.761  1.9503 -0.3466 -0.3349
 6411SOL    HW230693   0.045   3.986   0.621 -0.7675 -0.0630 -0.0866
 6412SOL     OW30694   2.755   3.711   8.600  0.4038  0.1901 -0.3117
 6412SOL    HW130695   2.818   3.681   8.666  2.8429 -0.2588 -2.8105
 6412SOL    HW230696   2.699   3.767   8.653 -1.7701  0.0054 -2.4025
 6413SOL     OW30697   0.000   0.318  12.026  0.0802  0.5673 -0.1939
 6413SOL    HW130698   4.640   0.271  12.015  1.1981 -1.1279 -1.2854
 6413SOL    HW230699   0.004   0.364  11.942  0.6275  2.6583  0.9796
 6414SOL     OW30700   2.223   2.827   4.725  0.4080 -0.1444 -0.3751
 6414SOL    HW130701   2.265   2.842   4.640  1.4919  1.9507  0.5171
 6414SOL    HW230702   2.204   2.918   4.747 -1.0341 -0.1870 -1.5070
 6415SOL     OW30703   4.161   2.848   2.899  0.3395  0.8804 -0.0005
 6415SOL    HW130704   4.186   2.781   2.963 -0.8546 -1.4316 -1.9413
 6415SOL    HW230705   4.068   2.859   2.922  0.3899 -0.2868  0.8001
 6416SOL     OW30706   1.745   3.275   8.608 -0.6405 -0.1027  0.4236
 6416SOL    HW130707   1.785   3.307   8.527 -1.1320  2.4907  1.1987
 6416SOL    HW230708   1.819   3.280   8.668 -0.5589  0.2834  0.2872
 6417SOL     OW30709   3.127   2.974   3.522  0.9925 -0.8777  0.5814
 6417SOL    HW130710   3.066   2.910   3.559  0.9539 -1.2496 -0.1351
 6417SOL    HW230711   3.064   3.043   3.503  1.5670 -0.9969 -1.6883
 6418SOL     OW30712   0.151   0.173   4.718 -0.2182  0.3905  0.2804
 6418SOL    HW130713   0.081   0.203   4.776 -1.8911 -0.9369 -1.0572
 6418SOL    HW230714   0.163   0.087   4.759  1.4271 -0.1713 -1.4098
 6419SOL     OW30715   2.527   2.756   7.469  0.2937 -0.2174  0.0440
 6419SOL    HW130716   2.464   2.736   7.539 -1.0280  0.6400 -0.9106
 6419SOL    HW230717   2.611   2.771   7.513 -0.2843 -0.5482  1.2832
 6420SOL     OW30718   2.960   3.893   4.842  0.4259  0.3905 -0.2155
 6420SOL    HW130719   2.960   3.988   4.837 -0.6188  0.2077 -3.3676
 6420SOL    HW230720   3.010   3.865   4.920 -3.1385  1.7979  2.5471
 6421SOL     OW30721   3.347   2.963  16.251 -0.3422  0.5008  0.4515
 6421SOL    HW130722   3.414   2.950  16.184  0.0934 -0.2151  1.0194
 6421SOL    HW230723   3.282   3.014  16.204  0.5088  0.9760 -0.2161
 6422SOL     OW30724   4.230   1.804  15.671  0.4941 -0.3247 -0.2074
 6422SOL    HW130725   4.195   1.798  15.582  0.4426  2.6081 -0.3833
 6422SOL    HW230726   4.309   1.853  15.652 -1.0601  2.2890  0.0262
 6423SOL     OW30727   0.630   4.363   0.366 -0.3608  1.2737  0.5537
 6423SOL    HW130728   0.676   4.444   0.391  0.2073  2.0792 -2.9679
 6423SOL    HW230729   0.676   4.347   0.284  0.3475 -0.3589  1.2823
 6424SOL     OW30730   1.182   1.430   8.015  0.1703 -0.3043 -0.4199
 6424SOL    HW130731   1.258   1.487   8.024  0.8160 -1.1780 -0.3216
 6424SOL    HW230732   1.158   1.415   8.106 -2.4835  0.7715 -0.9245
 6425SOL     OW30733   4.120   2.455   7.602  0.5117 -0.4802 -0.1978
 6425SOL    HW130734   4.135   2.456   7.508 -0.9272  1.6443 -0.3988
 6425SOL    HW230735   4.186   2.518   7.631 -2.4119  1.9828  1.1439
 6426SOL     OW30736   3.807   2.050   6.835  0.5088  0.1683 -0.1635
 6426SOL    HW130737   3.789   1.958   6.854  0.3208  0.7528  2.4706
 6426SOL    HW230738   3.791   2.056   6.740 -0.2834  0.2916 -0.0226
 6427SOL     OW30739   2.055   1.722  15.108 -0.3803 -0.3506 -0.2939
 6427SOL    HW130740   2.034   1.665  15.181 -3.0392  2.2758  0.9971
 6427SOL    HW230741   2.149   1.708  15.097 -0.5727 -1.0367 -1.0816
 6428SOL     OW30742   0.900   2.155   7.798 -0.1597  0.0406  0.3103
 6428SOL    HW130743   0.890   2.198   7.883 -2.2393 -0.1582  0.1683
 6428SOL    HW230744   0.996   2.149   7.792 -0.0181  0.6180  2.0882
 6429SOL     OW30745   2.023   1.365   8.172 -0.0049 -0.1405 -0.2946
 6429SOL    HW130746   1.966   1.323   8.108  0.1220 -1.1978  0.2754
 6429SOL    HW230747   2.007   1.303   8.243  0.1195  0.4166  0.2206
 6430SOL     OW30748   3.625   3.317   7.001  0.3131 -0.0795 -0.1880
 6430SOL    HW130749   3.663   3.243   6.953 -0.1010 -0.0608 -0.5461
 6430SOL    HW230750   3.643   3.311   7.095 -1.5038  1.6203  0.2652
 6431SOL     OW30751   1.963   2.057   5.758 -0.4250  0.1754 -0.6763
 6431SOL    HW130752   1.943   1.983   5.816 -1.6417  0.7251 -0.3850
 6431SOL    HW230753   1.877   2.096   5.746 -1.0115 -0.5519  1.1000
 6432SOL     OW30754   3.442   3.210   6.303 -0.0145 -0.2876  0.1677
 6432SOL    HW130755   3.519   3.244   6.350 -0.3108  1.1569 -0.4176
 6432SOL    HW230756   3.456   3.237   6.213 -3.4253  1.8511  0.2994
 6433SOL     OW30757   2.616   3.493   4.217  0.0560  0.4971 -0.1709
 6433SOL    HW130758   2.646   3.405   4.194 -1.1821  0.0902 -0.2206
 6433SOL    HW230759   2.654   3.514   4.302 -0.4796  1.7480 -0.2455
 6434SOL     OW30760   3.724   3.556   6.693  0.3941 -0.3139 -0.1337
 6434SOL    HW130761   3.678   3.630   6.733  2.0876  1.5388 -1.5646
 6434SOL    HW230762   3.652   3.495   6.683  0.5557 -0.3380 -1.1924
 6435SOL     OW30763   4.096   0.731  11.874  0.0078  0.3868 -0.2985
 6435SOL    HW130764   4.177   0.718  11.825  0.2328  0.2995  0.0928
 6435SOL    HW230765   4.119   0.683  11.954  1.3601  1.0301 -0.2977
 6436SOL     OW30766   1.354   4.669   9.121  0.1838  0.0310 -0.3982
 6436SOL    HW130767   1.330   0.031   9.158  1.1882 -0.5695  1.5803
 6436SOL    HW230768   1.336   4.610   9.194  0.5339  1.8757  1.1510
 6437SOL     OW30769   3.777   2.747   3.204  0.5967 -0.0948 -1.1343
 6437SOL    HW130770   3.832   2.810   3.251 -1.4300  0.2616  0.7443
 6437SOL    HW230771   3.707   2.732   3.267  2.1161 -2.1106  0.0873
 6438SOL     OW30772   0.505   4.138   7.222 -0.1691 -0.3341  0.1822
 6438SOL    HW130773   0.500   4.228   7.255 -0.3730 -0.4795  0.5546
 6438SOL    HW230774   0.432   4.136   7.160 -0.3695  3.9005  0.2804
 6439SOL     OW30775   4.255   3.880   9.913  0.5921 -0.2644  0.0073
 6439SOL    HW130776   4.271   3.973   9.902  2.4144 -0.3318  2.0448
 6439SOL    HW230777   4.323   3.863   9.979  1.7521  1.0077 -0.8661
 6440SOL     OW30778   2.974   3.217   3.297 -0.2442  0.5411 -0.3174
 6440SOL    HW130779   3.037   3.243   3.230 -0.2019 -0.7131 -0.7628
 6440SOL    HW230780   3.012   3.260   3.373 -3.2034  4.0226 -0.8107
 6441SOL     OW30781   1.859   2.001   6.269  0.4608 -0.2426 -0.4781
 6441SOL    HW130782   1.878   1.948   6.192  0.5496 -1.3409  0.2975
 6441SOL    HW230783   1.817   2.071   6.220 -2.6575 -0.8948  1.2943
 6442SOL     OW30784   3.967   1.760   4.476  0.1217  0.0147  0.4057
 6442SOL    HW130785   3.914   1.796   4.547  0.6078 -2.4958  2.0200
 6442SOL    HW230786   4.019   1.838   4.455  1.9408 -1.3293 -0.0451
 6443SOL     OW30787   1.754   2.344   1.835  0.3801 -0.6073  0.4507
 6443SOL    HW130788   1.735   2.296   1.916  2.2559  0.8557  1.7606
 6443SOL    HW230789   1.827   2.395   1.869 -1.5219  2.0503  0.5577
 6444SOL     OW30790   0.850   2.805   4.426 -0.0720 -0.4376  0.5033
 6444SOL    HW130791   0.867   2.808   4.332 -0.2552 -0.1771  0.4777
 6444SOL    HW230792   0.832   2.711   4.431  0.6891 -0.4069  3.6430
 6445SOL     OW30793   0.242   4.116   1.579  0.1905 -0.2610 -0.5030
 6445SOL    HW130794   0.260   4.036   1.628 -0.1474  0.2659  0.4892
 6445SOL    HW230795   0.180   4.161   1.638 -0.8899  0.4632 -2.1801
 6446SOL     OW30796   1.376   2.743  15.623  0.4462  0.2615 -0.2300
 6446SOL    HW130797   1.405   2.821  15.575  0.0044 -0.8351 -2.2890
 6446SOL    HW230798   1.303   2.713  15.569 -0.9208  0.9912  1.2216
 6447SOL     OW30799   2.623   3.374   6.480 -0.3627 -0.8001 -0.4816
 6447SOL    HW130800   2.672   3.359   6.561 -1.5031  0.2055  0.3876
 6447SOL    HW230801   2.545   3.322   6.498 -0.7906  0.1064  0.2803
 6448SOL     OW30802   0.114   0.134  12.853 -0.3690 -0.0105 -0.1791
 6448SOL    HW130803   0.044   0.136  12.788  0.4460 -0.5731 -1.0594
 6448SOL    HW230804   0.162   0.212  12.825  0.0250 -0.3882 -0.5539
 6449SOL     OW30805   4.271   4.557  12.210 -0.3898 -0.5180  0.2011
 6449SOL    HW130806   4.338   4.567  12.279  2.8662 -3.8682 -2.5380
 6449SOL    HW230807   4.325   4.524  12.138 -0.3407 -2.4045  1.1036
 6450SOL     OW30808   4.415   4.051   4.139  0.7396 -0.4449  0.7532
 6450SOL    HW130809   4.496   4.036   4.188  1.5193  2.0817  0.2471
 6450SOL    HW230810   4.360   4.061   4.216 -0.6938 -1.5250 -0.1232
 6451SOL     OW30811   2.803   1.891   7.570 -0.1273 -0.6894  0.1329
 6451SOL    HW130812   2.747   1.826   7.613  0.4241 -0.5798  1.0197
 6451SOL    HW230813   2.801   1.964   7.631  0.0894 -1.2263  0.7863
 6452SOL     OW30814   2.904   3.785  11.905 -0.5565 -0.0921 -0.0647
 6452SOL    HW130815   2.985   3.746  11.937 -0.0835  1.2221  0.3078
 6452SOL    HW230816   2.915   3.799  11.811  2.8705 -1.0230  0.1969
 6453SOL     OW30817   3.386   3.255  16.726  0.5653 -0.1920 -0.0961
 6453SOL    HW130818   3.364   3.188  16.790 -1.2760 -1.4487 -2.0216
 6453SOL    HW230819   3.307   3.309  16.729 -2.4538 -4.4895 -2.1795
 6454SOL     OW30820   1.189   1.112   4.971 -0.1586 -0.1600 -0.7235
 6454SOL    HW130821   1.276   1.075   4.956 -0.8730 -2.0012 -0.3062
 6454SOL    HW230822   1.138   1.043   5.014 -1.2660 -0.7495 -2.9656
 6455SOL     OW30823   4.634   2.985   6.197 -0.5414 -0.1555  0.6866
 6455SOL    HW130824   4.574   2.918   6.165  0.3762 -0.4909 -0.3553
 6455SOL    HW230825   4.714   2.933   6.208 -1.6873 -1.5143  2.5596
 6456SOL     OW30826   0.064   0.362   0.659  0.9482  0.0971  0.0235
 6456SOL    HW130827   0.150   0.397   0.634  0.3183  0.3517 -1.7601
 6456SOL    HW230828   0.041   0.300   0.589  0.8606 -0.8841  0.9207
 6457SOL     OW30829   1.818   0.022   7.896  0.3524 -0.3789  0.5151
 6457SOL    HW130830   1.796   4.664   7.941 -0.0068 -0.1559  0.7365
 6457SOL    HW230831   1.864   4.710   7.819 -0.8816 -0.8743  0.0079
 6458SOL     OW30832   0.408   2.862   7.505  0.1620  0.0026  0.1476
 6458SOL    HW130833   0.323   2.866   7.550  0.0278 -2.3240  0.0848
 6458SOL    HW230834   0.461   2.935   7.537  2.0888 -0.6605 -1.5389
 6459SOL     OW30835   1.085   0.759   7.839  0.0628  0.8274  0.2244
 6459SOL    HW130836   1.041   0.720   7.915 -1.4521  1.4629 -0.3361
 6459SOL    HW230837   1.167   0.710   7.830 -0.5126  0.0473 -0.8281
 6460SOL     OW30838   0.819   4.397  17.323  0.0153 -0.1084 -0.1026
 6460SOL    HW130839   0.895   4.429  17.373 -0.1277 -0.6924  0.4856
 6460SOL    HW230840   0.827   4.441  17.239  1.0945  2.0744  1.1253
 6461SOL     OW30841   2.521   3.294   7.720 -0.4938  0.3220 -0.2632
 6461SOL    HW130842   2.606   3.338   7.715  0.8729 -2.3449 -0.0402
 6461SOL    HW230843   2.477   3.343   7.790 -0.1985  1.3306 -0.7850
 6462SOL     OW30844   2.313   0.812   6.856 -0.0026 -0.0042 -0.0342
 6462SOL    HW130845   2.253   0.772   6.793 -2.2823 -0.1151  2.2241
 6462SOL    HW230846   2.271   0.893   6.884  3.3867  1.7656  0.0326
 6463SOL     OW30847   2.752   2.973   4.265  0.2803  0.3762  0.0449
 6463SOL    HW130848   2.740   2.991   4.358 -0.4334 -0.6625  0.1586
 6463SOL    HW230849   2.846   2.954   4.261 -0.2750 -1.6096 -3.1161
 6464SOL     OW30850   2.652   1.526   2.079 -0.2562  0.0144  0.1934
 6464SOL    HW130851   2.709   1.601   2.064 -0.3104  0.4852  2.3350
 6464SOL    HW230852   2.570   1.551   2.036  0.3175 -3.0448 -2.7115
 6465SOL     OW30853   2.525   3.774   8.996  0.1054  0.2559  0.4246
 6465SOL    HW130854   2.514   3.832   8.921  0.3418  0.2653  0.3971
 6465SOL    HW230855   2.434   3.778   9.026  0.0061  1.8271 -0.0995
 6466SOL     OW30856   1.269   0.410   2.942 -0.3452 -0.5267 -0.2869
 6466SOL    HW130857   1.330   0.375   3.007 -0.4991  0.8076  0.5876
 6466SOL    HW230858   1.180   0.404   2.977 -0.0219 -2.1506  0.2405
 6467SOL     OW30859   0.529   2.088   2.962  0.3203  0.4409  0.1920
 6467SOL    HW130860   0.518   2.071   2.869 -1.4266  3.4548 -0.1495
 6467SOL    HW230861   0.568   2.004   2.987  0.3336 -0.5612 -3.2163
 6468SOL     OW30862   1.660   1.410   9.188  0.2732  0.0791  0.1982
 6468SOL    HW130863   1.750   1.381   9.198  0.8403  2.1325  1.0071
 6468SOL    HW230864   1.636   1.419   9.280 -2.0939  0.4740 -0.4610
 6469SOL     OW30865   2.811   0.343  16.515  0.0241 -0.0946 -0.5423
 6469SOL    HW130866   2.798   0.257  16.553  3.5757 -0.8369 -0.9604
 6469SOL    HW230867   2.817   0.401  16.591  1.7228 -0.7435 -0.1722
 6470SOL     OW30868   3.073   2.302   7.099  0.0629 -0.0648 -0.3656
 6470SOL    HW130869   3.005   2.282   7.035  0.2031  0.0924 -0.5610
 6470SOL    HW230870   3.153   2.290   7.049 -0.0034  0.2668 -0.5539
 6471SOL     OW30871   2.728   2.355   9.053  0.4626  0.5389 -0.4842
 6471SOL    HW130872   2.741   2.434   9.106 -0.9893  0.4248  0.0542
 6471SOL    HW230873   2.787   2.289   9.087 -1.6523 -0.3746  1.3955
 6472SOL     OW30874   3.594   2.593   5.184  0.0208  0.0005  0.4995
 6472SOL    HW130875   3.522   2.637   5.139  0.2767  1.1082  1.1954
 6472SOL    HW230876   3.534   2.556   5.249 -0.8316 -0.0140 -0.2951
 6473SOL     OW30877   2.999   1.928  13.062  0.2479 -0.0923 -0.4370
 6473SOL    HW130878   3.019   1.978  13.142  0.4705 -0.5728 -0.1970
 6473SOL    HW230879   3.053   1.979  13.001 -1.4589 -0.0618 -1.9074
 6474SOL     OW30880   0.711   3.572  11.647  0.0001 -0.4409  0.0893
 6474SOL    HW130881   0.806   3.560  11.649 -0.2004 -1.9511  0.3549
 6474SOL    HW230882   0.691   3.572  11.741  1.2701 -0.3641  0.3520
 6475SOL     OW30883   1.334   0.800   6.730  0.5177 -0.2646  0.0690
 6475SOL    HW130884   1.265   0.856   6.766 -0.0797 -0.7323 -0.3500
 6475SOL    HW230885   1.343   0.826   6.638  0.4413  2.0514  0.7095
 6476SOL     OW30886   2.081   0.622  13.940  0.0557 -0.3300 -0.1413
 6476SOL    HW130887   2.010   0.632  14.004  0.3574  0.0406  0.1323
 6476SOL    HW230888   2.146   0.589  14.001 -1.0530 -2.7011 -0.2182
 6477SOL     OW30889   1.077   1.341   5.582 -0.2883 -0.0786  0.6688
 6477SOL    HW130890   1.008   1.287   5.621 -2.4277  0.1495 -2.8425
 6477SOL    HW230891   1.153   1.318   5.635  0.9363  1.5332 -0.3924
 6478SOL     OW30892   0.973   2.841  14.784  0.0602  0.4956 -0.0425
 6478SOL    HW130893   1.042   2.831  14.849  0.7019 -0.7361 -0.8948
 6478SOL    HW230894   1.017   2.911  14.735  1.7614 -0.1155  0.6263
 6479SOL     OW30895   1.648   3.435   3.753  0.8246 -0.1416 -0.2969
 6479SOL    HW130896   1.560   3.418   3.720 -0.8938  2.9966  2.6958
 6479SOL    HW230897   1.666   3.514   3.703 -2.1580  0.8946  0.2436
 6480SOL     OW30898   1.279   4.672  15.106  0.1571  0.0611 -0.7976
 6480SOL    HW130899   1.297   0.011  15.178  0.4411  1.2620 -1.8898
 6480SOL    HW230900   1.337   4.600  15.131 -2.6099 -1.3601  1.5236
 6481SOL     OW30901   1.894   4.065  16.039 -0.5704 -0.8952 -0.2100
 6481SOL    HW130902   1.902   4.046  15.946 -1.8050 -0.9251 -0.3050
 6481SOL    HW230903   1.884   4.160  16.046  0.7266 -0.6725 -1.5298
 6482SOL     OW30904   1.680   2.028   4.225  0.0502 -0.0972 -0.3844
 6482SOL    HW130905   1.686   2.118   4.259  1.3714  0.9350 -3.2845
 6482SOL    HW230906   1.771   1.999   4.223  0.1753  0.3169 -0.7844
 6483SOL     OW30907   0.538   1.784  12.942  0.5582  0.0981  0.7310
 6483SOL    HW130908   0.458   1.752  12.901  0.6543  0.7400  0.0505
 6483SOL    HW230909   0.508   1.873  12.962 -1.0677  0.1360 -1.8207
 6484SOL     OW30910   2.014   1.564   7.062 -0.1327  0.2497 -0.5522
 6484SOL    HW130911   2.030   1.655   7.088  0.0249 -0.2475  1.1256
 6484SOL    HW230912   2.073   1.523   7.125 -0.7113  0.0089 -0.1698
 6485SOL     OW30913   4.655   1.024   7.562 -0.2814 -0.2517 -0.2992
 6485SOL    HW130914   4.573   1.031   7.610  0.4787  1.4346  0.7449
 6485SOL    HW230915   4.655   1.105   7.510 -0.4569 -0.0763 -0.0234
 6486SOL     OW30916   3.465   2.076   9.254 -0.1169  0.1981  0.4151
 6486SOL    HW130917   3.440   1.984   9.262  1.7944 -0.1926  2.1164
 6486SOL    HW230918   3.471   2.101   9.347 -1.5771 -0.5022  0.6976
 6487SOL     OW30919   1.480   4.640   6.689 -0.1348 -0.0624  0.4279
 6487SOL    HW130920   1.391   4.641   6.725  0.2628  1.3203  1.3791
 6487SOL    HW230921   1.497   4.548   6.669 -0.9587  0.1724 -1.3532
 6488SOL     OW30922   1.969   3.518   3.204  0.2482  0.1230 -0.0707
 6488SOL    HW130923   2.025   3.579   3.253 -0.0186 -0.4038  0.9035
 6488SOL    HW230924   1.969   3.440   3.259  2.9297  0.6225  0.6347
 6489SOL     OW30925   3.921   4.308   7.709 -0.3454  0.3647 -0.0083
 6489SOL    HW130926   3.942   4.219   7.680  0.0243  0.3763  0.2275
 6489SOL    HW230927   4.004   4.355   7.698 -0.8377  1.3515  0.5507
 6490SOL     OW30928   1.994   1.678  10.152 -0.3358  0.5316 -0.0269
 6490SOL    HW130929   1.983   1.736  10.228 -0.1826  0.0455  0.3603
 6490SOL    HW230930   2.010   1.593  10.193 -1.9924 -0.1236 -0.7252
 6491SOL     OW30931   1.066   0.024   2.777  0.7939 -0.1256  0.7632
 6491SOL    HW130932   1.144   0.078   2.766  2.1232 -2.6616 -2.1400
 6491SOL    HW230933   1.086   4.664   2.733  0.1643  0.6930 -1.0547
 6492SOL     OW30934   2.735   1.989   7.816  0.9694 -0.4705  0.8731
 6492SOL    HW130935   2.733   1.957   7.906 -2.9868 -0.1906  0.8965
 6492SOL    HW230936   2.747   2.082   7.833 -1.2566 -0.1394  0.6856
 6493SOL     OW30937   1.307   3.089   2.609  0.5963  0.1301  0.2446
 6493SOL    HW130938   1.313   3.142   2.688  0.2519  0.3617  0.1176
 6493SOL    HW230939   1.218   3.055   2.599  0.7339 -0.3910  0.8357
 6494SOL     OW30940   1.533   0.545   5.778  0.0852  0.1106 -0.0504
 6494SOL    HW130941   1.589   0.478   5.737  0.8078 -0.2024  1.4337
 6494SOL    HW230942   1.601   0.578   5.837  0.8665  1.2804 -1.5864
 6495SOL     OW30943   1.011   1.240   2.502  0.0517  0.1013  0.8114
 6495SOL    HW130944   1.025   1.299   2.576  1.7000  1.3558 -0.4982
 6495SOL    HW230945   1.090   1.187   2.499  1.6142  2.4277  0.8323
 6496SOL     OW30946   1.109   0.496  13.342 -0.3494  0.4783 -0.0406
 6496SOL    HW130947   1.181   0.524  13.286  0.0344 -0.7003 -0.1255
 6496SOL    HW230948   1.035   0.540  13.301  0.2495  0.5103 -1.1007
 6497SOL     OW30949   2.464   4.177   7.141 -0.1598 -0.0695 -0.4452
 6497SOL    HW130950   2.513   4.167   7.223  0.9266  1.6804 -0.8910
 6497SOL    HW230951   2.530   4.209   7.080 -1.2017  0.5999 -1.2299
 6498SOL     OW30952   4.041   4.716   1.581  0.0373  0.4299 -0.0433
 6498SOL    HW130953   4.056   0.033   1.495  2.6450  1.4498  0.8867
 6498SOL    HW230954   3.957   4.673   1.570  0.8149 -0.5716 -2.1417
 6499SOL     OW30955   2.805   0.680  15.430  0.1590  0.1305  0.2841
 6499SOL    HW130956   2.820   0.657  15.338 -1.2360  0.9204 -0.1521
 6499SOL    HW230957   2.723   0.728  15.414  0.9301  1.1993 -0.4120
 6500SOL     OW30958   2.820   0.101   0.144  0.7072  0.2095 -0.1616
 6500SOL    HW130959   2.875   0.075   0.070  2.1915  0.3334  0.9087
 6500SOL    HW230960   2.815   0.011   0.176 -0.2054 -0.1539 -1.3261
 6501SOL     OW30961   3.182   4.690   4.510  0.1604 -0.0888  0.1083
 6501SOL    HW130962   3.266   4.658   4.476  0.4060 -0.9566  1.5679
 6501SOL    HW230963   3.218   0.029   4.574  1.0444  0.1785 -0.6428
 6502SOL     OW30964   2.222   4.255   4.085 -0.1267  0.5741 -0.3264
 6502SOL    HW130965   2.152   4.237   4.021 -1.0703 -2.6764  1.5805
 6502SOL    HW230966   2.261   4.168   4.080 -2.6647 -0.6285  0.4215
 6503SOL     OW30967   3.531   1.908   6.766  0.2517  0.2594  0.4076
 6503SOL    HW130968   3.499   1.990   6.805  0.9060  1.0233 -0.6764
 6503SOL    HW230969   3.549   1.848   6.838  2.0245  0.3880  0.0590
 6504SOL     OW30970   4.052   0.146   8.967 -0.4031  0.0777 -0.1151
 6504SOL    HW130971   4.038   0.116   9.056  0.7037  2.0034  0.7257
 6504SOL    HW230972   4.142   0.119   8.947 -0.9241 -1.1284 -0.8017
 6505SOL     OW30973   0.850   3.605   8.519 -0.8734 -0.1270  0.2969
 6505SOL    HW130974   0.879   3.640   8.604 -0.4406  0.4296 -0.0785
 6505SOL    HW230975   0.931   3.617   8.469  1.1220 -2.3974  2.9682
 6506SOL     OW30976   1.197   1.857   3.265 -0.2686  0.9865  0.2064
 6506SOL    HW130977   1.148   1.864   3.348 -0.1532  0.3232  0.3264
 6506SOL    HW230978   1.284   1.833   3.297 -0.3616  0.3378 -0.0275
 6507SOL     OW30979   1.714   4.566   5.776 -0.6459  0.4147  0.2388
 6507SOL    HW130980   1.751   4.654   5.766 -1.3885  0.5684 -1.2313
 6507SOL    HW230981   1.709   4.573   5.871 -0.9383  0.3929  0.2242
 6508SOL     OW30982   0.645   2.139  17.326 -0.1823 -0.3489 -0.2129
 6508SOL    HW130983   0.576   2.107  17.267 -0.7966 -0.5637  0.6152
 6508SOL    HW230984   0.650   2.066  17.388  1.7814  0.7290  0.8930
 6509SOL     OW30985   1.681   1.075  10.758 -0.2452 -0.6125 -0.0431
 6509SOL    HW130986   1.739   1.033  10.822 -0.0689  1.2391  0.9914
 6509SOL    HW230987   1.696   1.016  10.684 -1.5184 -2.6031  1.2792
 6510SOL     OW30988   4.345   3.862   7.575  0.4574 -0.2578 -0.3083
 6510SOL    HW130989   4.322   3.868   7.668  0.3426 -0.6583 -0.3143
 6510SOL    HW230990   4.439   3.848   7.578  0.3495 -1.3220 -2.0194
 6511SOL     OW30991   1.464   1.735   6.601  0.5510  0.3183  0.5404
 6511SOL    HW130992   1.462   1.667   6.534  1.1247  0.1775  0.6643
 6511SOL    HW230993   1.555   1.751   6.575  0.4582 -0.8376 -0.4857
 6512SOL     OW30994   1.850   3.653  15.484  0.6245  0.0157  0.1797
 6512SOL    HW130995   1.787   3.681  15.417  0.3389 -2.3636 -0.5380
 6512SOL    HW230996   1.904   3.732  15.489 -1.0046  1.0349  1.5795
 6513SOL     OW30997   3.553   2.735   7.133  0.5844  0.6989 -0.1082
 6513SOL    HW130998   3.470   2.699   7.165  0.5623  1.5599  0.8383
 6513SOL    HW230999   3.537   2.751   7.040  2.8236  2.8156 -0.1297
 6514SOL     OW31000   0.258   1.333  10.919  0.2060 -0.0301 -0.2718
 6514SOL    HW131001   0.282   1.312  11.009 -0.4500  0.8552  0.1174
 6514SOL    HW231002   0.237   1.426  10.926 -0.3308 -0.2803  1.5015
 6515SOL     OW31003   2.248   2.134   2.355 -0.0043  0.3619 -0.4135
 6515SOL    HW131004   2.250   2.153   2.449  1.5141 -0.4553 -0.2678
 6515SOL    HW231005   2.160   2.096   2.356  0.0490  0.2220 -1.3009
 6516SOL     OW31006   3.908   4.119   4.153  0.1066  0.7031  0.2055
 6516SOL    HW131007   3.828   4.088   4.195 -0.3829 -1.2725 -2.1806
 6516SOL    HW231008   3.879   4.145   4.066  1.0080 -3.5571 -1.3951
 6517SOL     OW31009   3.403   2.735   4.578  0.5820  0.3251 -0.1818
 6517SOL    HW131010   3.309   2.739   4.559  0.3905  2.3048  1.1593
 6517SOL    HW231011   3.428   2.773   4.494 -0.5281 -0.6952 -0.9698
 6518SOL     OW31012   0.751   3.584  13.069  0.1974  0.4777  0.0299
 6518SOL    HW131013   0.774   3.519  13.135  2.5736 -0.0816 -1.3593
 6518SOL    HW231014   0.830   3.639  13.073 -0.1389  0.8651  1.6173
 6519SOL     OW31015   2.123   0.183   2.778  0.0715 -0.2662 -0.6928
 6519SOL    HW131016   2.069   0.171   2.700  1.3891 -1.6845 -1.3963
 6519SOL    HW231017   2.194   0.245   2.757  0.6388 -0.5652  0.3286
 6520SOL     OW31018   3.203   2.887   1.295 -0.0474 -0.2477  0.0528
 6520SOL    HW131019   3.138   2.923   1.234 -2.0697 -0.6023  2.0394
 6520SOL    HW231020   3.179   2.796   1.312  1.7038 -1.1291 -2.0942
 6521SOL     OW31021   0.973   1.156   5.741 -0.1561 -0.2779  0.1131
 6521SOL    HW131022   1.017   1.182   5.821  0.3619 -1.6449  0.2728
 6521SOL    HW231023   0.990   1.063   5.753 -1.8756 -0.5698  0.3100
 6522SOL     OW31024   3.224   2.222   3.325  0.1565  0.9735  0.1726
 6522SOL    HW131025   3.286   2.295   3.330  1.7229 -0.3371 -0.1804
 6522SOL    HW231026   3.284   2.152   3.353  2.2422  2.0103 -1.6983
 6523SOL     OW31027   0.735   3.301   8.695 -0.3557 -0.0406 -0.0694
 6523SOL    HW131028   0.816   3.271   8.735 -0.3083 -2.0250 -1.6698
 6523SOL    HW231029   0.681   3.223   8.711 -0.0553 -0.1106  0.5848
 6524SOL     OW31030   4.645   1.738  13.540  0.0393  0.2100 -0.2427
 6524SOL    HW131031   4.683   1.656  13.570  1.2592  1.1661  0.8851
 6524SOL    HW231032   4.577   1.749  13.607 -0.8185 -3.6272 -0.5061
 6525SOL     OW31033   1.357   4.652   5.517  0.8460  0.0946 -0.5191
 6525SOL    HW131034   1.393   4.603   5.443 -0.0471 -0.9579 -0.2568
 6525SOL    HW231035   1.271   4.610   5.523  0.4433  1.0307  0.2047
 6526SOL     OW31036   0.833   3.897   2.429  0.0785  1.0142 -0.3526
 6526SOL    HW131037   0.774   3.826   2.405  0.9572  0.0304  0.4069
 6526SOL    HW231038   0.855   3.893   2.522 -0.4077 -0.8405 -0.3298
 6527SOL     OW31039   3.897   3.443   7.225 -0.2629  0.2732 -0.8778
 6527SOL    HW131040   3.948   3.368   7.196  0.8571  0.4683  0.6211
 6527SOL    HW231041   3.815   3.404   7.254 -1.0008  1.9203 -0.7145
 6528SOL     OW31042   3.144   4.294   5.591  0.1050  0.6082 -0.0107
 6528SOL    HW131043   3.224   4.282   5.642 -0.2599  1.6091  0.8106
 6528SOL    HW231044   3.117   4.205   5.570 -0.5055  0.7136  0.3202
 6529SOL     OW31045   0.283   3.828   4.490 -0.1673  0.5357 -0.2805
 6529SOL    HW131046   0.312   3.799   4.404  1.0071  0.5358  0.1064
 6529SOL    HW231047   0.369   3.846   4.528 -0.6892  1.7867  0.3220
 6530SOL     OW31048   2.440   0.268   4.458 -0.4910  0.7629  0.3030
 6530SOL    HW131049   2.455   0.332   4.527  0.0197 -0.2548  1.1351
 6530SOL    HW231050   2.392   0.312   4.388 -0.6821  1.6493  0.9942
 6531SOL     OW31051   0.062   3.646  17.313  0.0108 -0.2661  0.1999
 6531SOL    HW131052   0.024   3.602  17.237  1.5384  1.1234 -1.3879
 6531SOL    HW231053   0.152   3.645  17.280 -0.6284  1.3308 -1.5810
 6532SOL     OW31054   0.495   2.825   9.057 -0.3529 -0.1238 -0.3940
 6532SOL    HW131055   0.446   2.759   9.007 -0.8430  0.5627 -0.8132
 6532SOL    HW231056   0.584   2.792   9.064 -0.3111  0.1715  0.4510
 6533SOL     OW31057   1.085   0.968   3.241 -0.0677  0.4345 -0.2002
 6533SOL    HW131058   0.996   0.974   3.208 -0.0333 -2.3407 -0.7893
 6533SOL    HW231059   1.075   0.986   3.334  1.3767 -0.4922  0.1413
 6534SOL     OW31060   3.098   2.720  14.298  0.6263 -0.2580  0.7607
 6534SOL    HW131061   3.069   2.799  14.344 -1.6792 -0.1410 -0.8498
 6534SOL    HW231062   3.179   2.698  14.344  0.8534 -0.3971  0.2894
 6535SOL     OW31063   3.483   3.699   8.592  0.2564 -0.1264 -0.0151
 6535SOL    HW131064   3.499   3.688   8.686 -0.8606  0.5035  0.2567
 6535SOL    HW231065   3.522   3.783   8.565  2.5810 -1.4085 -0.6405
 6536SOL     OW31066   0.585   4.362   8.160  0.0581  0.6349  0.5290
 6536SOL    HW131067   0.635   4.417   8.221  0.1623 -0.4651  1.4400
 6536SOL    HW231068   0.513   4.423   8.142 -1.0594  0.0189  2.8914
 6537SOL     OW31069   1.175   2.975   2.306  0.5996 -0.7056  0.6512
 6537SOL    HW131070   1.161   2.915   2.380  0.9478  0.5246  1.7199
 6537SOL    HW231071   1.267   2.998   2.317  0.7281  0.2357 -2.5483
 6538SOL     OW31072   2.239   4.679   7.082 -0.1419 -0.1026  0.6199
 6538SOL    HW131073   2.218   0.049   7.067  1.8793  0.3898  0.8418
 6538SOL    HW231074   2.148   4.650   7.091  0.2776 -1.4292  0.5156
 6539SOL     OW31075   4.535   1.744   4.109  0.1362  0.1254 -0.1801
 6539SOL    HW131076   4.554   1.652   4.092 -0.2740 -0.0611  0.3646
 6539SOL    HW231077   4.440   1.738   4.105  0.2391 -0.1685 -1.9362
 6540SOL     OW31078   3.784   1.026   4.625 -0.3243 -0.0085  0.5473
 6540SOL    HW131079   3.871   1.052   4.655  0.6164 -1.7908 -0.6653
 6540SOL    HW231080   3.798   0.959   4.558 -1.9385  1.1317 -0.9515
 6541SOL     OW31081   1.714   1.469  15.892  0.0241 -0.0556 -0.2657
 6541SOL    HW131082   1.673   1.398  15.843 -1.7233  0.1338  0.8962
 6541SOL    HW231083   1.639   1.496  15.945  0.4753 -0.8461  0.7666
 6542SOL     OW31084   4.715   3.606   3.302 -0.0998 -0.4899 -0.7142
 6542SOL    HW131085   0.016   3.579   3.213 -0.2071 -4.1359  0.3994
 6542SOL    HW231086   4.631   3.650   3.289  0.3923  0.9446  0.9357
 6543SOL     OW31087   2.740   2.229   4.529 -0.2440  0.4323 -0.4027
 6543SOL    HW131088   2.714   2.139   4.508 -0.5036  0.5054 -0.3932
 6543SOL    HW231089   2.698   2.232   4.615  1.5200 -1.7937  0.5291
 6544SOL     OW31090   3.367   0.833   3.759 -0.3354  0.1247 -0.4789
 6544SOL    HW131091   3.360   0.790   3.674 -1.1028 -0.6744 -0.0157
 6544SOL    HW231092   3.462   0.825   3.763 -0.5507 -1.3286  1.9331
 6545SOL     OW31093   0.299   4.226   8.191  0.4428 -0.2371 -0.0628
 6545SOL    HW131094   0.377   4.214   8.245  0.2913 -3.7277 -0.6372
 6545SOL    HW231095   0.246   4.284   8.245 -1.2251 -0.2760 -1.6287
 6546SOL     OW31096   3.360   4.507  12.149 -0.4947  0.0354 -0.9677
 6546SOL    HW131097   3.306   4.446  12.200  1.9533 -1.6471 -0.3858
 6546SOL    HW231098   3.444   4.489  12.193 -1.3551 -2.5813 -0.3693
 6547SOL     OW31099   3.530   2.382   7.014 -0.4133 -0.3639 -0.0189
 6547SOL    HW131100   3.496   2.451   7.072  2.1856  0.2846  0.7269
 6547SOL    HW231101   3.543   2.437   6.937 -1.3577  1.4027  1.0668
 6548SOL     OW31102   4.086   1.928   1.844 -0.4151 -0.5482 -0.1610
 6548SOL    HW131103   4.154   1.977   1.798  1.0327 -2.3730  0.0308
 6548SOL    HW231104   4.009   1.927   1.787  0.0358 -1.3760 -0.7627
 6549SOL     OW31105   0.759   2.798   4.161  0.2425 -0.2382 -0.2199
 6549SOL    HW131106   0.690   2.829   4.102  0.4183  0.4271 -0.0784
 6549SOL    HW231107   0.713   2.730   4.210 -0.2132  0.7362  0.7042
 6550SOL     OW31108   0.740   4.457   6.995 -0.2295 -0.5073 -0.3544
 6550SOL    HW131109   0.777   4.409   6.921 -0.7922  0.4981 -1.2889
 6550SOL    HW231110   0.647   4.465   6.976 -0.6158 -2.2787  0.8570
 6551SOL     OW31111   3.880   2.875  13.072  0.1791  1.3320  0.1071
 6551SOL    HW131112   3.974   2.856  13.066  0.1115  0.5824  1.6208
 6551SOL    HW231113   3.884   2.959  13.026 -0.1641  1.1482 -0.2561
 6552SOL     OW31114   1.673   2.656  12.173 -0.3638  0.1928  0.1306
 6552SOL    HW131115   1.734   2.599  12.126  1.7958  2.0423  0.7228
 6552SOL    HW231116   1.615   2.692  12.107 -0.6185  1.0452  0.8212
 6553SOL     OW31117   4.651   2.331   6.324 -0.1950 -0.3676  0.0894
 6553SOL    HW131118   4.629   2.339   6.231  0.1754  0.1229  0.0475
 6553SOL    HW231119   0.016   2.293   6.314  0.4367  1.4899 -1.3715
 6554SOL     OW31120   0.686   3.127  13.306 -0.3454 -0.3943  0.0567
 6554SOL    HW131121   0.769   3.128  13.354 -1.0130  2.6961  1.1351
 6554SOL    HW231122   0.634   3.063  13.354 -0.6533 -1.3784 -1.5794
 6555SOL     OW31123   0.893   2.652   8.936  0.3947  0.3939 -0.0780
 6555SOL    HW131124   0.974   2.688   8.900 -0.0958 -0.5915 -2.1087
 6555SOL    HW231125   0.864   2.623   8.850 -0.0431 -2.3295  1.0074
 6556SOL     OW31126   0.905   4.325   7.918  0.0954  0.6104 -0.1667
 6556SOL    HW131127   0.928   4.330   8.011 -0.2306 -0.9396 -0.0149
 6556SOL    HW231128   0.822   4.277   7.926  0.3680  0.6620  2.9212
 6557SOL     OW31129   3.214   0.598   3.331 -0.0088 -0.1775  0.0751
 6557SOL    HW131130   3.156   0.643   3.270 -3.6271 -1.8908  2.3014
 6557SOL    HW231131   3.300   0.618   3.293 -0.3042  0.0154 -0.4811
 6558SOL     OW31132   2.984   4.260   3.620 -0.5359  0.2526  0.2303
 6558SOL    HW131133   2.955   4.178   3.581  1.3061 -0.5625  0.5818
 6558SOL    HW231134   2.919   4.267   3.690  0.8365  0.6469  1.4737
 6559SOL     OW31135   1.464   1.346  13.939 -0.0546 -0.0340  0.3938
 6559SOL    HW131136   1.471   1.273  14.001 -2.5803  0.6242  1.4546
 6559SOL    HW231137   1.546   1.336  13.892  0.3591 -0.1352  1.1430
 6560SOL     OW31138   0.251   0.378   2.798  0.0149 -0.2949  0.8748
 6560SOL    HW131139   0.161   0.375   2.831 -0.1594  0.0927  0.4384
 6560SOL    HW231140   0.229   0.382   2.705  1.5939 -0.2300  0.5055
 6561SOL     OW31141   1.063   3.208   6.824  0.0865 -0.4683  0.1109
 6561SOL    HW131142   1.087   3.116   6.836  1.1222 -0.2291 -0.0890
 6561SOL    HW231143   0.974   3.206   6.860 -0.0555  1.8509 -0.1124
 6562SOL     OW31144   2.619   0.665  12.975  0.8037 -0.0143 -0.3459
 6562SOL    HW131145   2.606   0.728  12.904 -2.3243  1.7857  1.8445
 6562SOL    HW231146   2.705   0.626  12.956  0.0708 -1.5641 -0.4584
 6563SOL     OW31147   3.716   2.515   1.239  0.2794 -0.0605  0.0263
 6563SOL    HW131148   3.694   2.567   1.162  1.2672 -0.5992 -0.6292
 6563SOL    HW231149   3.797   2.473   1.209  0.4825  0.6832 -0.4432
 6564SOL     OW31150   1.160   2.359  14.758  0.2287 -0.1015  0.3545
 6564SOL    HW131151   1.245   2.347  14.801  0.3096 -0.6936  0.0342
 6564SOL    HW231152   1.160   2.454  14.746 -2.4226 -0.1572 -0.0101
 6565SOL     OW31153   4.050   2.368   3.659  0.3814  0.0049 -0.4888
 6565SOL    HW131154   4.084   2.391   3.572  0.2272  1.8802 -0.0427
 6565SOL    HW231155   3.982   2.302   3.646  1.8487 -1.6599  0.2652
 6566SOL     OW31156   2.994   4.610   8.617 -0.2313 -0.5431 -0.1264
 6566SOL    HW131157   2.949   4.647   8.540 -0.6670 -1.7760 -0.4599
 6566SOL    HW231158   3.077   4.658   8.620 -0.7949  0.4545 -0.5438
 6567SOL     OW31159   0.697   4.100   9.122 -0.5051  0.0512  0.7001
 6567SOL    HW131160   0.724   4.021   9.169  0.5306  0.2066  0.3555
 6567SOL    HW231161   0.782   4.121   9.084 -0.5973  0.0425  0.4890
 6568SOL     OW31162   3.254   4.024   2.008 -0.0317  0.3019  0.0338
 6568SOL    HW131163   3.181   3.986   2.057  0.4868 -0.5166  0.1592
 6568SOL    HW231164   3.318   4.061   2.069  0.3526  0.7050 -0.6138
 6569SOL     OW31165   0.819   0.320   4.213  0.0646  0.6730 -0.5132
 6569SOL    HW131166   0.874   0.366   4.150 -0.3864  1.8792 -0.0164
 6569SOL    HW231167   0.827   0.363   4.298  1.2632 -0.8564  0.1360
 6570SOL     OW31168   0.112   3.639   9.573  0.0559 -0.6350 -0.4731
 6570SOL    HW131169   0.053   3.696   9.622 -0.5612 -0.4287 -1.4492
 6570SOL    HW231170   0.061   3.642   9.492 -2.5390  0.2450  1.2137
 6571SOL     OW31171   1.998   1.367  16.964 -0.1996  0.4282  0.0770
 6571SOL    HW131172   1.947   1.436  16.922  1.5537 -0.1462 -2.9581
 6571SOL    HW231173   2.052   1.342  16.889  0.8700  0.9042  0.6860
 6572SOL     OW31174   3.458   0.276  13.321 -0.4772 -0.3295 -0.2235
 6572SOL    HW131175   3.497   0.286  13.235  0.9573  2.4888  0.7637
 6572SOL    HW231176   3.437   0.183  13.314  0.6082 -0.3874 -2.3352
 6573SOL     OW31177   0.079   4.560   4.500  0.0437  0.3189 -0.0665
 6573SOL    HW131178   0.082   4.609   4.417 -1.0655  0.1820 -0.1908
 6573SOL    HW231179   4.712   4.577   4.528 -0.7652 -2.4105 -1.0139
 6574SOL     OW31180   3.663   0.485   2.831  0.1428  0.1456 -0.2083
 6574SOL    HW131181   3.575   0.479   2.795  0.9815 -0.2121 -2.1898
 6574SOL    HW231182   3.656   0.473   2.926  0.6128 -1.8038 -0.4084
 6575SOL     OW31183   0.952   4.649  15.027 -0.0105 -0.1453  0.7525
 6575SOL    HW131184   1.036   4.644  15.073  1.8256 -0.2395 -2.5346
 6575SOL    HW231185   0.940   0.020  15.043 -1.1245  0.1400 -1.7770
 6576SOL     OW31186   3.006   0.061   1.488  0.0622  0.1597  0.3214
 6576SOL    HW131187   3.098   0.049   1.512 -0.8044 -2.5802  2.2409
 6576SOL    HW231188   3.014   0.082   1.395 -1.5997 -1.6746 -0.2215
 6577SOL     OW31189   2.349   3.376   8.598  0.4828 -0.2536  0.1635
 6577SOL    HW131190   2.431   3.367   8.549 -0.5529  1.0770 -1.8148
 6577SOL    HW231191   2.380   3.343   8.683  1.1055 -0.7588 -0.2587
 6578SOL     OW31192   4.562   3.101   3.273  0.1941  0.8035  0.4382
 6578SOL    HW131193   4.604   3.059   3.348 -1.0943  0.5149  0.9843
 6578SOL    HW231194   4.586   3.194   3.280 -2.0467  1.4201 -0.1454
 6579SOL     OW31195   2.261   4.304   1.484 -0.0901 -0.3014 -0.2047
 6579SOL    HW131196   2.291   4.383   1.438 -0.1232 -0.4469 -0.4764
 6579SOL    HW231197   2.280   4.235   1.420 -2.0677 -1.4063  0.4043
 6580SOL     OW31198   0.793   2.065   4.331  0.1413 -0.8147  0.4580
 6580SOL    HW131199   0.755   2.056   4.419  0.8624 -0.4562  0.8079
 6580SOL    HW231200   0.739   2.021   4.265 -1.8054  0.7952  0.9653
 6581SOL     OW31201   1.917   4.668   8.329  0.0641  0.3462  0.0178
 6581SOL    HW131202   1.857   0.006   8.371 -0.6931 -0.0614 -0.4606
 6581SOL    HW231203   1.882   4.581   8.351 -2.3914  0.8629 -1.8496
 6582SOL     OW31204   3.824   3.098   7.428  0.0565 -0.1994  0.3850
 6582SOL    HW131205   3.858   3.153   7.498 -1.7342  1.3755 -0.0040
 6582SOL    HW231206   3.867   3.012   7.434  0.2286 -0.0966  0.6205
 6583SOL     OW31207   4.369   1.050   6.057  0.2689 -0.1204 -0.1413
 6583SOL    HW131208   4.305   1.089   5.997  0.0378  4.5596  3.1859
 6583SOL    HW231209   4.421   1.129   6.075 -0.2519  0.4256 -1.0252
 6584SOL     OW31210   0.773   3.560   6.665 -0.0524  0.1868 -0.6428
 6584SOL    HW131211   0.817   3.498   6.723  0.2009  0.0938 -0.9348
 6584SOL    HW231212   0.690   3.559   6.712  0.0577 -1.2238 -0.4908
 6585SOL     OW31213   2.049   2.468   0.888  0.0648  0.3455  0.3003
 6585SOL    HW131214   2.033   2.469   0.794 -0.8701  0.2752  0.4637
 6585SOL    HW231215   1.964   2.502   0.915 -0.4894  0.0413 -1.0594
 6586SOL     OW31216   1.026   1.350   7.026  0.6147 -0.0434  0.2416
 6586SOL    HW131217   0.993   1.317   6.943  0.4088  1.2577 -0.1887
 6586SOL    HW231218   1.071   1.429   6.997  0.4861 -0.1762 -0.3205
 6587SOL     OW31219   3.565   0.817   9.195 -0.4289  0.0096 -0.1206
 6587SOL    HW131220   3.594   0.810   9.286  0.7116 -1.5448 -0.6043
 6587SOL    HW231221   3.646   0.820   9.144 -0.0101  0.0015  0.5344
 6588SOL     OW31222   3.239   0.605   2.672  0.0248 -0.6917  0.1011
 6588SOL    HW131223   3.333   0.616   2.688 -0.5987  1.2528  2.4664
 6588SOL    HW231224   3.208   0.692   2.696  1.0720 -0.0618 -0.8444
 6589SOL     OW31225   0.371   1.565   9.179  0.7006  0.5124  0.1220
 6589SOL    HW131226   0.396   1.591   9.268 -0.3587 -1.0222  0.8594
 6589SOL    HW231227   0.451   1.579   9.127 -0.1621  0.2153 -1.2669
 6590SOL     OW31228   2.084   0.217   6.454 -0.3837  0.3908 -0.3813
 6590SOL    HW131229   2.054   0.146   6.511 -0.6281  0.4561 -0.4275
 6590SOL    HW231230   2.118   0.175   6.374 -2.1048 -1.7854  0.0183
 6591SOL     OW31231   0.836   0.937   9.216 -0.5768  0.5446 -0.2320
 6591SOL    HW131232   0.931   0.925   9.212 -1.1965 -3.9266 -1.4561
 6591SOL    HW231233   0.835   1.025   9.252 -1.2201  0.4394  0.0173
 6592SOL     OW31234   4.180   3.376   4.312  0.2151 -0.2673 -0.6657
 6592SOL    HW131235   4.213   3.443   4.372  0.4349 -0.8040 -0.1947
 6592SOL    HW231236   4.095   3.415   4.295 -0.7654 -1.7528  0.8282
 6593SOL     OW31237   1.620   1.234   4.523  0.0144  0.3892 -0.3226
 6593SOL    HW131238   1.554   1.173   4.556  1.8482 -1.2107  0.3950
 6593SOL    HW231239   1.699   1.209   4.571  0.7823  1.9242 -0.7533
 6594SOL     OW31240   4.448   4.179  11.069  0.3786  0.5794 -0.1422
 6594SOL    HW131241   4.452   4.217  10.981  3.2631 -0.2158 -0.3499
 6594SOL    HW231242   4.354   4.162  11.076  0.4393  0.7405  1.0092
 6595SOL     OW31243   3.047   2.677   8.173 -0.0050 -0.1157 -0.4578
 6595SOL    HW131244   3.066   2.758   8.126 -2.8690  1.7457  1.5507
 6595SOL    HW231245   3.023   2.622   8.099 -0.1038  0.4010 -0.8096
 6596SOL     OW31246   4.598   2.877   9.976 -0.6144 -0.8853  0.0558
 6596SOL    HW131247   4.623   2.954  10.028  1.7737 -2.0830  0.6655
 6596SOL    HW231248   4.665   2.865   9.909  0.2236  0.8719  0.5613
 6597SOL     OW31249   3.661   3.278   6.513  0.1548  0.2084  0.1088
 6597SOL    HW131250   3.688   3.203   6.565  2.1933  2.5004  2.2968
 6597SOL    HW231251   3.587   3.311   6.564  1.9537 -0.0723  2.8333
 6598SOL     OW31252   4.483   1.236  10.118 -0.6694 -0.0247  0.3578
 6598SOL    HW131253   4.539   1.300  10.073  1.1935 -0.3823  2.1686
 6598SOL    HW231254   4.483   1.261  10.210 -0.2825  1.1922  0.0347
 6599SOL     OW31255   4.429   1.365   7.622  0.3317  0.8144  0.0125
 6599SOL    HW131256   4.442   1.330   7.710 -1.8305 -0.2060 -0.0829
 6599SOL    HW231257   4.423   1.460   7.636  2.0768  0.8672  0.5050
 6600SOL     OW31258   3.755   0.184   6.296  0.4374 -0.9607 -0.7075
 6600SOL    HW131259   3.783   0.249   6.232  0.7009 -0.6610 -0.2887
 6600SOL    HW231260   3.678   0.230   6.329  1.0106 -1.3702  1.2373
 6601SOL     OW31261   1.292   3.216  13.385  0.3944  0.3678  0.0021
 6601SOL    HW131262   1.280   3.192  13.293 -1.1139  4.5657 -0.8650
 6601SOL    HW231263   1.332   3.303  13.383 -0.0772  0.5978  0.6271
 6602SOL     OW31264   3.497   2.065   6.334 -0.1652  0.0544 -0.0050
 6602SOL    HW131265   3.583   2.029   6.356  0.3488 -0.6796 -3.1363
 6602SOL    HW231266   3.480   2.095   6.423 -0.9492 -2.3606  0.6653
 6603SOL     OW31267   1.054   3.170  13.617 -0.2342 -0.1777 -0.3543
 6603SOL    HW131268   0.989   3.101  13.629 -1.5196  1.1792  0.4311
 6603SOL    HW231269   1.001   3.248  13.629 -2.0921 -1.3116 -1.3229
 6604SOL     OW31270   2.970   0.605   7.577 -0.4296 -0.5455  0.4425
 6604SOL    HW131271   2.884   0.630   7.544 -0.7830 -1.4964  0.6582
 6604SOL    HW231272   2.988   0.672   7.643 -0.0182  0.3583 -0.5784
 6605SOL     OW31273   1.185   1.464   8.545 -0.2770 -0.4865  0.6853
 6605SOL    HW131274   1.253   1.532   8.545 -0.1754 -0.5949  1.6429
 6605SOL    HW231275   1.205   1.398   8.611  1.5635 -1.5587 -0.9409
 6606SOL     OW31276   3.524   3.031   8.941 -0.4363 -0.1513  0.2041
 6606SOL    HW131277   3.446   3.054   8.991 -1.7421  0.7901 -2.2424
 6606SOL    HW231278   3.521   2.936   8.949  1.7232 -0.5542 -3.9555
 6607SOL     OW31279   0.744   1.870   8.371  0.7448  0.3706 -0.5088
 6607SOL    HW131280   0.715   1.924   8.298 -0.4727 -1.0100 -1.0642
 6607SOL    HW231281   0.672   1.882   8.433  0.4753  1.8413 -1.1084
 6608SOL     OW31282   3.827   3.903   9.878  0.2020  0.1348 -0.0309
 6608SOL    HW131283   3.756   3.966   9.883  0.4112  0.2793  1.1709
 6608SOL    HW231284   3.889   3.963   9.837  0.2739  0.2135  0.1922
 6609SOL     OW31285   1.530   4.489   8.961 -0.3249 -0.4050  0.1519
 6609SOL    HW131286   1.474   4.552   9.006 -0.3175  0.0191 -0.4387
 6609SOL    HW231287   1.502   4.405   9.000  0.9971 -1.1345 -0.4795
 6610SOL     OW31288   3.948   1.831   7.020  0.1929  0.0218  0.3463
 6610SOL    HW131289   3.964   1.863   7.109 -1.2785  0.2114  0.5371
 6610SOL    HW231290   4.037   1.820   6.986 -1.6068 -1.8981 -3.7642
 6611SOL     OW31291   2.144   2.192   3.834 -0.2428  0.2669  0.4527
 6611SOL    HW131292   2.216   2.247   3.802 -0.5820 -0.0629 -0.8566
 6611SOL    HW231293   2.138   2.133   3.760 -0.0541 -0.6203  1.1491
 6612SOL     OW31294   0.834   3.455  11.318  0.3780 -0.2027 -0.0094
 6612SOL    HW131295   0.826   3.532  11.262 -0.4832 -0.1857  0.1523
 6612SOL    HW231296   0.894   3.495  11.381  0.7735  0.0545 -0.5451
 6613SOL     OW31297   2.406   1.083   2.685 -0.4337  0.1438  0.0529
 6613SOL    HW131298   2.445   1.156   2.635 -1.1871 -0.7271 -1.8202
 6613SOL    HW231299   2.440   1.100   2.773 -0.4326 -0.7208  0.2190
 6614SOL     OW31300   4.425   0.663   6.606 -0.5427 -0.0967 -0.0095
 6614SOL    HW131301   4.376   0.584   6.628  0.9298 -0.2720  2.6120
 6614SOL    HW231302   4.392   0.678   6.517  1.8553 -0.4677 -0.9521
 6615SOL     OW31303   3.490   3.226  11.633  0.2308 -0.3792  0.1104
 6615SOL    HW131304   3.563   3.217  11.572  0.4231  0.3850  0.2236
 6615SOL    HW231305   3.540   3.217  11.715 -2.3041  0.4880  1.7755
 6616SOL     OW31306   2.516   1.384   8.970 -0.8172  0.4779 -0.2404
 6616SOL    HW131307   2.450   1.441   9.010 -0.5393  0.6941 -0.0927
 6616SOL    HW231308   2.517   1.419   8.881  2.7148  1.9762  0.3687
 6617SOL     OW31309   0.622   0.978   2.275 -0.1034 -0.0000 -0.6024
 6617SOL    HW131310   0.560   1.048   2.295 -1.6615 -1.1344 -1.4846
 6617SOL    HW231311   0.676   1.020   2.207  2.2409 -2.0094  0.0175
 6618SOL     OW31312   4.390   3.505   8.778 -0.0011 -0.0561  0.6741
 6618SOL    HW131313   4.479   3.514   8.812 -0.6153  2.7380  1.5463
 6618SOL    HW231314   4.410   3.568   8.709 -1.3679 -0.4508 -0.0985
 6619SOL     OW31315   0.822   2.459   1.590 -0.2313  0.2881  0.8079
 6619SOL    HW131316   0.781   2.507   1.518  0.2517  2.3349  1.8970
 6619SOL    HW231317   0.763   2.384   1.582  0.1540  0.2078 -1.2283
 6620SOL     OW31318   2.762   1.112   5.736  0.0395 -0.1207 -0.4187
 6620SOL    HW131319   2.690   1.083   5.681 -0.3978 -0.5133  0.3570
 6620SOL    HW231320   2.830   1.047   5.716  0.8002  0.9505 -1.2974
 6621SOL     OW31321   2.900   0.071  10.941 -0.3304  0.4326 -0.5242
 6621SOL    HW131322   2.845   0.010  10.991 -0.7083  0.2094 -1.2024
 6621SOL    HW231323   2.833   0.121  10.893 -1.2191 -0.0262  0.2391
 6622SOL     OW31324   1.315   2.908  17.450 -0.0246 -0.2341 -0.3042
 6622SOL    HW131325   1.382   2.924  17.383  1.4324  1.2008  1.4909
 6622SOL    HW231326   1.353   2.954  17.525 -1.3651 -3.6591  2.4901
 6623SOL     OW31327   2.053   2.437  10.005 -0.2757 -0.0847  0.3759
 6623SOL    HW131328   1.980   2.428   9.944 -0.6229  0.6670  0.6694
 6623SOL    HW231329   2.123   2.392   9.958  0.4592  2.5551 -1.0551
 6624SOL     OW31330   0.645   0.659   1.749  0.3728  0.3502  0.6944
 6624SOL    HW131331   0.626   0.750   1.774 -2.4985 -0.0298 -0.0139
 6624SOL    HW231332   0.632   0.609   1.829 -0.4555  0.3580  0.5726
 6625SOL     OW31333   1.197   3.863   6.648  0.5996 -0.2740 -0.2084
 6625SOL    HW131334   1.204   3.784   6.593 -2.5951 -0.9227  0.3357
 6625SOL    HW231335   1.159   3.827   6.728  2.2299 -1.3605  0.0784
 6626SOL     OW31336   3.624   2.523   8.421 -0.0860  0.2188 -0.0041
 6626SOL    HW131337   3.658   2.607   8.453 -1.9921  1.8052 -2.1739
 6626SOL    HW231338   3.593   2.493   8.506 -1.6357  0.3936 -0.5124
 6627SOL     OW31339   4.622   1.359   2.892  0.4181 -0.2293 -0.5976
 6627SOL    HW131340   4.627   1.337   2.985 -3.9037 -0.3661 -0.3727
 6627SOL    HW231341   4.668   1.288   2.848 -0.1387  0.7842 -2.8026
 6628SOL     OW31342   3.673   2.984   2.589 -0.5030 -0.0548 -0.1466
 6628SOL    HW131343   3.584   2.950   2.578  0.4469 -2.9563  1.0845
 6628SOL    HW231344   3.656   3.073   2.559 -3.2867 -1.2119 -2.0396
 6629SOL     OW31345   0.904   4.651   7.321 -0.1507 -0.2020 -0.2141
 6629SOL    HW131346   0.948   0.003   7.281 -0.0087  0.0762  0.4756
 6629SOL    HW231347   0.814   4.683   7.329 -0.1006 -0.6591  2.2906
 6630SOL     OW31348   0.086   1.064  16.070  0.2269 -0.4142 -0.6351
 6630SOL    HW131349   0.163   1.029  16.025  1.6023 -0.7767  1.9919
 6630SOL    HW231350   0.107   1.158  16.075  1.3613 -0.7031 -0.0979
 6631SOL     OW31351   0.877   4.275  10.546 -0.5544 -0.0598 -0.1015
 6631SOL    HW131352   0.960   4.250  10.505 -1.4438 -2.4533 -0.4220
 6631SOL    HW231353   0.813   4.222  10.499 -1.0294 -0.1759  0.6812
 6632SOL     OW31354   4.606   1.480  11.056  0.3104  0.1471 -0.1833
 6632SOL    HW131355   4.651   1.556  11.092  1.9692  0.1770 -2.3362
 6632SOL    HW231356   4.536   1.522  11.005 -0.6676  2.6619  3.2137
 6633SOL     OW31357   1.949   1.928   5.314  0.8122  0.4642  0.4009
 6633SOL    HW131358   1.968   1.856   5.253  2.2414  0.4507  0.8692
 6633SOL    HW231359   1.868   1.960   5.276  1.8930  3.5897  0.7683
 6634SOL     OW31360   1.731   4.378   2.930 -0.1515  1.0330 -0.1279
 6634SOL    HW131361   1.764   4.429   2.856 -0.4212 -0.5799 -1.3624
 6634SOL    HW231362   1.750   4.289   2.900 -1.2160  0.5265  0.7425
 6635SOL     OW31363   1.739   4.007   7.855  0.1539 -0.9230  0.3800
 6635SOL    HW131364   1.726   4.007   7.950  0.5940  0.5942  0.4389
 6635SOL    HW231365   1.725   3.915   7.834 -0.0317 -0.8101  0.0146
 6636SOL     OW31366   1.554   0.697  10.091  0.0290  0.5143  0.8011
 6636SOL    HW131367   1.540   0.604  10.107  2.3833 -0.1569 -0.9375
 6636SOL    HW231368   1.529   0.716  10.001 -0.4911 -1.9923  0.4191
 6637SOL     OW31369   1.341   4.230   7.902  0.5166 -0.0195  0.4455
 6637SOL    HW131370   1.335   4.271   7.816  0.4313  0.0959  0.5074
 6637SOL    HW231371   1.267   4.169   7.896 -0.3996  1.0025  1.2683
 6638SOL     OW31372   4.668   2.647   6.811 -0.3159  0.3623 -0.3938
 6638SOL    HW131373   4.659   2.560   6.851 -0.4952  0.5432 -0.0384
 6638SOL    HW231374   4.581   2.684   6.828  1.0217  2.3203  2.0749
 6639SOL     OW31375   4.452   3.870   8.253 -0.3077 -0.4504  0.0378
 6639SOL    HW131376   4.531   3.874   8.198 -1.1220 -0.3394 -1.1123
 6639SOL    HW231377   4.474   3.928   8.326 -2.1644 -0.0097  0.2289
 6640SOL     OW31378   2.497   2.114   6.006 -0.4703 -0.2547 -0.1266
 6640SOL    HW131379   2.499   2.081   6.096 -4.1169  0.4945  0.2346
 6640SOL    HW231380   2.582   2.076   5.984 -0.7883 -1.8296  1.3149
 6641SOL     OW31381   3.269   4.212   1.304 -0.5350 -0.0502 -0.2131
 6641SOL    HW131382   3.280   4.214   1.399  2.6209  0.9791 -0.6065
 6641SOL    HW231383   3.219   4.292   1.291  0.0344  0.2834 -0.3208
 6642SOL     OW31384   2.572   0.790  13.990 -0.1813 -0.0885  0.2161
 6642SOL    HW131385   2.551   0.724  13.923  0.5993  0.8456 -0.9434
 6642SOL    HW231386   2.581   0.741  14.072 -2.0379 -0.1519  0.3969
 6643SOL     OW31387   0.921   2.855   1.519 -0.5709 -0.0291  0.0897
 6643SOL    HW131388   0.880   2.857   1.606 -1.5275 -0.0923 -0.3696
 6643SOL    HW231389   0.998   2.909   1.538 -0.2761 -0.2615 -0.4413
 6644SOL     OW31390   1.552   1.982  17.007 -0.4070  0.1738 -0.7602
 6644SOL    HW131391   1.531   1.948  16.920 -0.7167 -2.4777  0.3342
 6644SOL    HW231392   1.507   1.919  17.063 -1.8957 -0.2089 -2.3874
 6645SOL     OW31393   2.899   4.641   1.237 -0.4003  0.0817 -0.6846
 6645SOL    HW131394   2.985   4.612   1.207  1.3981  0.7061  3.8099
 6645SOL    HW231395   2.876   4.705   1.170  1.5114  0.0413 -1.3718
 6646SOL     OW31396   1.007   1.894   8.475 -0.3239 -0.1918 -0.1106
 6646SOL    HW131397   0.976   1.847   8.552  1.7579  0.5954  1.2139
 6646SOL    HW231398   0.922   1.893   8.431 -0.1557  1.8192 -0.4799
 6647SOL     OW31399   0.573   2.538   2.198  0.3887  0.0294 -0.2878
 6647SOL    HW131400   0.639   2.483   2.156  0.0243  0.1911 -1.0695
 6647SOL    HW231401   0.513   2.470   2.231 -0.5216  0.2876 -1.4092
 6648SOL     OW31402   4.525   0.047  13.400  0.0061  0.2973  0.5363
 6648SOL    HW131403   4.453   4.717  13.366  0.4561  0.1198 -0.1584
 6648SOL    HW231404   4.479   0.124  13.434  1.0216  2.3217 -2.6066
 6649SOL     OW31405   2.635   2.496   6.748  0.5789 -0.6657  0.0454
 6649SOL    HW131406   2.630   2.479   6.655 -0.0667 -0.7014  0.0852
 6649SOL    HW231407   2.619   2.407   6.780  0.7469 -1.2383 -1.5023
 6650SOL     OW31408   3.032   3.332  10.864 -0.3272 -0.2069  0.0491
 6650SOL    HW131409   2.945   3.294  10.855  0.8742 -2.9879  0.4140
 6650SOL    HW231410   3.024   3.375  10.949 -0.1209 -0.8663  0.3992
 6651SOL     OW31411   3.194   3.008  14.036  0.6849  0.0654  0.2540
 6651SOL    HW131412   3.106   3.041  14.019  0.7537 -0.6486 -1.5506
 6651SOL    HW231413   3.210   3.049  14.121 -2.3416  2.6849 -0.4392
 6652SOL     OW31414   3.653   0.849   3.835  0.5876  0.2226  0.3627
 6652SOL    HW131415   3.653   0.857   3.930  1.4563  2.9629  0.1403
 6652SOL    HW231416   3.699   0.768   3.813  0.0479  0.3242 -1.2097
 6653SOL     OW31417   4.414   0.292   6.477  0.2624 -0.4466 -0.1324
 6653SOL    HW131418   4.348   0.333   6.533 -0.3824 -1.6070 -0.0372
 6653SOL    HW231419   4.488   0.280   6.537 -1.3781  0.0694  2.0045
 6654SOL     OW31420   4.115   1.361   7.130 -0.1398 -0.4844  0.2998
 6654SOL    HW131421   4.151   1.377   7.043  0.6260 -2.5215  0.2245
 6654SOL    HW231422   4.180   1.295   7.156 -1.3371 -2.0156 -0.6299
 6655SOL     OW31423   3.708   4.033   8.275 -0.9547  0.0961  0.1472
 6655SOL    HW131424   3.686   3.976   8.202 -0.8255  0.2275  0.0044
 6655SOL    HW231425   3.803   4.040   8.263 -0.9467 -1.4525 -0.6148
 6656SOL     OW31426   3.810   0.792  11.172  0.2937 -0.1978 -0.6037
 6656SOL    HW131427   3.825   0.804  11.078  0.7652  2.7720 -0.1395
 6656SOL    HW231428   3.783   0.701  11.183 -0.1844 -0.1004 -0.9539
 6657SOL     OW31429   2.193   4.381  13.469  0.0176  0.8957 -0.1423
 6657SOL    HW131430   2.153   4.306  13.512  0.7411  0.5764 -0.0242
 6657SOL    HW231431   2.250   4.407  13.542  0.3105 -0.2568  0.0307
 6658SOL     OW31432   4.456   1.949   6.889 -0.4899  0.2919  0.4314
 6658SOL    HW131433   4.494   1.979   6.806  2.0463  1.2325  1.9203
 6658SOL    HW231434   4.536   1.906   6.919 -0.0850 -0.2802 -1.4477
 6659SOL     OW31435   3.685   1.800  10.763  0.2901  0.3138 -0.7621
 6659SOL    HW131436   3.657   1.711  10.743 -2.1847  0.8350  0.4041
 6659SOL    HW231437   3.780   1.789  10.764  0.3509  0.8386 -0.8834
 6660SOL     OW31438   0.226   0.736   9.008 -0.6880  0.4221 -0.3704
 6660SOL    HW131439   0.132   0.722   9.010 -0.4781 -0.8987 -0.2584
 6660SOL    HW231440   0.257   0.700   8.925  0.6473 -1.3041  0.8903
 6661SOL     OW31441   0.434   0.812   8.406 -0.5853 -0.2612  0.1847
 6661SOL    HW131442   0.512   0.804   8.460  1.0827  0.6436 -2.1031
 6661SOL    HW231443   0.465   0.802   8.316 -2.4331  1.9889 -0.7165
 6662SOL     OW31444   0.945   3.926   2.742 -0.3804  0.6096 -0.1294
 6662SOL    HW131445   1.018   3.917   2.680 -1.6886 -0.6906 -1.4719
 6662SOL    HW231446   0.961   4.017   2.770 -1.3675  0.7517 -0.0412
 6663SOL     OW31447   0.526   2.886   6.378  0.0806 -0.0533 -0.1232
 6663SOL    HW131448   0.581   2.822   6.423  0.2541 -0.2122 -0.5549
 6663SOL    HW231449   0.453   2.882   6.439  0.0526  1.3380 -0.0839
 6664SOL     OW31450   2.853   0.500   5.094 -0.0120  0.0816 -0.3251
 6664SOL    HW131451   2.935   0.493   5.046  0.5509 -1.0278  0.7803
 6664SOL    HW231452   2.834   0.594   5.093 -0.4243  0.0067  0.3375
 6665SOL     OW31453   3.498   1.371   9.043  0.1699  0.4584  0.5164
 6665SOL    HW131454   3.470   1.434   8.977  1.3621  0.2795 -0.1512
 6665SOL    HW231455   3.586   1.390   9.074  1.0100 -0.0179 -1.5711
 6666SOL     OW31456   4.182   1.827   2.070 -0.2177  0.1700 -0.4054
 6666SOL    HW131457   4.148   1.865   1.990  0.0160  1.8151  0.2904
 6666SOL    HW231458   4.129   1.747   2.071 -0.4038  0.2801 -1.1398
 6667SOL     OW31459   4.625   0.016  12.054  0.2401 -0.1191 -0.3988
 6667SOL    HW131460   4.588   0.092  12.010  1.2276  1.6046  1.7129
 6667SOL    HW231461   4.716   0.024  12.025 -0.0494  1.4665 -0.8689
 6668SOL     OW31462   0.040   4.256   2.199  0.3339 -0.1318  0.7320
 6668SOL    HW131463   0.123   4.251   2.247  0.4229 -2.1610  0.3896
 6668SOL    HW231464   0.030   4.160   2.201  1.1657 -0.2330 -0.1494
 6669SOL     OW31465   2.384   4.248   4.737 -0.1029  0.1321  0.3695
 6669SOL    HW131466   2.396   4.204   4.821  0.8758 -0.6549 -0.1836
 6669SOL    HW231467   2.418   4.337   4.750 -2.2091  0.6073  2.7524
 6670SOL     OW31468   1.608   2.951   7.943  0.0863  0.3608  0.1112
 6670SOL    HW131469   1.519   2.932   7.971  0.0828  1.0221  0.5466
 6670SOL    HW231470   1.590   3.023   7.883 -0.8804 -0.0984 -0.1418
 6671SOL     OW31471   4.220   3.549   1.672 -0.0602 -0.1077  0.3302
 6671SOL    HW131472   4.254   3.466   1.638 -0.3330 -1.4131  3.1675
 6671SOL    HW231473   4.200   3.516   1.760 -0.1748  1.3807  0.8612
 6672SOL     OW31474   4.693   3.975   5.139 -0.0897  0.2944 -0.0506
 6672SOL    HW131475   4.646   3.902   5.100  0.7395 -0.6786  0.7914
 6672SOL    HW231476   0.038   3.940   5.197 -2.7276 -2.6990  1.2532
 6673SOL     OW31477   0.324   1.988   7.049 -0.1495 -0.3334 -1.1295
 6673SOL    HW131478   0.402   2.023   7.006  0.2381 -2.2962 -2.0154
 6673SOL    HW231479   0.255   2.054   7.038 -0.4160 -0.6092 -1.1000
 6674SOL     OW31480   2.742   3.011  15.173 -0.0957 -0.2925 -0.0796
 6674SOL    HW131481   2.793   3.086  15.141 -1.0866 -0.2972 -1.6744
 6674SOL    HW231482   2.666   3.051  15.214  0.8598 -0.0832  1.4792
 6675SOL     OW31483   3.464   2.099  15.318 -0.3491  0.1652 -0.2473
 6675SOL    HW131484   3.468   2.009  15.284  1.0734  0.7348 -1.6283
 6675SOL    HW231485   3.499   2.086  15.406  0.3678  0.1171 -0.5388
 6676SOL     OW31486   3.989   4.517  12.271 -0.5857 -0.0601 -0.1999
 6676SOL    HW131487   3.940   4.571  12.333 -1.1060 -0.3270 -0.3727
 6676SOL    HW231488   4.081   4.538  12.278 -0.4988  0.2162 -2.1742
 6677SOL     OW31489   1.065   2.119  11.555 -0.4512  0.0056  0.5819
 6677SOL    HW131490   1.027   2.206  11.561  0.6463  0.4750  0.7963
 6677SOL    HW231491   1.113   2.114  11.471  1.8665 -0.3608  1.9163
 6678SOL     OW31492   0.105   2.902   5.486  0.1519 -0.2088  0.1131
 6678SOL    HW131493   0.182   2.953   5.462  0.2556  0.7661  2.5171
 6678SOL    HW231494   0.109   2.886   5.580  0.7723 -0.3959  0.0553
 6679SOL     OW31495   1.585   1.590   9.423 -0.2553 -0.0765  0.3452
 6679SOL    HW131496   1.653   1.633   9.476  0.1123 -0.9644  0.5893
 6679SOL    HW231497   1.611   1.630   9.339  1.7329 -1.7935  0.1334
 6680SOL     OW31498   3.245   2.919   0.294  0.3453  0.5849 -0.2992
 6680SOL    HW131499   3.258   2.863   0.218 -1.1293  0.1275 -0.2190
 6680SOL    HW231500   3.190   2.984   0.248 -1.2640 -1.1890 -0.9114
 6681SOL     OW31501   4.178   1.156   3.735  0.1938 -0.3008 -0.3017
 6681SOL    HW131502   4.232   1.156   3.814  0.8915 -2.1781 -0.7807
 6681SOL    HW231503   4.102   1.108   3.767  0.8451 -2.2302 -1.6296
 6682SOL     OW31504   0.159   2.755   5.234 -0.3717 -0.2096  0.1410
 6682SOL    HW131505   0.169   2.799   5.318  0.3630  1.6064 -0.9162
 6682SOL    HW231506   0.224   2.795   5.177  1.3258  0.7798  2.8072
 6683SOL     OW31507   1.706   3.647   7.317  0.3107  0.2170 -0.4398
 6683SOL    HW131508   1.767   3.655   7.391  0.8833  0.8832 -0.9843
 6683SOL    HW231509   1.683   3.733   7.283  0.0836  0.2742 -0.1405
 6684SOL     OW31510   3.859   4.717   2.341 -0.9587  0.2961 -0.1128
 6684SOL    HW131511   3.828   0.056   2.407 -1.2384 -0.1434  0.1684
 6684SOL    HW231512   3.894   0.054   2.275 -0.5359  0.4479  0.2495
 6685SOL     OW31513   4.283   0.249   1.950 -0.0600  0.1944 -0.5838
 6685SOL    HW131514   4.221   0.178   1.932 -1.3247  1.6852 -2.0345
 6685SOL    HW231515   4.217   0.309   1.984  0.6703  0.7589 -0.1732
 6686SOL     OW31516   0.064   4.181   7.149 -0.1105 -0.1640  0.2719
 6686SOL    HW131517   0.151   4.146   7.130  0.8536 -0.4509  5.2009
 6686SOL    HW231518   0.089   4.245   7.216  2.1437 -0.9042  0.1193
 6687SOL     OW31519   0.184   2.421   8.030 -0.3746  0.8955  0.0927
 6687SOL    HW131520   0.098   2.446   8.066  0.3992  1.9739  1.1941
 6687SOL    HW231521   0.214   2.364   8.101 -2.6590 -0.6959 -0.2156
 6688SOL     OW31522   3.266   2.082   1.181 -0.0381 -0.2391 -0.0112
 6688SOL    HW131523   3.176   2.063   1.154  0.5375 -0.9167 -1.4291
 6688SOL    HW231524   3.320   2.031   1.121  1.2096  1.0472  0.0087
 6689SOL     OW31525   3.867   0.687   3.842  0.1160 -0.1170 -0.5728
 6689SOL    HW131526   3.888   0.666   3.933 -0.2393  0.0249 -0.4567
 6689SOL    HW231527   3.936   0.747   3.813 -0.2660  0.3727 -0.4816
 6690SOL     OW31528   3.651   0.158  12.254 -0.1711 -0.2531 -0.0075
 6690SOL    HW131529   3.606   0.143  12.171  0.1336 -0.1691 -0.1834
 6690SOL    HW231530   3.579   0.118  12.304 -0.0234  1.7322  1.7961
 6691SOL     OW31531   0.384   0.603   1.691 -0.3001  0.1429 -0.1928
 6691SOL    HW131532   0.404   0.520   1.647 -1.0863  0.6131 -1.4131
 6691SOL    HW231533   0.471   0.639   1.709  0.8421 -1.4529 -2.4332
 6692SOL     OW31534   4.308   1.169   5.415  0.2102 -0.0607 -0.4852
 6692SOL    HW131535   4.382   1.142   5.361 -0.0125 -0.6556 -0.4845
 6692SOL    HW231536   4.259   1.222   5.352  0.0206  1.2391  0.7529
 6693SOL     OW31537   2.375   0.954  10.876 -0.4510  0.0524 -0.1497
 6693SOL    HW131538   2.462   0.957  10.836  0.0005 -0.5780  0.8029
 6693SOL    HW231539   2.385   0.919  10.964 -1.9890 -1.6027 -0.6488
 6694SOL     OW31540   3.326   1.637   5.350 -0.2385  0.2474  0.1879
 6694SOL    HW131541   3.270   1.609   5.423 -0.7330  2.9308  0.8397
 6694SOL    HW231542   3.365   1.709   5.400  0.8117  0.4610 -0.9393
 6695SOL     OW31543   2.318   4.022   4.160  0.1886  0.1080 -0.0808
 6695SOL    HW131544   2.387   3.969   4.120  0.7437  0.0902  0.9022
 6695SOL    HW231545   2.248   3.957   4.165  0.0223 -0.0153 -3.9353
 6696SOL     OW31546   0.746   4.201  16.445 -0.3668 -0.0363 -0.1984
 6696SOL    HW131547   0.795   4.256  16.383  1.3327  0.8000  1.8899
 6696SOL    HW231548   0.783   4.237  16.525 -1.2688  1.8863 -0.6654
 6697SOL     OW31549   2.205   3.588  11.818 -0.1737 -0.0502  0.0029
 6697SOL    HW131550   2.254   3.649  11.762 -1.6706  0.3442 -0.8894
 6697SOL    HW231551   2.213   3.505  11.772 -0.1189 -0.3110  0.4837
 6698SOL     OW31552   0.120   0.412  11.422  0.1126  0.2701  0.5383
 6698SOL    HW131553   0.058   0.480  11.447 -1.8291 -0.3313 -2.7271
 6698SOL    HW231554   0.128   0.355  11.499  0.6262 -2.1315 -1.2846
 6699SOL     OW31555   3.617   3.237   0.478 -0.4447  0.0843 -0.2076
 6699SOL    HW131556   3.690   3.251   0.417 -1.1687 -1.5979 -1.4701
 6699SOL    HW231557   3.541   3.215   0.424  0.4543 -0.8336 -1.1069
 6700SOL     OW31558   3.345   0.417   8.515 -0.3623 -0.3639  1.6357
 6700SOL    HW131559   3.391   0.367   8.448 -0.6955  1.3946  0.0821
 6700SOL    HW231560   3.389   0.392   8.597 -0.4263  1.7566  2.3154
 6701SOL     OW31561   4.375   2.727   1.006  0.4358 -0.1656 -0.2678
 6701SOL    HW131562   4.349   2.676   0.928  3.6430 -0.9970 -0.8057
 6701SOL    HW231563   4.290   2.753   1.041 -0.9927 -2.1490 -2.2191
 6702SOL     OW31564   4.485   2.699   4.672 -0.4647 -0.4740 -0.3706
 6702SOL    HW131565   4.433   2.627   4.637 -0.2925 -0.4088 -0.7580
 6702SOL    HW231566   4.442   2.711   4.757 -1.1989  1.5159 -1.0362
 6703SOL     OW31567   3.717   3.020  14.361  0.3192  0.2478 -0.0267
 6703SOL    HW131568   3.754   3.030  14.449 -4.6346 -3.4830  2.5045
 6703SOL    HW231569   3.791   2.971  14.326 -0.9218 -0.8248 -1.1267
 6704SOL     OW31570   1.489   2.925   1.830 -0.6882  0.2943 -0.4795
 6704SOL    HW131571   1.435   2.852   1.802  1.0633 -1.7619  1.5311
 6704SOL    HW231572   1.506   2.915   1.924  0.0615  0.4935 -0.5885
 6705SOL     OW31573   4.590   2.735   7.547  0.4499 -0.4933  0.1697
 6705SOL    HW131574   4.500   2.708   7.568  0.1365  0.6302  0.2885
 6705SOL    HW231575   4.642   2.655   7.550 -0.8115 -1.1477  3.9526
 6706SOL     OW31576   1.714   1.707   4.633 -0.2831  0.2501 -0.2236
 6706SOL    HW131577   1.743   1.616   4.629  0.6233  0.5298  0.0399
 6706SOL    HW231578   1.736   1.726   4.725 -1.2045 -1.9057  0.4583
 6707SOL     OW31579   1.005   1.724   2.179  0.3128 -0.4650 -0.1318
 6707SOL    HW131580   1.040   1.710   2.267  0.6567 -0.2652 -0.2377
 6707SOL    HW231581   1.071   1.673   2.131 -1.2070 -1.0117 -1.6496
 6708SOL     OW31582   1.322   0.556  13.160  0.1519 -0.2831  0.3354
 6708SOL    HW131583   1.333   0.528  13.069  0.5049 -0.4557  0.4343
 6708SOL    HW231584   1.389   0.624  13.172  0.2485 -0.0028 -1.8327
 6709SOL     OW31585   2.027   4.099  13.772 -0.0394  0.9148  0.3954
 6709SOL    HW131586   2.071   4.184  13.778  1.8481 -0.2980  3.8947
 6709SOL    HW231587   2.054   4.068  13.686  2.2833  1.7215  0.8274
 6710SOL     OW31588   3.981   3.852   2.849  0.0106  0.4148 -0.3250
 6710SOL    HW131589   3.945   3.941   2.853  0.9562  0.6858  2.0497
 6710SOL    HW231590   3.905   3.809   2.811  0.9681 -0.5667 -1.1059
 6711SOL     OW31591   1.463   0.974   5.688 -0.4977  0.2143 -0.1770
 6711SOL    HW131592   1.512   0.966   5.770 -0.1375 -0.8102 -0.4847
 6711SOL    HW231593   1.440   0.882   5.673 -0.6486  0.3610 -0.8314
 6712SOL     OW31594   3.446   2.111   1.724  0.0927 -0.0388 -0.4457
 6712SOL    HW131595   3.540   2.111   1.710 -0.0637 -1.0945 -1.5346
 6712SOL    HW231596   3.413   2.068   1.645  1.5277 -2.1847  0.1304
 6713SOL     OW31597   2.170   2.526   6.337  0.4262 -0.1211 -0.2763
 6713SOL    HW131598   2.218   2.444   6.329 -1.0691 -0.9349 -0.7763
 6713SOL    HW231599   2.100   2.500   6.397  0.2705 -0.5560 -0.6531
 6714SOL     OW31600   3.778   2.761   5.318 -0.1098  0.2341  0.1399
 6714SOL    HW131601   3.717   2.828   5.288  0.2293  1.0678  1.3128
 6714SOL    HW231602   3.776   2.703   5.242  2.1998 -0.4759  0.6210
 6715SOL     OW31603   3.670   2.838   3.536 -0.3537  0.0750 -0.6777
 6715SOL    HW131604   3.592   2.797   3.574 -0.2383  1.1063  0.6666
 6715SOL    HW231605   3.732   2.768   3.516 -2.2414 -1.9178  0.4860
 6716SOL     OW31606   2.052   4.107   5.426 -0.6048 -0.7287 -0.1146
 6716SOL    HW131607   1.957   4.115   5.422 -0.6586 -2.5052 -2.4792
 6716SOL    HW231608   2.058   4.134   5.517 -2.4600 -1.3640  0.2006
 6717SOL     OW31609   3.234   0.258   2.587 -1.0115 -0.2456  0.0434
 6717SOL    HW131610   3.198   0.292   2.669 -1.2064 -0.9241  0.2472
 6717SOL    HW231611   3.211   0.165   2.592 -0.0547 -0.6113 -2.6614
 6718SOL     OW31612   0.849   3.592   5.482 -0.2472 -0.1063  0.0765
 6718SOL    HW131613   0.838   3.658   5.551 -1.6270 -3.1257  2.7332
 6718SOL    HW231614   0.829   3.507   5.522 -2.9762  0.1825 -0.6971
 6719SOL     OW31615   3.749   3.531   0.553 -0.0659  0.0435  0.8140
 6719SOL    HW131616   3.794   3.536   0.468 -1.0379 -3.1919  0.1085
 6719SOL    HW231617   3.690   3.460   0.530 -0.9324  1.2035 -0.5642
 6720SOL     OW31618   0.408   1.590   4.407 -0.2936  0.1045  1.2109
 6720SOL    HW131619   0.457   1.517   4.444 -1.4570 -1.1319  0.3335
 6720SOL    HW231620   0.329   1.578   4.460 -1.5504  0.3376 -0.6020
 6721SOL     OW31621   2.442   4.030   8.496  0.5789  0.5552 -0.0527
 6721SOL    HW131622   2.373   3.975   8.534  0.3900  0.4315 -0.5703
 6721SOL    HW231623   2.407   4.118   8.488 -0.5264  0.0911 -0.3015
 6722SOL     OW31624   2.750   0.535   4.056 -0.3487 -0.0003 -0.3345
 6722SOL    HW131625   2.775   0.507   4.144  0.1701 -1.4481 -0.9547
 6722SOL    HW231626   2.806   0.483   3.999  0.5225  0.9615 -0.3603
 6723SOL     OW31627   1.120   3.782   8.184  0.5287 -0.3696  0.0700
 6723SOL    HW131628   1.039   3.786   8.134  1.0819  1.9695 -0.6294
 6723SOL    HW231629   1.097   3.830   8.264  2.4915 -2.8016  2.1179
 6724SOL     OW31630   4.275   4.230   7.037  0.1029  0.4673  0.8018
 6724SOL    HW131631   4.189   4.260   7.065  0.2432  0.4299  1.2773
 6724SOL    HW231632   4.256   4.191   6.952 -1.8833  1.7359  0.6750
 6725SOL     OW31633   1.468   2.858   5.683  0.8840  0.0832 -0.2997
 6725SOL    HW131634   1.468   2.819   5.770  0.5419  0.2600 -0.2174
 6725SOL    HW231635   1.452   2.950   5.706  0.7893 -0.3549  1.3750
 6726SOL     OW31636   2.977   2.262   1.332 -0.0816  0.0399 -0.7556
 6726SOL    HW131637   3.009   2.340   1.288  2.6709  0.7635  2.4946
 6726SOL    HW231638   2.971   2.194   1.265 -1.3715  0.4186 -1.0104
 6727SOL     OW31639   0.447   1.744   6.704  0.2508  0.0221 -0.0190
 6727SOL    HW131640   0.410   1.817   6.654  0.9459  0.4487  0.0818
 6727SOL    HW231641   0.469   1.686   6.632  0.5040 -1.0006  0.8777
 6728SOL     OW31642   4.496   4.693   5.856 -0.6341 -0.0613 -0.1984
 6728SOL    HW131643   4.513   4.682   5.762  0.8255  0.3842  0.0106
 6728SOL    HW231644   4.413   0.018   5.860 -0.5839 -0.0027  0.1107
 6729SOL     OW31645   0.505   1.121   3.384  0.1673  0.2374  0.0396
 6729SOL    HW131646   0.517   1.036   3.342  1.4823  0.7407 -0.5822
 6729SOL    HW231647   0.409   1.128   3.379  0.5522  4.5926 -0.5138
 6730SOL     OW31648   1.140   3.501   8.201  0.6695 -0.0528 -0.2948
 6730SOL    HW131649   1.078   3.486   8.130 -0.8631 -1.6675  1.3751
 6730SOL    HW231650   1.133   3.595   8.184  1.6061  0.3327  1.4192
 6731SOL     OW31651   0.578   2.643  13.957  0.6766  0.2083 -0.4408
 6731SOL    HW131652   0.662   2.612  13.993  0.3701 -0.7039 -0.5171
 6731SOL    HW231653   0.528   2.563  13.971 -0.7877  1.4083  1.1640
 6732SOL     OW31654   3.973   3.672   7.370 -0.2357 -0.0338 -0.0197
 6732SOL    HW131655   4.042   3.717   7.320  1.9661 -2.3800  0.9147
 6732SOL    HW231656   3.946   3.600   7.313 -2.5568  1.7890 -1.2374
 6733SOL     OW31657   0.970   3.309   1.030  0.0786  0.1053 -0.0036
 6733SOL    HW131658   0.993   3.309   0.937  1.1447 -0.2337  0.2540
 6733SOL    HW231659   0.906   3.379   1.037 -1.0735 -0.8172 -1.2583
 6734SOL     OW31660   0.509   2.543   9.879 -0.3744 -0.1120 -0.2502
 6734SOL    HW131661   0.523   2.454   9.910  1.1054 -0.0124 -0.6549
 6734SOL    HW231662   0.454   2.519   9.804  0.6418 -0.4122 -0.8962
 6735SOL     OW31663   0.011   3.238   4.642 -0.3217 -0.1520 -0.2410
 6735SOL    HW131664   0.070   3.249   4.716 -3.1106  3.4365  1.4511
 6735SOL    HW231665   4.672   3.179   4.684  0.3282 -1.4194 -1.0884
 6736SOL     OW31666   2.744   3.890  14.460 -0.5916  0.4991 -0.1478
 6736SOL    HW131667   2.710   3.877  14.371 -0.2129  2.6753 -0.5935
 6736SOL    HW231668   2.819   3.832  14.474 -0.0853  1.6389  1.8320
 6737SOL     OW31669   4.496   1.438   8.706  0.4732 -0.1941 -0.1015
 6737SOL    HW131670   4.571   1.497   8.698 -1.7897  2.4298 -1.9128
 6737SOL    HW231671   4.421   1.497   8.709 -0.5754 -1.5908  1.9540
 6738SOL     OW31672   3.899   0.579   4.988  0.1943  0.0120 -0.6987
 6738SOL    HW131673   3.911   0.668   4.954  0.8988 -0.8339 -2.6466
 6738SOL    HW231674   3.969   0.586   5.053 -1.1066 -0.8446  0.8122
 6739SOL     OW31675   3.187   2.767   6.396  0.0430 -0.3433  0.4728
 6739SOL    HW131676   3.204   2.681   6.358 -0.0058 -1.1678  2.3225
 6739SOL    HW231677   3.201   2.828   6.324  0.0603  1.3855  1.9286
 6740SOL     OW31678   3.458   1.165  13.444  0.1528  0.0565 -0.3819
 6740SOL    HW131679   3.382   1.176  13.387 -0.4279 -1.5459  0.0924
 6740SOL    HW231680   3.407   1.169  13.525 -0.2461 -0.7816 -0.5949
 6741SOL     OW31681   1.381   3.416   3.652 -0.2788  0.3373  0.3462
 6741SOL    HW131682   1.295   3.432   3.612  0.1329  0.6201 -0.4317
 6741SOL    HW231683   1.415   3.348   3.594  1.4848  1.3179  0.2511
 6742SOL     OW31684   1.364   1.688  16.550  0.8372  0.2034 -0.4746
 6742SOL    HW131685   1.397   1.767  16.508 -1.1879  1.9280  1.2037
 6742SOL    HW231686   1.421   1.621  16.512  0.1817 -0.5071 -0.1935
 6743SOL     OW31687   3.153   2.456   8.726 -0.5802 -0.0979 -0.4616
 6743SOL    HW131688   3.063   2.480   8.748 -0.4955  0.2670 -0.5223
 6743SOL    HW231689   3.179   2.521   8.661 -2.6057  0.1838 -1.0015
 6744SOL     OW31690   0.921   3.719  11.431  0.0698  0.1761  0.6361
 6744SOL    HW131691   0.885   3.806  11.452  0.6893  0.2373  1.4428
 6744SOL    HW231692   1.004   3.734  11.476  0.1995  0.0956  0.4214
 6745SOL     OW31693   2.178   3.209   8.466  0.4982 -0.1524 -0.0207
 6745SOL    HW131694   2.237   3.279   8.495 -0.2076 -0.0162  1.0599
 6745SOL    HW231695   2.224   3.169   8.392 -2.0485  1.5251 -2.5021
 6746SOL     OW31696   3.732   4.368  15.602  0.7866  0.4249  0.1834
 6746SOL    HW131697   3.761   4.332  15.686 -0.8261 -1.0149  0.1047
 6746SOL    HW231698   3.792   4.442  15.590  0.6669  0.4448 -0.2899
 6747SOL     OW31699   0.074   4.362   4.086 -0.0607  0.4402 -0.1328
 6747SOL    HW131700   0.098   4.270   4.099  0.7044  0.6963  0.2914
 6747SOL    HW231701   0.110   4.397   4.168 -0.3477  0.9817 -0.2376
 6748SOL     OW31702   3.708   0.759  16.346  0.2761 -0.4052  0.3651
 6748SOL    HW131703   3.615   0.770  16.363  0.6436  1.8270  0.9510
 6748SOL    HW231704   3.707   0.796  16.257 -3.0920  0.5980  0.8307
 6749SOL     OW31705   1.503   2.740   5.011  0.5282 -0.2794 -0.6700
 6749SOL    HW131706   1.548   2.681   4.951 -0.4707 -1.6845 -0.0267
 6749SOL    HW231707   1.459   2.802   4.952  0.0440 -0.0740 -0.0825
 6750SOL     OW31708   1.766   1.718   4.026 -0.0058 -0.4236 -0.3507
 6750SOL    HW131709   1.730   1.637   3.990  2.9078 -2.3022  1.0210
 6750SOL    HW231710   1.852   1.697   4.063  0.6150  2.5243 -0.1598
 6751SOL     OW31711   3.311   3.378   9.814  0.4307  0.2520 -0.1059
 6751SOL    HW131712   3.239   3.393   9.752  0.4170  0.7519  0.0251
 6751SOL    HW231713   3.370   3.452   9.797  0.0094  0.9901  1.6549
 6752SOL     OW31714   0.690   2.805   7.760  0.5199 -0.2703  0.4952
 6752SOL    HW131715   0.672   2.893   7.794  0.8701 -0.7858  2.0305
 6752SOL    HW231716   0.748   2.820   7.685  0.1023  1.1697  0.4536
 6753SOL     OW31717   3.095   0.372   7.298  0.8365 -0.0127  0.1149
 6753SOL    HW131718   3.075   0.394   7.207 -0.4078  0.3315  0.4674
 6753SOL    HW231719   3.077   0.458   7.336 -1.5303 -0.0969 -0.8043
 6754SOL     OW31720   1.523   2.421   2.108 -0.5542 -0.3315  0.2237
 6754SOL    HW131721   1.461   2.350   2.122  0.1833 -1.1448 -0.6071
 6754SOL    HW231722   1.595   2.366   2.076  2.3064  2.2382  2.2083
 6755SOL     OW31723   1.019   1.699   0.648 -0.0454 -0.1681 -0.0247
 6755SOL    HW131724   0.996   1.659   0.731 -1.5135  0.8818  0.0819
 6755SOL    HW231725   1.096   1.751   0.672  0.0674 -0.4674  0.2578
 6756SOL     OW31726   0.958   0.328   6.617 -0.3702 -0.4013  0.3708
 6756SOL    HW131727   1.024   0.260   6.633 -1.8630 -1.5270  1.7841
 6756SOL    HW231728   0.986   0.356   6.530  0.6558 -0.8787  0.5429
 6757SOL     OW31729   1.429   2.050  12.464  0.3503 -0.1035  0.1645
 6757SOL    HW131730   1.433   2.070  12.558  0.8708 -1.2180  0.3774
 6757SOL    HW231731   1.472   2.126  12.424 -1.0821  1.8634  2.3344
 6758SOL     OW31732   2.456   2.963   8.665  0.1797  0.2825  0.3638
 6758SOL    HW131733   2.529   2.995   8.718  0.2265 -0.5697  0.8163
 6758SOL    HW231734   2.444   2.870   8.687 -1.3990  0.5112  0.4793
 6759SOL     OW31735   0.176   1.648  10.353  0.0969  0.6003 -0.0604
 6759SOL    HW131736   0.262   1.677  10.382 -0.9538  1.4457  2.2188
 6759SOL    HW231737   0.193   1.554  10.358  2.8909  1.2248  2.1936
 6760SOL     OW31738   3.657   3.670   3.158  0.3492  0.3755 -0.5099
 6760SOL    HW131739   3.574   3.629   3.183  1.0248  0.1793  1.4334
 6760SOL    HW231740   3.718   3.596   3.159  0.8440  0.7943 -0.1905
 6761SOL     OW31741   2.160   0.088   9.120  0.0244 -0.1270  0.2889
 6761SOL    HW131742   2.204   0.167   9.090  1.0856 -1.0399 -0.5489
 6761SOL    HW231743   2.079   0.079   9.071 -1.6274  1.0853  2.7694
 6762SOL     OW31744   1.303   3.680   9.053  0.2000  0.4445 -0.7432
 6762SOL    HW131745   1.323   3.640   8.968  1.8199  0.6802 -0.4771
 6762SOL    HW231746   1.315   3.770   9.022  0.0462 -0.1324 -2.4921
 6763SOL     OW31747   1.474   0.898   6.229  0.3630 -0.3104  0.2695
 6763SOL    HW131748   1.402   0.961   6.224 -0.5669 -1.2681  1.5745
 6763SOL    HW231749   1.437   0.829   6.284  0.4261  0.7600  1.6637
 6764SOL     OW31750   3.473   0.372   8.763  0.8592 -0.3322 -0.3383
 6764SOL    HW131751   3.544   0.425   8.800  2.4594 -1.2567 -2.0465
 6764SOL    HW231752   3.433   0.367   8.850  1.7599  1.7981  0.2012
 6765SOL     OW31753   4.688   0.377  12.713  0.0273 -0.2006 -0.1196
 6765SOL    HW131754   0.050   0.410  12.745 -0.8191  1.0424  0.8639
 6765SOL    HW231755   4.718   0.324  12.640 -0.0005 -1.2103  0.6003
 6766SOL     OW31756   3.382   3.499   5.649 -0.6640 -0.9939 -0.5938
 6766SOL    HW131757   3.453   3.482   5.587  0.4731  1.0783  0.1313
 6766SOL    HW231758   3.354   3.409   5.661 -2.0610 -0.5704 -0.7092
 6767SOL     OW31759   4.128   1.129   5.866 -0.1635  0.0783  0.1661
 6767SOL    HW131760   4.130   1.195   5.796 -0.1295  2.0592  2.0455
 6767SOL    HW231761   4.061   1.162   5.925 -2.0964  0.1445 -2.0584
 6768SOL     OW31762   4.488   4.407   4.526 -0.6983 -0.2773 -0.8062
 6768SOL    HW131763   4.436   4.326   4.524 -0.3700 -0.4561 -2.2623
 6768SOL    HW231764   4.457   4.450   4.446  1.5184 -0.9921 -2.0625
 6769SOL     OW31765   0.505   1.117   6.254 -0.1149  0.0860  0.3800
 6769SOL    HW131766   0.452   1.038   6.244  2.5528 -1.4797 -1.2589
 6769SOL    HW231767   0.452   1.164   6.319 -0.5188 -0.4254  0.4139
 6770SOL     OW31768   0.792   3.706   8.971  0.7686 -0.1323 -0.4104
 6770SOL    HW131769   0.716   3.651   8.992  0.2904  0.2678 -1.0592
 6770SOL    HW231770   0.781   3.725   8.878 -0.2196 -2.3513 -0.7555
 6771SOL     OW31771   3.788   1.373   9.249  0.9783  0.3531  0.4347
 6771SOL    HW131772   3.882   1.355   9.241  0.7905 -0.5796  0.4443
 6771SOL    HW231773   3.765   1.337   9.335  0.6305 -0.3920  0.0202
 6772SOL     OW31774   3.030   2.964  14.464 -1.1614  0.0756  0.2656
 6772SOL    HW131775   3.000   3.054  14.465  0.3469  0.5711  0.9904
 6772SOL    HW231776   3.047   2.938  14.554 -2.4039 -1.7051 -0.0099
 6773SOL     OW31777   1.624   3.871   5.259 -0.2815  0.3625 -0.0803
 6773SOL    HW131778   1.679   3.839   5.330  0.8046 -0.4468 -1.2924
 6773SOL    HW231779   1.618   3.791   5.206 -0.6465  0.5409 -0.3122
 6774SOL     OW31780   2.487   4.309   2.673 -0.3711 -0.1415 -0.4265
 6774SOL    HW131781   2.550   4.373   2.706  2.2440 -3.9372  2.0207
 6774SOL    HW231782   2.414   4.362   2.642 -0.4929  0.2139  0.4615
 6775SOL     OW31783   3.115   0.226   6.225 -0.6245  0.1681  0.3436
 6775SOL    HW131784   3.067   0.185   6.297  0.6908 -1.2260  0.4163
 6775SOL    HW231785   3.155   0.155   6.176 -0.4531  1.2278 -1.0576
 6776SOL     OW31786   2.282   1.363  17.009 -0.1447  0.1182 -0.3062
 6776SOL    HW131787   2.297   1.272  16.984  2.3974  0.2867  0.6430
 6776SOL    HW231788   2.195   1.360  17.050 -0.5395  0.3724 -1.1124
 6777SOL     OW31789   2.500   0.626   5.102  0.8186  0.2047 -0.3862
 6777SOL    HW131790   2.427   0.621   5.040  0.6348 -0.3069 -0.1241
 6777SOL    HW231791   2.479   0.712   5.138 -2.3682 -0.1640 -1.3291
 6778SOL     OW31792   3.691   0.904  13.680  0.2318 -0.2213 -0.0073
 6778SOL    HW131793   3.659   0.815  13.669 -1.0964  0.0718  1.4347
 6778SOL    HW231794   3.618   0.942  13.729  0.7709 -0.2979  0.8585
 6779SOL     OW31795   2.046   0.780   3.041 -0.0570  0.3331  0.5178
 6779SOL    HW131796   2.125   0.834   3.045  0.4935 -0.3577 -1.0412
 6779SOL    HW231797   1.984   0.844   3.006  1.1646  1.5345  0.5678
 6780SOL     OW31798   1.853   2.321  10.223  0.5087  0.0755  0.1348
 6780SOL    HW131799   1.827   2.406  10.258  1.5851  0.1145  0.8133
 6780SOL    HW231800   1.813   2.331  10.136 -1.8361 -1.6400  1.0327
 6781SOL     OW31801   2.503   0.778  15.365  0.0125 -0.1595 -0.0699
 6781SOL    HW131802   2.517   0.742  15.277 -0.6453 -1.2827  0.2912
 6781SOL    HW231803   2.422   0.730  15.381  0.0626  0.2455  1.4241
 6782SOL     OW31804   4.505   1.641   7.232 -0.3131 -0.1611 -0.4071
 6782SOL    HW131805   4.516   1.722   7.282  1.1660  0.0808 -1.1236
 6782SOL    HW231806   4.464   1.674   7.153 -0.4161  1.4836  0.3450
 6783SOL     OW31807   2.263   1.517  14.626 -0.0507 -0.3736 -0.5346
 6783SOL    HW131808   2.343   1.566  14.607 -0.8188  1.1609  0.1691
 6783SOL    HW231809   2.285   1.443  14.571  3.6954 -0.9475  1.7695
 6784SOL     OW31810   2.426   3.321   8.226  0.0059  0.1763  0.2666
 6784SOL    HW131811   2.400   3.408   8.198 -0.9076 -0.5432 -1.1210
 6784SOL    HW231812   2.476   3.332   8.307 -0.3505 -1.9332  0.7778
 6785SOL     OW31813   3.727   2.670  15.287  0.1752 -0.0875 -0.1529
 6785SOL    HW131814   3.684   2.680  15.372  1.8700  2.2806  0.4450
 6785SOL    HW231815   3.697   2.753  15.249  2.2326  0.2110 -1.1324
 6786SOL     OW31816   3.425   1.674   1.848 -0.4794  0.3282 -0.8206
 6786SOL    HW131817   3.466   1.736   1.908  0.3708 -1.0208 -0.0057
 6786SOL    HW231818   3.429   1.587   1.887 -4.4792  0.5529  0.0777
 6787SOL     OW31819   4.053   2.933   5.940  0.0560 -0.3965  0.1961
 6787SOL    HW131820   4.052   2.964   5.850 -0.6354  4.4174  1.8651
 6787SOL    HW231821   3.961   2.953   5.957 -0.4414 -1.5855 -1.1117
 6788SOL     OW31822   0.332   4.350   7.593  0.0168  0.2126  0.1506
 6788SOL    HW131823   0.407   4.307   7.634 -0.2790 -1.8362 -1.4316
 6788SOL    HW231824   0.371   4.437   7.585 -2.1785  1.0667 -1.3528
 6789SOL     OW31825   4.532   4.609  15.385 -0.2779 -0.1931 -0.5116
 6789SOL    HW131826   4.504   4.518  15.371 -1.7158 -0.0135  1.1265
 6789SOL    HW231827   4.454   4.654  15.353 -0.6847  0.7182  1.7659
 6790SOL     OW31828   4.330   0.879   8.717 -0.0534 -0.4070 -0.3669
 6790SOL    HW131829   4.324   0.951   8.779 -2.3948  0.5957 -1.7662
 6790SOL    HW231830   4.255   0.821   8.730 -0.8732  0.0271 -3.1829
 6791SOL     OW31831   4.238   1.934   2.321 -0.6479  0.2230  0.2038
 6791SOL    HW131832   4.197   1.862   2.368 -2.6991  1.9042  0.9736
 6791SOL    HW231833   4.231   1.902   2.231  1.3017  0.0217  0.1260
 6792SOL     OW31834   1.778   2.867   3.234 -0.0274  0.0861 -0.3358
 6792SOL    HW131835   1.755   2.777   3.256  0.9653 -0.3443 -1.1006
 6792SOL    HW231836   1.728   2.911   3.304 -1.7257 -0.7054 -1.0462
 6793SOL     OW31837   1.568   3.371  17.298 -0.2652  0.1698 -0.5021
 6793SOL    HW131838   1.556   3.354  17.205 -0.3567  0.6314 -0.5693
 6793SOL    HW231839   1.648   3.322  17.320 -0.5417 -0.9822 -2.0937
 6794SOL     OW31840   4.009   4.555   8.623  0.0976 -0.0770 -0.1600
 6794SOL    HW131841   3.930   4.558   8.569  0.1792  2.8728 -0.1063
 6794SOL    HW231842   3.968   4.600   8.697  1.2227  1.7845 -0.6715
 6795SOL     OW31843   2.736   0.927   7.128  0.2831  0.1324  0.1665
 6795SOL    HW131844   2.732   0.844   7.175  2.7108  0.8870  1.7394
 6795SOL    HW231845   2.831   0.944   7.132  0.4004 -0.3494 -0.5233
 6796SOL     OW31846   1.251   0.709  14.724 -0.1027 -0.4305 -0.4519
 6796SOL    HW131847   1.313   0.757  14.780 -0.8925  0.1268 -0.0617
 6796SOL    HW231848   1.300   0.626  14.721 -1.7836 -1.4429  0.0751
 6797SOL     OW31849   3.689   3.134   9.650 -0.5298 -0.1813  0.4666
 6797SOL    HW131850   3.688   3.129   9.554  1.0424 -2.4630  0.5776
 6797SOL    HW231851   3.595   3.129   9.669 -1.1600  2.7178 -1.9787
 6798SOL     OW31852   0.582   2.765   4.737 -0.7015  0.1694  0.0481
 6798SOL    HW131853   0.628   2.693   4.780 -0.8012  0.8638  1.3211
 6798SOL    HW231854   0.604   2.831   4.803  0.4096 -0.9928  0.8412
 6799SOL     OW31855   3.713   1.472  16.136 -0.6149  0.4599  0.4892
 6799SOL    HW131856   3.797   1.454  16.095 -1.6716 -1.0658 -1.0314
 6799SOL    HW231857   3.731   1.459  16.229 -0.9852 -1.0002  0.3531
 6800SOL     OW31858   3.920   3.330   5.981 -0.5273  0.2673  0.1705
 6800SOL    HW131859   3.987   3.396   5.999 -1.4496  1.6547 -1.5355
 6800SOL    HW231860   3.934   3.267   6.053  1.3170  1.1477  0.5807
 6801SOL     OW31861   3.347   3.248   4.918  0.0102  0.0941  0.1610
 6801SOL    HW131862   3.376   3.160   4.893  0.9533  0.0379  1.4512
 6801SOL    HW231863   3.412   3.296   4.867  1.8249 -1.4445  1.0315
 6802SOL     OW31864   0.786   3.690   4.817 -0.5564  0.5806 -0.5509
 6802SOL    HW131865   0.832   3.751   4.760 -2.8140  0.2543 -2.7521
 6802SOL    HW231866   0.841   3.697   4.895  0.9365  2.1782 -1.7390
 6803SOL     OW31867   3.765   0.787   5.589 -0.3853 -0.5346 -0.1212
 6803SOL    HW131868   3.680   0.775   5.632 -1.6965  1.8193 -2.0235
 6803SOL    HW231869   3.766   0.882   5.576  0.5625 -0.3895  1.1363
 6804SOL     OW31870   4.508   2.775   6.512 -0.6042 -0.7322 -0.1472
 6804SOL    HW131871   4.477   2.851   6.560 -0.5111 -0.8844  0.1511
 6804SOL    HW231872   4.600   2.801   6.524 -1.2819  2.1048 -1.0194
 6805SOL     OW31873   2.350   0.282   5.234  0.0942 -0.3815  0.0022
 6805SOL    HW131874   2.411   0.349   5.264 -0.8108  0.8184 -0.8212
 6805SOL    HW231875   2.311   0.248   5.315  0.3893  0.4003  0.4805
 6806SOL     OW31876   2.964   4.073   2.991  0.3998  0.1928  0.6790
 6806SOL    HW131877   2.989   4.141   2.929  1.8146  0.3996  1.4800
 6806SOL    HW231878   3.005   4.102   3.072 -0.5214  1.8774  0.5177
 6807SOL     OW31879   3.648   4.407   6.319  0.5217 -0.3124 -0.7033
 6807SOL    HW131880   3.716   4.386   6.256 -0.5839 -0.0498 -1.9844
 6807SOL    HW231881   3.565   4.396   6.273  0.3771 -0.7633 -0.3382
 6808SOL     OW31882   0.006   2.014  16.181  0.1065 -0.1719 -0.1921
 6808SOL    HW131883   4.665   1.947  16.206 -2.1817  2.3155  0.7329
 6808SOL    HW231884   4.719   2.013  16.086  1.3965 -2.5253 -0.2844
 6809SOL     OW31885   3.997   1.606   7.937  0.3811  0.1706 -0.2329
 6809SOL    HW131886   4.079   1.571   7.972  1.0424  0.9646 -0.9673
 6809SOL    HW231887   3.928   1.568   7.991  0.2482 -0.0436 -0.5505
 6810SOL     OW31888   1.255   1.572  14.950  0.2400  0.4192 -0.0954
 6810SOL    HW131889   1.166   1.544  14.971  0.6436 -0.0317  1.0285
 6810SOL    HW231890   1.274   1.503  14.886  0.4698  1.1662 -0.8405
 6811SOL     OW31891   2.466   0.088   3.074 -0.1630 -0.3028  0.2648
 6811SOL    HW131892   2.553   0.128   3.079 -0.0061 -0.6047 -0.0712
 6811SOL    HW231893   2.412   0.167   3.071 -1.6319 -1.3533 -0.5050
 6812SOL     OW31894   1.175   0.658   3.166 -0.3272  0.1394 -0.5324
 6812SOL    HW131895   1.186   0.579   3.219 -0.5464  0.1150 -0.5236
 6812SOL    HW231896   1.101   0.699   3.212 -0.1234  0.2112 -0.2652
 6813SOL     OW31897   3.237   3.795   7.583 -0.3989 -0.5394 -0.1753
 6813SOL    HW131898   3.308   3.738   7.554 -0.8927 -0.9695 -0.5510
 6813SOL    HW231899   3.280   3.825   7.663 -0.5607 -1.1392  0.1388
 6814SOL     OW31900   2.791   1.592   4.022  0.5574 -0.0273 -0.0766
 6814SOL    HW131901   2.802   1.574   3.929  0.8926 -0.7179  0.0868
 6814SOL    HW231902   2.818   1.511   4.067 -0.2451 -0.1389  0.1982
 6815SOL     OW31903   3.026   2.663  11.604 -0.1839 -0.1640  0.1493
 6815SOL    HW131904   3.035   2.569  11.588  1.6000  0.4225 -2.2254
 6815SOL    HW231905   3.064   2.658  11.692  0.6481  0.6676 -0.1718
 6816SOL     OW31906   3.047   2.326  14.360 -0.2875  0.4096  0.3645
 6816SOL    HW131907   2.982   2.255  14.366  1.6981 -1.4475  0.0809
 6816SOL    HW231908   3.113   2.284  14.306 -0.7460 -1.1993  1.0469
 6817SOL     OW31909   3.268   4.671   2.602 -0.5257 -0.1230  0.4011
 6817SOL    HW131910   3.272   4.637   2.512 -0.4713 -2.0459  1.1267
 6817SOL    HW231911   3.204   4.618   2.650 -0.3191 -1.9426 -1.3353
 6818SOL     OW31912   0.669   4.275   0.628 -0.4042 -0.5327 -0.3403
 6818SOL    HW131913   0.631   4.290   0.541  2.2975 -0.7170 -1.5359
 6818SOL    HW231914   0.730   4.202   0.621 -0.0469 -0.3904  1.2475
 6819SOL     OW31915   4.207   2.072   5.201 -0.5335  0.1391 -0.2932
 6819SOL    HW131916   4.131   2.014   5.200 -0.7098  0.3199  2.9837
 6819SOL    HW231917   4.186   2.134   5.131  1.3686  0.1080 -0.8912
 6820SOL     OW31918   4.111   3.356  13.131 -0.6198 -0.2595 -0.3697
 6820SOL    HW131919   4.027   3.385  13.167 -2.1999 -0.9808 -3.4797
 6820SOL    HW231920   4.112   3.262  13.146 -0.9485 -0.4803 -1.6885
 6821SOL     OW31921   0.141   3.833   4.073  0.1484  0.0675  0.0624
 6821SOL    HW131922   0.113   3.819   3.982 -3.0000  1.7377  0.7524
 6821SOL    HW231923   0.156   3.742   4.099 -0.3139 -0.7742 -2.6015
 6822SOL     OW31924   0.331   0.277   4.438 -0.6653 -0.5897 -0.3785
 6822SOL    HW131925   0.401   0.315   4.384  0.6527 -1.1080  0.9447
 6822SOL    HW231926   0.366   0.194   4.472  2.2635 -1.0816 -4.5763
 6823SOL     OW31927   4.312   2.565   3.740  0.5009 -0.1858  0.4623
 6823SOL    HW131928   4.260   2.554   3.820 -1.1530  1.0279 -0.4527
 6823SOL    HW231929   4.251   2.616   3.687  0.6606  1.5613  1.9573
 6824SOL     OW31930   3.657   4.340   3.736  0.0457 -0.5123  0.0151
 6824SOL    HW131931   3.637   4.297   3.819 -2.2557  1.6424  0.5706
 6824SOL    HW231932   3.718   4.280   3.693 -0.4704 -0.9693 -0.0684
 6825SOL     OW31933   3.345   1.350   4.002  0.1195  0.2444 -0.1959
 6825SOL    HW131934   3.268   1.385   3.957  0.5556  1.2907 -0.1336
 6825SOL    HW231935   3.352   1.264   3.962  0.1199 -0.5762  1.5503
 6826SOL     OW31936   1.048   3.472   3.210 -0.5927  0.0305  0.3066
 6826SOL    HW131937   1.065   3.413   3.137  1.1762 -0.3636  1.0450
 6826SOL    HW231938   1.045   3.557   3.166  0.4075 -0.3580 -0.4955
 6827SOL     OW31939   0.049   4.459  12.744 -0.2229  0.2177 -0.4571
 6827SOL    HW131940   0.068   4.398  12.815  0.7065  0.8444 -0.1745
 6827SOL    HW231941   4.712   4.518  12.790 -0.0365  0.5642 -0.6633
 6828SOL     OW31942   4.286   2.436   3.104 -0.1529  0.1101  0.2243
 6828SOL    HW131943   4.380   2.418   3.100  0.0030  0.4584  2.1499
 6828SOL    HW231944   4.270   2.379   3.029  0.2495  0.5071 -0.1636
 6829SOL     OW31945   1.070   4.116   9.113  0.1820  0.0852  0.7397
 6829SOL    HW131946   1.085   4.030   9.153 -0.8946  0.2761  1.5401
 6829SOL    HW231947   1.045   4.156   9.196  0.1689 -0.0353  0.7931
 6830SOL     OW31948   1.792   2.807  15.279  0.6186  0.4938 -0.0324
 6830SOL    HW131949   1.771   2.866  15.351 -0.9058 -1.7890  1.3737
 6830SOL    HW231950   1.737   2.841  15.208 -1.3085  0.4620  1.4673
 6831SOL     OW31951   4.201   1.396   7.836 -0.2356 -0.1063 -0.3539
 6831SOL    HW131952   4.246   1.314   7.858 -1.3595 -1.1216 -1.7934
 6831SOL    HW231953   4.214   1.437   7.921  1.7250 -0.2424 -0.5847
 6832SOL     OW31954   2.579   4.395   1.277 -0.3007  0.2533 -0.6586
 6832SOL    HW131955   2.574   4.323   1.340  0.3403  0.6805 -0.1147
 6832SOL    HW231956   2.519   4.457   1.318 -1.2430 -0.5410 -0.8460
 6833SOL     OW31957   2.067   0.825   4.377 -0.7556 -0.2409 -0.5016
 6833SOL    HW131958   1.975   0.845   4.395 -0.0531  1.0905  1.5813
 6833SOL    HW231959   2.094   0.916   4.387  0.0040 -0.7054  1.6455
 6834SOL     OW31960   1.023   0.007   9.118  0.3549  0.3686 -0.5909
 6834SOL    HW131961   1.061   0.095   9.126  1.4321 -0.0717 -0.8758
 6834SOL    HW231962   0.930   0.019   9.098 -0.5258 -0.3083  3.0826
 6835SOL     OW31963   4.003   1.626  15.176 -0.0767  0.3504 -0.0936
 6835SOL    HW131964   3.975   1.605  15.087  1.5416 -0.3216 -0.4361
 6835SOL    HW231965   3.963   1.556  15.227 -0.9410  0.6356 -0.3710
 6836SOL     OW31966   3.503   2.368  16.312  0.4398  0.1194 -0.0742
 6836SOL    HW131967   3.492   2.296  16.374 -1.6238  0.9868  0.5653
 6836SOL    HW231968   3.549   2.430  16.369 -1.0265  2.3971 -1.3686
 6837SOL     OW31969   2.149   3.209   7.037  0.3901 -0.2742 -0.5291
 6837SOL    HW131970   2.241   3.231   7.018  0.3402  1.3233  1.0614
 6837SOL    HW231971   2.132   3.139   6.974 -4.0559  1.0614 -0.7666
 6838SOL     OW31972   2.457   3.100   0.523 -0.0405 -0.6089  0.1115
 6838SOL    HW131973   2.473   3.188   0.558  1.0395 -0.4767 -0.7147
 6838SOL    HW231974   2.544   3.062   0.526 -0.4779 -1.6058  0.2105
 6839SOL     OW31975   1.467   3.495  16.207  0.4093  0.2004  0.0917
 6839SOL    HW131976   1.443   3.413  16.163  0.2326  1.0891 -1.4959
 6839SOL    HW231977   1.420   3.470  16.286 -0.0156  0.9727  0.0880
 6840SOL     OW31978   0.634   3.889   5.933 -0.1344 -0.2931 -0.0452
 6840SOL    HW131979   0.661   3.894   6.025 -0.2806  1.0227 -0.0704
 6840SOL    HW231980   0.548   3.850   5.946  1.2306 -2.9288  1.1805
 6841SOL     OW31981   1.545   3.460   1.734 -0.1860 -0.0601 -0.6181
 6841SOL    HW131982   1.640   3.448   1.732 -0.2087 -0.5114  0.9907
 6841SOL    HW231983   1.515   3.369   1.736 -0.7542  0.1123 -1.4074
 6842SOL     OW31984   2.127   0.742   8.004  0.3733  0.1324  0.4148
 6842SOL    HW131985   2.121   0.804   8.076 -0.5409  0.2188  0.2629
 6842SOL    HW231986   2.064   0.676   8.034 -0.7785  1.4301  0.8565
 6843SOL     OW31987   2.024   0.315  17.122 -0.2038  0.4859  0.4247
 6843SOL    HW131988   1.988   0.240  17.171 -0.5280  0.9587  0.9134
 6843SOL    HW231989   2.038   0.274  17.037 -0.1118 -0.7852  1.0483
 6844SOL     OW31990   1.025   2.967  17.616  0.2441 -0.1830 -0.0176
 6844SOL    HW131991   0.972   2.921  17.551 -1.2876  2.1683 -0.4164
 6844SOL    HW231992   1.071   2.889  17.649  0.2285  0.1385  0.7604
 6845SOL     OW31993   1.138   1.913   4.002 -1.0318 -0.2461  0.0798
 6845SOL    HW131994   1.209   1.859   4.038 -0.0071  0.4422 -0.9089
 6845SOL    HW231995   1.106   1.951   4.084  1.7982 -0.5030  1.2926
 6846SOL     OW31996   1.467   4.661  10.446  0.8546 -0.1679 -0.0215
 6846SOL    HW131997   1.405   0.011  10.448  1.1658  0.1770 -2.4976
 6846SOL    HW231998   1.526   4.687  10.516  1.5772 -0.1874 -0.6230
 6847SOL     OW31999   1.784   4.384   7.743 -0.5049  1.0247 -0.2483
 6847SOL    HW132000   1.795   4.461   7.688  1.1771  0.7207 -0.3536
 6847SOL    HW232001   1.699   4.349   7.718  0.7212 -1.6259 -0.7680
 6848SOL     OW32002   3.180   2.086   5.301 -0.0630 -0.7383  0.2119
 6848SOL    HW132003   3.268   2.090   5.339 -0.1381 -0.7008  0.3830
 6848SOL    HW232004   3.140   2.068   5.386  0.1857 -3.5942 -0.2920
 6849SOL     OW32005   2.130   2.904   8.665  0.1045 -0.2512 -0.4591
 6849SOL    HW132006   2.223   2.903   8.642  0.4640 -2.8370  0.9904
 6849SOL    HW232007   2.091   2.911   8.578  2.7008 -1.7379 -1.7526
 6850SOL     OW32008   3.765   2.416   9.974  0.4435  0.1495 -0.4775
 6850SOL    HW132009   3.822   2.469  10.029 -0.3738 -0.6585  1.1391
 6850SOL    HW232010   3.808   2.335  10.000 -1.6731 -0.9046 -0.2363
 6851SOL     OW32011   0.696   2.885  17.168  0.1619 -0.2802 -0.1975
 6851SOL    HW132012   0.639   2.934  17.228  1.2081 -0.1254  0.6639
 6851SOL    HW232013   0.731   2.960  17.119  0.2698  0.0781  0.4275
 6852SOL     OW32014   1.668   3.897  15.672  0.5552  0.0209  0.1651
 6852SOL    HW132015   1.585   3.878  15.716  0.1937  2.8316  0.6489
 6852SOL    HW232016   1.638   3.865  15.587 -1.7353  2.0141  0.2358
 6853SOL     OW32017   4.477   1.153   8.903  0.0957 -0.0836  0.5072
 6853SOL    HW132018   4.451   1.088   8.969 -1.0719 -0.1339 -0.0019
 6853SOL    HW232019   4.499   1.225   8.962  0.0461 -0.2575  0.7434
 6854SOL     OW32020   1.371   1.712   8.847  0.5426 -1.0045 -0.3322
 6854SOL    HW132021   1.461   1.724   8.878 -0.5244  0.8981  2.0351
 6854SOL    HW232022   1.340   1.801   8.829  0.2403 -0.9366  0.5135
 6855SOL     OW32023   4.108   4.652  12.533 -0.2075  0.3196  0.4592
 6855SOL    HW132024   4.117   4.559  12.551  1.0694  0.4217  0.3586
 6855SOL    HW232025   4.189   4.685  12.573 -0.9393 -0.6656  2.7975
 6856SOL     OW32026   2.767   1.751   8.334  0.2532  0.6470  0.2236
 6856SOL    HW132027   2.806   1.829   8.372  0.4932  0.7053 -0.1446
 6856SOL    HW232028   2.773   1.687   8.405 -1.5319  1.5901  1.2233
 6857SOL     OW32029   1.637   1.241   7.058  0.0771 -0.2052  0.4471
 6857SOL    HW132030   1.612   1.283   7.140 -1.6881  0.5358 -0.4525
 6857SOL    HW232031   1.554   1.241   7.009 -0.7877 -1.5242  1.9061
 6858SOL     OW32032   4.243   0.342   7.935  0.1286  0.7661  0.0973
 6858SOL    HW132033   4.297   0.300   7.868 -0.5808  0.6262 -0.3840
 6858SOL    HW232034   4.308   0.355   8.005  1.2136  2.1214 -1.1392
 6859SOL     OW32035   0.657   1.404   5.361  0.1182 -0.4984 -0.1423
 6859SOL    HW132036   0.688   1.437   5.446  0.3678 -2.0234  0.3683
 6859SOL    HW232037   0.728   1.349   5.327  1.4317  0.7168  0.6298
 6860SOL     OW32038   4.165   2.173   3.393 -0.1387 -0.0977 -0.0159
 6860SOL    HW132039   4.250   2.181   3.350  1.1302 -2.0483  2.1156
 6860SOL    HW232040   4.129   2.258   3.368 -0.8641  0.6907  3.6426
 6861SOL     OW32041   2.246   2.202  10.807  0.1393 -0.3226  0.6334
 6861SOL    HW132042   2.281   2.271  10.751  1.7617 -2.4638 -0.9525
 6861SOL    HW232043   2.211   2.135  10.749  0.4609  1.3963 -1.5309
 6862SOL     OW32044   3.554   2.355   8.229 -0.4085  0.2616  0.2437
 6862SOL    HW132045   3.584   2.402   8.307 -0.4420  0.0883  0.3625
 6862SOL    HW232046   3.609   2.277   8.239  2.1346  1.8731 -1.1679
 6863SOL     OW32047   1.345   0.969   9.742  0.1504 -0.2897 -0.0319
 6863SOL    HW132048   1.397   0.919   9.678 -0.2164  0.6007 -1.0229
 6863SOL    HW232049   1.389   1.053   9.744  0.7900 -0.6257  0.0751
 6864SOL     OW32050   3.533   4.001   7.324 -0.1209  0.1910  0.1231
 6864SOL    HW132051   3.593   4.045   7.384 -1.3504  0.2341  1.3226
 6864SOL    HW232052   3.484   4.074   7.287  0.6370  0.6650  0.0412
 6865SOL     OW32053   2.413   4.476   5.986 -0.2186  0.2788  0.0033
 6865SOL    HW132054   2.480   4.524   5.936  1.4264  2.4183  4.2270
 6865SOL    HW232055   2.399   4.552   6.043  1.4096  1.9699 -1.8433
 6866SOL     OW32056   2.763   2.430   6.186  0.2323  0.2895  0.5105
 6866SOL    HW132057   2.748   2.416   6.093  0.1462  1.0881  0.4076
 6866SOL    HW232058   2.850   2.469   6.183  0.1652  0.3869 -0.1001
 6867SOL     OW32059   2.873   4.136   8.476 -0.1412  0.0622 -0.3267
 6867SOL    HW132060   2.824   4.173   8.549 -0.0970  1.1133 -0.8348
 6867SOL    HW232061   2.820   4.171   8.404  0.6894 -0.0173 -0.9781
 6868SOL     OW32062   1.474   3.301   8.058 -0.2003 -0.5880 -0.4511
 6868SOL    HW132063   1.516   3.239   8.118  0.8268 -0.2463 -0.8187
 6868SOL    HW232064   1.475   3.389   8.097 -1.2499 -0.5918 -0.4335
 6869SOL     OW32065   3.784   3.056   3.658  0.1992 -0.0200  0.5393
 6869SOL    HW132066   3.738   2.975   3.637  2.0521 -1.1730  0.9237
 6869SOL    HW232067   3.871   3.017   3.649  0.2188 -0.0863  1.0168
 6870SOL     OW32068   0.285   3.766   9.238 -0.1258 -0.1285 -0.0713
 6870SOL    HW132069   0.195   3.742   9.259 -0.4117  1.3060  0.3249
 6870SOL    HW232070   0.329   3.688   9.272 -1.1983 -0.1369  1.2598
 6871SOL     OW32071   4.458   3.891   3.377 -0.0265  0.0079  0.0386
 6871SOL    HW132072   4.369   3.924   3.392 -0.2547 -0.5249 -0.1279
 6871SOL    HW232073   4.442   3.805   3.337  1.0814 -0.4407  0.5872
 6872SOL     OW32074   0.644   3.283   2.190  0.1915 -0.0029 -0.4867
 6872SOL    HW132075   0.708   3.259   2.124 -0.4219 -2.1313 -0.2998
 6872SOL    HW232076   0.671   3.373   2.210 -2.0141  0.6706 -0.4931
 6873SOL     OW32077   0.521   1.946   4.291  0.0372  0.6447 -0.1946
 6873SOL    HW132078   0.485   1.942   4.380  1.3809  0.4223  0.3423
 6873SOL    HW232079   0.510   1.857   4.259  3.3335 -0.1933  0.8958
 6874SOL     OW32080   3.842   1.691  16.505  0.0424 -0.6197 -0.4445
 6874SOL    HW132081   3.811   1.697  16.415  0.5975  1.5544 -0.4915
 6874SOL    HW232082   3.766   1.662  16.556 -0.8394 -0.7997 -1.8728
 6875SOL     OW32083   2.871   2.775  10.513 -0.3674 -0.0422 -0.5779
 6875SOL    HW132084   2.867   2.819  10.597 -2.0341 -0.0523 -0.6610
 6875SOL    HW232085   2.934   2.829  10.465  0.4549 -0.4089  0.0836
 6876SOL     OW32086   1.010   1.592   0.153 -0.8076  0.9030 -0.2180
 6876SOL    HW132087   1.065   1.560   0.224 -1.2603 -1.0610 -0.7395
 6876SOL    HW232088   0.982   1.509   0.113 -2.3976  1.1593  0.3735
 6877SOL     OW32089   1.111   0.644   9.965 -0.6616  0.1206  0.4768
 6877SOL    HW132090   1.088   0.615   9.876 -1.2408 -1.8453  1.2520
 6877SOL    HW232091   1.117   0.563  10.015  0.9441 -0.5839 -0.8409
 6878SOL     OW32092   3.063   1.535  17.523  0.4248 -0.2015 -0.4343
 6878SOL    HW132093   3.067   1.628  17.502 -1.8606  0.3027  1.3627
 6878SOL    HW232094   2.972   1.522  17.547  0.3627  1.5588  0.2452
 6879SOL     OW32095   2.398   3.968   3.318  0.0095  0.1592 -0.1477
 6879SOL    HW132096   2.331   3.983   3.385 -2.3069  0.2835 -2.5148
 6879SOL    HW232097   2.359   3.906   3.257  0.1117 -0.0880  0.0343
 6880SOL     OW32098   0.324   1.269   5.573 -0.1052 -0.3034 -0.3962
 6880SOL    HW132099   0.293   1.226   5.653  0.9659  1.0693  0.7681
 6880SOL    HW232100   0.353   1.196   5.519  2.1200 -0.6551  1.2839
 6881SOL     OW32101   1.867   1.777   5.786  0.1299 -0.2283 -0.1892
 6881SOL    HW132102   1.889   1.781   5.693  1.4664  0.4719  0.1595
 6881SOL    HW232103   1.795   1.713   5.786  1.1005 -1.3165 -1.8640
 6882SOL     OW32104   3.840   3.389   2.480  0.4442  0.0699 -1.1279
 6882SOL    HW132105   3.906   3.424   2.420  0.6510 -1.6622 -1.9280
 6882SOL    HW232106   3.891   3.353   2.552 -0.5449 -2.5144 -1.6956
 6883SOL     OW32107   4.092   4.514   2.718  0.0298 -0.1910  0.0665
 6883SOL    HW132108   4.138   4.431   2.708  0.3952 -0.0017  0.1710
 6883SOL    HW232109   4.121   4.566   2.642 -0.1242 -1.2854 -0.7437
 6884SOL     OW32110   3.379   1.236  11.602 -0.0319  0.8015 -0.4593
 6884SOL    HW132111   3.318   1.278  11.542  0.0254  0.4122 -0.7930
 6884SOL    HW232112   3.440   1.208  11.533 -0.2490 -1.0393  0.0782
 6885SOL     OW32113   1.889   0.852   6.053 -0.3545 -0.1597 -0.0343
 6885SOL    HW132114   1.948   0.786   6.090 -1.4456 -0.9095  0.3756
 6885SOL    HW232115   1.886   0.911   6.128  2.6932 -2.8485  2.2259
 6886SOL     OW32116   3.685   3.533   5.924  0.1600 -0.5675  0.1607
 6886SOL    HW132117   3.730   3.448   5.918  1.3318  0.1124 -0.8979
 6886SOL    HW232118   3.720   3.559   6.009  1.8767 -0.4696 -0.5601
 6887SOL     OW32119   2.766   0.419   4.550 -0.0446  0.2234 -0.2790
 6887SOL    HW132120   2.825   0.448   4.620 -1.2636 -1.0714  1.2851
 6887SOL    HW232121   2.686   0.435   4.601  2.3193  1.0516  3.1883
 6888SOL     OW32122   3.285   2.351  14.534  0.7110  0.1875  0.2305
 6888SOL    HW132123   3.354   2.294  14.568  2.1017  0.8718 -1.4308
 6888SOL    HW232124   3.244   2.300  14.464 -0.0643 -0.4961  1.1941
 6889SOL     OW32125   3.986   1.666   3.363  0.5070  0.5785 -0.1484
 6889SOL    HW132126   3.935   1.666   3.283  0.3080 -0.2247 -0.0239
 6889SOL    HW232127   3.966   1.579   3.399  1.8281  0.0685 -0.6282
 6890SOL     OW32128   3.715   2.014  16.389 -0.7839  0.1810  0.4089
 6890SOL    HW132129   3.725   1.949  16.319  0.3540  1.1628 -0.3445
 6890SOL    HW232130   3.801   2.004  16.429 -1.3671 -1.3862  1.2835
 6891SOL     OW32131   0.012   0.189   0.465  0.0682 -0.5377 -0.1471
 6891SOL    HW132132   0.066   0.115   0.437  1.3467 -0.0686  1.0997
 6891SOL    HW232133   4.655   0.182   0.411 -0.5714  2.1159  0.4643
 6892SOL     OW32134   2.538   3.892   4.545 -0.1250 -0.2232  0.0910
 6892SOL    HW132135   2.455   3.844   4.555 -0.1593  0.3930  2.6839
 6892SOL    HW232136   2.515   3.967   4.490 -1.2166  0.0834  0.9672
 6893SOL     OW32137   4.154   2.783   2.043  0.6128  0.0327 -0.1191
 6893SOL    HW132138   4.189   2.706   1.998  0.8861  0.9726 -1.4999
 6893SOL    HW232139   4.165   2.846   1.972 -0.5832 -1.2686 -1.4680
 6894SOL     OW32140   3.748   3.588   6.184 -0.3958  0.3820  0.1859
 6894SOL    HW132141   3.656   3.590   6.211  0.3533  0.4024  2.6800
 6894SOL    HW232142   3.787   3.539   6.256 -0.7554 -1.5308 -0.9065
 6895SOL     OW32143   3.914   4.319  17.585  0.3321 -0.2403 -0.3513
 6895SOL    HW132144   3.995   4.314  17.636 -0.0212  2.4532  0.4820
 6895SOL    HW232145   3.851   4.366  17.640  0.5517 -2.5543  1.8433
 6896SOL     OW32146   0.011   3.765  10.644  0.1441  0.3395  0.0659
 6896SOL    HW132147   0.015   3.670  10.634 -3.5492  0.0277  1.4754
 6896SOL    HW232148   4.662   3.777  10.581  1.1966  0.0802 -1.1597
 6897SOL     OW32149   2.273   0.850   9.073 -0.1930  0.0241 -0.6123
 6897SOL    HW132150   2.258   0.812   8.987 -2.4139 -0.6153  0.0523
 6897SOL    HW232151   2.243   0.777   9.126 -1.6053  0.1842 -1.2001
 6898SOL     OW32152   2.238   2.493   2.701  0.6120  0.1546 -0.1526
 6898SOL    HW132153   2.194   2.440   2.768  0.1367  0.3779 -0.2887
 6898SOL    HW232154   2.254   2.579   2.741  1.2304  0.1249 -0.3522
 6899SOL     OW32155   4.469   0.062   8.633  0.3374 -0.2053 -0.1975
 6899SOL    HW132156   4.480   4.710   8.691  0.5221 -0.0908 -0.0865
 6899SOL    HW232157   4.505   0.137   8.681 -0.2659  1.5715 -2.5225
 6900SOL     OW32158   4.310   3.924   6.484 -0.0065  0.1727 -0.0489
 6900SOL    HW132159   4.300   4.019   6.473 -1.7491  0.2338  1.9522
 6900SOL    HW232160   4.233   3.902   6.537 -2.1176  1.3702 -2.6321
 6901SOL     OW32161   0.567   0.559   6.588 -0.5015  0.0677 -0.3001
 6901SOL    HW132162   0.536   0.613   6.515  0.6969  0.2265 -0.6962
 6901SOL    HW232163   0.526   0.616   6.653 -0.0598 -0.5369  0.5054
 6902SOL     OW32164   4.482   1.811  11.158 -0.4755  0.2351  0.3928
 6902SOL    HW132165   4.484   1.767  11.073 -1.0149  1.5178 -0.2988
 6902SOL    HW232166   4.572   1.843  11.158 -0.5068  0.3320 -1.5421
 6903SOL     OW32167   2.383   1.165   4.568  0.1472  0.2923 -0.5277
 6903SOL    HW132168   2.410   1.074   4.569 -0.9251 -0.0288 -2.2157
 6903SOL    HW232169   2.420   1.193   4.652  3.2812 -0.2673 -1.7038
 6904SOL     OW32170   3.267   1.152   6.167 -0.6497  0.0360 -0.3279
 6904SOL    HW132171   3.346   1.205   6.175 -0.9322  0.1422  1.7742
 6904SOL    HW232172   3.286   1.090   6.096  4.6565  2.1933 -0.7637
 6905SOL     OW32173   3.485   0.813   8.610  0.4303 -0.2115  0.2349
 6905SOL    HW132174   3.555   0.763   8.652 -1.1452 -0.6114  2.3905
 6905SOL    HW232175   3.497   0.894   8.660  0.7672 -0.1658  0.0795
 6906SOL     OW32176   1.730   1.775   8.412 -0.5070  0.5509 -0.1403
 6906SOL    HW132177   1.705   1.819   8.330  0.3030 -0.2813 -0.8293
 6906SOL    HW232178   1.787   1.706   8.378  0.1904  1.9645 -1.8212
 6907SOL     OW32179   4.341   2.379   9.525 -0.1480 -0.7428 -0.1929
 6907SOL    HW132180   4.270   2.413   9.579  0.9830  1.1040  0.1228
 6907SOL    HW232181   4.395   2.458   9.525  0.4409 -1.1517 -1.7267
 6908SOL     OW32182   3.709   4.192   7.412 -0.0132  0.0344 -0.3177
 6908SOL    HW132183   3.737   4.281   7.433 -0.8194  0.1709  0.1664
 6908SOL    HW232184   3.785   4.139   7.435  1.1502  1.0180 -1.8556
 6909SOL     OW32185   1.763   0.729  13.865  0.1539 -0.1294 -0.0987
 6909SOL    HW132186   1.697   0.734  13.796 -1.1896 -0.0007  1.1952
 6909SOL    HW232187   1.842   0.745  13.813 -1.1638  3.3756 -1.0379
 6910SOL     OW32188   0.878   2.189   5.677  0.6133 -0.1607 -0.4266
 6910SOL    HW132189   0.948   2.181   5.611 -0.3864  0.0526 -1.5124
 6910SOL    HW232190   0.804   2.190   5.617  1.0584  0.6887 -0.9572
 6911SOL     OW32191   1.973   1.721  11.777 -0.0429  0.0363 -0.1533
 6911SOL    HW132192   1.997   1.675  11.858 -1.7878 -0.8153 -0.1096
 6911SOL    HW232193   1.888   1.681  11.759  0.0303  0.5126 -1.5702
 6912SOL     OW32194   0.012   3.400   2.861  0.1118  0.0794  0.2507
 6912SOL    HW132195   4.695   3.428   2.778 -0.3278 -1.8169 -0.1850
 6912SOL    HW232196   4.663   3.352   2.903 -0.8993  0.0588 -1.4795
 6913SOL     OW32197   2.849   3.222   8.258  0.0143 -0.0700 -0.8521
 6913SOL    HW132198   2.911   3.154   8.232  0.7537  0.6693 -1.0459
 6913SOL    HW232199   2.796   3.176   8.323  0.2444  0.9464  0.0504
 6914SOL     OW32200   1.398   1.455   7.580 -0.7657 -0.4475 -0.1600
 6914SOL    HW132201   1.362   1.533   7.537  0.7544 -0.9861 -2.4328
 6914SOL    HW232202   1.333   1.388   7.559  0.3592 -1.0422 -1.7647
 6915SOL     OW32203   4.140   0.736   7.629  0.1961 -0.4728  0.3929
 6915SOL    HW132204   4.084   0.795   7.679  0.4234 -1.6663  2.0461
 6915SOL    HW232205   4.167   0.668   7.691  1.2072 -0.5791 -0.1518
 6916SOL     OW32206   1.785   3.333  13.621  0.1753  0.2859  0.2110
 6916SOL    HW132207   1.702   3.289  13.644  1.8474 -1.8286  2.1844
 6916SOL    HW232208   1.753   3.394  13.554 -0.7906 -0.9714 -0.4868
 6917SOL     OW32209   0.876   3.741   4.085 -0.0016  0.8047 -0.0634
 6917SOL    HW132210   0.881   3.655   4.043 -1.1442  0.3460  0.7449
 6917SOL    HW232211   0.969   3.754   4.105 -0.0175 -1.5543  1.4016
 6918SOL     OW32212   3.964   1.984   6.187 -0.1193 -0.2066  0.3759
 6918SOL    HW132213   3.878   1.979   6.230  0.0515 -0.8376  0.6412
 6918SOL    HW232214   4.004   1.901   6.212  0.8732  0.1652  0.0013
 6919SOL     OW32215   0.231   2.471   3.152  0.2172  0.4446 -0.0402
 6919SOL    HW132216   0.224   2.376   3.147 -2.1332  0.5694  0.9677
 6919SOL    HW232217   0.247   2.491   3.059 -0.1862 -2.7290 -0.7761
 6920SOL     OW32218   4.159   3.477  11.273  0.3610 -0.0764  0.3592
 6920SOL    HW132219   4.208   3.488  11.191 -2.4935  1.3744 -1.1836
 6920SOL    HW232220   4.169   3.385  11.295 -0.2128 -0.0293  0.7864
 6921SOL     OW32221   3.055   3.363   3.531  0.1311 -0.0175 -0.3753
 6921SOL    HW132222   3.004   3.424   3.584  2.4807 -0.4440  2.3542
 6921SOL    HW232223   3.123   3.340   3.594  0.2172  0.6904 -0.2135
 6922SOL     OW32224   4.064   0.996   0.368  0.8955 -0.2247 -0.1352
 6922SOL    HW132225   3.981   0.989   0.321  1.2056 -0.4509 -0.6472
 6922SOL    HW232226   4.029   0.995   0.458 -1.4191  0.5182 -1.0183
 6923SOL     OW32227   2.297   4.121   8.841 -0.0791  0.0252 -0.0990
 6923SOL    HW132228   2.215   4.115   8.890 -0.4732 -2.9841 -1.1399
 6923SOL    HW232229   2.265   4.178   8.772 -3.2297  0.4175  1.6976
 6924SOL     OW32230   2.071   0.897  10.799  0.4088 -0.4157 -0.3029
 6924SOL    HW132231   2.164   0.910  10.820  0.0496  1.3091  0.2550
 6924SOL    HW232232   2.037   0.940  10.878 -2.2502  1.2260 -2.3555
 6925SOL     OW32233   0.263   4.532   3.412 -0.3401 -0.0932  0.1850
 6925SOL    HW132234   0.292   4.586   3.338  0.7039 -1.1314 -0.1619
 6925SOL    HW232235   0.336   4.472   3.424  0.7679  1.3548  0.6599
 6926SOL     OW32236   3.175   0.733   6.931 -0.4557 -0.2425 -0.1271
 6926SOL    HW132237   3.114   0.793   6.888  0.4313 -0.3832 -1.5895
 6926SOL    HW232238   3.176   0.765   7.021 -1.9405 -0.2333 -0.1147
 6927SOL     OW32239   2.436   2.207   1.744 -0.9106 -0.1111 -0.2167
 6927SOL    HW132240   2.438   2.159   1.827 -0.6672  1.0169  0.4312
 6927SOL    HW232241   2.474   2.154   1.673  0.6567  2.4740 -1.3193
 6928SOL     OW32242   2.301   3.565   8.116  0.3539  0.2996 -0.5488
 6928SOL    HW132243   2.338   3.606   8.195 -0.1924 -1.4490  0.6094
 6928SOL    HW232244   2.246   3.637   8.084  1.2205  1.3256  0.2352
 6929SOL     OW32245   1.279   1.768   7.065  0.1734  0.3028 -0.1661
 6929SOL    HW132246   1.278   1.688   7.119 -0.1721  0.6006  0.2718
 6929SOL    HW232247   1.372   1.786   7.053  0.1953  0.0764 -0.3316
 6930SOL     OW32248   1.385   2.089   3.922  0.5954 -0.2764  0.1662
 6930SOL    HW132249   1.448   2.019   3.938  0.3377 -0.4743  0.3213
 6930SOL    HW232250   1.304   2.038   3.931 -1.2975  2.7577  0.5047
 6931SOL     OW32251   4.194   0.283   7.439 -0.2196  0.5755 -0.0816
 6931SOL    HW132252   4.239   0.339   7.376 -0.4807 -0.0169 -0.7925
 6931SOL    HW232253   4.198   0.337   7.518  1.7157  0.1226  0.1232
 6932SOL     OW32254   1.018   2.263   7.292 -0.0695  0.1121  0.4759
 6932SOL    HW132255   1.076   2.320   7.241 -0.2902 -0.6995 -0.6771
 6932SOL    HW232256   0.943   2.322   7.286 -0.6351 -0.7250 -0.7363
 6933SOL     OW32257   1.375   2.179   4.843 -0.3626  0.5954 -0.4140
 6933SOL    HW132258   1.435   2.119   4.799  0.7096  1.2740  0.1484
 6933SOL    HW232259   1.349   2.132   4.922  0.5299  0.4740 -0.2035
 6934SOL     OW32260   2.645   2.109   5.664 -0.2444  0.4665 -0.4621
 6934SOL    HW132261   2.582   2.039   5.683 -2.1282  2.0998 -0.6889
 6934SOL    HW232262   2.697   2.091   5.742  1.1470 -0.7207 -1.6432
 6935SOL     OW32263   3.116   0.109  12.987  0.0261 -0.1801 -0.2603
 6935SOL    HW132264   3.192   0.153  12.948 -0.9110  2.7777  1.2857
 6935SOL    HW232265   3.045   0.110  12.922  1.4148 -0.1659 -1.7791
 6936SOL     OW32266   3.986   0.633   9.009 -0.6525 -0.3133  0.4966
 6936SOL    HW132267   4.058   0.610   9.067  1.1947 -0.9271 -2.0046
 6936SOL    HW232268   3.932   0.554   9.018  0.9377 -1.6775 -1.8128
 6937SOL     OW32269   1.660   2.382   3.841 -0.4379 -0.6529  0.2125
 6937SOL    HW132270   1.732   2.371   3.902  0.1602 -0.0426 -0.3891
 6937SOL    HW232271   1.655   2.289   3.823 -2.3213 -0.2137 -1.5570
 6938SOL     OW32272   1.013   0.814   3.506  0.1172 -0.5527  0.5090
 6938SOL    HW132273   0.981   0.774   3.425  0.2153 -2.2074  1.2796
 6938SOL    HW232274   1.096   0.767   3.516  0.3317 -0.1933  0.4113
 6939SOL     OW32275   3.031   4.225   0.220 -0.0027 -0.8954  0.2450
 6939SOL    HW132276   3.000   4.276   0.295  2.4197 -2.7222  2.4922
 6939SOL    HW232277   2.962   4.241   0.156 -1.0685 -1.0845  1.3506
 6940SOL     OW32278   1.168   4.142  10.595  0.0662  0.3070  0.0627
 6940SOL    HW132279   1.216   4.062  10.612  1.1933  0.9603 -0.0484
 6940SOL    HW232280   1.099   4.118  10.657 -0.1825 -0.3101 -0.4620
 6941SOL     OW32281   0.672   4.410   3.535 -0.6207 -0.3994  0.0111
 6941SOL    HW132282   0.583   4.434   3.559  0.1252  0.0375  2.4139
 6941SOL    HW232283   0.667   4.316   3.517  0.7812 -0.1508 -1.6472
 6942SOL     OW32284   4.303   3.734   3.708  0.0911  0.1579 -0.0559
 6942SOL    HW132285   4.276   3.772   3.792  0.8993 -1.1011  0.7594
 6942SOL    HW232286   4.343   3.808   3.661 -0.3787 -0.1139 -0.8844
 6943SOL     OW32287   3.997   2.796  12.004  0.8356 -0.3034  0.0937
 6943SOL    HW132288   4.042   2.872  12.042  2.3749 -1.7536  1.1386
 6943SOL    HW232289   4.070   2.736  12.016 -0.0714 -1.2520  0.8402
 6944SOL     OW32290   4.510   1.504   6.271 -0.0038 -1.1455 -0.2884
 6944SOL    HW132291   4.481   1.574   6.212 -0.0283 -1.1943 -0.3332
 6944SOL    HW232292   4.492   1.544   6.356 -0.1598 -0.1651 -0.7805
 6945SOL     OW32293   2.428   1.622   7.471 -0.2701 -0.5057  0.4104
 6945SOL    HW132294   2.371   1.594   7.542  0.2156 -0.7515  0.7016
 6945SOL    HW232295   2.518   1.632   7.502  0.6694  2.0686 -3.0804
 6946SOL     OW32296   0.798   0.556   3.872  0.4324  0.2327  0.1713
 6946SOL    HW132297   0.848   0.551   3.791 -1.6608 -0.7576 -1.0661
 6946SOL    HW232298   0.713   0.563   3.830  0.6021 -0.7526 -0.3323
 6947SOL     OW32299   4.371   3.600   5.038  0.1049 -0.0960 -0.3520
 6947SOL    HW132300   4.310   3.582   4.967  1.8715 -0.9423 -1.6322
 6947SOL    HW232301   4.299   3.615   5.099  0.1630  0.8463 -0.5138
 6948SOL     OW32302   3.964   1.155   1.209  0.0343  0.4811 -0.0324
 6948SOL    HW132303   3.870   1.164   1.196 -0.2995 -1.3439  1.1368
 6948SOL    HW232304   3.960   1.106   1.291  0.6341  0.5235  0.0220
 6949SOL     OW32305   0.318   2.089  17.434  0.1754 -0.4095  0.6606
 6949SOL    HW132306   0.295   2.182  17.427 -0.0759 -0.6334 -1.4904
 6949SOL    HW232307   0.379   2.089  17.508  1.9096  0.9811 -0.7749
 6950SOL     OW32308   2.989   0.375   8.195 -0.0691 -0.4379  0.5225
 6950SOL    HW132309   3.045   0.433   8.246  1.2980 -1.7532  0.5191
 6950SOL    HW232310   2.919   0.428   8.157 -0.1156 -1.1937 -0.4573
 6951SOL     OW32311   0.807   3.091  11.703  0.2461  0.2033  0.3573
 6951SOL    HW132312   0.717   3.081  11.671 -0.3999 -0.3659  2.3486
 6951SOL    HW232313   0.829   3.177  11.668 -0.7532  0.7933  1.2056
 6952SOL     OW32314   1.874   1.045   5.676  0.0781  0.1930  0.3071
 6952SOL    HW132315   1.783   1.062   5.653  0.0192 -1.2578 -0.5251
 6952SOL    HW232316   1.876   1.047   5.772  0.9579  0.2920  0.2841
 6953SOL     OW32317   4.587   0.433   7.551 -0.9110 -0.3226 -0.0287
 6953SOL    HW132318   4.612   0.415   7.460  0.2127 -1.9240  0.5901
 6953SOL    HW232319   4.584   0.342   7.583  0.5073 -0.4283 -0.2072
 6954SOL     OW32320   3.158   4.650   1.970  0.0247 -0.4031 -0.1120
 6954SOL    HW132321   3.222   4.579   1.968 -0.4055 -0.7668 -1.0054
 6954SOL    HW232322   3.091   4.591   1.936 -0.4752  0.9519 -1.4867
 6955SOL     OW32323   4.458   4.140   2.733  0.0356 -0.5920 -0.5857
 6955SOL    HW132324   4.517   4.192   2.787 -0.9099  1.6376 -1.7283
 6955SOL    HW232325   4.479   4.158   2.641 -1.3458 -0.0535 -0.7804
 6956SOL     OW32326   1.895   0.234   1.690 -0.0092  0.0699 -0.0218
 6956SOL    HW132327   1.909   0.263   1.781  0.9883 -1.4514  0.3118
 6956SOL    HW232328   1.869   0.317   1.650 -0.1520 -0.7105 -1.5235
 6957SOL     OW32329   2.859   0.270   4.824  0.2984 -0.4351  0.5244
 6957SOL    HW132330   2.779   0.234   4.863 -0.0545 -0.8287 -0.5803
 6957SOL    HW232331   2.828   0.355   4.792  1.5060 -0.5499 -0.9232
 6958SOL     OW32332   1.071   1.974   3.049 -0.1582 -0.6113 -0.3836
 6958SOL    HW132333   1.123   1.928   2.983 -1.3690 -1.9794 -0.3712
 6958SOL    HW232334   1.119   1.952   3.129 -2.0030 -0.6018  0.7192
 6959SOL     OW32335   3.008   2.520  15.921 -0.1997 -0.2747 -0.0816
 6959SOL    HW132336   3.054   2.456  15.975 -0.0640 -0.6332 -0.6230
 6959SOL    HW232337   3.009   2.486  15.832 -0.7360 -2.4551  0.7581
 6960SOL     OW32338   0.511   1.669  12.289 -0.5826 -0.0638  0.3539
 6960SOL    HW132339   0.463   1.589  12.267 -0.9910  0.2516  0.0820
 6960SOL    HW232340   0.458   1.702  12.363 -0.0660  2.7016 -0.5020
 6961SOL     OW32341   2.395   1.373   4.374  0.1123 -0.3187 -0.2198
 6961SOL    HW132342   2.393   1.294   4.428 -0.8683 -0.4848 -0.4931
 6961SOL    HW232343   2.365   1.433   4.442  0.0051  1.5534 -1.9120
 6962SOL     OW32344   3.216   3.578   8.042  0.2194  0.1632  0.5594
 6962SOL    HW132345   3.195   3.526   8.120  0.4238  0.0042  0.5081
 6962SOL    HW232346   3.149   3.646   8.043 -0.9553 -0.9916  0.3729
 6963SOL     OW32347   1.015   1.928   4.285  0.0179 -0.2273  0.2323
 6963SOL    HW132348   0.981   1.860   4.227 -0.4425 -0.1405  0.4017
 6963SOL    HW232349   0.930   1.973   4.291  0.2844  0.5968 -2.1418
 6964SOL     OW32350   2.110   1.814  16.351 -0.4873 -0.1358 -0.4028
 6964SOL    HW132351   2.175   1.812  16.281  2.2259  4.5712  1.9226
 6964SOL    HW232352   2.059   1.891  16.325 -1.4690 -1.1913 -1.6294
 6965SOL     OW32353   1.051   1.515  11.643  0.2916  0.4240 -0.5420
 6965SOL    HW132354   1.119   1.480  11.585  1.1407  0.6264  0.3239
 6965SOL    HW232355   1.070   1.478  11.729  3.0706 -1.1696 -1.8391
 6966SOL     OW32356   0.520   0.803   7.034  0.2452 -0.0462  0.0375
 6966SOL    HW132357   0.442   0.760   7.068  0.1627  1.8179  2.2881
 6966SOL    HW232358   0.544   0.845   7.117 -0.7626 -1.5522  1.1007
 6967SOL     OW32359   4.121   4.327   5.536 -0.5648  0.6373 -0.8389
 6967SOL    HW132360   4.185   4.260   5.514 -0.1212  0.3038  1.5792
 6967SOL    HW232361   4.048   4.275   5.568  1.8272 -1.5342  1.0501
 6968SOL     OW32362   1.978   4.366   6.914 -0.5265  0.5263  0.2772
 6968SOL    HW132363   1.977   4.364   7.009 -0.8700  1.6045  0.2942
 6968SOL    HW232364   2.064   4.403   6.893  0.2173 -1.8657 -0.8864
 6969SOL     OW32365   0.596   3.585   9.568  0.1445 -0.5048  0.0094
 6969SOL    HW132366   0.576   3.560   9.659 -2.6129  0.7863 -0.2296
 6969SOL    HW232367   0.510   3.600   9.527 -0.2573  0.2433  1.1070
 6970SOL     OW32368   3.090   0.298   8.470  0.1822 -0.2120 -0.2302
 6970SOL    HW132369   3.102   0.385   8.434  1.3717  0.0107  0.7167
 6970SOL    HW232370   3.146   0.295   8.548 -3.1053  0.3009  2.1660
 6971SOL     OW32371   0.761   2.391   7.779 -0.2308 -0.4979  0.0959
 6971SOL    HW132372   0.685   2.379   7.836 -1.4662 -1.6647 -1.8252
 6971SOL    HW232373   0.783   2.303   7.751  2.1527  0.0375  0.2515
 6972SOL     OW32374   4.471   1.667   7.649  0.0626 -0.5006 -0.1267
 6972SOL    HW132375   4.548   1.723   7.640 -0.4778  0.2478 -0.1485
 6972SOL    HW232376   4.404   1.720   7.605 -0.0840 -0.5100  0.0824
 6973SOL     OW32377   0.300   1.288   6.978 -0.3496  0.0368 -0.7595
 6973SOL    HW132378   0.339   1.357   6.923  0.7228 -1.1103 -1.4278
 6973SOL    HW232379   0.209   1.316   6.989 -1.2048 -2.6459 -1.2319
 6974SOL     OW32380   0.290   0.367   5.684 -0.0378  0.2572 -0.1239
 6974SOL    HW132381   0.296   0.374   5.779  0.1477  2.8156 -0.3248
 6974SOL    HW232382   0.218   0.304   5.680 -0.0593  0.0951  2.7908
 6975SOL     OW32383   1.471   3.031   3.992  0.0340 -0.0907  0.7588
 6975SOL    HW132384   1.482   3.080   3.911 -0.3285  0.8541  1.2930
 6975SOL    HW232385   1.397   3.078   4.029  1.4919  3.3005 -0.7085
 6976SOL     OW32386   2.128   3.828   7.709 -0.0659 -0.2614 -0.2689
 6976SOL    HW132387   2.047   3.834   7.760  0.4715  3.5855  0.1495
 6976SOL    HW232388   2.187   3.776   7.763 -0.0250 -0.9497 -0.9815
 6977SOL     OW32389   3.106   2.424  15.170 -0.2221  0.0927 -0.0812
 6977SOL    HW132390   3.075   2.494  15.228  1.7412 -0.0292  1.1030
 6977SOL    HW232391   3.084   2.450  15.080 -1.6217 -2.3395 -0.4460
 6978SOL     OW32392   3.790   0.055   6.901  0.1705  0.0518  0.7999
 6978SOL    HW132393   3.818   0.122   6.838 -0.1178  0.7560  1.4275
 6978SOL    HW232394   3.780   0.109   6.979  2.1405 -0.4344  1.3919
 6979SOL     OW32395   4.185   1.021  14.446  0.1825  0.1486 -0.4720
 6979SOL    HW132396   4.091   1.028  14.467  0.3721  0.6695  0.2150
 6979SOL    HW232397   4.203   0.928  14.443 -0.9965 -0.1167  0.7815
 6980SOL     OW32398   1.670   0.503   9.048  0.1040 -0.0204 -0.1447
 6980SOL    HW132399   1.752   0.544   9.074 -1.3235  3.6169 -1.3570
 6980SOL    HW232400   1.626   0.501   9.133 -0.5968 -1.5397 -0.5410
 6981SOL     OW32401   0.933   0.026   2.449  0.1357 -0.5638  0.3815
 6981SOL    HW132402   0.865   0.092   2.459 -1.0895 -1.7528 -0.0561
 6981SOL    HW232403   0.910   4.684   2.516 -0.3997 -1.6186 -0.8113
 6982SOL     OW32404   4.173   1.802   8.160  0.1170 -0.6783 -0.4554
 6982SOL    HW132405   4.106   1.736   8.139 -2.5120  1.7633  0.3337
 6982SOL    HW232406   4.219   1.818   8.077 -1.6195  0.6014 -1.1692
 6983SOL     OW32407   0.141   0.898   1.975  0.2544 -0.6032 -0.1919
 6983SOL    HW132408   0.213   0.953   2.006 -2.4978  2.3976  0.8478
 6983SOL    HW232409   0.119   0.948   1.897 -0.8215 -0.3772  0.2633
 6984SOL     OW32410   1.887   4.198   0.812 -0.5628 -0.1539  0.1665
 6984SOL    HW132411   1.966   4.171   0.767 -0.0739  1.8972 -0.2185
 6984SOL    HW232412   1.912   4.289   0.832  1.6726 -0.7039 -0.1566
 6985SOL     OW32413   1.815   3.325   0.957  0.5075  0.0228 -0.4664
 6985SOL    HW132414   1.893   3.288   1.000  0.6933  1.1263  0.1485
 6985SOL    HW232415   1.821   3.273   0.876  1.8468 -0.8597  0.1920
 6986SOL     OW32416   3.114   1.069   0.806 -0.6062 -0.2803  0.0980
 6986SOL    HW132417   3.145   1.001   0.746 -1.9472 -1.0440  0.2787
 6986SOL    HW232418   3.188   1.072   0.867 -1.9710  2.0029  1.6326
 6987SOL     OW32419   4.152   2.661   3.125  0.0850  0.6487 -1.0038
 6987SOL    HW132420   4.206   2.582   3.128 -1.7934 -0.4648  2.8092
 6987SOL    HW232421   4.069   2.614   3.116  0.1877  0.5275 -1.3347
 6988SOL     OW32422   4.665   1.669   5.301 -0.1667 -0.0599  0.0149
 6988SOL    HW132423   0.018   1.711   5.340 -1.0014  0.4266  1.1159
 6988SOL    HW232424   4.691   1.577   5.313 -0.5185 -0.1225  0.3259
 6989SOL     OW32425   3.269   2.049   8.007 -0.2296  0.1609 -0.1725
 6989SOL    HW132426   3.284   2.019   8.097  0.8678  0.2556 -0.3190
 6989SOL    HW232427   3.352   2.020   7.971 -0.8711 -1.3207 -0.4501
 6990SOL     OW32428   2.836   2.545   5.902 -0.4258 -0.7529 -0.1382
 6990SOL    HW132429   2.815   2.623   5.953 -0.8667 -0.4430 -0.7926
 6990SOL    HW232430   2.795   2.575   5.821 -1.9246 -2.1977  0.0929
 6991SOL     OW32431   2.507   0.158   2.689 -0.1503  0.1272 -0.2269
 6991SOL    HW132432   2.447   0.232   2.692 -0.6592 -0.2529 -1.0360
 6991SOL    HW232433   2.587   0.192   2.647 -0.3425  2.3372  1.2045
 6992SOL     OW32434   0.658   3.434   7.283  0.1591  0.2242 -0.2606
 6992SOL    HW132435   0.686   3.349   7.250 -1.0490  1.1212 -3.6035
 6992SOL    HW232436   0.582   3.457   7.230 -0.0154  2.3404  0.8977
 6993SOL     OW32437   0.551   2.953   8.234  0.1358 -1.1022 -0.4397
 6993SOL    HW132438   0.518   2.945   8.145  1.5172  0.0583 -1.0490
 6993SOL    HW232439   0.529   2.866   8.268  0.8763 -0.9018  0.5790
 6994SOL     OW32440   4.514   1.294   7.869 -0.1607 -0.1869 -0.1865
 6994SOL    HW132441   4.455   1.221   7.886 -0.4787  0.3163  0.8208
 6994SOL    HW232442   4.591   1.276   7.923  0.5803 -0.7283 -1.4141
 6995SOL     OW32443   2.844   2.338   8.132 -0.4818 -0.7610  0.2075
 6995SOL    HW132444   2.863   2.403   8.200 -0.6742  1.5677 -1.9272
 6995SOL    HW232445   2.932   2.314   8.106  0.1792  0.8191  0.9564
 6996SOL     OW32446   0.358   0.218   8.751  0.1294 -0.3180 -0.1550
 6996SOL    HW132447   0.394   0.297   8.793 -0.7303  1.2785 -2.4307
 6996SOL    HW232448   0.265   0.239   8.755 -0.0756 -0.9458 -1.7720
 6997SOL     OW32449   3.260   2.317   6.779  0.0521 -0.1696  0.0135
 6997SOL    HW132450   3.174   2.337   6.740  0.1728 -0.2164 -0.2770
 6997SOL    HW232451   3.277   2.401   6.822  2.9899 -0.8186  0.0909
 6998SOL     OW32452   0.867   2.363  14.718 -0.2897 -0.0378 -0.4702
 6998SOL    HW132453   0.776   2.343  14.693  0.1879  0.0754 -2.2914
 6998SOL    HW232454   0.849   2.446  14.760 -1.2817 -0.5431  0.1121
 6999SOL     OW32455   0.463   4.112   2.342  0.1161  0.3420 -0.5459
 6999SOL    HW132456   0.388   4.157   2.380  0.1664 -1.3254  1.5640
 6999SOL    HW232457   0.438   4.020   2.344 -1.2942  0.7007 -2.4359
 7000SOL     OW32458   2.895   0.604   5.898 -0.2634  0.1123  0.2703
 7000SOL    HW132459   2.943   0.560   5.968  0.7179 -0.4812 -0.7910
 7000SOL    HW232460   2.860   0.534   5.843 -0.5499  0.8290 -0.4556
 7001SOL     OW32461   1.309   3.003   4.478  0.1079 -0.2110 -0.1475
 7001SOL    HW132462   1.330   3.038   4.391 -1.4505 -0.0018 -0.4359
 7001SOL    HW232463   1.294   2.910   4.460  0.0165 -0.4887  1.3529
 7002SOL     OW32464   4.239   1.603   8.696  0.1047  0.2026 -0.0024
 7002SOL    HW132465   4.191   1.580   8.775  0.5905  2.4843  0.9380
 7002SOL    HW232466   4.233   1.698   8.707 -0.0929  0.2502 -0.4801
 7003SOL     OW32467   1.622   4.544   5.126  0.1072  0.1053  0.0253
 7003SOL    HW132468   1.571   4.483   5.072 -1.0631  0.7124  0.4466
 7003SOL    HW232469   1.675   4.483   5.178 -0.5464  0.2362  0.8269
 7004SOL     OW32470   2.595   4.130   6.598  0.1402 -0.2482 -0.2852
 7004SOL    HW132471   2.681   4.164   6.622 -0.3197  0.9609 -0.3848
 7004SOL    HW232472   2.608   4.040   6.628 -0.6298 -0.3239 -0.1855
 7005SOL     OW32473   3.034   4.120  10.671  0.5442  0.0142  0.2868
 7005SOL    HW132474   2.965   4.148  10.610  0.0879 -2.8877 -0.5124
 7005SOL    HW232475   3.008   4.168  10.750  0.5338 -1.2339  1.0467
 7006SOL     OW32476   4.333   2.648   7.649  0.1607  0.1607  0.2807
 7006SOL    HW132477   4.301   2.701   7.576  0.2472  0.3560  0.3850
 7006SOL    HW232478   4.335   2.711   7.721 -1.0357  0.0327  0.4199
 7007SOL     OW32479   3.072   4.127   0.727 -0.5339 -0.4446 -0.0193
 7007SOL    HW132480   3.041   4.136   0.817 -0.0976 -0.6520  0.1559
 7007SOL    HW232481   3.148   4.183   0.744 -0.2704 -1.0516  0.7952
 7008SOL     OW32482   3.556   0.907  14.805 -0.6329  0.0723  0.4888
 7008SOL    HW132483   3.579   0.935  14.716  0.3417 -1.0935  0.3700
 7008SOL    HW232484   3.531   0.987  14.850  0.8649 -0.4189  2.1947
 7009SOL     OW32485   4.559   0.192   6.266  0.0128 -0.3343 -0.4448
 7009SOL    HW132486   4.509   0.116   6.236 -1.0673 -0.3612  1.4053
 7009SOL    HW232487   4.509   0.225   6.340  1.0664  1.7410 -0.6637
 7010SOL     OW32488   1.337   0.696   6.334  0.1975  0.7910 -0.2234
 7010SOL    HW132489   1.287   0.694   6.416 -0.4095 -0.4584 -0.6273
 7010SOL    HW232490   1.260   0.695   6.278 -1.1318  0.4354  1.6091
 7011SOL     OW32491   0.748   4.493  15.823  0.0108 -0.0289  0.1004
 7011SOL    HW132492   0.799   4.473  15.902  0.7967  1.6465  0.0152
 7011SOL    HW232493   0.656   4.472  15.841  0.3682 -0.0963  1.8542
 7012SOL     OW32494   3.897   2.973   9.734  0.3278  0.6094 -0.0687
 7012SOL    HW132495   3.847   2.897   9.764 -0.6616  1.5352  0.6070
 7012SOL    HW232496   3.830   3.036   9.709 -1.0924 -1.0370 -0.3974
 7013SOL     OW32497   4.302   1.126   7.889 -0.0521  0.4643  0.5267
 7013SOL    HW132498   4.279   1.056   7.950  1.4002  1.2643  1.9998
 7013SOL    HW232499   4.353   1.073   7.828  1.8916  1.5919  1.1724
 7014SOL     OW32500   1.822   4.069   2.925 -0.7077 -0.2598  0.0312
 7014SOL    HW132501   1.867   4.048   3.007  2.0915  2.7272 -0.7786
 7014SOL    HW232502   1.872   4.024   2.858 -2.1623  2.0460 -2.6071
 7015SOL     OW32503   3.917   2.957   3.302  0.2247  0.3874  0.0855
 7015SOL    HW132504   3.882   3.014   3.234  0.8991  0.2516 -0.3782
 7015SOL    HW232505   3.944   3.012   3.375  0.2969  0.3825  0.0628
 7016SOL     OW32506   4.314   4.156   2.381  0.0678  0.1077 -0.1335
 7016SOL    HW132507   4.282   4.066   2.370  1.0076 -0.3255  0.7748
 7016SOL    HW232508   4.275   4.185   2.298 -0.4480  0.3797  0.2038
 7017SOL     OW32509   3.942   0.248   3.507 -0.1870  0.1697 -0.1212
 7017SOL    HW132510   3.961   0.302   3.583  0.4527 -0.3377  0.0710
 7017SOL    HW232511   3.850   0.229   3.526  0.8369 -3.0743  1.4893
 7018SOL     OW32512   4.126   1.327   2.363  0.7976 -0.6127 -0.3029
 7018SOL    HW132513   4.205   1.309   2.415  0.3314 -0.6532  0.3910
 7018SOL    HW232514   4.078   1.245   2.376 -1.0025  0.3084 -1.2240
 7019SOL     OW32515   4.093   2.484   5.881  0.0695 -0.0140  0.1056
 7019SOL    HW132516   4.082   2.526   5.966  1.5331  1.2212 -0.2964
 7019SOL    HW232517   4.102   2.389   5.892 -1.8933 -0.1522  0.4096
 7020SOL     OW32518   1.667   1.659   4.354  0.9572  0.4923 -0.0913
 7020SOL    HW132519   1.753   1.679   4.317 -0.9538  1.7229 -4.0107
 7020SOL    HW232520   1.671   1.695   4.442  0.2664 -2.0995  0.9867
 7021SOL     OW32521   0.258   1.196   5.829 -0.3207 -0.3364 -0.0841
 7021SOL    HW132522   0.267   1.112   5.874 -1.9986 -1.0020 -1.0030
 7021SOL    HW232523   0.264   1.260   5.899 -0.1062 -1.2019  0.6925
 7022SOL     OW32524   1.953   2.661  11.821  0.3739 -0.9142  0.1299
 7022SOL    HW132525   1.884   2.599  11.844 -0.2697  0.3777  1.6966
 7022SOL    HW232526   2.007   2.672  11.900 -0.5344  1.0902  0.4591
 7023SOL     OW32527   1.775   2.236  11.988 -0.4158 -0.2222  0.2111
 7023SOL    HW132528   1.697   2.243  12.042 -0.6813  0.8017 -0.2926
 7023SOL    HW232529   1.832   2.294  12.037 -1.1616 -0.1817  1.0190
 7024SOL     OW32530   4.621   2.441   0.962  0.3117  0.0807 -0.7424
 7024SOL    HW132531   4.607   2.478   1.049 -0.7782 -0.3933 -0.7210
 7024SOL    HW232532   4.550   2.450   0.898  0.2724  0.7956 -0.5965
 7025SOL     OW32533   0.516   2.912   4.041 -0.0321  0.1911 -0.3877
 7025SOL    HW132534   0.493   2.869   3.958  1.0377 -1.5698  0.2163
 7025SOL    HW232535   0.443   2.972   4.054  1.8393  1.8871  2.2282
 7026SOL     OW32536   2.323   4.508   4.841  0.1332  0.7125 -1.0278
 7026SOL    HW132537   2.371   4.456   4.905  1.1694  2.8216 -0.0748
 7026SOL    HW232538   2.233   4.499   4.872  0.1502 -1.2155 -1.5608
 7027SOL     OW32539   3.031   2.004   3.484  0.1476 -0.4491  0.1035
 7027SOL    HW132540   2.971   1.941   3.444  1.3323 -1.3877 -0.1772
 7027SOL    HW232541   2.990   2.083   3.449  0.9623  0.6033  1.4899
 7028SOL     OW32542   0.201   2.937  13.161 -0.6767  0.2213  0.2980
 7028SOL    HW132543   0.178   2.992  13.236 -0.4498  1.0514 -0.2456
 7028SOL    HW232544   0.249   2.870  13.210  1.3319  1.4228 -0.0376
 7029SOL     OW32545   0.052   1.113   3.736  0.1618 -0.1056 -0.3245
 7029SOL    HW132546   0.016   1.130   3.822  1.0765  1.4323 -0.2448
 7029SOL    HW232547   4.700   1.093   3.679 -0.1493 -1.6313  0.6221
 7030SOL     OW32548   2.048   1.341  13.030 -0.1927 -0.2094 -0.0475
 7030SOL    HW132549   2.018   1.308  13.114  1.8978 -0.6097  0.5211
 7030SOL    HW232550   2.123   1.393  13.058  0.5515 -0.2310 -1.9814
 7031SOL     OW32551   0.605   1.819  16.255  0.5253  0.5602 -0.3287
 7031SOL    HW132552   0.545   1.745  16.265 -0.2252  1.5022  2.1183
 7031SOL    HW232553   0.645   1.831  16.341 -0.7986 -1.6189  0.6105
 7032SOL     OW32554   2.855   0.070   1.017  0.2910 -0.0521  0.0495
 7032SOL    HW132555   2.917   0.126   0.971  0.4939  1.4808  2.1778
 7032SOL    HW232556   2.810   0.036   0.941 -1.5263 -0.1246  1.1568
 7033SOL     OW32557   3.580   0.965   6.226  0.0539 -0.0143 -0.1213
 7033SOL    HW132558   3.535   0.881   6.224 -0.3984  0.2017  0.8131
 7033SOL    HW232559   3.601   0.980   6.134 -1.1981 -1.3125 -0.6063
 7034SOL     OW32560   2.648   2.120   9.285 -0.3074 -0.1072 -0.2467
 7034SOL    HW132561   2.576   2.067   9.253 -1.6617  0.5075  1.8182
 7034SOL    HW232562   2.607   2.169   9.356 -0.6625 -0.6807 -0.0550
 7035SOL     OW32563   1.601   3.450   3.314  0.0406 -0.1234  0.9529
 7035SOL    HW132564   1.607   3.498   3.231  1.4691 -0.3339  0.9410
 7035SOL    HW232565   1.563   3.523   3.362 -2.1392  0.2412 -1.2815
 7036SOL     OW32566   4.080   2.375   6.440  0.3565 -0.2528 -0.1517
 7036SOL    HW132567   4.015   2.306   6.457 -0.2795  0.3858  0.0165
 7036SOL    HW232568   4.150   2.331   6.487 -0.1355 -0.5177  0.3397
 7037SOL     OW32569   4.708   1.116   4.531  0.1179 -0.2855 -0.0099
 7037SOL    HW132570   0.070   1.091   4.492 -0.7243 -2.1060 -0.6822
 7037SOL    HW232571   0.008   1.121   4.623 -2.0142 -0.0720  0.4966
 7038SOL     OW32572   4.668   0.526   9.916 -0.3518  0.0985 -0.6348
 7038SOL    HW132573   0.010   0.597   9.917 -1.3523  1.0042 -0.3695
 7038SOL    HW232574   4.605   0.577   9.966  0.5880 -0.6926  1.3690
 7039SOL     OW32575   3.024   2.560  14.741  0.3172 -0.1473 -0.1526
 7039SOL    HW132576   2.951   2.509  14.775 -0.3165 -0.6711 -2.3090
 7039SOL    HW232577   3.011   2.555  14.646  0.6769  0.2084 -0.2198
 7040SOL     OW32578   0.181   4.368   8.393  0.3418  0.7067 -0.4024
 7040SOL    HW132579   0.189   4.351   8.487 -0.0316 -1.5103 -0.7877
 7040SOL    HW232580   0.088   4.349   8.383 -0.0514  1.5316  1.6353
 7041SOL     OW32581   2.115   4.347   2.703 -0.0168  0.1778 -0.2120
 7041SOL    HW132582   2.030   4.313   2.675  0.2498 -0.2827 -0.4509
 7041SOL    HW232583   2.151   4.360   2.616 -0.9135  0.4498 -0.5399
 7042SOL     OW32584   2.329   2.325   6.230 -0.8014 -0.3440 -0.5025
 7042SOL    HW132585   2.299   2.320   6.139  2.2504  0.4942 -1.5280
 7042SOL    HW232586   2.271   2.256   6.263  0.0121  0.2606  2.1679
 7043SOL     OW32587   2.002   3.478   7.746  0.4194  0.4720 -0.3410
 7043SOL    HW132588   1.965   3.397   7.781  1.1630  0.5249  0.5627
 7043SOL    HW232589   2.095   3.459   7.755  1.0543  3.9456  0.4043
 7044SOL     OW32590   3.204   2.702   2.128  0.7970 -0.0741  0.1445
 7044SOL    HW132591   3.158   2.686   2.210 -0.7027 -0.7476 -0.8438
 7044SOL    HW232592   3.257   2.776   2.156 -1.1768  1.2469  0.3855
 7045SOL     OW32593   4.478   1.329   6.075 -0.2839 -0.0516 -0.1804
 7045SOL    HW132594   4.433   1.390   6.016  1.4346  1.5516  0.1742
 7045SOL    HW232595   4.497   1.384   6.151 -0.7051 -1.2001  0.7481
 7046SOL     OW32596   1.135   3.345  14.739 -0.0738  0.6827 -0.1481
 7046SOL    HW132597   1.130   3.431  14.698  0.7382  1.0444  0.5113
 7046SOL    HW232598   1.047   3.310  14.727  0.0191  0.3021  0.3208
 7047SOL     OW32599   4.215   4.397   5.889  0.4469  0.4482 -0.2932
 7047SOL    HW132600   4.223   4.483   5.930 -0.4437  0.8310 -0.9230
 7047SOL    HW232601   4.150   4.355   5.946 -0.1987  1.8183 -0.0126
 7048SOL     OW32602   4.114   1.989   2.652  0.2207  0.0011 -0.2741
 7048SOL    HW132603   4.097   1.928   2.580  0.5941  0.8354 -1.0648
 7048SOL    HW232604   4.207   1.979   2.674  0.5099  1.0836 -1.0472
 7049SOL     OW32605   2.123   1.858   3.881 -0.4682 -0.4052 -0.7884
 7049SOL    HW132606   2.073   1.776   3.872 -0.2913 -0.8328  2.2753
 7049SOL    HW232607   2.089   1.916   3.813  1.9027  0.2959 -1.3617
 7050SOL     OW32608   3.221   1.139   4.440  0.6259 -0.4267 -0.1126
 7050SOL    HW132609   3.228   1.234   4.435 -0.2860 -0.3970 -0.8346
 7050SOL    HW232610   3.291   1.118   4.379  1.3999 -1.4619  1.1335
 7051SOL     OW32611   3.444   2.789   5.702 -0.2192  0.1095 -0.2988
 7051SOL    HW132612   3.411   2.794   5.612  2.6485 -2.6433 -1.5052
 7051SOL    HW232613   3.533   2.820   5.689  0.3964 -1.1500  0.9342
 7052SOL     OW32614   0.693   3.203  10.711  0.3287  0.4111 -0.3712
 7052SOL    HW132615   0.704   3.279  10.768 -1.7978 -1.0074  1.9113
 7052SOL    HW232616   0.754   3.225  10.640  0.6957  2.6383  0.6272
 7053SOL     OW32617   3.246   1.521  13.473 -0.0439 -0.3369  0.1763
 7053SOL    HW132618   3.184   1.501  13.544  0.6161 -0.3313  0.7540
 7053SOL    HW232619   3.197   1.496  13.395 -0.8280 -0.6887  0.7780
 7054SOL     OW32620   4.675   1.674   9.649  0.0979 -0.2149 -0.0326
 7054SOL    HW132621   4.656   1.650   9.558 -2.2820 -2.0504  0.9521
 7054SOL    HW232622   4.594   1.650   9.695 -1.6636 -1.0282 -3.5662
 7055SOL     OW32623   0.815   0.819   0.340 -0.0614  0.2359  0.7953
 7055SOL    HW132624   0.779   0.825   0.429 -0.9564 -0.0107  0.4482
 7055SOL    HW232625   0.884   0.756   0.359 -0.3186 -0.0005  0.9399
 7056SOL     OW32626   3.823   0.875   2.271 -0.2073  1.2043 -0.8638
 7056SOL    HW132627   3.800   0.791   2.310  0.4077  0.6816 -1.6460
 7056SOL    HW232628   3.909   0.850   2.239 -0.4683 -0.7233 -0.0670
 7057SOL     OW32629   4.424   2.000  17.087 -0.1018  0.6139 -0.0999
 7057SOL    HW132630   4.514   2.028  17.101 -0.3213  1.0199  0.5135
 7057SOL    HW232631   4.423   1.905  17.076  2.1795  0.4756  1.0024
 7058SOL     OW32632   3.824   3.818   4.696 -0.6007 -0.1908 -0.1117
 7058SOL    HW132633   3.910   3.777   4.684 -1.2570 -2.0854  1.8213
 7058SOL    HW232634   3.828   3.883   4.625 -1.4115 -1.2664 -1.1429
 7059SOL     OW32635   4.496   4.500  12.044 -0.4562 -0.3138  0.2343
 7059SOL    HW132636   4.559   4.443  12.000 -1.2805 -1.6406  0.8075
 7059SOL    HW232637   4.522   4.592  12.033 -2.7989  0.5547  1.8502
 7060SOL     OW32638   0.166   4.507   8.746  0.2265  0.1661 -0.3994
 7060SOL    HW132639   0.103   4.436   8.761  0.6804 -0.1495 -0.0104
 7060SOL    HW232640   0.197   4.522   8.835 -2.3390  1.5950  0.2758
 7061SOL     OW32641   1.760   1.175  14.930 -0.6489 -0.2673 -0.3276
 7061SOL    HW132642   1.676   1.167  14.974 -1.0730  0.9368 -0.9187
 7061SOL    HW232643   1.759   1.111  14.858 -1.2264  0.1015 -0.6454
 7062SOL     OW32644   1.221   0.599   4.185  0.5305 -0.1303 -0.1455
 7062SOL    HW132645   1.192   0.653   4.111  0.0485 -1.8515 -1.2244
 7062SOL    HW232646   1.316   0.603   4.174  0.3026 -0.7655 -2.3875
 7063SOL     OW32647   3.897   1.359  12.072  0.6904  0.5753 -0.2386
 7063SOL    HW132648   3.848   1.347  11.991 -2.0218  0.8918  1.3807
 7063SOL    HW232649   3.890   1.455  12.077  1.1321  0.4105  3.7199
 7064SOL     OW32650   0.495   3.688  16.583 -0.4038  0.2956  0.1634
 7064SOL    HW132651   0.534   3.645  16.506  0.9405 -0.4308  1.2432
 7064SOL    HW232652   0.402   3.678  16.561 -0.5455  0.0241  0.8971
 7065SOL     OW32653   1.407   0.145  10.795 -0.0179 -0.6100 -0.4530
 7065SOL    HW132654   1.502   0.129  10.793 -0.2037 -1.5896 -1.2370
 7065SOL    HW232655   1.384   0.052  10.789 -2.7615  0.0503 -0.2436
 7066SOL     OW32656   2.177   4.624   8.816 -0.1170  0.0915  0.1646
 7066SOL    HW132657   2.088   4.659   8.827  0.1076  0.9385 -0.7561
 7066SOL    HW232658   2.216   4.698   8.769  0.5410 -0.4344 -0.1072
 7067SOL     OW32659   3.410   1.784   6.355 -0.5582  0.0450 -0.2245
 7067SOL    HW132660   3.407   1.879   6.355 -0.3414  0.0373 -2.2830
 7067SOL    HW232661   3.431   1.766   6.447  3.9660  1.0531 -1.0703
 7068SOL     OW32662   3.074   3.452  13.970 -0.4137 -0.2625 -0.7972
 7068SOL    HW132663   3.167   3.445  13.949 -0.4823 -1.6449 -0.6524
 7068SOL    HW232664   3.068   3.396  14.047  0.2757  1.6427  0.6481
 7069SOL     OW32665   1.977   0.082   7.401  0.1573 -0.5411  0.4384
 7069SOL    HW132666   1.998   0.020   7.331 -1.0458 -0.2984 -0.1327
 7069SOL    HW232667   2.059   0.092   7.448  0.5632  0.9957 -0.5944
 7070SOL     OW32668   0.377   2.933   7.948 -0.2245 -0.3606  0.4647
 7070SOL    HW132669   0.288   2.954   7.975  0.8470 -0.4171  4.0589
 7070SOL    HW232670   0.366   2.840   7.929  0.9473 -0.8129  1.9686
 7071SOL     OW32671   4.136   2.045  12.803  0.2852 -1.0346 -0.0907
 7071SOL    HW132672   4.181   2.089  12.731 -2.8044  1.1296 -0.7233
 7071SOL    HW232673   4.182   1.961  12.797  1.3914 -0.4757  0.6214
 7072SOL     OW32674   0.483   3.791   0.131 -0.2147  0.0103 -0.3501
 7072SOL    HW132675   0.498   3.880   0.099 -1.2016  0.2185 -0.2585
 7072SOL    HW232676   0.434   3.751   0.059 -0.4887  1.8156 -1.1492
 7073SOL     OW32677   2.835   0.921  10.569 -0.8006 -0.1455 -0.4293
 7073SOL    HW132678   2.761   0.874  10.607 -1.9472  2.0332  0.0316
 7073SOL    HW232679   2.899   0.899  10.636  0.1759 -0.3220 -1.4234
 7074SOL     OW32680   2.403   3.387   2.300 -0.1796 -0.0997  0.1370
 7074SOL    HW132681   2.477   3.385   2.239  1.2824  2.9463  1.8050
 7074SOL    HW232682   2.438   3.392   2.389 -2.7329  1.0050  1.0630
 7075SOL     OW32683   2.778   1.109   2.770 -0.1619  0.0850  0.0886
 7075SOL    HW132684   2.751   1.182   2.827  1.1025  1.8790 -1.6189
 7075SOL    HW232685   2.756   1.152   2.687 -2.0093 -2.0762 -0.5447
 7076SOL     OW32686   2.001   0.758   4.798 -0.1320  0.1441 -0.0155
 7076SOL    HW132687   1.972   0.840   4.758 -1.1435 -0.3207 -0.2560
 7076SOL    HW232688   2.081   0.755   4.746  0.9973  1.4140  1.6883
 7077SOL     OW32689   0.309   3.121  15.101  0.3289 -1.4075 -0.4115
 7077SOL    HW132690   0.219   3.108  15.132 -0.5717  0.4335 -2.2539
 7077SOL    HW232691   0.325   3.207  15.140 -2.6708 -0.3095 -1.5652
 7078SOL     OW32692   1.671   2.656   3.360  0.3785  0.7839 -0.1548
 7078SOL    HW132693   1.590   2.606   3.369  0.8207 -0.0688 -0.9162
 7078SOL    HW232694   1.716   2.617   3.434 -1.1922 -2.8369 -1.1373
 7079SOL     OW32695   4.716   2.345   6.034  0.0958 -0.2924 -0.5627
 7079SOL    HW132696   4.692   2.299   5.953 -0.3227  2.0359 -1.7511
 7079SOL    HW232697   0.076   2.384   6.005  0.4680 -0.4502  0.2984
 7080SOL     OW32698   0.330   2.192   5.821  0.3438  0.3020 -0.1043
 7080SOL    HW132699   0.280   2.223   5.746  0.6934  0.7709 -0.1493
 7080SOL    HW232700   0.326   2.100   5.797  1.2343  0.2500 -0.0503
 7081SOL     OW32701   0.098   4.332   7.362 -0.2665 -0.0457  0.0374
 7081SOL    HW132702   0.098   4.425   7.338  0.1856 -0.3471 -1.1434
 7081SOL    HW232703   0.093   4.327   7.457 -0.5155 -1.0755 -0.0261
 7082SOL     OW32704   2.559   2.831   8.121  0.9888 -0.2274  0.1584
 7082SOL    HW132705   2.553   2.749   8.169 -0.3913 -1.1309 -1.5712
 7082SOL    HW232706   2.590   2.890   8.190  1.4715  0.0796 -0.3148
 7083SOL     OW32707   0.633   3.373   0.554  0.1438 -0.1905  0.3530
 7083SOL    HW132708   0.643   3.280   0.576 -0.7997 -0.7010 -1.3821
 7083SOL    HW232709   0.716   3.411   0.581 -0.8086  0.8703  1.7545
 7084SOL     OW32710   4.545   3.578   3.900  0.1076 -0.2679 -0.1643
 7084SOL    HW132711   4.490   3.504   3.924 -0.1004 -0.8236 -2.3546
 7084SOL    HW232712   4.486   3.649   3.926  1.2334  0.0527  1.5457
 7085SOL     OW32713   4.169   3.112   8.736  0.0697 -0.0090 -0.6922
 7085SOL    HW132714   4.088   3.117   8.684 -1.3173  0.6902  1.5491
 7085SOL    HW232715   4.209   3.042   8.684  0.3131 -0.6275  0.3455
 7086SOL     OW32716   4.220   4.005   9.541  0.4637  0.2969 -0.1576
 7086SOL    HW132717   4.260   4.004   9.454  1.8750 -0.9189  0.5174
 7086SOL    HW232718   4.158   3.933   9.527 -1.6737  1.8252  1.5769
 7087SOL     OW32719   0.678   1.245  11.476  0.4860  0.2963  0.2918
 7087SOL    HW132720   0.759   1.260  11.427  1.3657 -2.0479  1.0258
 7087SOL    HW232721   0.666   1.322  11.531  0.2529  0.7376 -0.3771
 7088SOL     OW32722   1.902   1.923  15.033  0.3921 -0.5063 -0.1959
 7088SOL    HW132723   1.958   1.851  15.063 -0.2731 -0.7413  0.4986
 7088SOL    HW232724   1.935   1.936  14.944 -0.2791 -2.2145 -0.7157
 7089SOL     OW32725   1.761   2.810  15.570 -0.7506  0.1858 -0.1456
 7089SOL    HW132726   1.747   2.805  15.665  3.6727 -0.7248  0.4594
 7089SOL    HW232727   1.822   2.740  15.548 -5.0727 -3.9444  0.8586
 7090SOL     OW32728   3.765   2.278   7.350  0.3044 -0.0571  0.1467
 7090SOL    HW132729   3.771   2.215   7.422 -1.1361  2.8210  2.7733
 7090SOL    HW232730   3.676   2.251   7.328  1.1316 -1.8337 -1.0919
 7091SOL     OW32731   1.786   3.050   7.631 -0.2295  0.4802  0.4711
 7091SOL    HW132732   1.878   3.029   7.613 -0.7670 -0.4164 -1.2260
 7091SOL    HW232733   1.794   3.141   7.659  1.4033  0.6904 -0.6717
 7092SOL     OW32734   3.134   1.613   1.273  0.1834  0.3842  0.6333
 7092SOL    HW132735   3.045   1.576   1.268  0.4970  0.1797 -3.2437
 7092SOL    HW232736   3.136   1.682   1.207 -1.0560 -0.1387  0.0351
 7093SOL     OW32737   3.264   2.366  10.140 -0.0924  1.1313  0.1105
 7093SOL    HW132738   3.255   2.278  10.179 -0.1328  0.6005 -1.0941
 7093SOL    HW232739   3.270   2.336  10.049  0.8229  0.4861  0.3885
 7094SOL     OW32740   1.938   2.315   6.390  0.1597  0.0597  0.6175
 7094SOL    HW132741   1.934   2.354   6.303 -1.1543  1.2698  1.2168
 7094SOL    HW232742   1.849   2.323   6.424  0.5056  1.4543  1.1755
 7095SOL     OW32743   3.426   2.541   3.811  0.2533 -0.2126  0.3131
 7095SOL    HW132744   3.498   2.503   3.861  1.5157  1.1273 -0.4888
 7095SOL    HW232745   3.383   2.464   3.773 -1.4898  0.6260  0.5532
 7096SOL     OW32746   3.476   1.423   4.775 -0.1667 -0.7843 -0.1012
 7096SOL    HW132747   3.482   1.397   4.683 -1.4148  0.8807 -0.6600
 7096SOL    HW232748   3.424   1.503   4.763  0.4584 -0.5868 -1.6304
 7097SOL     OW32749   0.489   3.320   8.162  0.0257  0.4091 -0.5209
 7097SOL    HW132750   0.457   3.272   8.238  0.6987 -0.8768 -1.0350
 7097SOL    HW232751   0.402   3.349   8.137  0.1120  0.9200 -0.2302
 7098SOL     OW32752   0.756   0.426   3.207  0.2059  0.1237  0.1498
 7098SOL    HW132753   0.811   0.349   3.217 -0.2979 -0.3742 -0.9252
 7098SOL    HW232754   0.673   0.379   3.209  0.1889  0.1360 -0.2511
 7099SOL     OW32755   4.671   2.801   4.489 -0.2912  0.1009 -0.4902
 7099SOL    HW132756   4.599   2.773   4.546 -0.6288 -0.7369 -1.3318
 7099SOL    HW232757   4.639   2.885   4.456  0.2461  0.0796 -1.0737
 7100SOL     OW32758   1.598   4.678  13.872  0.3243 -0.1164  0.6033
 7100SOL    HW132759   1.544   4.644  13.801  1.5383  2.1498 -1.4060
 7100SOL    HW232760   1.674   4.688  13.815 -1.1245  0.1493 -1.2892
 7101SOL     OW32761   2.294   1.748  13.806  0.6512  0.4544  0.5083
 7101SOL    HW132762   2.311   1.742  13.712 -0.6778 -0.3107  0.3139
 7101SOL    HW232763   2.246   1.831  13.808  0.7965  0.5245  1.4080
 7102SOL     OW32764   0.049   3.164   1.407  0.2080 -0.3715 -0.4087
 7102SOL    HW132765   0.062   3.112   1.328 -2.3844 -2.7401  0.7091
 7102SOL    HW232766   0.131   3.214   1.404  1.2067 -1.9572  0.5613
 7103SOL     OW32767   4.269   4.457   8.633  0.0544 -0.9971  0.0029
 7103SOL    HW132768   4.270   4.448   8.728 -1.9582  0.1379  0.1138
 7103SOL    HW232769   4.180   4.489   8.617  0.5540  0.1256 -0.5687
 7104SOL     OW32770   3.563   3.931   8.069 -0.3408 -0.3518 -0.3498
 7104SOL    HW132771   3.508   3.928   7.991 -0.7148  1.5025 -0.1685
 7104SOL    HW232772   3.598   3.843   8.060 -1.0702 -0.6371 -0.4315
 7105SOL     OW32773   4.341   0.610   3.209 -0.0648  0.2056 -0.7856
 7105SOL    HW132774   4.304   0.694   3.237  1.1588  0.2605  0.7139
 7105SOL    HW232775   4.270   0.555   3.240 -1.8955  1.9270 -1.9349
 7106SOL     OW32776   3.387   4.072  10.833  0.0383 -0.3531 -0.1413
 7106SOL    HW132777   3.330   4.028  10.896 -0.9141 -1.6083 -1.9018
 7106SOL    HW232778   3.416   4.151  10.879 -0.5720  0.3490 -0.9700
 7107SOL     OW32779   3.339   2.051  13.084  0.3218 -0.0017  0.1016
 7107SOL    HW132780   3.367   2.100  13.006  1.6086 -3.1077 -1.3997
 7107SOL    HW232781   3.324   2.114  13.154 -1.3716  0.1357 -0.4016
 7108SOL     OW32782   2.587   3.910   4.096  0.1384  0.0997  0.6265
 7108SOL    HW132783   2.527   3.843   4.128 -0.8023 -0.3660 -2.0951
 7108SOL    HW232784   2.653   3.853   4.057 -0.5108 -0.5565  0.4980
 7109SOL     OW32785   1.864   2.722   2.520 -0.5250 -0.5615  0.2431
 7109SOL    HW132786   1.941   2.706   2.464 -0.9258 -0.8405 -0.2327
 7109SOL    HW232787   1.899   2.771   2.594  0.6208 -1.6870  0.4408
 7110SOL     OW32788   0.173   0.235  12.307 -0.0757 -0.0886 -0.0976
 7110SOL    HW132789   0.222   0.167  12.261  3.6885  2.5782 -0.0214
 7110SOL    HW232790   0.181   0.304  12.242  3.0731 -1.1304 -0.7848
 7111SOL     OW32791   2.135   2.341   2.889  0.3275 -0.0164 -0.1269
 7111SOL    HW132792   2.066   2.275   2.893  0.4925 -0.3141 -2.1937
 7111SOL    HW232793   2.171   2.337   2.977 -0.0014  0.5982  0.0322
 7112SOL     OW32794   4.139   0.474   9.414 -0.7062  0.1358  0.0126
 7112SOL    HW132795   4.223   0.441   9.444 -0.9660  0.9979  1.7134
 7112SOL    HW232796   4.126   0.551   9.470 -2.8900  0.3757 -0.8120
 7113SOL     OW32797   0.763   1.316   3.776  0.3120 -0.7625  0.1400
 7113SOL    HW132798   0.711   1.374   3.721  0.9019  0.2348  0.6312
 7113SOL    HW232799   0.801   1.384   3.831  0.9639  0.1942 -1.4959
 7114SOL     OW32800   0.929   1.597  14.919 -0.0070 -0.2168  0.1521
 7114SOL    HW132801   0.864   1.546  14.966 -0.0860  0.8223  1.1603
 7114SOL    HW232802   0.913   1.598  14.825 -1.2403 -1.1979  0.3558
 7115SOL     OW32803   0.110   4.599   6.725 -0.0169  0.6144 -0.1433
 7115SOL    HW132804   0.074   4.542   6.656  0.9908 -2.1650  1.6148
 7115SOL    HW232805   0.168   4.536   6.767  1.4489  1.9444 -0.1919
 7116SOL     OW32806   3.955   1.264   7.336  0.1008 -0.6057  0.1162
 7116SOL    HW132807   3.975   1.356   7.318  1.3038 -1.0064 -0.6102
 7116SOL    HW232808   3.875   1.261   7.388  0.8999 -1.0254  1.3448
 7117SOL     OW32809   4.326   2.701   2.756 -0.3404  0.5568  0.1324
 7117SOL    HW132810   4.255   2.681   2.695 -0.5314 -1.7343  1.0977
 7117SOL    HW232811   4.285   2.746   2.830  0.2481  0.1765  0.6895
 7118SOL     OW32812   3.990   4.060  14.602  0.5257 -0.5465  0.4428
 7118SOL    HW132813   4.048   4.120  14.556 -0.9202  1.5036  1.2777
 7118SOL    HW232814   3.923   4.053  14.535  0.6174  3.2396 -0.0458
 7119SOL     OW32815   3.486   2.971   4.092  0.2212  0.2404 -0.0291
 7119SOL    HW132816   3.415   3.029   4.063 -1.6447 -0.2539  3.6492
 7119SOL    HW232817   3.548   3.035   4.126  1.3922  0.8844 -3.3104
 7120SOL     OW32818   2.366   0.857   5.219 -0.0754  0.6775 -0.0457
 7120SOL    HW132819   2.409   0.941   5.236  1.2886  0.2624 -1.3778
 7120SOL    HW232820   2.390   0.810   5.298 -1.8705  2.6301  1.6611
 7121SOL     OW32821   3.705   2.123   7.595  0.1539 -0.0807 -0.0010
 7121SOL    HW132822   3.617   2.122   7.633 -0.4151  0.7998 -1.3048
 7121SOL    HW232823   3.719   2.029   7.584  0.1325 -0.1292  0.3698
 7122SOL     OW32824   0.000   0.965   5.059  1.3220 -0.1748 -0.3121
 7122SOL    HW132825   0.086   0.945   5.097  0.4229 -2.2943  0.5996
 7122SOL    HW232826   0.018   1.043   5.007 -2.4079  1.0871  0.2885
 7123SOL     OW32827   0.940   1.069  10.567 -0.0399  0.0390  0.0512
 7123SOL    HW132828   0.977   1.142  10.616  1.4133 -0.1025 -0.8197
 7123SOL    HW232829   0.902   1.007  10.629  0.2043 -0.6624 -0.4900
 7124SOL     OW32830   3.962   1.465  17.209  0.0859 -0.8137  0.1959
 7124SOL    HW132831   3.943   1.490  17.119  1.3151  4.3692  1.3418
 7124SOL    HW232832   3.914   1.534  17.254 -1.2363  0.7017 -3.6093
 7125SOL     OW32833   3.191   4.392   3.176  0.0598  0.9588 -0.3383
 7125SOL    HW132834   3.143   4.313   3.202  1.1518  0.8514  1.3724
 7125SOL    HW232835   3.118   4.440   3.138 -0.4814  0.1788 -0.2928
 7126SOL     OW32836   2.849   0.419  15.471  0.1271 -0.3364 -0.3229
 7126SOL    HW132837   2.943   0.403  15.485  0.1088  0.1468  0.3705
 7126SOL    HW232838   2.844   0.514  15.479 -0.7198 -0.3092 -1.3017
 7127SOL     OW32839   0.668   2.506  15.957  0.1088  0.1177 -0.3432
 7127SOL    HW132840   0.661   2.499  16.052 -1.7845 -0.1785 -0.4976
 7127SOL    HW232841   0.611   2.581  15.942  1.3086  1.5200  2.0944
 7128SOL     OW32842   1.467   1.391   5.949 -0.3067  0.4281  0.3248
 7128SOL    HW132843   1.555   1.395   5.913 -0.8130 -0.3127 -1.0074
 7128SOL    HW232844   1.473   1.381   6.044 -1.0591  1.1714  0.4479
 7129SOL     OW32845   2.956   3.811  17.103 -0.1433  0.5320  0.2509
 7129SOL    HW132846   2.976   3.804  17.196  0.5810  0.0466  0.0639
 7129SOL    HW232847   2.861   3.805  17.106 -0.1943  1.3057  0.2524
 7130SOL     OW32848   3.725   1.014  13.441  0.1923  0.2154 -0.4311
 7130SOL    HW132849   3.634   1.036  13.421  0.1446 -0.1273 -0.5852
 7130SOL    HW232850   3.718   0.986  13.533  1.3368 -0.8719 -0.6717
 7131SOL     OW32851   2.538   2.497  13.258  0.0004  0.2478 -0.6701
 7131SOL    HW132852   2.550   2.583  13.219 -1.0225  0.4086 -0.6156
 7131SOL    HW232853   2.449   2.477  13.231  0.9983 -0.3521 -3.4741
 7132SOL     OW32854   2.318   1.786   6.511 -0.7535 -0.7765  0.8685
 7132SOL    HW132855   2.371   1.799   6.590 -0.3359 -0.0468  0.4620
 7132SOL    HW232856   2.352   1.701   6.483  0.2063  0.2649 -1.0674
 7133SOL     OW32857   2.675   1.881   2.311  0.2048  0.8284 -0.4185
 7133SOL    HW132858   2.625   1.814   2.264 -0.5123  1.0669  0.0056
 7133SOL    HW232859   2.606   1.936   2.349  0.5176  0.7764  0.2073
 7134SOL     OW32860   2.789   4.628   6.673  0.0477 -0.3551 -0.2334
 7134SOL    HW132861   2.809   4.626   6.579  2.0607  3.5117  0.0997
 7134SOL    HW232862   2.846   4.558   6.704 -1.3430 -0.2650  2.4553
 7135SOL     OW32863   2.105   1.183   1.709 -0.2753  0.0100 -0.2440
 7135SOL    HW132864   2.133   1.212   1.622  1.9800 -1.0104  0.1240
 7135SOL    HW232865   2.017   1.220   1.702 -0.2228  0.1228 -0.3087
 7136SOL     OW32866   3.548   3.929  12.886  0.4008 -0.2303 -0.3245
 7136SOL    HW132867   3.498   3.867  12.832 -0.6658  1.6857 -1.5506
 7136SOL    HW232868   3.551   4.002  12.824  0.8545 -0.4937 -0.6150
 7137SOL     OW32869   2.609   3.147   6.174  0.0158 -0.0957  0.2018
 7137SOL    HW132870   2.573   3.073   6.224  3.2630 -1.9014 -0.1622
 7137SOL    HW232871   2.544   3.215   6.192  0.4671  1.4272 -3.9621
 7138SOL     OW32872   0.811   0.252   6.038 -0.2737 -0.2238 -0.0783
 7138SOL    HW132873   0.745   0.201   5.992  0.0936  0.3322 -1.2220
 7138SOL    HW232874   0.807   0.335   5.991 -1.4959  0.5418  1.3993
 7139SOL     OW32875   4.450   0.960   9.102  0.1096 -0.3929 -0.6614
 7139SOL    HW132876   4.445   0.871   9.066  2.4431 -0.5196 -0.6852
 7139SOL    HW232877   4.519   0.966   9.169 -1.3406  0.0120  0.8077
 7140SOL     OW32878   3.694   1.813   6.950 -0.2948 -0.5904  0.4530
 7140SOL    HW132879   3.784   1.822   6.981 -0.8649 -0.4060  2.0564
 7140SOL    HW232880   3.658   1.807   7.038 -0.1883 -1.0357  0.4683
 7141SOL     OW32881   2.771   4.140   9.768 -0.1968  0.0549 -0.2166
 7141SOL    HW132882   2.711   4.140   9.694  0.8343 -0.2186 -1.0627
 7141SOL    HW232883   2.853   4.120   9.723 -1.8157 -2.4489 -2.0340
 7142SOL     OW32884   0.196   3.130  13.910  0.5307 -0.3589 -0.5981
 7142SOL    HW132885   0.210   3.225  13.911 -1.3146 -0.0915 -0.3623
 7142SOL    HW232886   0.106   3.126  13.878  0.6103 -0.7852 -0.7692
 7143SOL     OW32887   0.425   3.162  17.480  0.1494 -0.3181 -0.1326
 7143SOL    HW132888   0.330   3.164  17.483  0.2300  0.8207  1.5824
 7143SOL    HW232889   0.439   3.175  17.574 -2.8036 -0.5476  0.3352
 7144SOL     OW32890   0.406   0.476   7.701 -0.2189 -0.3276 -0.6999
 7144SOL    HW132891   0.336   0.538   7.721 -0.9498 -1.3886  0.0415
 7144SOL    HW232892   0.461   0.474   7.779 -0.8947 -3.0168 -0.2878
 7145SOL     OW32893   3.160   1.770   9.348  0.3765 -0.0796  0.2605
 7145SOL    HW132894   3.247   1.803   9.327  0.1819  0.9705  1.0836
 7145SOL    HW232895   3.126   1.830   9.415 -0.3965 -0.2206 -0.0049
 7146SOL     OW32896   4.263   0.016  13.636 -0.0694 -0.0968  0.1046
 7146SOL    HW132897   4.318   4.676  13.682  0.2455  0.4220  0.4421
 7146SOL    HW232898   4.311   0.098  13.653 -0.6190  0.3335 -0.4256
 7147SOL     OW32899   3.402   0.968   3.342  0.0084 -0.3508  0.2416
 7147SOL    HW132900   3.371   1.057   3.360 -1.1143 -0.5885 -0.5210
 7147SOL    HW232901   3.342   0.936   3.275  2.3369  0.4379 -2.2031
 7148SOL     OW32902   0.919   4.355   2.812 -0.2136 -0.2743 -0.1805
 7148SOL    HW132903   0.837   4.378   2.767 -0.2982  0.0109  0.1192
 7148SOL    HW232904   0.879   4.335   2.897 -0.6670 -0.2748 -0.3924
 7149SOL     OW32905   2.252   2.618   8.474 -0.2946  0.0113 -0.1117
 7149SOL    HW132906   2.236   2.534   8.517  0.4167  0.2129  0.5418
 7149SOL    HW232907   2.177   2.640   8.417  0.3751 -0.3414 -1.1271
 7150SOL     OW32908   4.623   3.233   5.032 -0.4397  0.1810  0.0020
 7150SOL    HW132909   4.627   3.145   4.995  0.5377  0.3288 -0.2480
 7150SOL    HW232910   4.585   3.199   5.113  1.5536  1.6971  1.5954
 7151SOL     OW32911   3.963   4.315   3.444  0.0799  0.4884 -0.4487
 7151SOL    HW132912   3.951   4.232   3.490 -1.1273  0.7541 -0.2739
 7151SOL    HW232913   3.985   4.263   3.367  1.0159  1.0197 -0.5454
 7152SOL     OW32914   0.365   2.809   5.047  0.4663  0.2080 -0.5206
 7152SOL    HW132915   0.425   2.782   5.117  1.2250  0.1929 -1.1793
 7152SOL    HW232916   0.406   2.891   5.019  1.5923  0.2813  1.3155
 7153SOL     OW32917   3.033   3.270   5.458  0.2341 -0.0925 -0.7503
 7153SOL    HW132918   3.068   3.311   5.379 -2.4836  1.6930 -1.0590
 7153SOL    HW232919   3.105   3.212   5.483  0.2733  1.5834  3.0435
 7154SOL     OW32920   1.485   4.565   6.348 -0.2309  0.6319  0.1414
 7154SOL    HW132921   1.438   4.512   6.412 -1.4988 -0.3972 -1.6323
 7154SOL    HW232922   1.411   4.593   6.294 -0.8708 -2.3735 -0.5051
 7155SOL     OW32923   2.460   0.073  17.083  0.2735 -0.4001 -0.4622
 7155SOL    HW132924   2.552   0.097  17.095 -0.4258  1.7850  0.4564
 7155SOL    HW232925   2.433   0.075  17.175  0.0957  1.1624 -0.5399
 7156SOL     OW32926   1.666   2.446   7.079  0.2013 -0.1095  0.3513
 7156SOL    HW132927   1.710   2.450   7.164  4.1770 -0.9105 -1.6922
 7156SOL    HW232928   1.749   2.445   7.030  1.4233  0.4298  2.4286
 7157SOL     OW32929   1.416   1.125   3.448 -0.0457 -0.1795  0.0787
 7157SOL    HW132930   1.442   1.032   3.454 -1.9168 -0.6072  1.5164
 7157SOL    HW232931   1.322   1.109   3.448  0.0531 -0.8323 -1.9074
 7158SOL     OW32932   3.487   4.299  17.252 -0.2423 -0.2910 -0.1343
 7158SOL    HW132933   3.521   4.327  17.337 -0.4648  2.1768 -0.8730
 7158SOL    HW232934   3.412   4.358  17.246  0.7111  0.8687 -0.5278
 7159SOL     OW32935   4.100   0.805   2.152  0.1747  0.1456  0.0486
 7159SOL    HW132936   4.134   0.895   2.151 -0.1588  0.2677 -0.3667
 7159SOL    HW232937   4.145   0.770   2.229  2.4479  2.2940 -0.2966
 7160SOL     OW32938   2.048   0.359   5.486 -0.2474 -0.0206  0.0988
 7160SOL    HW132939   1.968   0.308   5.473 -0.3244  0.4452 -1.2710
 7160SOL    HW232940   2.011   0.448   5.490 -1.4335 -0.5328  0.3894
 7161SOL     OW32941   1.666   1.099   2.450  0.2125  0.2800  0.0063
 7161SOL    HW132942   1.618   1.068   2.526  0.9618  0.0202  0.3637
 7161SOL    HW232943   1.686   1.188   2.481 -0.4872  0.1180  0.9246
 7162SOL     OW32944   1.138   4.354   2.389 -0.3775 -0.2206  0.3750
 7162SOL    HW132945   1.157   4.310   2.306 -2.1397 -0.2511 -0.0080
 7162SOL    HW232946   1.064   4.302   2.420  2.3987 -2.7762  2.7521
 7163SOL     OW32947   0.442   0.077   6.914  0.0798  0.4271  0.3856
 7163SOL    HW132948   0.482   0.032   6.840 -2.1001  1.6542 -1.5468
 7163SOL    HW232949   0.501   0.153   6.913 -2.6235  2.4770 -2.3047
 7164SOL     OW32950   0.270   3.179   6.457 -0.3133  0.2106 -0.2286
 7164SOL    HW132951   0.182   3.168   6.493 -0.1456  1.5589  0.6022
 7164SOL    HW232952   0.279   3.096   6.409  0.0219 -1.1755  2.2309
 7165SOL     OW32953   1.379   1.314   3.979  0.6681 -0.3186 -0.6344
 7165SOL    HW132954   1.387   1.267   4.063 -0.4051  0.3253 -0.1835
 7165SOL    HW232955   1.433   1.255   3.926 -0.6247  0.1469 -2.4423
 7166SOL     OW32956   4.521   4.423   1.983 -0.8247  0.2745 -0.0592
 7166SOL    HW132957   4.523   4.404   2.077 -1.1853  0.8973  0.0793
 7166SOL    HW232958   4.437   4.382   1.964 -0.3566 -0.1859 -1.1180
 7167SOL     OW32959   2.414   4.308   5.011  0.1530 -0.8304 -0.0049
 7167SOL    HW132960   2.472   4.260   5.070  1.6594  2.6071  1.2944
 7167SOL    HW232961   2.330   4.293   5.053  0.2707  3.8184  1.8847
 7168SOL     OW32962   2.214   2.330   5.957  0.2999  0.1566  0.5414
 7168SOL    HW132963   2.271   2.401   5.987  0.3713  0.4975 -0.3991
 7168SOL    HW232964   2.202   2.366   5.869 -1.8722  0.2124  0.8480
 7169SOL     OW32965   0.859   0.953   6.644  0.1041 -0.4017 -0.3365
 7169SOL    HW132966   0.789   0.996   6.596 -0.4016  0.0184  0.7779
 7169SOL    HW232967   0.829   0.862   6.646 -0.9353 -0.0362  1.3130
 7170SOL     OW32968   0.497   1.953   8.533 -0.5448 -0.5915 -0.3645
 7170SOL    HW132969   0.535   1.960   8.621  1.0634 -0.5356 -1.0638
 7170SOL    HW232970   0.427   1.889   8.547  1.2616 -2.9274 -2.0294
 7171SOL     OW32971   0.445   2.395   7.221 -0.3686 -0.3664 -0.9316
 7171SOL    HW132972   0.389   2.447   7.278 -0.1908  0.0995 -1.1878
 7171SOL    HW232973   0.378   2.352   7.167 -0.1516 -2.9777  0.8526
 7172SOL     OW32974   2.396   1.815   6.979 -0.6965 -0.3758  0.7487
 7172SOL    HW132975   2.377   1.758   7.053 -0.2476 -0.3617  0.8786
 7172SOL    HW232976   2.319   1.806   6.923  0.4601 -3.8178 -0.2548
 7173SOL     OW32977   2.954   4.495   5.658  0.4336 -0.4361  0.0419
 7173SOL    HW132978   2.995   4.566   5.609 -1.8522  0.2591 -0.8127
 7173SOL    HW232979   3.027   4.435   5.639 -1.3003 -2.0772 -1.3387
 7174SOL     OW32980   0.935   3.487   7.691 -0.5268 -0.4429 -0.1679
 7174SOL    HW132981   0.981   3.571   7.692 -1.2870 -0.0351 -0.1591
 7174SOL    HW232982   0.970   3.438   7.617 -1.0352 -0.0636 -0.6605
 7175SOL     OW32983   3.996   3.195   5.124  0.0377  0.6257  0.5051
 7175SOL    HW132984   4.007   3.118   5.180  0.8528  0.6139  0.3365
 7175SOL    HW232985   4.065   3.249   5.163 -0.1837  2.3129 -1.4576
 7176SOL     OW32986   4.235   4.277   2.647  0.5556 -0.5749 -0.2254
 7176SOL    HW132987   4.303   4.223   2.687 -0.0532  0.1931  1.8625
 7176SOL    HW232988   4.255   4.271   2.554 -1.6718  0.5215 -0.7745
 7177SOL     OW32989   4.442   1.880   4.707  0.3165  0.5961 -0.4021
 7177SOL    HW132990   4.400   1.866   4.622 -1.3491 -3.0316  1.0549
 7177SOL    HW232991   4.467   1.796   4.745 -0.6742  0.3167 -0.3929
 7178SOL     OW32992   2.956   0.956   3.109  0.1739  0.0426  0.2267
 7178SOL    HW132993   2.885   0.942   3.047 -0.2351 -0.9022  0.9068
 7178SOL    HW232994   2.992   1.037   3.074  0.2714 -0.5924 -1.1242
 7179SOL     OW32995   1.154   3.622   6.514 -0.3852  0.3393  0.2964
 7179SOL    HW132996   1.176   3.598   6.424  1.0321 -0.2677  0.8062
 7179SOL    HW232997   1.141   3.536   6.554 -5.1999  0.3770 -1.2306
 7180SOL     OW32998   1.453   2.314  12.563 -0.3024 -0.1852 -0.5992
 7180SOL    HW132999   1.395   2.391  12.558 -0.8034 -0.3887  2.4372
 7180SOL    HW233000   1.509   2.342  12.636  0.9431  1.4331 -2.1495
 7181SOL     OW33001   3.114   2.648   5.761  0.0755 -0.2062  0.5992
 7181SOL    HW133002   3.083   2.735   5.736 -0.6991 -0.9145 -0.8926
 7181SOL    HW233003   3.065   2.598   5.695 -0.1056  0.0759  0.5224
 7182SOL     OW33004   3.441   2.131  13.893 -0.1810  0.1963 -0.2021
 7182SOL    HW133005   3.433   2.223  13.871  0.0481  0.9053  2.5971
 7182SOL    HW233006   3.534   2.109  13.901  0.2009  2.7669  2.5368
 7183SOL     OW33007   4.501   4.436   2.271 -0.3898 -0.7645 -0.0835
 7183SOL    HW133008   4.512   4.359   2.327  2.8235 -1.0541 -1.1356
 7183SOL    HW233009   4.584   4.481   2.288 -1.0488 -0.2034  1.6555
 7184SOL     OW33010   0.745   3.100   6.216  0.2817 -0.0076 -0.2755
 7184SOL    HW133011   0.660   3.116   6.257 -0.0644 -0.5197 -0.7800
 7184SOL    HW233012   0.722   3.107   6.124 -1.6153  2.7297  0.4303
 7185SOL     OW33013   3.007   2.184   4.490 -0.0656 -0.3177 -0.6956
 7185SOL    HW133014   2.927   2.238   4.489  1.4137  1.8792 -1.3984
 7185SOL    HW233015   2.974   2.107   4.445 -1.6453 -1.0196  1.6156
 7186SOL     OW33016   2.418   0.503  12.047 -0.2207 -0.0203  0.1116
 7186SOL    HW133017   2.455   0.422  12.011  0.4562  0.2513  0.2054
 7186SOL    HW233018   2.455   0.514  12.134 -0.1077 -0.3029  0.0997
 7187SOL     OW33019   2.796   3.835   2.289  0.0219  0.0178 -0.5143
 7187SOL    HW133020   2.733   3.834   2.361 -0.6670 -2.8778 -1.1629
 7187SOL    HW233021   2.874   3.867   2.334 -0.1780  1.2444 -1.0438
 7188SOL     OW33022   3.786   1.357  10.472 -0.5924 -0.2884 -0.1809
 7188SOL    HW133023   3.863   1.385  10.423 -1.7793 -0.6365 -2.2177
 7188SOL    HW233024   3.826   1.296  10.534 -1.7752 -0.8455  0.0344
 7189SOL     OW33025   1.908   2.214   3.034  0.5372  0.4098 -1.2663
 7189SOL    HW133026   1.841   2.156   2.997  2.2494 -1.9839 -0.6186
 7189SOL    HW233027   1.848   2.243   3.104  2.9967  0.0831  0.9812
 7190SOL     OW33028   2.392   3.716  16.570  0.4713 -0.2139  0.0571
 7190SOL    HW133029   2.330   3.675  16.630 -2.4992  1.8844 -1.5475
 7190SOL    HW233030   2.331   3.780  16.532 -0.4045 -1.1158 -0.0613
 7191SOL     OW33031   3.968   4.678  15.888 -0.3117  0.7113 -0.5324
 7191SOL    HW133032   4.033   4.622  15.931  1.5167  2.5475 -0.9276
 7191SOL    HW233033   3.996   0.041  15.920  0.2249 -0.2980  1.7065
 7192SOL     OW33034   1.530   1.998   5.543 -0.1816 -0.3994  0.1481
 7192SOL    HW133035   1.475   2.017   5.619  1.6082 -1.1492  1.6197
 7192SOL    HW233036   1.562   1.915   5.579  0.4087  1.0337  2.9005
 7193SOL     OW33037   2.489   4.298  14.745 -0.2962 -0.0895 -0.1729
 7193SOL    HW133038   2.497   4.205  14.724  0.3372  0.0589 -0.5920
 7193SOL    HW233039   2.541   4.324  14.820 -2.0042 -0.9335  1.3117
 7194SOL     OW33040   1.948   2.946  13.846 -0.5395 -0.2248  0.6093
 7194SOL    HW133041   1.938   2.857  13.812 -0.8699 -0.6216  1.7447
 7194SOL    HW233042   1.899   2.941  13.928 -1.0052  1.5195  0.4371
 7195SOL     OW33043   0.568   1.077   2.672 -0.4893  0.6473 -0.0924
 7195SOL    HW133044   0.518   0.995   2.666  3.1361 -1.4050 -1.9138
 7195SOL    HW233045   0.592   1.089   2.580  0.0917  1.1220  0.1255
 7196SOL     OW33046   3.931   0.434   6.389  0.2331  0.0352  0.2374
 7196SOL    HW133047   3.922   0.425   6.294 -0.1476 -0.0015  0.2760
 7196SOL    HW233048   3.945   0.527   6.407 -2.5457  0.5278 -0.1630
 7197SOL     OW33049   0.012   0.987   0.554 -0.2150 -0.4438  0.3392
 7197SOL    HW133050   0.075   0.930   0.511  1.8207  3.5175 -1.8546
 7197SOL    HW233051   4.699   1.029   0.476 -2.5156 -4.7784 -0.9058
 7198SOL     OW33052   1.664   2.226   1.270  0.4357 -0.6073  0.0922
 7198SOL    HW133053   1.759   2.225   1.263  0.3967  1.6479 -0.7292
 7198SOL    HW233054   1.647   2.216   1.177  0.2633 -0.0266  0.0609
 7199SOL     OW33055   4.108   0.599  16.290 -0.7800 -0.8570 -0.0069
 7199SOL    HW133056   4.064   0.667  16.340  0.9862  0.8341 -0.7212
 7199SOL    HW233057   4.196   0.604  16.327 -0.0722  0.5658 -1.8480
 7200SOL     OW33058   3.239   3.593   4.348  0.5021  0.3127  0.1724
 7200SOL    HW133059   3.239   3.689   4.353  0.5472  0.2555  1.4650
 7200SOL    HW233060   3.147   3.573   4.333  0.3024  1.1165  0.2985
 7201SOL     OW33061   3.547   4.048   6.432 -0.1059 -0.3047 -0.0607
 7201SOL    HW133062   3.597   4.112   6.483  0.4149 -0.0707 -0.8696
 7201SOL    HW233063   3.571   3.964   6.469 -1.4548 -0.6994 -0.0649
 7202SOL     OW33064   2.972   4.217   2.127 -0.5089 -0.1726  0.0672
 7202SOL    HW133065   3.000   4.126   2.137  0.2292 -0.1116 -1.3875
 7202SOL    HW233066   2.882   4.214   2.160 -0.7259  0.4651 -0.4500
 7203SOL     OW33067   2.522   4.572   4.639 -0.3145  0.1272  0.3949
 7203SOL    HW133068   2.448   4.575   4.699 -0.1701  1.5720  0.4965
 7203SOL    HW233069   2.568   4.656   4.647  0.2253 -0.0975 -0.2897
 7204SOL     OW33070   1.145   0.581   4.762  0.1723 -0.0093  0.5417
 7204SOL    HW133071   1.202   0.535   4.823  2.4347 -0.3030 -1.7721
 7204SOL    HW233072   1.148   0.527   4.683 -0.2908 -1.1998  1.3479
 7205SOL     OW33073   3.757   0.487   6.607  0.1276 -0.0659 -0.3924
 7205SOL    HW133074   3.703   0.491   6.528 -1.3995 -3.0448  0.4786
 7205SOL    HW233075   3.835   0.449   6.566  1.0301  0.8390  0.4845
 7206SOL     OW33076   2.078   3.161  12.623  0.1636  0.0285 -0.0057
 7206SOL    HW133077   1.987   3.164  12.654 -0.0140  1.9902 -0.6693
 7206SOL    HW233078   2.120   3.215  12.690 -2.2599  0.6970  1.0080
 7207SOL     OW33079   2.485   1.418   2.707 -0.2092  0.5668  0.2813
 7207SOL    HW133080   2.546   1.378   2.646 -0.4423 -0.0803  0.4736
 7207SOL    HW233081   2.425   1.462   2.647 -1.5687  0.3027  1.4410
 7208SOL     OW33082   1.653   1.359   7.597 -0.0166 -0.3034 -0.3548
 7208SOL    HW133083   1.559   1.375   7.593  0.0530  0.1645 -0.1506
 7208SOL    HW233084   1.682   1.405   7.676  0.2201 -0.9179 -0.0901
 7209SOL     OW33085   2.494   0.803   8.444  0.1662 -0.1672  0.3268
 7209SOL    HW133086   2.485   0.782   8.351 -1.6172 -0.5491  0.5792
 7209SOL    HW233087   2.579   0.847   8.448  0.1728 -0.0915 -0.7303
 7210SOL     OW33088   4.480   1.991   8.875  0.0771  0.4342  0.3525
 7210SOL    HW133089   4.481   1.999   8.970  0.2966 -0.8553  0.4602
 7210SOL    HW233090   4.424   1.913   8.874  1.3615 -0.4760 -1.2038
 7211SOL     OW33091   1.404   2.583   3.862 -0.2449 -0.2351 -0.0102
 7211SOL    HW133092   1.490   2.541   3.866  0.4083  0.9956 -0.7469
 7211SOL    HW233093   1.423   2.658   3.918  0.0299 -0.0844 -0.3023
 7212SOL     OW33094   3.134   1.447  16.977 -0.0697  0.2761 -0.0338
 7212SOL    HW133095   3.166   1.458  17.066  2.5058 -1.3599 -0.7551
 7212SOL    HW233096   3.055   1.404  17.009 -0.4945  1.3011  0.2765
 7213SOL     OW33097   3.439   1.718  12.272 -0.0796  0.3691  0.0147
 7213SOL    HW133098   3.417   1.658  12.201 -0.0042  0.2268  0.1099
 7213SOL    HW233099   3.480   1.788  12.221 -0.0063 -0.9167 -1.6669
 7214SOL     OW33100   0.261   1.574   2.083  0.2644  0.8284  0.6205
 7214SOL    HW133101   0.232   1.659   2.113 -1.2154  0.2080  0.9290
 7214SOL    HW233102   0.350   1.572   2.117 -0.2625 -0.9336  1.9176
 7215SOL     OW33103   1.755   3.104   4.000  0.3421 -0.8935  0.3479
 7215SOL    HW133104   1.675   3.051   3.996 -0.1559 -0.2932  1.8111
 7215SOL    HW233105   1.806   3.079   3.924 -3.0169  1.0461 -2.5127
 7216SOL     OW33106   3.403   3.308   4.165 -0.3200 -0.3473  0.6253
 7216SOL    HW133107   3.410   3.319   4.070  1.4988  1.1593  0.9212
 7216SOL    HW233108   3.488   3.264   4.168  0.3227  0.9654  1.5532
 7217SOL     OW33109   1.130   0.531   3.497  0.3890 -0.1953  0.0105
 7217SOL    HW133110   1.185   0.503   3.424  0.8965 -0.0864  0.3488
 7217SOL    HW233111   1.144   0.452   3.550 -1.4365 -0.8519 -0.5148
 7218SOL     OW33112   4.641   0.356   8.527  0.9060 -0.3387 -0.4506
 7218SOL    HW133113   4.685   0.328   8.447 -0.5592 -0.2161 -1.2982
 7218SOL    HW233114   4.577   0.287   8.546 -0.6753  1.4591  0.7858
 7219SOL     OW33115   0.333   2.466   5.133  0.0150 -0.2011 -0.1668
 7219SOL    HW133116   0.256   2.471   5.191 -0.6064 -0.5990 -0.9563
 7219SOL    HW233117   0.404   2.507   5.181 -1.5702 -0.3219  2.3397
 7220SOL     OW33118   0.237   0.896   7.034 -0.6927  0.2091  0.1842
 7220SOL    HW133119   0.145   0.896   7.007 -0.4647  0.2589 -0.6077
 7220SOL    HW233120   0.238   0.831   7.104  0.1346 -0.1524 -0.1705
 7221SOL     OW33121   4.212   4.620   5.040  0.1724 -0.5294 -0.2267
 7221SOL    HW133122   4.150   4.601   5.111 -1.6392 -1.5914 -2.1083
 7221SOL    HW233123   4.149   4.638   4.971 -1.0087  0.6504  1.1553
 7222SOL     OW33124   1.956   1.990   7.091 -0.2372  0.0065  0.2319
 7222SOL    HW133125   1.991   2.023   7.008 -0.9304  0.5880  0.1710
 7222SOL    HW233126   2.003   1.908   7.102  0.7312  0.5236 -0.0680
 7223SOL     OW33127   3.915   1.315   2.047  0.4107 -0.1804  0.0449
 7223SOL    HW133128   3.885   1.382   2.108  1.1275  0.5495 -0.4105
 7223SOL    HW233129   3.993   1.273   2.081 -0.8864 -2.0919  0.6397
 7224SOL     OW33130   2.273   1.044   8.132 -0.0297  0.6620  0.6304
 7224SOL    HW133131   2.180   1.059   8.114  0.5301  0.5533 -2.2290
 7224SOL    HW233132   2.263   0.980   8.203  3.4503 -1.1962 -0.5944
 7225SOL     OW33133   0.861   3.175   0.330 -0.0947  0.0424 -0.0626
 7225SOL    HW133134   0.892   3.233   0.261  2.1310 -0.5216  0.4612
 7225SOL    HW233135   0.801   3.121   0.278 -0.8286 -1.8281  2.7057
 7226SOL     OW33136   0.584   1.687  16.020  0.2484 -0.0658  0.1841
 7226SOL    HW133137   0.602   1.735  16.101 -0.1604  1.4465 -0.6096
 7226SOL    HW233138   0.535   1.761  15.985 -1.3348 -0.7870  0.8537
 7227SOL     OW33139   1.050   4.117   3.070  0.0394 -0.2683  0.1386
 7227SOL    HW133140   1.090   4.071   3.144  2.2982  1.6628  0.1411
 7227SOL    HW233141   1.071   4.052   3.003  0.4817 -1.0925  1.0821
 7228SOL     OW33142   2.198   2.011   3.418  0.1172 -0.5710  0.0667
 7228SOL    HW133143   2.139   2.012   3.343  1.0994  0.1873 -0.6796
 7228SOL    HW233144   2.280   2.029   3.374 -0.2979  2.6670  0.6324
 7229SOL     OW33145   1.479   0.392   6.542 -0.5440 -0.5013 -0.1244
 7229SOL    HW133146   1.522   0.417   6.460 -0.5212 -1.5921 -0.4495
 7229SOL    HW233147   1.441   0.307   6.519  0.9524 -0.6589 -2.0764
 7230SOL     OW33148   1.096   0.529   2.220  0.6569 -0.2024  0.2885
 7230SOL    HW133149   1.076   0.517   2.127 -0.6077  0.0081  0.5324
 7230SOL    HW233150   1.015   0.569   2.251  0.1227 -0.6278 -0.5394
 7231SOL     OW33151   0.543   0.557   7.293 -0.5471 -0.6186 -0.2811
 7231SOL    HW133152   0.631   0.592   7.278 -0.8877  0.0197 -0.7952
 7231SOL    HW233153   0.496   0.633   7.260  0.2235  0.3200  0.8037
 7232SOL     OW33154   0.739   2.714   1.002 -0.2481  0.3429 -0.3198
 7232SOL    HW133155   0.695   2.633   1.027 -2.3583  0.5724 -3.1672
 7232SOL    HW233156   0.669   2.775   0.974  0.1103 -0.0159 -1.9993
 7233SOL     OW33157   1.071   3.581  15.503  0.2154  0.0740 -0.1413
 7233SOL    HW133158   1.025   3.663  15.485 -0.3304 -0.7917 -2.6230
 7233SOL    HW233159   1.017   3.530  15.563  1.8862 -0.0388  1.2662
 7234SOL     OW33160   1.765   2.544   3.577 -0.2157  0.0953 -0.0025
 7234SOL    HW133161   1.810   2.521   3.658  1.9490  0.4395 -1.0980
 7234SOL    HW233162   1.711   2.618   3.603  3.3464  2.4577  0.7517
 7235SOL     OW33163   1.137   2.758   8.159  0.0386 -0.6200 -0.4558
 7235SOL    HW133164   1.124   2.839   8.209  0.8380  0.0339 -1.3133
 7235SOL    HW233165   1.059   2.709   8.185  0.5198 -2.1468 -1.8809
 7236SOL     OW33166   0.369   3.795   5.656  0.2607  0.0854 -0.3587
 7236SOL    HW133167   0.456   3.757   5.668  1.0102  1.5551 -1.2673
 7236SOL    HW233168   0.384   3.886   5.682  0.4835  0.0479 -0.3537
 7237SOL     OW33169   1.010   2.141  15.344  1.0135  0.0997 -0.1000
 7237SOL    HW133170   1.012   2.102  15.256 -0.9775 -0.6125  0.1693
 7237SOL    HW233171   0.938   2.090  15.382  0.3140  1.3123  0.2140
 7238SOL     OW33172   2.390   3.890   8.764  0.5447  0.8076  0.3760
 7238SOL    HW133173   2.310   3.841   8.741 -0.7202  3.0255  0.0162
 7238SOL    HW233174   2.360   3.979   8.780 -1.7494 -0.3513  2.4985
 7239SOL     OW33175   2.422   4.541   3.727 -0.2743 -0.3691 -0.0288
 7239SOL    HW133176   2.448   4.632   3.742 -0.8343 -0.3198  0.6347
 7239SOL    HW233177   2.422   4.509   3.817  3.6174  0.4475  0.2724
 7240SOL     OW33178   2.553   2.548   1.197 -0.4049  0.1173 -0.2555
 7240SOL    HW133179   2.541   2.473   1.256  0.0898 -0.0297 -0.3365
 7240SOL    HW233180   2.481   2.537   1.135 -0.8154  0.3868  0.1769
 7241SOL     OW33181   0.981   1.898   4.690  0.6850  0.0686  0.0803
 7241SOL    HW133182   0.921   1.964   4.724  0.1942  0.6416 -1.9194
 7241SOL    HW233183   1.051   1.910   4.754  0.7779 -1.4168  0.2604
 7242SOL     OW33184   3.852   0.030  11.721  0.5650 -0.9879 -0.1864
 7242SOL    HW133185   3.783   0.032  11.788  1.1475 -3.0065  0.4932
 7242SOL    HW233186   3.843   4.667  11.679  1.0736 -0.9563 -0.3562
 7243SOL     OW33187   3.009   0.468   0.861 -0.5885  0.5530  0.1629
 7243SOL    HW133188   3.095   0.448   0.825 -1.7933 -3.4412 -0.4604
 7243SOL    HW233189   2.985   0.380   0.891 -1.4126  1.5787  2.4942
 7244SOL     OW33190   2.964   2.760   6.910 -0.1913  0.0769 -0.3377
 7244SOL    HW133191   2.909   2.684   6.927 -0.4965  0.7115  1.5694
 7244SOL    HW233192   3.007   2.783   6.993  0.7701  0.2377 -0.8789
 7245SOL     OW33193   1.180   3.148   3.859  0.2592  0.7299  0.3307
 7245SOL    HW133194   1.177   3.126   3.766 -2.7837  0.7953  0.4311
 7245SOL    HW233195   1.243   3.221   3.857  1.5240 -0.4222 -2.2041
 7246SOL     OW33196   4.565   4.651   4.618 -0.8060  0.0815 -0.3961
 7246SOL    HW133197   4.514   4.717   4.665 -3.0668 -0.8499 -1.5602
 7246SOL    HW233198   4.498   4.583   4.607  0.5765 -1.2724 -0.5394
 7247SOL     OW33199   0.119   4.590  12.517  0.6696 -0.3062 -0.0662
 7247SOL    HW133200   0.083   4.562  12.601  0.6932  1.9053  0.6700
 7247SOL    HW233201   0.168   4.671  12.535  1.1724 -0.6381  0.0650
 7248SOL     OW33202   4.144   3.522   8.422 -0.5349  0.6536 -0.2069
 7248SOL    HW133203   4.078   3.537   8.489 -0.9116 -0.7321 -0.2647
 7248SOL    HW233204   4.192   3.604   8.431 -1.9573  1.6671 -1.7668
 7249SOL     OW33205   2.241   1.551  13.224  0.0445 -0.0424  0.0653
 7249SOL    HW133206   2.188   1.553  13.304 -1.7170 -1.7122 -1.0824
 7249SOL    HW233207   2.305   1.619  13.245 -0.2058 -0.2240  1.4264
 7250SOL     OW33208   3.539   0.491   2.088 -0.0445 -0.4918  0.3899
 7250SOL    HW133209   3.512   0.575   2.052 -0.8682 -1.5624 -1.5036
 7250SOL    HW233210   3.477   0.499   2.161 -3.0687  1.0870 -2.3329
 7251SOL     OW33211   0.580   3.923   0.687 -0.2149 -0.3212  0.1880
 7251SOL    HW133212   0.539   3.837   0.693 -2.3725  0.6587 -0.2285
 7251SOL    HW233213   0.547   3.954   0.602 -2.3593  0.1322  1.1747
 7252SOL     OW33214   3.929   1.623   9.517 -0.4131 -0.2271 -0.0082
 7252SOL    HW133215   3.948   1.717   9.513  0.9497 -0.4229  1.4657
 7252SOL    HW233216   4.015   1.593   9.486 -0.0346  1.3246 -0.5011
 7253SOL     OW33217   3.147   0.817   2.782 -0.4622  0.5561 -0.1190
 7253SOL    HW133218   3.186   0.904   2.770 -1.6082  0.9142 -1.2735
 7253SOL    HW233219   3.058   0.849   2.797 -0.5249  0.3622 -0.0749
 7254SOL     OW33220   4.533   1.260  14.474 -0.3981 -0.8560  0.3004
 7254SOL    HW133221   4.449   1.255  14.520 -1.3931 -1.8818 -1.6386
 7254SOL    HW233222   4.531   1.170  14.442  1.1189 -0.3492 -1.2159
 7255SOL     OW33223   2.622   0.764   3.115  0.1957  0.2298  0.6703
 7255SOL    HW133224   2.670   0.715   3.181 -0.3452 -2.8484 -1.2665
 7255SOL    HW233225   2.602   0.852   3.150 -0.1607 -0.6384  2.6725
 7256SOL     OW33226   2.505   2.879   6.068  0.2962  0.3763  0.3596
 7256SOL    HW133227   2.476   2.891   6.158 -0.6935  0.0232  0.0823
 7256SOL    HW233228   2.462   2.957   6.032  0.8999  0.5818  0.0622
 7257SOL     OW33229   0.503   1.540   7.965 -0.0512 -0.2086  0.0678
 7257SOL    HW133230   0.531   1.586   8.044  0.7452  1.7243 -1.3422
 7257SOL    HW233231   0.553   1.458   7.967 -1.5664 -1.1397 -0.3199
 7258SOL     OW33232   3.940   3.492   7.788  0.0622  0.2668 -0.1118
 7258SOL    HW133233   3.897   3.442   7.857 -0.4766 -0.5735 -1.0475
 7258SOL    HW233234   4.024   3.501   7.833 -2.0468  0.3779  3.8368
 7259SOL     OW33235   0.184   1.503   9.725 -0.2613 -0.0948  0.4571
 7259SOL    HW133236   0.109   1.560   9.714 -0.6507 -1.0788 -1.9118
 7259SOL    HW233237   0.249   1.565   9.757 -0.2963  0.2078 -0.0629
 7260SOL     OW33238   0.036   0.284  15.641 -0.0694  0.4901  0.0520
 7260SOL    HW133239   0.030   0.192  15.667  1.4741 -0.0713 -1.5449
 7260SOL    HW233240   0.125   0.292  15.606  0.1212 -0.4096  0.3206
 7261SOL     OW33241   1.136   2.989   5.526  0.1311 -0.0421  0.6029
 7261SOL    HW133242   1.047   3.015   5.503  0.2836 -0.8893 -0.9087
 7261SOL    HW233243   1.185   3.043   5.464  1.6399  0.9723  2.6869
 7262SOL     OW33244   0.411   1.602  12.713  0.2830 -0.1231 -0.2925
 7262SOL    HW133245   0.494   1.563  12.686  1.2742  0.7800  1.4374
 7262SOL    HW233246   0.385   1.654  12.637  0.4712  2.0772  1.1674
 7263SOL     OW33247   2.952   1.031   5.965  0.3344 -0.4346 -0.1387
 7263SOL    HW133248   2.883   0.991   6.019  0.1764 -1.2674 -0.9727
 7263SOL    HW233249   2.961   0.964   5.898  2.2422  0.5701 -0.8806
 7264SOL     OW33250   0.603   3.077  14.198  0.0806 -0.1249  0.2442
 7264SOL    HW133251   0.542   3.129  14.146 -0.8261 -1.6803 -0.2511
 7264SOL    HW233252   0.653   3.043  14.123 -1.2730 -2.1985  0.2684
 7265SOL     OW33253   1.120   3.697   1.560  0.1584 -0.5444 -0.1094
 7265SOL    HW133254   1.037   3.744   1.550 -0.0307 -1.3774 -2.4139
 7265SOL    HW233255   1.177   3.761   1.519  1.0619 -1.6163 -0.5300
 7266SOL     OW33256   1.224   4.524   9.451  0.2718 -0.1013 -0.1611
 7266SOL    HW133257   1.320   4.518   9.447  0.1154 -2.6312 -0.2089
 7266SOL    HW233258   1.206   4.500   9.542 -0.2256 -0.4321 -0.3442
 7267SOL     OW33259   0.469   0.010   3.951  0.3160 -0.4323 -0.6487
 7267SOL    HW133260   0.505   4.699   4.034 -0.9469  0.3532  0.2147
 7267SOL    HW233261   0.523   0.088   3.938 -1.2635  0.5062 -1.4642
 7268SOL     OW33262   1.588   4.264   8.578 -0.1281  0.0544  0.1126
 7268SOL    HW133263   1.638   4.183   8.587 -0.2239  0.0125  0.2497
 7268SOL    HW233264   1.502   4.227   8.596  0.1764 -0.0056  1.4414
 7269SOL     OW33265   4.164   3.821   7.220  0.3299  0.1211  0.1900
 7269SOL    HW133266   4.245   3.771   7.222 -0.3415 -0.9112  1.7116
 7269SOL    HW233267   4.176   3.859   7.133  1.6896 -0.6109  0.0660
 7270SOL     OW33268   0.405   3.638   9.845  0.2186  0.0461 -0.4554
 7270SOL    HW133269   0.354   3.570   9.802  1.2637 -0.1290 -1.4103
 7270SOL    HW233270   0.431   3.594   9.925 -1.8230 -0.2041  0.0911
 7271SOL     OW33271   2.991   4.180   0.988  0.2972 -0.3654 -0.7049
 7271SOL    HW133272   3.038   4.136   1.058 -1.0337 -1.5338 -0.5438
 7271SOL    HW233273   2.921   4.232   1.029 -0.5181 -1.2204 -1.0127
 7272SOL     OW33274   3.672   0.451   7.059 -0.2860 -0.0668  0.4953
 7272SOL    HW133275   3.663   0.509   7.134  3.4763 -1.3225  1.9637
 7272SOL    HW233276   3.612   0.487   6.994 -0.5160 -2.4898 -0.6289
 7273SOL     OW33277   0.971   1.391   3.564  0.1641  0.2095 -0.6546
 7273SOL    HW133278   1.037   1.397   3.633 -1.9689 -1.4664  1.5683
 7273SOL    HW233279   0.886   1.410   3.604  0.6918 -0.8369  0.9571
 7274SOL     OW33280   4.653   0.920   6.093 -0.2500 -0.0441 -0.4015
 7274SOL    HW133281   4.597   0.982   6.047 -0.4880  0.9208  1.1950
 7274SOL    HW233282   4.698   0.873   6.023 -0.7034  0.5595 -1.0943
 7275SOL     OW33283   4.259   3.753   2.000  0.0130  0.4300  0.3931
 7275SOL    HW133284   4.307   3.683   1.956  1.5555  1.6835  0.0683
 7275SOL    HW233285   4.218   3.695   2.064  0.7048  0.9242  1.2814
 7276SOL     OW33286   3.495   2.792   3.749 -0.3334 -0.4596 -0.0493
 7276SOL    HW133287   3.554   2.805   3.823  0.9772 -2.0811 -0.8038
 7276SOL    HW233288   3.451   2.708   3.760 -0.2556 -0.7106 -1.6955
 7277SOL     OW33289   2.956   4.186  10.372  0.4417 -0.3317 -0.4748
 7277SOL    HW133290   2.996   4.271  10.391  0.1891 -0.1761 -0.6466
 7277SOL    HW233291   2.892   4.202  10.303 -0.4775  0.7335  0.6125
 7278SOL     OW33292   0.538   0.485  13.189 -0.3761  0.8136 -0.0302
 7278SOL    HW133293   0.522   0.432  13.111 -0.0122 -1.2698  1.2998
 7278SOL    HW233294   0.452   0.513  13.222 -1.8470 -2.6766 -0.9004
 7279SOL     OW33295   0.317   3.888   4.965  0.7167  0.0852 -0.0261
 7279SOL    HW133296   0.325   3.806   4.917 -1.2051 -1.3953  2.1543
 7279SOL    HW233297   0.245   3.929   4.917  1.3064 -0.8706 -1.7002
 7280SOL     OW33298   3.815   4.338   5.154 -0.1885  0.2848 -0.1492
 7280SOL    HW133299   3.871   4.405   5.114  0.6341 -0.9312 -1.0328
 7280SOL    HW233300   3.759   4.401   5.200 -1.7214 -0.8954 -0.4232
 7281SOL     OW33301   1.815   3.838  11.297 -0.4338 -0.5802  0.0222
 7281SOL    HW133302   1.908   3.854  11.287 -0.6716  0.8747  0.1761
 7281SOL    HW233303   1.773   3.817  11.213 -0.2169  1.2445 -0.5376
 7282SOL     OW33304   4.364   0.989  10.108  0.1539 -0.5397 -0.0073
 7282SOL    HW133305   4.368   0.971  10.202 -2.9034  1.5305  0.5388
 7282SOL    HW233306   4.428   1.059  10.103 -0.8894  0.5367  1.8253
 7283SOL     OW33307   0.939   1.975  13.074  0.2487  0.3048  0.9670
 7283SOL    HW133308   0.970   1.914  13.007 -0.9821  0.7449 -0.0081
 7283SOL    HW233309   0.892   2.040  13.021 -2.1061 -1.4043  0.9619
 7284SOL     OW33310   1.759   2.701   4.017 -0.2997  0.0553 -0.3680
 7284SOL    HW133311   1.674   2.698   4.061  0.8448  0.9005  1.9097
 7284SOL    HW233312   1.761   2.614   3.978  0.4556  0.8643 -2.1509
 7285SOL     OW33313   0.263   0.558   4.304  0.6054  0.0550  0.0844
 7285SOL    HW133314   0.345   0.510   4.318 -1.1618 -2.8488  0.3828
 7285SOL    HW233315   0.301   0.637   4.263  0.8958 -0.1419 -0.0310
 7286SOL     OW33316   2.762   0.794   4.261 -0.0062 -0.2502 -0.0540
 7286SOL    HW133317   2.813   0.713   4.266 -0.0248 -0.2389  0.3159
 7286SOL    HW233318   2.672   0.769   4.242 -0.8935 -0.0117  3.8100
 7287SOL     OW33319   1.888   4.021   7.290 -0.3511 -0.2169  0.2338
 7287SOL    HW133320   1.849   4.080   7.354  1.7148  0.2368  1.0781
 7287SOL    HW233321   1.967   3.991   7.335  0.2414  2.8957  1.2028
 7288SOL     OW33322   4.289   1.007   1.727  0.8700 -0.0371  0.2564
 7288SOL    HW133323   4.363   0.948   1.711  1.1029  0.2654  0.2249
 7288SOL    HW233324   4.332   1.089   1.751 -0.1904  0.8096 -0.7404
 7289SOL     OW33325   2.759   0.513  11.985  0.2208  0.5645  0.3118
 7289SOL    HW133326   2.716   0.449  11.927  0.0270 -0.8134  1.9867
 7289SOL    HW233327   2.746   0.459  12.063 -0.6494 -0.0681 -0.2718
 7290SOL     OW33328   3.151   2.621   0.242 -0.2931  0.4492 -0.4856
 7290SOL    HW133329   3.065   2.662   0.228 -0.2974  0.8784  0.7711
 7290SOL    HW233330   3.123   2.585   0.326  0.9991 -0.5296 -0.4853
 7291SOL     OW33331   0.649   2.563   2.733  0.1151 -0.3179  0.8817
 7291SOL    HW133332   0.579   2.537   2.792 -0.9254  1.1062  0.2801
 7291SOL    HW233333   0.585   2.578   2.663 -0.1417 -2.6257  0.6046
 7292SOL     OW33334   1.696   0.500   4.437 -0.6810 -0.2045 -0.1534
 7292SOL    HW133335   1.684   0.594   4.426  0.3451 -0.0674 -0.1799
 7292SOL    HW233336   1.770   0.499   4.498  0.2272 -0.7761 -1.2560
 7293SOL     OW33337   2.439   1.551   9.516 -0.8277  0.1786 -0.5825
 7293SOL    HW133338   2.348   1.580   9.516 -1.7836 -2.8536 -2.0026
 7293SOL    HW233339   2.481   1.629   9.477 -1.4675  1.8398  2.0338
 7294SOL     OW33340   3.596   2.173   3.634 -0.3712 -0.0749  0.3058
 7294SOL    HW133341   3.579   2.088   3.593  1.5649 -1.4148  2.3123
 7294SOL    HW233342   3.678   2.192   3.589 -2.1022  2.1111 -1.9153
 7295SOL     OW33343   4.239   2.240   2.883  0.2806  0.0420 -0.2640
 7295SOL    HW133344   4.207   2.279   2.802 -2.1598  0.6326  0.9529
 7295SOL    HW233345   4.316   2.194   2.851  0.1984 -2.0515  2.5317
 7296SOL     OW33346   3.006   1.815   3.047  0.2993  0.6568 -0.0049
 7296SOL    HW133347   3.091   1.858   3.058  1.0319 -0.4572 -1.2684
 7296SOL    HW233348   2.966   1.854   2.969 -3.1851 -0.1392  1.3790
 7297SOL     OW33349   3.151   1.831   4.545 -0.4466 -0.2740 -0.0002
 7297SOL    HW133350   3.103   1.887   4.483  2.6674  1.7587 -0.5588
 7297SOL    HW233351   3.102   1.754   4.516  0.7937 -0.9095 -0.3827
 7298SOL     OW33352   4.355   2.866   8.854  0.0939 -0.5517  0.1750
 7298SOL    HW133353   4.322   2.895   8.769  0.4403 -1.4067 -0.2571
 7298SOL    HW233354   4.309   2.787   8.882 -0.0174 -0.5767 -0.0849
 7299SOL     OW33355   1.911   0.207  12.773 -0.3103  0.4314  0.4282
 7299SOL    HW133356   1.844   0.173  12.832  0.2947 -0.8095  0.3969
 7299SOL    HW233357   1.984   0.215  12.835  0.3423  0.5028 -0.3408
 7300SOL     OW33358   4.070   2.072   8.745  0.3893 -0.2847  0.2111
 7300SOL    HW133359   4.120   2.148   8.776 -2.7601  1.1301  1.7693
 7300SOL    HW233360   3.983   2.083   8.782  1.0598 -0.6729  1.9085
 7301SOL     OW33361   2.373   2.132   0.301 -0.1567 -0.0452 -0.6575
 7301SOL    HW133362   2.441   2.173   0.355 -2.0367 -0.1516  1.8156
 7301SOL    HW233363   2.371   2.190   0.226 -2.2439  0.7612  0.0027
 7302SOL     OW33364   0.022   1.164  11.272  0.5981  0.0365  0.1702
 7302SOL    HW133365   0.026   1.069  11.272  2.1232  0.1138  0.4991
 7302SOL    HW233366   0.046   1.189  11.361  1.3735  0.6010 -0.1956
 7303SOL     OW33367   2.796   1.933   9.472 -0.3147  0.0646 -0.5282
 7303SOL    HW133368   2.890   1.953   9.473 -0.0546 -1.2300  0.7136
 7303SOL    HW233369   2.760   2.021   9.466  1.2679  0.5972 -2.3973
 7304SOL     OW33370   2.099   2.015   6.840  0.1917  0.8134  0.2872
 7304SOL    HW133371   2.059   2.045   6.759 -0.5839  1.7412  1.0059
 7304SOL    HW233372   2.139   1.930   6.820  0.5419  0.5539  2.0729
 7305SOL     OW33373   1.397   1.738   0.249 -0.2605 -0.0365  0.0734
 7305SOL    HW133374   1.450   1.756   0.171  1.3773 -0.0340  1.1815
 7305SOL    HW233375   1.427   1.649   0.268 -1.1194 -0.3565 -0.0511
 7306SOL     OW33376   3.264   1.645   6.662 -0.1793  0.0492 -0.3739
 7306SOL    HW133377   3.257   1.622   6.754  0.4135  3.9469  0.6435
 7306SOL    HW233378   3.356   1.661   6.643  0.1593 -1.8391 -0.3553
 7307SOL     OW33379   2.196   0.042   6.258 -0.4802 -0.9736 -0.1217
 7307SOL    HW133380   2.137   4.699   6.221 -1.6312  0.4797 -0.8726
 7307SOL    HW233381   2.212   0.104   6.186 -2.3575  0.3961  0.6477
 7308SOL     OW33382   1.440   2.413   6.826  0.0811  0.6077 -0.4045
 7308SOL    HW133383   1.493   2.456   6.759  1.8011 -1.0082 -0.1040
 7308SOL    HW233384   1.457   2.467   6.904  0.6728  0.9538 -0.7704
 7309SOL     OW33385   4.426   0.753   6.051  0.2838 -0.0398 -0.3971
 7309SOL    HW133386   4.470   0.755   5.965  3.3913 -3.7496  1.1094
 7309SOL    HW233387   4.433   0.845   6.078  0.8317 -0.4782  0.9583
 7310SOL     OW33388   0.274   0.251   3.848 -0.2018 -0.1025  0.1230
 7310SOL    HW133389   0.241   0.192   3.781 -0.6394  0.2432  0.0345
 7310SOL    HW233390   0.352   0.291   3.808 -1.8699  0.1890 -2.8128
 7311SOL     OW33391   1.989   1.552   8.574  0.0194  0.3389 -0.0783
 7311SOL    HW133392   2.048   1.595   8.512  0.1890  0.9200  0.4841
 7311SOL    HW233393   1.927   1.520   8.508  1.9978  0.9132 -2.1908
 7312SOL     OW33394   1.126   2.834   0.805  0.0877  0.3865 -0.0935
 7312SOL    HW133395   1.065   2.906   0.787 -0.0644  0.5341  1.0057
 7312SOL    HW233396   1.080   2.793   0.878 -0.2551  1.5545  0.3470
 7313SOL     OW33397   3.242   1.714   7.124 -0.5240 -0.3388  0.2204
 7313SOL    HW133398   3.238   1.633   7.073  0.4478 -1.0254  1.2603
 7313SOL    HW233399   3.225   1.780   7.057  1.7670  0.3285  0.2918
 7314SOL     OW33400   0.328   3.084   7.024  0.5883  0.4359 -0.6371
 7314SOL    HW133401   0.300   3.173   7.044 -2.3068 -0.6623  0.1926
 7314SOL    HW233402   0.312   3.042   7.109 -1.9868  1.2878 -0.6922
 7315SOL     OW33403   2.696   1.466   4.819  0.2367  0.2399  0.7789
 7315SOL    HW133404   2.779   1.509   4.802  0.4542 -0.9091 -1.0944
 7315SOL    HW233405   2.637   1.541   4.822  2.3008  1.8772  0.0614
 7316SOL     OW33406   1.497   1.838  16.787 -0.1223 -0.1126  0.0473
 7316SOL    HW133407   1.455   1.775  16.729 -0.9752  0.6649 -0.1783
 7316SOL    HW233408   1.564   1.873  16.729 -0.1695  0.8467  0.5757
 7317SOL     OW33409   1.103   2.547   5.141 -0.2514  0.0116 -0.1719
 7317SOL    HW133410   1.064   2.460   5.137 -1.6928  0.4853  3.1910
 7317SOL    HW233411   1.107   2.563   5.047  0.4743  0.5613 -0.0455
 7318SOL     OW33412   1.193   2.759   0.046  0.5757  0.7123  0.2347
 7318SOL    HW133413   1.272   2.727   0.089 -0.4315 -2.5633 -0.3887
 7318SOL    HW233414   1.208   2.723  17.651  0.8279  0.6910  0.2860
 7319SOL     OW33415   3.096   3.686  16.900  0.0535  0.5529  0.3330
 7319SOL    HW133416   3.129   3.764  16.857  1.7230  0.0317  0.6810
 7319SOL    HW233417   3.067   3.727  16.981  0.8630 -0.4821  1.1397
 7320SOL     OW33418   2.900   0.207   2.357  0.1642  0.4223 -0.3455
 7320SOL    HW133419   2.993   0.221   2.376  0.7986 -3.2018 -0.8095
 7320SOL    HW233420   2.899   0.164   2.272  0.5727 -0.0315 -0.1215
 7321SOL     OW33421   2.031   2.324   8.751  0.3217  0.9182 -0.0575
 7321SOL    HW133422   2.017   2.248   8.807 -1.4932  2.5626  1.7220
 7321SOL    HW233423   1.969   2.389   8.783 -0.2542  0.8169 -0.9757
 7322SOL     OW33424   4.162   2.449   5.256 -0.2229 -0.0934 -0.2838
 7322SOL    HW133425   4.243   2.450   5.205  0.2259 -0.0251  0.4206
 7322SOL    HW233426   4.196   2.472   5.343 -1.7852 -4.5105  1.5383
 7323SOL     OW33427   0.421   3.315   3.843 -0.0323  0.5538  0.8775
 7323SOL    HW133428   0.426   3.393   3.788 -2.9614  0.3033  0.2119
 7323SOL    HW233429   0.454   3.344   3.928  0.7935  2.3278 -0.0484
 7324SOL     OW33430   1.217   4.254   6.857  0.0003 -0.5568  0.0052
 7324SOL    HW133431   1.265   4.175   6.881 -0.2322 -0.8738 -0.5627
 7324SOL    HW233432   1.189   4.283   6.943  0.7528 -2.0023  0.7376
 7325SOL     OW33433   4.332   3.693  17.109 -0.2285  0.5876  1.2924
 7325SOL    HW133434   4.253   3.746  17.097 -0.1232  0.2924 -0.6555
 7325SOL    HW233435   4.395   3.758  17.079  0.1841 -0.4110 -0.0080
 7326SOL     OW33436   3.747   3.557  13.990  0.3011  0.2861 -0.4447
 7326SOL    HW133437   3.662   3.601  13.986  0.0631 -0.0441  1.1087
 7326SOL    HW233438   3.742   3.535  14.083  4.2184 -0.8276 -0.4970
 7327SOL     OW33439   0.439   4.036  14.727 -0.3681  0.0608  0.6991
 7327SOL    HW133440   0.422   4.092  14.652  1.3235 -1.4990 -0.8307
 7327SOL    HW233441   0.349   4.036  14.759 -0.4768 -0.7864  0.3886
 7328SOL     OW33442   1.312   0.236   9.215 -0.1713 -0.3353  0.6393
 7328SOL    HW133443   1.368   0.304   9.177  2.2688 -2.2453  0.8825
 7328SOL    HW233444   1.295   0.280   9.299  1.5432  1.8342 -0.1698
 7329SOL     OW33445   3.308   4.577  16.260  0.5848 -0.0815 -0.0975
 7329SOL    HW133446   3.372   4.646  16.243 -0.5663  1.1689  0.5638
 7329SOL    HW233447   3.236   4.628  16.299  1.0046 -0.3745  1.0366
 7330SOL     OW33448   1.371   2.950  16.412  0.6435  0.2174  0.4389
 7330SOL    HW133449   1.432   2.892  16.457 -0.0126  0.8200  2.1064
 7330SOL    HW233450   1.348   2.881  16.350 -1.6686  1.0137  0.4136
 7331SOL     OW33451   0.457   0.463   8.808  0.0809  0.1018 -0.5822
 7331SOL    HW133452   0.485   0.546   8.845  2.4694 -1.1697  0.4543
 7331SOL    HW233453   0.478   0.479   8.716 -0.8370 -0.1785 -0.8431
 7332SOL     OW33454   3.137   3.754   3.290 -0.0383 -0.1611  0.2120
 7332SOL    HW133455   3.225   3.750   3.327  0.6208 -3.2037 -1.6033
 7332SOL    HW233456   3.123   3.837   3.334  2.2486  1.4586 -2.1148
 7333SOL     OW33457   1.703   2.002   9.712  0.3876 -0.0570 -0.2402
 7333SOL    HW133458   1.638   1.932   9.713 -0.0516  0.3466 -1.5957
 7333SOL    HW233459   1.728   2.011   9.804 -1.3040  1.2579  0.1032
 7334SOL     OW33460   3.132   1.436  12.629 -0.4486 -0.1130 -0.8107
 7334SOL    HW133461   3.226   1.428  12.613 -0.1294 -2.5147  2.2114
 7334SOL    HW233462   3.102   1.467  12.544  0.9386  0.1035 -1.2119
 7335SOL     OW33463   3.405   1.626   4.111 -0.2537  0.5866  0.4255
 7335SOL    HW133464   3.329   1.640   4.168 -1.3157 -0.5561 -0.7229
 7335SOL    HW233465   3.401   1.531   4.099  0.6469  0.5768  0.2131
 7336SOL     OW33466   2.909   3.128  16.644  0.1347  0.0223  0.9620
 7336SOL    HW133467   2.898   3.107  16.551  3.1067  3.8278 -0.2113
 7336SOL    HW233468   2.945   3.216  16.639 -0.5795  0.2414 -0.3706
 7337SOL     OW33469   2.755   2.320   3.164  0.0955 -0.1275  0.2134
 7337SOL    HW133470   2.845   2.290   3.149  0.4786 -0.1932  2.6750
 7337SOL    HW233471   2.750   2.383   3.092 -2.8808 -2.8992 -2.0075
 7338SOL     OW33472   4.559   1.938   8.490  0.3691  0.7035  0.0443
 7338SOL    HW133473   4.487   1.958   8.431 -0.4862 -0.1715  0.7811
 7338SOL    HW233474   4.603   1.881   8.427 -0.6723  1.1895 -1.1286
 7339SOL     OW33475   3.435   0.140  12.051  0.4180  0.3788 -0.6485
 7339SOL    HW133476   3.358   0.166  12.101  0.3524  0.5328 -0.8299
 7339SOL    HW233477   3.404   0.161  11.963 -0.5401  0.7365 -0.2202
 7340SOL     OW33478   1.815   4.601  16.594 -0.1855 -0.0231  0.4472
 7340SOL    HW133479   1.853   4.626  16.678  0.3070  1.1715 -0.1351
 7340SOL    HW233480   1.744   4.541  16.617  0.6911 -1.3235 -0.2124
 7341SOL     OW33481   0.623   3.809  16.200  0.8999  0.0283  0.3335
 7341SOL    HW133482   0.527   3.806  16.209  1.0028 -1.9239  0.7894
 7341SOL    HW233483   0.642   3.717  16.217  3.0219  0.5529  0.7523
 7342SOL     OW33484   0.516   4.192  16.314 -0.0277 -0.0501 -0.0920
 7342SOL    HW133485   0.601   4.202  16.357 -0.4491 -0.4042  0.8098
 7342SOL    HW233486   0.466   4.151  16.385 -0.7546 -1.1865 -1.2593
 7343SOL     OW33487   1.322   3.076  11.929 -0.2081 -0.4985 -0.2209
 7343SOL    HW133488   1.252   3.052  11.868 -1.0865 -1.9280  1.3629
 7343SOL    HW233489   1.259   3.101  11.996 -1.3643  0.4065 -1.6419
 7344SOL     OW33490   0.787   0.291   5.667 -0.2909 -0.1126 -0.4479
 7344SOL    HW133491   0.843   0.299   5.590 -1.1652 -1.0067 -1.1726
 7344SOL    HW233492   0.766   0.383   5.682  0.1500 -0.0062 -0.4924
 7345SOL     OW33493   4.326   4.709   3.430  0.0926 -0.0874 -0.0056
 7345SOL    HW133494   4.266   0.023   3.365 -0.2840 -0.8604 -0.0923
 7345SOL    HW233495   4.300   4.617   3.433  0.8893 -0.3399 -0.9259
 7346SOL     OW33496   2.718   3.981   6.122 -0.6221  0.4970  0.0588
 7346SOL    HW133497   2.676   4.066   6.131  1.7554  1.7634 -0.8638
 7346SOL    HW233498   2.664   3.913   6.162  0.1474 -0.2825 -0.2193
 7347SOL     OW33499   3.566   0.799   6.690 -0.4103  0.2822  0.0023
 7347SOL    HW133500   3.483   0.764   6.660 -0.0223 -0.5270 -0.1369
 7347SOL    HW233501   3.543   0.856   6.765  1.7175  0.4415  0.5437
 7348SOL     OW33502   3.501   3.966   3.741  0.4625 -0.3004  0.4443
 7348SOL    HW133503   3.583   3.996   3.700  0.4852  3.6905  3.4138
 7348SOL    HW233504   3.534   3.944   3.828 -0.8106 -2.9780  0.2604
 7349SOL     OW33505   2.747   0.857   3.911  0.0472  0.2625 -0.0063
 7349SOL    HW133506   2.734   0.904   3.993 -1.0434  0.9675 -0.5782
 7349SOL    HW233507   2.693   0.905   3.848 -1.9149 -2.7735 -0.6486
 7350SOL     OW33508   0.673   2.505  15.371  0.1346  0.1058  0.4572
 7350SOL    HW133509   0.752   2.544  15.408 -0.6603  1.2815  0.9400
 7350SOL    HW233510   0.676   2.425  15.423 -0.4188  0.2525  0.7111
 7351SOL     OW33511   2.773   3.107   7.988  0.0203  0.6084 -1.5557
 7351SOL    HW133512   2.858   3.134   7.952  1.0027 -3.5633 -2.3599
 7351SOL    HW233513   2.807   3.073   8.072 -0.4063  1.0894 -1.1928
 7352SOL     OW33514   1.903   4.410   6.425 -0.4603 -0.7574 -0.6167
 7352SOL    HW133515   1.855   4.438   6.503  3.7715  1.0055  1.3560
 7352SOL    HW233516   1.892   4.491   6.375  2.4773  1.3114  2.0860
 7353SOL     OW33517   3.710   1.245   8.471  0.4152 -0.4851  0.3482
 7353SOL    HW133518   3.710   1.234   8.376 -0.7243  0.1433  0.2783
 7353SOL    HW233519   3.715   1.341   8.468  0.3300 -0.4707  0.6662
 7354SOL     OW33520   4.534   2.363   3.854 -0.7112  0.1991 -0.1018
 7354SOL    HW133521   4.568   2.451   3.869  1.6540 -0.8174  0.5197
 7354SOL    HW233522   4.605   2.322   3.804 -0.0642  0.0451  0.9403
 7355SOL     OW33523   3.752   1.392   7.838 -0.1531  0.0527  0.5248
 7355SOL    HW133524   3.796   1.453   7.779  0.5750 -3.0071 -2.1332
 7355SOL    HW233525   3.669   1.430   7.866 -0.5770 -0.7886  0.4245
 7356SOL     OW33526   2.244   2.137   4.082  0.3591  0.1920 -0.3159
 7356SOL    HW133527   2.292   2.220   4.078 -1.4342  1.2883  1.0214
 7356SOL    HW233528   2.188   2.139   4.005  0.7155 -1.3490 -0.6092
 7357SOL     OW33529   2.881   3.391   5.057 -0.0634  0.5623 -0.0876
 7357SOL    HW133530   2.802   3.344   5.083  0.9200 -0.7784  0.4171
 7357SOL    HW233531   2.864   3.478   5.095 -3.2528  0.5930 -1.5550
 7358SOL     OW33532   1.837   2.881   5.109 -0.1639  0.0128  0.0764
 7358SOL    HW133533   1.859   2.820   5.038  0.8072 -0.8960  1.1588
 7358SOL    HW233534   1.925   2.911   5.130  0.0636  0.1107 -1.0149
 7359SOL     OW33535   0.358   3.536   6.250 -0.0523 -0.7721 -0.3254
 7359SOL    HW133536   0.269   3.565   6.266  0.5815 -0.2046  2.1525
 7359SOL    HW233537   0.384   3.496   6.333 -1.4876 -1.5555 -0.2493
 7360SOL     OW33538   1.845   0.634  14.543 -0.1180  0.0858  0.1772
 7360SOL    HW133539   1.773   0.692  14.517 -1.0312 -1.7189 -1.3219
 7360SOL    HW233540   1.788   0.560  14.565  1.7978 -2.1535 -2.5834
 7361SOL     OW33541   1.245   2.962   1.520  0.1754  0.1847  0.4090
 7361SOL    HW133542   1.323   2.966   1.464  0.4584  1.1963  0.8701
 7361SOL    HW233543   1.258   3.044   1.569 -1.6559  0.1266  1.0041
 7362SOL     OW33544   2.236   4.187   6.643 -0.7891  0.4680  0.3315
 7362SOL    HW133545   2.140   4.192   6.641 -0.5647  4.0346 -0.4516
 7362SOL    HW233546   2.248   4.208   6.551 -1.0200  1.7173  0.5900
 7363SOL     OW33547   0.434   0.076   7.367 -0.0181  0.0525 -0.0465
 7363SOL    HW133548   0.495   0.032   7.308  0.8807 -1.1292  1.7689
 7363SOL    HW233549   0.418   0.162   7.327  1.1487  0.7914  1.0764
 7364SOL     OW33550   3.910   1.337   6.592  0.1193  0.0453  0.4898
 7364SOL    HW133551   3.894   1.336   6.686 -0.1083 -0.0156  0.4489
 7364SOL    HW233552   3.969   1.263   6.579  0.0819 -0.5976  4.2539
 7365SOL     OW33553   0.090   2.845   8.113 -0.2707  0.2116  0.4041
 7365SOL    HW133554   0.007   2.801   8.128  0.6270 -1.6435 -0.0749
 7365SOL    HW233555   0.078   2.852   8.018  1.1996 -1.9551  0.0597
 7366SOL     OW33556   1.969   1.565   6.636  0.0752 -0.1874  0.5214
 7366SOL    HW133557   1.995   1.485   6.591  1.5184  1.4084 -1.5006
 7366SOL    HW233558   2.009   1.634   6.583 -0.7973  0.2711  0.4713
 7367SOL     OW33559   4.665   4.498   1.361  0.3932  0.0522  0.3126
 7367SOL    HW133560   4.703   4.580   1.392 -1.1117  0.3022  1.4976
 7367SOL    HW233561   4.657   4.499   1.265  0.8911 -2.5555  0.2459
 7368SOL     OW33562   1.749   1.623   7.200  0.1167 -0.6226  0.6425
 7368SOL    HW133563   1.837   1.621   7.160 -1.1397  0.0936 -2.1975
 7368SOL    HW233564   1.706   1.679   7.135  0.4025 -1.5901 -0.3883
 7369SOL     OW33565   0.552   3.593   4.678 -0.5713  0.6829 -0.6300
 7369SOL    HW133566   0.477   3.593   4.738 -0.5887 -0.5651 -0.6547
 7369SOL    HW233567   0.613   3.627   4.743  0.2984  0.0174 -1.1143
 7370SOL     OW33568   3.860   1.955  16.144  0.5758 -0.4115  0.0936
 7370SOL    HW133569   3.913   1.968  16.065 -0.7993 -1.2096 -0.9632
 7370SOL    HW233570   3.910   2.012  16.202  4.0080 -0.5211 -2.7703
 7371SOL     OW33571   1.233   2.963   9.544 -0.5320  0.1008  0.1736
 7371SOL    HW133572   1.311   2.939   9.593  0.6357 -1.3075 -2.3561
 7371SOL    HW233573   1.171   2.902   9.585  0.3897 -1.1147 -0.2287
 7372SOL     OW33574   0.283   1.467   0.195 -0.0287 -0.2254 -0.1070
 7372SOL    HW133575   0.371   1.503   0.204 -0.6673  1.0225  1.2284
 7372SOL    HW233576   0.271   1.432   0.283 -1.0438 -0.1309 -0.1968
 7373SOL     OW33577   2.960   4.372   7.707 -0.1274 -0.3704  0.2393
 7373SOL    HW133578   2.913   4.427   7.769 -0.9251 -1.3571  0.5045
 7373SOL    HW233579   2.976   4.437   7.638 -1.8130 -0.5394 -0.2977
 7374SOL     OW33580   3.176   2.216   4.716  1.0298  0.5863 -0.5827
 7374SOL    HW133581   3.248   2.164   4.682  0.6411  2.1353 -3.8336
 7374SOL    HW233582   3.111   2.203   4.646 -0.6737  2.3271  0.6703
 7375SOL     OW33583   0.562   1.621   8.971  0.0036  0.4176  0.3807
 7375SOL    HW133584   0.593   1.558   8.906  1.0934  0.0373  1.2783
 7375SOL    HW233585   0.624   1.694   8.967  1.9666 -1.1518  2.0419
 7376SOL     OW33586   1.416   4.144   8.249 -0.2968 -0.0077 -0.4848
 7376SOL    HW133587   1.390   4.185   8.332  1.3823 -1.9804  0.9893
 7376SOL    HW233588   1.348   4.165   8.184 -0.0592 -0.9178 -1.0323
 7377SOL     OW33589   3.655   1.486   4.176  0.4104  0.0119 -0.1183
 7377SOL    HW133590   3.658   1.582   4.175  0.2753  0.0115 -0.6291
 7377SOL    HW233591   3.712   1.477   4.253  0.3695 -0.3275 -0.1281
 7378SOL     OW33592   1.363   3.872   2.258 -0.1808 -0.3024 -0.1619
 7378SOL    HW133593   1.295   3.916   2.308  0.2902 -0.3551  0.5300
 7378SOL    HW233594   1.434   3.903   2.313 -2.2466  0.3108  2.1337
 7379SOL     OW33595   0.080   0.026   5.354  0.3510  0.2439 -0.2525
 7379SOL    HW133596   0.068   0.007   5.447 -0.0043  0.0211 -0.3431
 7379SOL    HW233597   0.172   0.053   5.351  0.0498  1.2688 -0.0854
 7380SOL     OW33598   4.606   4.542   5.597  0.0876  0.0874  0.5717
 7380SOL    HW133599   4.610   4.497   5.513  0.9419  0.5516  0.3567
 7380SOL    HW233600   4.514   4.523   5.614  0.1100  1.2132  1.9654
 7381SOL     OW33601   2.684   0.683   7.561 -0.3515 -0.1360 -0.1471
 7381SOL    HW133602   2.674   0.742   7.635  0.7559 -2.0728  1.5398
 7381SOL    HW233603   2.595   0.692   7.525 -0.3051  1.1679  0.0413
 7382SOL     OW33604   3.093   3.543   7.105  0.2046 -0.0275  0.8314
 7382SOL    HW133605   3.116   3.579   7.019 -1.6222  2.1130  1.2330
 7382SOL    HW233606   2.999   3.557   7.115 -0.2209 -0.4602 -2.6466
 7383SOL     OW33607   0.157   1.863  14.053 -0.0610 -0.4049 -0.6813
 7383SOL    HW133608   0.099   1.889  13.982 -2.1755 -1.9581  0.4656
 7383SOL    HW233609   0.184   1.773  14.037  1.4506  0.2824 -1.8915
 7384SOL     OW33610   3.504   2.140  16.496 -0.1039  0.1287 -0.3405
 7384SOL    HW133611   3.456   2.057  16.509 -0.5681  0.4727  0.1609
 7384SOL    HW233612   3.588   2.104  16.467 -0.2892 -2.0716  1.7925
 7385SOL     OW33613   1.919   4.433  15.401  0.4500 -0.1587 -0.3188
 7385SOL    HW133614   1.833   4.394  15.388  1.1105 -0.8568 -2.4810
 7385SOL    HW233615   1.948   4.377  15.473  0.2268  1.4916  1.0704
 7386SOL     OW33616   0.531   2.003   8.848 -0.1640 -0.4892  0.0622
 7386SOL    HW133617   0.440   1.999   8.820  0.0268 -0.9385 -0.4906
 7386SOL    HW233618   0.525   2.044   8.934 -2.3446 -0.1786 -0.2373
 7387SOL     OW33619   2.953   1.691   8.942 -0.0540 -0.4305 -0.6023
 7387SOL    HW133620   2.962   1.641   9.023 -0.6091 -0.7464 -0.7412
 7387SOL    HW233621   2.970   1.780   8.974 -1.8605 -0.1982 -0.3053
 7388SOL     OW33622   0.732   1.527   2.299  0.0593 -0.5423  0.2755
 7388SOL    HW133623   0.769   1.525   2.387 -0.9384  2.4497  0.7722
 7388SOL    HW233624   0.750   1.618   2.276  1.1081 -1.4612 -2.5600
 7389SOL     OW33625   0.752   4.711  17.138  0.7969  0.3274  0.8025
 7389SOL    HW133626   0.691   0.056  17.110  1.1857  0.1451 -0.4867
 7389SOL    HW233627   0.737   4.717  17.232 -0.9208  0.2643  0.5240
 7390SOL     OW33628   4.542   0.807   6.323 -0.7017 -0.0839 -0.4751
 7390SOL    HW133629   4.523   0.719   6.291 -1.1590  1.1323 -3.5817
 7390SOL    HW233630   4.573   0.848   6.242  1.9592  0.1215  0.6494
 7391SOL     OW33631   1.122   4.389   0.027  0.1319 -0.0250 -0.1185
 7391SOL    HW133632   1.078   4.436   0.097 -0.4730 -0.9910  0.1601
 7391SOL    HW233633   1.193   4.341   0.068  0.6169  1.9352  1.2806
 7392SOL     OW33634   2.282   1.638   8.629  0.0808  0.2492 -0.2308
 7392SOL    HW133635   2.354   1.674   8.576  0.2945  0.2700  0.0770
 7392SOL    HW233636   2.209   1.699   8.632 -1.3326 -1.3256 -1.9819
 7393SOL     OW33637   1.529   0.892   5.940 -0.6975  0.3074 -0.4503
 7393SOL    HW133638   1.498   0.904   6.030 -1.1823 -0.1537 -0.5572
 7393SOL    HW233639   1.577   0.810   5.946 -0.7422  0.4378  1.7027
 7394SOL     OW33640   3.647   2.484   5.474 -0.8015 -0.4594 -0.2333
 7394SOL    HW133641   3.552   2.476   5.460 -0.4370  0.2966 -2.9148
 7394SOL    HW233642   3.660   2.577   5.460 -1.9846 -0.0091  1.6487
 7395SOL     OW33643   0.944   2.367  15.033 -0.2231  0.0802  0.7129
 7395SOL    HW133644   0.934   2.454  15.072 -3.0037 -0.5366  1.3280
 7395SOL    HW233645   0.935   2.388  14.940  0.6827 -0.3368  0.5318
 7396SOL     OW33646   1.832   2.110   3.566  0.0988  0.2438  0.1912
 7396SOL    HW133647   1.801   2.170   3.499 -0.5975 -1.4148 -0.9615
 7396SOL    HW233648   1.764   2.112   3.634 -0.3139 -1.1349 -0.1821
 7397SOL     OW33649   3.419   1.960   6.031 -0.0152 -0.2170  0.3612
 7397SOL    HW133650   3.492   2.013   6.064  0.1564 -0.7433  0.8283
 7397SOL    HW233651   3.355   1.955   6.102 -0.4238 -2.3796 -0.1496
 7398SOL     OW33652   3.913   0.778   1.375 -0.2429 -0.2407  0.2391
 7398SOL    HW133653   3.937   0.863   1.411 -0.9492 -0.1880  0.5764
 7398SOL    HW233654   3.999   0.742   1.351  0.2174 -0.5254  2.3043
 7399SOL     OW33655   3.570   0.308   5.035  0.0919  0.6686 -0.5466
 7399SOL    HW133656   3.480   0.279   5.051 -0.3826  1.8550 -1.0801
 7399SOL    HW233657   3.609   0.323   5.121  0.6500  1.2928 -0.9060
 7400SOL     OW33658   0.501   3.295  13.201 -0.2500  0.3605 -0.2887
 7400SOL    HW133659   0.565   3.229  13.228 -1.4476 -0.6189  0.2023
 7400SOL    HW233660   0.457   3.231  13.146  1.3301 -2.3009  1.5271
 7401SOL     OW33661   3.683   3.233   7.272  0.3898  0.5410 -0.7272
 7401SOL    HW133662   3.638   3.296   7.329  0.9445 -0.0231  0.3498
 7401SOL    HW233663   3.730   3.188   7.342 -0.7198 -0.4308 -0.5993
 7402SOL     OW33664   3.965   0.187   6.495 -0.2565  0.4981  0.7434
 7402SOL    HW133665   3.980   0.260   6.435 -0.8603  0.6439  0.7737
 7402SOL    HW233666   3.911   0.129   6.442  1.4824  1.1687 -1.7385
 7403SOL     OW33667   2.924   2.886   3.153 -0.1795  0.0019  0.5496
 7403SOL    HW133668   2.856   2.941   3.193  0.7047  0.6572  1.1487
 7403SOL    HW233669   2.938   2.814   3.214  3.2303  0.9586  0.8645
 7404SOL     OW33670   0.097   2.020   2.477  0.1426 -0.3972  0.1885
 7404SOL    HW133671   0.098   1.930   2.446 -0.3760  0.8763 -3.4722
 7404SOL    HW233672   0.186   2.046   2.453 -0.0701 -0.3299 -0.5165
 7405SOL     OW33673   3.493   0.878   4.177  0.0445 -0.1637 -0.0999
 7405SOL    HW133674   3.438   0.945   4.218 -1.3763 -0.4399 -1.5263
 7405SOL    HW233675   3.419   0.835   4.133 -0.1677 -0.1622  0.2536
 7406SOL     OW33676   3.456   4.440   6.528 -0.0164  0.0474 -0.1861
 7406SOL    HW133677   3.514   4.499   6.480  0.3353 -0.0564  0.1139
 7406SOL    HW233678   3.520   4.371   6.541  2.1837  1.6457 -2.6164
 7407SOL     OW33679   2.376   3.359   2.849 -0.1505  0.0003  0.3707
 7407SOL    HW133680   2.399   3.273   2.815  0.2873  0.4334 -0.4348
 7407SOL    HW233681   2.461   3.401   2.836  0.0694 -0.3192  0.7956
 7408SOL     OW33682   2.018   4.563   7.190  0.1088  0.4442  0.0217
 7408SOL    HW133683   2.067   4.485   7.216  0.4826  0.5029 -0.5120
 7408SOL    HW233684   1.927   4.534   7.187 -0.1543  1.5629 -2.4101
 7409SOL     OW33685   2.789   2.194  12.096 -0.3552  0.1188 -0.3635
 7409SOL    HW133686   2.806   2.285  12.120  1.8983 -0.9317  2.0903
 7409SOL    HW233687   2.872   2.176  12.050 -0.5267  0.1335 -0.6773
 7410SOL     OW33688   1.734   3.261  15.553 -0.3582  0.4421  0.1810
 7410SOL    HW133689   1.799   3.294  15.491 -0.8059 -0.0624 -0.5493
 7410SOL    HW233690   1.700   3.181  15.514  1.2429  0.0526 -0.3922
 7411SOL     OW33691   0.453   1.483   2.294  0.0148  0.2927 -0.1055
 7411SOL    HW133692   0.413   1.550   2.349  0.7671 -2.2691  3.5444
 7411SOL    HW233693   0.542   1.516   2.292  0.3309 -0.4290  1.9413
 7412SOL     OW33694   0.127   2.474   8.381  0.2974 -0.3532 -0.1779
 7412SOL    HW133695   0.168   2.390   8.358 -2.8320 -1.4597 -1.7949
 7412SOL    HW233696   0.057   2.489   8.317  0.9332 -0.9678 -1.0307
 7413SOL     OW33697   1.980   1.652   6.216 -0.3735  0.0812  0.1230
 7413SOL    HW133698   1.988   1.620   6.306  2.5232  2.9502  0.8636
 7413SOL    HW233699   2.038   1.588   6.175  0.4840  0.6966  0.3710
 7414SOL     OW33700   0.743   1.360   2.873  0.1250 -0.4066 -0.3931
 7414SOL    HW133701   0.702   1.353   2.959  2.6923 -1.0333  0.7815
 7414SOL    HW233702   0.738   1.273   2.835 -0.3685 -1.4756  2.1515
 7415SOL     OW33703   0.432   2.765   3.801  0.0074  0.5527 -0.6984
 7415SOL    HW133704   0.382   2.840   3.769  0.0221  0.9725  0.2542
 7415SOL    HW233705   0.368   2.695   3.787 -1.2845  0.9304  3.2377
 7416SOL     OW33706   1.131   0.667   6.540  0.6267  0.1755  0.1289
 7416SOL    HW133707   1.076   0.667   6.618  1.9549  2.6542  1.0586
 7416SOL    HW233708   1.093   0.733   6.482  2.3369  1.9041  1.0061
 7417SOL     OW33709   4.575   0.448   1.874 -0.0333  0.0260 -0.4780
 7417SOL    HW133710   4.636   0.411   1.810 -0.0854 -0.9178  0.0225
 7417SOL    HW233711   4.517   0.507   1.826  0.3439  0.1257 -0.8151
 7418SOL     OW33712   3.946   3.181   4.567 -0.3438 -0.3319 -0.0401
 7418SOL    HW133713   4.007   3.135   4.624 -1.3103 -1.0047  0.4447
 7418SOL    HW233714   3.926   3.119   4.496  1.5088 -0.5014 -0.4137
 7419SOL     OW33715   2.374   3.723   7.840 -0.2129  0.3097 -0.3841
 7419SOL    HW133716   2.338   3.757   7.922 -0.0813  1.2076 -0.6981
 7419SOL    HW233717   2.454   3.684   7.874  0.7309  1.1515 -1.6375
 7420SOL     OW33718   4.264   1.476   4.846  0.5116  0.2067  0.4823
 7420SOL    HW133719   4.175   1.509   4.856  0.7342  0.9718 -0.1252
 7420SOL    HW233720   4.258   1.389   4.807 -1.8175  1.4989 -2.0058
 7421SOL     OW33721   3.651   2.115   2.739  0.3329  0.2210  0.3080
 7421SOL    HW133722   3.637   2.030   2.780  0.2837  0.1518  0.1482
 7421SOL    HW233723   3.625   2.106   2.647 -0.6140  2.1367  0.3748
 7422SOL     OW33724   2.125   0.791   6.638 -0.5941 -0.8505  0.0097
 7422SOL    HW133725   2.037   0.757   6.655 -1.0928  1.6972  2.4098
 7422SOL    HW233726   2.112   0.865   6.579  0.7540 -0.3099  0.4032
 7423SOL     OW33727   1.879   4.582   3.069  0.0363  0.0181  0.2815
 7423SOL    HW133728   1.947   4.647   3.052 -0.8828  1.1120  0.7903
 7423SOL    HW233729   1.853   4.559   2.979  1.2545 -1.5536  0.3393
 7424SOL     OW33730   1.592   0.722   2.118 -0.8431  0.5859  0.1002
 7424SOL    HW133731   1.597   0.814   2.145 -0.5379  0.4933  0.3551
 7424SOL    HW233732   1.685   0.704   2.108 -0.9222  1.2250 -1.7080
 7425SOL     OW33733   1.567   3.334   9.294  0.6057 -0.3415  0.3100
 7425SOL    HW133734   1.593   3.266   9.233  0.2811 -0.5338  0.3815
 7425SOL    HW233735   1.616   3.412   9.268 -0.5628  0.2302 -0.1833
 7426SOL     OW33736   1.427   2.010   2.277  0.7353 -0.0890 -0.2163
 7426SOL    HW133737   1.405   2.075   2.210  0.3129 -0.5957 -0.5699
 7426SOL    HW233738   1.491   1.959   2.226  0.9917 -1.4427  1.4495
 7427SOL     OW33739   3.904   4.109  11.505 -0.2293  0.0051  0.0846
 7427SOL    HW133740   3.991   4.147  11.497  0.4849 -1.9677 -1.5448
 7427SOL    HW233741   3.925   4.016  11.503  0.9725  0.2921 -1.0547
 7428SOL     OW33742   2.356   0.529   9.219 -0.5654 -0.8421  0.2239
 7428SOL    HW133743   2.412   0.606   9.222  0.1508 -1.2851 -1.4565
 7428SOL    HW233744   2.394   0.479   9.292  0.7312 -1.5393 -0.9342
 7429SOL     OW33745   3.018   2.034   2.203 -0.0814  0.3815 -0.3386
 7429SOL    HW133746   2.964   2.043   2.282  2.0098 -1.6504  1.3002
 7429SOL    HW233747   3.112   2.024   2.214 -0.1933  1.3185  1.5316
 7430SOL     OW33748   2.592   3.348   4.797 -0.2781  0.3315 -0.2385
 7430SOL    HW133749   2.644   3.299   4.733  0.8097  0.7923  0.3013
 7430SOL    HW233750   2.572   3.275   4.855  0.1198  1.1285  0.8876
 7431SOL     OW33751   1.222   2.647   6.732 -0.7434 -0.2443  0.0503
 7431SOL    HW133752   1.132   2.646   6.763 -1.0859  0.9230 -0.9244
 7431SOL    HW233753   1.271   2.653   6.814 -1.0612 -2.8632  0.4346
 7432SOL     OW33754   2.071   3.071   7.586  0.2782 -0.2381 -0.4848
 7432SOL    HW133755   2.072   3.061   7.491 -2.5768 -0.6529 -0.4848
 7432SOL    HW233756   2.137   3.139   7.600 -0.7650  0.7867 -0.6277
 7433SOL     OW33757   3.239   2.564  15.482 -0.3140 -0.5696  0.3589
 7433SOL    HW133758   3.276   2.479  15.458  0.5242  0.0976 -0.7363
 7433SOL    HW233759   3.147   2.540  15.481 -0.2860 -0.7052  1.0702
 7434SOL     OW33760   3.583   0.271  13.080  0.7892 -0.0659  0.6200
 7434SOL    HW133761   3.637   0.317  13.016 -1.9917  1.5941 -0.5250
 7434SOL    HW233762   3.602   0.182  13.050 -0.8696 -0.9492  2.1275
 7435SOL     OW33763   3.482   0.558   3.282  0.0019  0.5540  0.0874
 7435SOL    HW133764   3.535   0.524   3.211 -1.9468  2.3287 -2.2448
 7435SOL    HW233765   3.472   0.479   3.335 -0.8844 -0.5520 -1.7251
 7436SOL     OW33766   1.116   1.601   5.806  0.4084 -0.0312 -0.2450
 7436SOL    HW133767   1.132   1.549   5.885 -1.9448 -1.6099 -0.7766
 7436SOL    HW233768   1.198   1.601   5.757 -0.2415 -0.9099 -1.3322
 7437SOL     OW33769   0.953   0.114   4.352  0.2878 -0.5559 -0.2070
 7437SOL    HW133770   0.894   0.189   4.345 -1.2092 -1.7188 -0.0364
 7437SOL    HW233771   0.985   0.109   4.262 -0.6288  1.0444 -0.6247
 7438SOL     OW33772   3.002   4.471   5.233 -0.2744 -0.7155  0.0191
 7438SOL    HW133773   3.051   4.407   5.182  0.2329  1.5490 -2.3513
 7438SOL    HW233774   3.012   4.545   5.172 -2.6390 -1.8224 -1.7030
 7439SOL     OW33775   1.850   4.721   5.366  0.1850 -0.4325  0.0149
 7439SOL    HW133776   1.775   4.696   5.312  1.9620 -1.3219 -2.0399
 7439SOL    HW233777   1.857   4.647   5.425  0.0028  1.2580  2.1410
 7440SOL     OW33778   0.934   0.136   8.000  0.0533  0.2414 -0.0364
 7440SOL    HW133779   0.968   0.201   8.062  1.3569  0.1746 -0.6829
 7440SOL    HW233780   1.014   0.091   7.971  1.6662  2.2318  1.3041
 7441SOL     OW33781   3.133   0.371   2.372  0.2971  0.3988 -0.0343
 7441SOL    HW133782   3.203   0.419   2.328  0.3490  0.3654  0.0119
 7441SOL    HW233783   3.168   0.344   2.457 -0.1204  0.0898  0.0419
 7442SOL     OW33784   1.033   0.474  13.592 -0.4124  0.3072 -0.7604
 7442SOL    HW133785   1.058   0.470  13.500 -1.6352  1.4396 -1.1464
 7442SOL    HW233786   0.956   0.418  13.589 -1.2613  1.3455  1.2707
 7443SOL     OW33787   1.186   4.419  10.635  0.3113  0.2186 -0.4808
 7443SOL    HW133788   1.220   4.330  10.634 -1.4331 -0.4510  0.4993
 7443SOL    HW233789   1.105   4.418  10.686  0.4412 -0.0687 -0.2832
 7444SOL     OW33790   2.382   4.244   7.888 -0.1744 -0.1372 -0.0472
 7444SOL    HW133791   2.465   4.286   7.910 -0.2838  1.0976 -1.9436
 7444SOL    HW233792   2.418   4.157   7.869  1.3637  0.4018  0.4509
 7445SOL     OW33793   1.465   1.595   0.920  0.3919 -0.1708 -0.0269
 7445SOL    HW133794   1.475   1.500   0.924 -1.8722 -0.4417 -0.6727
 7445SOL    HW233795   1.420   1.598   1.004 -0.1144  0.8214 -0.3293
 7446SOL     OW33796   3.770   0.944   8.134  0.1606 -0.4743 -0.5260
 7446SOL    HW133797   3.820   1.024   8.151  0.9116 -1.4102  1.5967
 7446SOL    HW233798   3.804   0.890   8.205 -1.5712 -0.1263  0.5471
 7447SOL     OW33799   0.547   1.406   7.511 -0.0790 -0.4390 -0.2536
 7447SOL    HW133800   0.560   1.476   7.446  1.1258  0.5457  1.0429
 7447SOL    HW233801   0.452   1.395   7.498 -0.2102  2.1558 -1.6125
 7448SOL     OW33802   3.941   0.576   7.367 -0.1146 -0.5246  0.3508
 7448SOL    HW133803   4.009   0.616   7.420 -1.3797  0.9942  0.8328
 7448SOL    HW233804   3.873   0.550   7.430  1.0495 -1.7427  1.0924
 7449SOL     OW33805   3.112   1.360  14.571 -0.3545 -0.8028  0.2279
 7449SOL    HW133806   3.151   1.277  14.541 -2.2679 -2.3470  2.0314
 7449SOL    HW233807   3.185   1.422  14.568 -0.8146 -0.1516  2.6446
 7450SOL     OW33808   2.222   2.460   5.718 -0.2892 -0.0609 -0.0386
 7450SOL    HW133809   2.317   2.462   5.716 -0.3108  0.1040 -0.9284
 7450SOL    HW233810   2.206   2.543   5.673  1.7186 -0.8411 -2.1460
 7451SOL     OW33811   4.586   1.274   8.485  0.0008  0.4456  0.1647
 7451SOL    HW133812   4.609   1.304   8.397 -0.4658 -0.8399 -0.3888
 7451SOL    HW233813   4.657   1.214   8.508 -0.3527  0.4464  1.2410
 7452SOL     OW33814   0.861   3.795   0.697 -0.0191 -0.2276  0.2484
 7452SOL    HW133815   0.829   3.756   0.778 -0.5073 -3.2649 -1.4251
 7452SOL    HW233816   0.942   3.839   0.724 -1.3677  2.0303  0.6107
 7453SOL     OW33817   2.607   3.986   8.264  0.5576  0.0158  0.4710
 7453SOL    HW133818   2.569   4.016   8.347  1.2639 -3.9838  2.2520
 7453SOL    HW233819   2.661   4.061   8.239  3.7541 -1.7838  2.0207
 7454SOL     OW33820   3.480   1.888  14.928  0.3894 -0.2513  0.0322
 7454SOL    HW133821   3.391   1.883  14.895  0.2745 -0.6557  0.4176
 7454SOL    HW233822   3.511   1.975  14.900  0.4153 -0.5845 -0.9785
 7455SOL     OW33823   1.372   1.833   7.625 -0.3921 -0.6912  0.0813
 7455SOL    HW133824   1.282   1.819   7.655  0.3109 -2.7224  1.2329
 7455SOL    HW233825   1.381   1.760   7.564 -1.5396  0.1541 -1.0961
 7456SOL     OW33826   3.485   3.019   5.259  0.2398  0.4204 -0.1491
 7456SOL    HW133827   3.522   3.104   5.285 -0.1952 -0.4524  3.3362
 7456SOL    HW233828   3.542   2.994   5.186 -1.3548  0.0110 -1.2427
 7457SOL     OW33829   2.284   3.658   4.914 -0.4336  0.3915 -0.4128
 7457SOL    HW133830   2.339   3.736   4.920  0.3379 -0.3916  2.5998
 7457SOL    HW233831   2.350   3.595   4.943 -0.4429 -0.2699 -1.8541
 7458SOL     OW33832   0.297   2.958   2.610 -0.2684  0.5026  0.5166
 7458SOL    HW133833   0.340   2.946   2.525  0.9005 -0.4260  1.2331
 7458SOL    HW233834   0.237   3.031   2.593  0.0568  0.4582 -0.8149
 7459SOL     OW33835   4.351   2.275  17.031  0.2748  0.2784 -0.3748
 7459SOL    HW133836   4.325   2.284  16.939 -0.6122 -2.4003 -0.3867
 7459SOL    HW233837   4.389   2.188  17.040  3.1731  1.7345  1.2704
 7460SOL     OW33838   3.050   3.754   6.894 -0.0186  0.1298 -0.2881
 7460SOL    HW133839   3.124   3.724   6.841 -0.4881  1.0036 -1.4236
 7460SOL    HW233840   3.008   3.797   6.820  1.2587 -0.0156 -1.0958
 7461SOL     OW33841   3.084   3.958   4.473 -0.1493  0.0301  0.4499
 7461SOL    HW133842   3.096   3.918   4.559 -1.0847 -0.7502  0.2099
 7461SOL    HW233843   2.989   3.967   4.469 -0.1657  0.2647  1.4218
 7462SOL     OW33844   4.689   0.840  12.381 -0.4400  0.4982 -0.3623
 7462SOL    HW133845   0.024   0.859  12.307 -0.0379 -2.4028 -0.7687
 7462SOL    HW233846   4.694   0.745  12.389  2.2064  0.6528  0.0912
 7463SOL     OW33847   1.530   4.073   3.349 -0.0935 -0.4630  0.4267
 7463SOL    HW133848   1.463   4.062   3.416  0.1150 -1.2832  0.5073
 7463SOL    HW233849   1.599   4.130   3.382 -0.2966 -0.7385  1.3193
 7464SOL     OW33850   1.375   1.886  10.751  0.1074  0.1639 -0.4789
 7464SOL    HW133851   1.359   1.793  10.761 -0.1353 -0.0996 -3.2018
 7464SOL    HW233852   1.469   1.877  10.765  0.2807  0.9275 -1.1188
 7465SOL     OW33853   2.013   2.215   5.086 -0.1820  0.0150  0.5961
 7465SOL    HW133854   1.929   2.170   5.083 -0.2573  0.2260 -0.5353
 7465SOL    HW233855   1.993   2.305   5.061  1.3637 -0.1994 -1.4364
 7466SOL     OW33856   2.993   4.202  16.262 -0.0095 -0.3045  0.2587
 7466SOL    HW133857   3.068   4.230  16.315 -0.1684 -0.8752  0.7857
 7466SOL    HW233858   3.021   4.201  16.170 -2.8023  0.8479 -0.6025
 7467SOL     OW33859   3.341   1.372  13.036  0.3637  0.2989 -0.0197
 7467SOL    HW133860   3.348   1.277  13.050  1.0796  0.5824  1.4031
 7467SOL    HW233861   3.275   1.399  13.099 -1.4706 -2.0068 -0.9383
 7468SOL     OW33862   1.770   0.565   5.323 -0.1984 -0.1684 -0.6508
 7468SOL    HW133863   1.832   0.602   5.386 -2.7042 -1.3241  2.4233
 7468SOL    HW233864   1.703   0.538   5.385  1.1578  1.2114  1.4214
 7469SOL     OW33865   3.264   3.762   6.213  0.1449  0.0505 -0.5510
 7469SOL    HW133866   3.183   3.759   6.262  1.6592  1.8723  2.0740
 7469SOL    HW233867   3.237   3.827   6.148  0.0620  2.8825  2.3109
 7470SOL     OW33868   0.084   1.239   6.449 -0.4109  0.2732 -0.1093
 7470SOL    HW133869   0.079   1.147   6.425 -1.9892 -0.2668  2.3339
 7470SOL    HW233870   0.089   1.271   6.359 -0.7153 -1.6510 -0.8083
 7471SOL     OW33871   4.059   3.844   1.018  0.2598  0.0440 -0.1214
 7471SOL    HW133872   4.052   3.929   1.061 -0.5036 -0.0069 -0.1570
 7471SOL    HW233873   4.152   3.843   0.994  0.2987 -1.2587  0.0541
 7472SOL     OW33874   0.188   3.612   0.286 -0.1507 -0.3161  0.7642
 7472SOL    HW133875   0.211   3.581   0.199  0.0949  1.1143  0.3314
 7472SOL    HW233876   0.170   3.530   0.333  3.3476 -1.5322 -0.0475
 7473SOL     OW33877   2.994   3.038   4.007 -0.0749  0.1410 -0.3079
 7473SOL    HW133878   2.999   3.116   4.061  2.1563 -0.6963  0.7082
 7473SOL    HW233879   3.085   3.034   3.975  0.8838  0.5979  2.3187
 7474SOL     OW33880   3.096   0.752   0.821  0.1509 -0.6123  0.1617
 7474SOL    HW133881   3.030   0.815   0.850  0.3527  0.2829 -1.3166
 7474SOL    HW233882   3.052   0.671   0.848 -1.7463 -0.8328 -3.5944
 7475SOL     OW33883   1.586   1.539   1.429 -0.5241  0.0693  0.2097
 7475SOL    HW133884   1.610   1.628   1.456 -1.3432  0.7289 -1.2330
 7475SOL    HW233885   1.672   1.526   1.389 -1.4957 -3.6559 -0.6975
 7476SOL     OW33886   4.290   2.293   8.846 -0.0933  0.4825 -0.1400
 7476SOL    HW133887   4.285   2.233   8.921 -1.8749 -0.2741 -0.8457
 7476SOL    HW233888   4.384   2.284   8.830  0.3254  2.2704  1.4099
 7477SOL     OW33889   0.014   1.129   9.922  0.4786 -0.1661  0.6051
 7477SOL    HW133890   0.072   1.089   9.987  0.9514  1.0858  0.9482
 7477SOL    HW233891   0.001   1.212   9.968 -1.2199  0.3291 -0.7456
 7478SOL     OW33892   1.969   0.084   9.344  0.6765 -0.0290  0.1134
 7478SOL    HW133893   2.032   0.049   9.282  0.9727 -1.4013  1.1919
 7478SOL    HW233894   2.024   0.139   9.400 -0.4475  0.6917  0.5300
 7479SOL     OW33895   3.854   0.324   5.847  0.2559  0.3554 -0.1215
 7479SOL    HW133896   3.903   0.381   5.788  1.1153 -0.1824  0.0741
 7479SOL    HW233897   3.771   0.323   5.800  0.4210  0.6803 -0.4196
 7480SOL     OW33898   1.576   2.647   9.087 -0.4736 -0.0499  0.0993
 7480SOL    HW133899   1.504   2.626   9.147 -0.8944 -0.6403 -0.6278
 7480SOL    HW233900   1.584   2.559   9.050  0.9482  0.0952  0.0820
 7481SOL     OW33901   4.365   4.164   5.450 -0.6413  0.2512 -0.5524
 7481SOL    HW133902   4.368   4.081   5.401  1.1728  1.1290 -1.9138
 7481SOL    HW233903   4.360   4.137   5.542  0.4864  0.9729 -0.2875
 7482SOL     OW33904   3.227   1.331   9.110 -0.0482 -0.4463  0.7955
 7482SOL    HW133905   3.208   1.238   9.093  0.9677 -0.8507  1.8824
 7482SOL    HW233906   3.322   1.342   9.112  0.0024 -0.7997  0.1880
 7483SOL     OW33907   1.531   3.161   9.779  0.0511  0.1242  0.4809
 7483SOL    HW133908   1.544   3.126   9.867 -1.8905 -2.2222 -0.1480
 7483SOL    HW233909   1.545   3.255   9.790 -0.3784  0.2679 -0.2448
 7484SOL     OW33910   0.765   2.556   9.477 -0.1187 -0.6537  0.0278
 7484SOL    HW133911   0.855   2.568   9.446  0.5334  1.6557  2.8915
 7484SOL    HW233912   0.773   2.565   9.572  1.1876  0.0726 -0.1519
 7485SOL     OW33913   0.589   1.114   4.863  0.2741 -0.1795 -0.5566
 7485SOL    HW133914   0.612   1.190   4.810 -1.8569  0.2001 -0.9149
 7485SOL    HW233915   0.676   1.076   4.876 -0.0041 -0.4274  0.5698
 7486SOL     OW33916   1.141   1.712   6.161  0.1649 -0.0973  0.1252
 7486SOL    HW133917   1.235   1.709   6.140 -0.0819  2.2653 -1.2544
 7486SOL    HW233918   1.111   1.779   6.099 -2.2833 -0.2100  1.2172
 7487SOL     OW33919   2.487   1.060  13.980 -0.1451  0.4081  0.0669
 7487SOL    HW133920   2.560   1.117  14.006 -0.0755  0.2531  0.2099
 7487SOL    HW233921   2.533   0.977  13.997  0.0130  0.6393  0.7524
 7488SOL     OW33922   0.264   2.210   3.050 -0.2011  0.0958 -0.0883
 7488SOL    HW133923   0.335   2.147   3.061 -0.1649  0.2399  0.5017
 7488SOL    HW233924   0.279   2.244   2.962  0.2336  1.2386  0.4240
 7489SOL     OW33925   4.267   2.853  10.344  0.2411  0.7647 -0.1842
 7489SOL    HW133926   4.304   2.938  10.367 -1.5571  0.4570  3.7558
 7489SOL    HW233927   4.290   2.794  10.415 -1.3792  0.6550  0.2562
 7490SOL     OW33928   4.129   4.509   5.283  0.1440  0.1638  0.7980
 7490SOL    HW133929   4.160   4.457   5.357 -1.3929  0.3047  1.5514
 7490SOL    HW233930   4.104   4.593   5.321 -2.6185  0.2559 -1.2186
 7491SOL     OW33931   1.215   1.902   4.847 -0.3332 -0.1373 -0.4222
 7491SOL    HW133932   1.230   1.957   4.924 -1.2656 -2.0909  1.1631
 7491SOL    HW233933   1.285   1.840   4.863 -0.8760 -0.4172  0.8526
 7492SOL     OW33934   3.325   4.449   3.933  0.1210 -0.3774 -0.5356
 7492SOL    HW133935   3.415   4.423   3.953  0.4687  1.9669  0.9290
 7492SOL    HW233936   3.336   4.495   3.850  2.3088  0.0324 -0.0099
 7493SOL     OW33937   2.756   0.694   6.326 -0.1518 -0.1339 -0.5219
 7493SOL    HW133938   2.808   0.651   6.394 -1.3937 -0.4938  0.1778
 7493SOL    HW233939   2.680   0.640   6.344  0.5193 -0.0812  2.4014
 7494SOL     OW33940   4.204   1.050  17.140  0.3664  0.0036 -0.1339
 7494SOL    HW133941   4.194   1.130  17.192  2.0170  1.1584 -1.6076
 7494SOL    HW233942   4.129   0.991  17.148  0.9719 -0.8572 -0.8909
 7495SOL     OW33943   2.312   4.023  16.597 -0.0411 -0.4641  0.0972
 7495SOL    HW133944   2.323   3.972  16.677  0.6855 -3.8924 -2.1482
 7495SOL    HW233945   2.398   4.013  16.555  0.2725 -0.4783  0.7529
 7496SOL     OW33946   0.058   3.324  17.042  1.1466  0.2632 -0.3247
 7496SOL    HW133947   0.111   3.255  17.082  0.9498  1.0672  1.2979
 7496SOL    HW233948   0.093   3.327  16.953  1.2260 -2.8563 -0.4060
 7497SOL     OW33949   4.163   4.227   4.152  0.0001 -0.0920 -0.3699
 7497SOL    HW133950   4.085   4.171   4.151  0.4913 -0.8137  1.2953
 7497SOL    HW233951   4.205   4.209   4.067  1.4232  3.0175 -0.3425
 7498SOL     OW33952   1.259   2.666  16.819 -0.1012 -0.0763  0.1617
 7498SOL    HW133953   1.334   2.638  16.872  0.0732 -1.2681 -0.7113
 7498SOL    HW233954   1.188   2.616  16.859 -0.2378 -0.0951 -0.1041
 7499SOL     OW33955   3.625   1.406   8.191 -0.2617  0.6958  0.1951
 7499SOL    HW133956   3.569   1.331   8.208 -0.3922  0.5943 -0.6570
 7499SOL    HW233957   3.637   1.455   8.273  0.2779 -1.4843  1.4121
 7500SOL     OW33958   3.339   3.528   6.504  0.4720 -0.0131  0.0384
 7500SOL    HW133959   3.306   3.440   6.488  0.2534 -0.1386  1.2399
 7500SOL    HW233960   3.273   3.579   6.457  2.5235  2.2989 -0.3871
 7501SOL     OW33961   4.637   2.157   4.841  0.4156 -0.0896  0.4083
 7501SOL    HW133962   4.650   2.250   4.823 -1.1807  0.1341  0.4493
 7501SOL    HW233963   4.664   2.109   4.763 -2.7037  0.8656 -1.2436
 7502SOL     OW33964   1.395   1.623   8.560 -0.2535  0.4207  0.0697
 7502SOL    HW133965   1.402   1.717   8.542 -0.1719  0.3430 -0.2893
 7502SOL    HW233966   1.391   1.624   8.656 -0.1575 -2.7143  0.0948
 7503SOL     OW33967   2.266   2.431  10.642  0.1049 -0.4459 -0.0749
 7503SOL    HW133968   2.312   2.483  10.577  1.4330 -1.4767  0.0407
 7503SOL    HW233969   2.182   2.476  10.655 -1.0366 -2.0804 -1.9175
 7504SOL     OW33970   1.562   0.490   6.306  0.1789 -0.6065 -0.2058
 7504SOL    HW133971   1.484   0.524   6.262  0.2280  1.9524  1.6112
 7504SOL    HW233972   1.634   0.553   6.300 -0.5727  0.1928 -0.7637
 7505SOL     OW33973   3.766   4.523   3.475 -0.5148 -0.5579 -0.3917
 7505SOL    HW133974   3.741   4.452   3.416  2.2637 -2.7619  1.1118
 7505SOL    HW233975   3.840   4.478   3.515 -1.8601 -0.5957  2.0616
 7506SOL     OW33976   4.628   1.691  15.563 -0.8674  0.2165 -0.2250
 7506SOL    HW133977   4.575   1.770  15.555 -0.9871  0.2419  0.7667
 7506SOL    HW233978   4.642   1.694  15.658 -0.7161  0.7229 -0.2650
 7507SOL     OW33979   1.866   1.489   1.347 -0.1926 -0.5457 -0.3944
 7507SOL    HW133980   1.883   1.419   1.284 -0.2356 -1.1962  0.3138
 7507SOL    HW233981   1.951   1.513   1.383 -0.7132 -1.3392  1.3455
 7508SOL     OW33982   0.992   2.835  13.273  0.0014  0.0200 -0.2234
 7508SOL    HW133983   1.025   2.913  13.229  2.7650 -0.5789  0.8345
 7508SOL    HW233984   1.046   2.840  13.352 -0.2270  0.7735 -0.1206
 7509SOL     OW33985   2.825   1.775   6.647  0.1442 -0.0719  0.1547
 7509SOL    HW133986   2.828   1.869   6.663 -0.1866  0.1845 -1.3248
 7509SOL    HW233987   2.794   1.752   6.735  0.2321  0.6191  0.3630
 7510SOL     OW33988   2.092   3.173   8.723  0.1431  0.3657 -0.5349
 7510SOL    HW133989   2.123   3.083   8.733  0.1912  0.5517  1.0209
 7510SOL    HW233990   2.124   3.195   8.636  0.3707 -1.1901 -0.8472
 7511SOL     OW33991   3.824   2.318  12.087 -0.0860  0.7081  0.1996
 7511SOL    HW133992   3.907   2.303  12.132 -1.2400 -1.7665  1.4854
 7511SOL    HW233993   3.830   2.408  12.054  0.6302 -0.0763 -1.7444
 7512SOL     OW33994   1.660   3.539  16.794 -0.6522 -0.1120 -0.3427
 7512SOL    HW133995   1.694   3.483  16.864 -0.9073  1.9666  1.4327
 7512SOL    HW233996   1.640   3.616  16.846  0.2810  0.4429 -0.8059
 7513SOL     OW33997   2.886   1.771   2.429  0.1102  0.3353 -0.5679
 7513SOL    HW133998   2.853   1.683   2.446 -0.3438  0.2886 -1.6187
 7513SOL    HW233999   2.820   1.814   2.373  1.2553 -1.7772 -3.5593
 7514SOL     OW34000   1.044   4.719   9.671 -0.1866 -0.6053  0.2331
 7514SOL    HW134001   0.992   0.035   9.741  1.5407 -0.8354  1.6619
 7514SOL    HW234002   0.986   0.018   9.598 -0.6365 -0.2528  0.6979
 7515SOL     OW34003   1.965   3.014   9.745  0.1880 -0.2484  0.0318
 7515SOL    HW134004   1.951   3.035   9.652 -1.3344  2.2261  0.8198
 7515SOL    HW234005   2.059   3.031   9.753  0.4033 -0.9616 -1.0212
 7516SOL     OW34006   2.798   2.762   5.264 -0.0678  0.5049  0.3935
 7516SOL    HW134007   2.867   2.695   5.261 -0.3554  0.2609 -1.0612
 7516SOL    HW234008   2.754   2.737   5.345  0.3602  1.5522  0.9510
 7517SOL     OW34009   1.853   2.558   2.183  0.5484  0.5327 -0.0687
 7517SOL    HW134010   1.923   2.521   2.129  1.9537  1.9664  0.7717
 7517SOL    HW234011   1.849   2.647   2.147  1.1914  0.6190  0.0671
 7518SOL     OW34012   2.435   0.429   3.673 -0.1555 -0.7799  0.0171
 7518SOL    HW134013   2.523   0.441   3.638  0.1153 -0.7992  0.6847
 7518SOL    HW234014   2.438   0.490   3.747 -2.2742  2.0406 -2.2196
 7519SOL     OW34015   1.770   3.914   9.358  0.3298  0.4255 -0.6519
 7519SOL    HW134016   1.785   3.897   9.451 -0.3684  1.3119 -0.3777
 7519SOL    HW234017   1.685   3.870   9.355 -0.0532  1.2644 -1.9912
 7520SOL     OW34018   0.730   4.393   5.611  0.3402  0.3575  0.0290
 7520SOL    HW134019   0.780   4.431   5.539  0.4703  1.0430  0.4833
 7520SOL    HW234020   0.649   4.444   5.605  0.2706  0.3173  0.6201
 7521SOL     OW34021   1.645   0.064  12.076  0.6274 -0.1210  0.6887
 7521SOL    HW134022   1.714   0.124  12.105  0.1679  1.1610 -0.8564
 7521SOL    HW234023   1.669   4.705  12.121  0.7713  0.8483  2.3566
 7522SOL     OW34024   3.315   4.562  16.839  0.2007  0.4908  0.1944
 7522SOL    HW134025   3.380   4.589  16.774  0.7078  0.7529  0.8097
 7522SOL    HW234026   3.265   4.497  16.790  2.4311  0.6292 -2.2536
 7523SOL     OW34027   2.227   0.193   9.422 -0.1897 -0.0411 -0.5044
 7523SOL    HW134028   2.321   0.211   9.426 -0.2422 -0.4515  3.2847
 7523SOL    HW234029   2.225   0.145   9.340  0.1101  0.2482 -0.6796
 7524SOL     OW34030   1.508   1.560   6.403  0.0542  0.0242 -0.0193
 7524SOL    HW134031   1.562   1.488   6.433 -0.6779  0.2648  1.8466
 7524SOL    HW234032   1.539   1.563   6.312  0.3468 -0.5573  0.0620
 7525SOL     OW34033   0.559   3.518  11.418  0.4024 -0.0374  0.1528
 7525SOL    HW134034   0.624   3.538  11.486  2.0057 -1.1932 -1.0427
 7525SOL    HW234035   0.606   3.469  11.351  2.2962  0.6760  0.9626
 7526SOL     OW34036   2.865   0.916   5.543  0.0679  0.3580 -0.2961
 7526SOL    HW134037   2.783   0.945   5.501 -1.6242  1.1820  3.5951
 7526SOL    HW234038   2.903   0.861   5.474 -0.3726  0.3187 -0.5141
 7527SOL     OW34039   2.783   0.205   5.143 -0.0973 -0.0246 -0.2173
 7527SOL    HW134040   2.727   0.278   5.117 -0.0742  0.6374  1.5933
 7527SOL    HW234041   2.739   0.175   5.222 -0.3095 -0.5291 -0.5331
 7528SOL     OW34042   2.016   1.812   6.519 -0.6113 -0.0069 -0.5870
 7528SOL    HW134043   1.937   1.844   6.477 -1.4315 -0.6314  0.4876
 7528SOL    HW234044   2.088   1.812   6.456 -0.2196 -1.2245 -0.1373
 7529SOL     OW34045   2.399   1.799  11.010 -0.3248 -0.1392 -0.0685
 7529SOL    HW134046   2.421   1.857  11.083 -1.1812 -0.9537  0.8200
 7529SOL    HW234047   2.406   1.853  10.931 -0.4326 -0.8108 -0.5360
 7530SOL     OW34048   3.912   0.303   8.592  0.1974 -0.3463  0.0347
 7530SOL    HW134049   3.845   0.242   8.622  0.6478 -0.4431  0.8512
 7530SOL    HW234050   3.868   0.388   8.598  0.6391 -0.0747 -0.6173
 7531SOL     OW34051   1.728   4.194   4.074  0.2894 -0.2304  0.4630
 7531SOL    HW134052   1.779   4.137   4.016 -0.5952 -0.1330 -0.4157
 7531SOL    HW234053   1.726   4.272   4.019 -1.3380  0.0781  0.9566
 7532SOL     OW34054   0.620   0.366   7.501 -0.2838 -0.0607 -0.2212
 7532SOL    HW134055   0.582   0.408   7.423  1.5654  0.7742 -0.6669
 7532SOL    HW234056   0.572   0.405   7.573  0.6541 -0.8913  0.8503
 7533SOL     OW34057   4.078   2.022   4.436 -0.2843 -0.1833  0.3905
 7533SOL    HW134058   4.151   2.069   4.397  0.2665 -2.8603 -1.7437
 7533SOL    HW234059   4.040   2.079   4.504 -0.1503  2.2934 -1.6086
 7534SOL     OW34060   1.110   0.803  13.854 -0.1479 -0.1921  0.2109
 7534SOL    HW134061   1.089   0.718  13.893  4.0728 -0.9078  0.8730
 7534SOL    HW234062   1.040   0.863  13.882  0.6383  1.3681 -1.1444
 7535SOL     OW34063   2.921   0.015   8.044  0.0651  0.0428  0.2883
 7535SOL    HW134064   2.887   0.073   7.976 -0.6265  0.6152  1.1346
 7535SOL    HW234065   2.900   0.074   8.117  1.1822  1.4671 -0.5284
 7536SOL     OW34066   3.426   3.556  13.277 -0.1660  0.5413  0.5208
 7536SOL    HW134067   3.490   3.550  13.206 -0.7786  1.4650 -0.1077
 7536SOL    HW234068   3.369   3.486  13.246  1.6083 -0.1581 -1.1883
 7537SOL     OW34069   0.546   3.669   3.364  0.3005 -0.0389 -0.9007
 7537SOL    HW134070   0.540   3.697   3.272 -1.8775 -3.0282 -1.6702
 7537SOL    HW234071   0.455   3.646   3.384  0.6155  0.9453  1.6303
 7538SOL     OW34072   3.051   1.129  13.011  0.0195 -0.2847  0.4270
 7538SOL    HW134073   3.030   1.040  13.038 -1.1937  0.2161  1.1486
 7538SOL    HW234074   3.080   1.108  12.923  1.4900 -0.2947  0.9159
 7539SOL     OW34075   4.246   0.710   2.883  0.0024  0.3872 -0.3497
 7539SOL    HW134076   4.320   0.678   2.934 -1.4283  0.3226  1.6754
 7539SOL    HW234077   4.285   0.699   2.797  1.5407  1.2858  0.2384
 7540SOL     OW34078   1.219   0.546  10.948  0.6183  0.7517 -0.7078
 7540SOL    HW134079   1.219   0.617  11.011  0.9925  1.3917 -1.4320
 7540SOL    HW234080   1.260   0.588  10.872  0.1140  2.5933  0.0346
 7541SOL     OW34081   0.922   2.837  17.380  0.0174 -0.4907  0.6095
 7541SOL    HW134082   0.993   2.853  17.318 -0.5002 -0.2777  0.0681
 7541SOL    HW234083   0.844   2.831  17.325 -1.8870  1.7259  3.0737
 7542SOL     OW34084   3.637   3.431   8.453  0.2647 -0.4723 -0.0211
 7542SOL    HW134085   3.571   3.363   8.446 -0.6129  0.5002 -1.2288
 7542SOL    HW234086   3.578   3.506   8.459 -1.0894 -1.4465 -1.3175
 7543SOL     OW34087   0.110   2.618   3.965 -0.2226  0.2030  0.2116
 7543SOL    HW134088   0.029   2.662   3.942 -0.2440  0.4273  0.7058
 7543SOL    HW234089   0.141   2.602   3.876  4.2274  1.1672  1.6086
 7544SOL     OW34090   2.368   3.681   7.214  0.3621 -0.0204 -0.3700
 7544SOL    HW134091   2.342   3.760   7.167  0.6236  0.6434  0.6142
 7544SOL    HW234092   2.307   3.677   7.287  2.4454 -0.9297  1.3324
 7545SOL     OW34093   4.580   3.432   6.335  0.2052  0.3634  0.0400
 7545SOL    HW134094   4.521   3.499   6.301  0.2945 -0.9175 -2.6532
 7545SOL    HW234095   4.586   3.367   6.265 -0.7566 -0.3662  0.6365
 7546SOL     OW34096   2.400   1.595  16.513 -0.0440 -0.8497 -0.7756
 7546SOL    HW134097   2.485   1.600  16.555  0.3096 -1.1703 -1.4556
 7546SOL    HW234098   2.416   1.564  16.424 -0.7070  1.8521 -1.8374
 7547SOL     OW34099   1.140   3.387   4.235 -0.3732 -0.3758  0.3506
 7547SOL    HW134100   1.141   3.460   4.297 -1.7445  1.7589 -2.1500
 7547SOL    HW234101   1.047   3.364   4.231 -0.1678 -1.2887  0.6612
 7548SOL     OW34102   2.068   2.318  16.220  0.3570 -0.1856  0.1231
 7548SOL    HW134103   2.104   2.407  16.215 -0.1673 -0.0286 -0.8347
 7548SOL    HW234104   1.974   2.331  16.228  0.3280  0.5606 -1.3045
 7549SOL     OW34105   3.324   3.169   7.018  0.0288  0.1573  0.3063
 7549SOL    HW134106   3.367   3.148   6.936  1.1168  2.2125  0.3548
 7549SOL    HW234107   3.392   3.136   7.077 -0.5572 -1.0106  0.3236
 7550SOL     OW34108   1.139   0.080   3.387 -0.2055 -0.3164 -0.2602
 7550SOL    HW134109   1.154   4.708   3.382  1.0930  0.0079 -2.3899
 7550SOL    HW234110   1.224   0.102   3.426 -0.2803  1.8018 -1.2997
 7551SOL     OW34111   0.223   4.668   0.034  0.1754 -0.0434 -0.0525
 7551SOL    HW134112   0.235   4.629   0.120 -2.0737  0.9979  0.7386
 7551SOL    HW234113   0.307   4.658  17.682  0.8301 -1.0443  1.4123
 7552SOL     OW34114   3.369   1.439   5.172  0.2080 -0.1438  0.2981
 7552SOL    HW134115   3.355   1.495   5.248  1.2286 -0.4874  0.7504
 7552SOL    HW234116   3.457   1.463   5.141  0.1474 -2.4695 -1.6961
 7553SOL     OW34117   2.310   0.012   4.526  0.5608  0.6379  0.1430
 7553SOL    HW134118   2.326   0.106   4.514  1.4136  0.7389  2.0322
 7553SOL    HW234119   2.399   4.700   4.531  0.4397  0.1021 -1.6441
 7554SOL     OW34120   2.582   2.003   6.259  0.0171  0.2003  0.5243
 7554SOL    HW134121   2.590   2.094   6.287 -0.5236  0.4921 -0.2647
 7554SOL    HW234122   2.675   1.981   6.263  0.3724  1.0832 -2.4589
 7555SOL     OW34123   3.254   1.220  13.622  0.5002 -0.0840 -0.9325
 7555SOL    HW134124   3.275   1.237  13.714 -3.2705 -0.9535  0.0710
 7555SOL    HW234125   3.216   1.303  13.593  0.9763  0.4176 -0.1093
 7556SOL     OW34126   1.179   4.146   9.607  0.4971  0.0584 -0.0587
 7556SOL    HW134127   1.113   4.170   9.672  0.2634 -0.7249  0.0012
 7556SOL    HW234128   1.135   4.163   9.524  2.2798  1.4267 -0.7231
 7557SOL     OW34129   0.968   0.420  16.049 -0.0939 -0.2285  0.2023
 7557SOL    HW134130   0.926   0.476  16.115 -0.3482 -0.7265  0.4630
 7557SOL    HW234131   1.007   0.484  15.990  1.3207 -0.6721  0.6599
 7558SOL     OW34132   1.462   1.365   3.279  0.2397 -0.5132 -0.0469
 7558SOL    HW134133   1.450   1.294   3.342 -0.4223 -0.1071  0.2846
 7558SOL    HW234134   1.374   1.399   3.262  0.3246  0.6177  1.7955
 7559SOL     OW34135   0.734   2.477   3.480  0.4542 -0.1679 -0.0513
 7559SOL    HW134136   0.683   2.533   3.538 -0.7721 -2.4159  1.0153
 7559SOL    HW234137   0.673   2.472   3.407 -0.4154 -1.8349  0.8000
 7560SOL     OW34138   0.802   4.231   8.703  0.1913  0.6129  0.6475
 7560SOL    HW134139   0.832   4.140   8.693 -2.3303 -0.0744 -0.7477
 7560SOL    HW234140   0.853   4.257   8.780  2.3437 -0.5614 -0.3486
 7561SOL     OW34141   4.606   4.572  13.915 -0.1224 -0.4250  0.2262
 7561SOL    HW134142   4.553   4.601  13.841  1.3607 -0.7489 -0.9464
 7561SOL    HW234143   4.555   4.498  13.949 -0.7675 -1.0349 -2.0866
 7562SOL     OW34144   3.838   1.438   6.907 -0.1906  0.2434 -0.3969
 7562SOL    HW134145   3.807   1.357   6.947  2.4695 -0.7377 -0.3219
 7562SOL    HW234146   3.857   1.484   6.989 -1.7502 -1.5984  0.9916
 7563SOL     OW34147   0.122   1.623   7.078  0.4489  0.0509  0.0133
 7563SOL    HW134148   0.210   1.655   7.098  1.4859 -2.2520 -0.8462
 7563SOL    HW234149   0.068   1.701   7.084  0.3274 -0.0451  0.1753
 7564SOL     OW34150   3.269   3.047   4.576  0.3174  0.5591  0.1099
 7564SOL    HW134151   3.317   3.000   4.644  0.4343  2.1393  1.1086
 7564SOL    HW234152   3.328   3.118   4.552 -0.2811  0.4420 -1.7317
 7565SOL     OW34153   0.264   1.531  10.629  0.4249 -0.2702  0.4287
 7565SOL    HW134154   0.185   1.476  10.627  0.6296 -0.6479  3.1298
 7565SOL    HW234155   0.323   1.467  10.590 -1.6605 -0.9973 -1.5129
 7566SOL     OW34156   4.269   0.507   7.268  0.7256  0.2178 -0.3122
 7566SOL    HW134157   4.347   0.544   7.226  1.5352 -1.8794 -0.6497
 7566SOL    HW234158   4.216   0.584   7.287  1.7561  1.2031 -1.4688
 7567SOL     OW34159   1.591   3.058   4.333  0.0252 -0.2098  0.6492
 7567SOL    HW134160   1.536   3.071   4.256 -0.3963  1.4927  1.2585
 7567SOL    HW234161   1.678   3.041   4.296 -0.6476 -2.2336 -0.0148
 7568SOL     OW34162   0.991   3.697   8.750 -0.2120 -0.7273 -0.5404
 7568SOL    HW134163   0.966   3.656   8.832  1.4275  0.9213  0.7669
 7568SOL    HW234164   1.081   3.667   8.735 -0.5804 -1.9660 -0.2889
 7569SOL     OW34165   0.477   2.273   4.795  0.6136 -0.0131 -0.6121
 7569SOL    HW134166   0.430   2.357   4.792  0.7643 -0.0745 -4.2352
 7569SOL    HW234167   0.469   2.251   4.702 -0.7280 -2.1562  0.0264
 7570SOL     OW34168   3.380   0.335   5.686  0.0135  0.2314  0.3572
 7570SOL    HW134169   3.326   0.284   5.747 -0.9045  0.6114 -0.1487
 7570SOL    HW234170   3.361   0.291   5.603  2.4057 -0.7753  0.3126
 7571SOL     OW34171   3.134   0.020  16.417 -0.0269 -0.1763  0.5100
 7571SOL    HW134172   3.129   4.694  16.500 -1.2548 -0.7161  0.1200
 7571SOL    HW234173   3.209   0.078  16.434  1.4631 -2.0219  0.3021
 7572SOL     OW34174   3.428   1.652  13.112 -0.4886 -0.0180  0.0714
 7572SOL    HW134175   3.432   1.561  13.082 -1.5015 -0.4245  1.1668
 7572SOL    HW234176   3.410   1.695  13.028 -1.5757 -1.2978 -0.3484
 7573SOL     OW34177   1.680   0.411   4.830  0.3890 -0.1528 -1.2800
 7573SOL    HW134178   1.738   0.458   4.890  1.0431 -1.2606 -1.0449
 7573SOL    HW234179   1.738   0.407   4.754  0.9067  2.0002 -0.9852
 7574SOL     OW34180   0.648   1.280   1.364  0.0653 -0.4315 -0.0161
 7574SOL    HW134181   0.741   1.293   1.347  0.4700  0.2012  2.5946
 7574SOL    HW234182   0.654   1.278   1.460  0.8902 -0.9784 -0.0846
 7575SOL     OW34183   0.785   0.778   6.920  0.2056  0.2825  0.6288
 7575SOL    HW134184   0.700   0.779   6.964  0.0247  0.1620  0.2773
 7575SOL    HW234185   0.835   0.812   6.995  0.3813 -0.0749  0.6773
 7576SOL     OW34186   4.084   3.765   9.720  0.4962  0.1357 -0.0935
 7576SOL    HW134187   4.005   3.819   9.721  1.3451  1.3755  0.1074
 7576SOL    HW234188   4.131   3.789   9.800  0.7172  0.4335 -0.3119
 7577SOL     OW34189   4.073   3.824   5.831  0.5850 -0.2321  0.2295
 7577SOL    HW134190   4.135   3.836   5.903  1.1855  2.1548 -0.6950
 7577SOL    HW234191   4.107   3.890   5.770 -1.7568  1.9115  1.2280
 7578SOL     OW34192   1.024   2.543   4.880 -0.5340 -0.0567  0.0463
 7578SOL    HW134193   1.035   2.570   4.788  1.1315  1.2223  0.6268
 7578SOL    HW234194   0.948   2.596   4.904  0.1177  0.9587 -0.1077
 7579SOL     OW34195   3.744   0.209   7.128 -0.0680  0.2886 -0.3637
 7579SOL    HW134196   3.778   0.225   7.216 -0.5360  1.7850 -0.4589
 7579SOL    HW234197   3.718   0.299   7.110 -2.8903 -0.3788  0.4334
 7580SOL     OW34198   3.325   0.640   7.516 -0.5296  0.3396  0.0348
 7580SOL    HW134199   3.281   0.688   7.446 -1.4816  0.5434  0.7514
 7580SOL    HW234200   3.369   0.714   7.559  2.7643 -0.0094 -2.7576
 7581SOL     OW34201   0.734   2.101   7.319  0.8758  0.0780  0.2948
 7581SOL    HW134202   0.824   2.081   7.293  0.6772 -0.4671  0.0287
 7581SOL    HW234203   0.714   2.186   7.278 -0.1610 -0.9837 -1.4168
 7582SOL     OW34204   2.391   0.236   8.470 -0.1949 -0.1676 -0.2021
 7582SOL    HW134205   2.455   0.306   8.482 -0.2580  0.0459 -1.0579
 7582SOL    HW234206   2.420   0.213   8.382  2.5954 -1.4654  1.0566
 7583SOL     OW34207   0.385   2.570   1.012  0.2456 -0.4907 -0.3915
 7583SOL    HW134208   0.294   2.571   0.983 -0.0200  2.5391  0.5075
 7583SOL    HW234209   0.406   2.481   0.983  3.7424  0.5006 -0.8532
 7584SOL     OW34210   1.335   0.787   9.958  0.7622  0.2621 -0.4755
 7584SOL    HW134211   1.334   0.858   9.893 -0.3598 -0.6712 -1.4792
 7584SOL    HW234212   1.246   0.753   9.949  1.1394 -0.8139 -0.0795
 7585SOL     OW34213   3.926   2.283   3.037 -0.1229 -0.1815  0.7138
 7585SOL    HW134214   3.972   2.223   3.097 -2.3085 -3.9931 -1.4179
 7585SOL    HW234215   3.922   2.232   2.957 -0.7163 -0.2992  0.8138
 7586SOL     OW34216   3.829   3.671   8.559  0.0995  0.1716  0.0941
 7586SOL    HW134217   3.751   3.726   8.552  1.0048  1.3649 -0.8121
 7586SOL    HW234218   3.797   3.581   8.551  0.4138  0.0947 -0.3046
 7587SOL     OW34219   2.736   2.564   3.010 -0.2523 -0.1496  0.0250
 7587SOL    HW134220   2.814   2.614   3.031 -0.0595 -0.4864  0.1060
 7587SOL    HW234221   2.738   2.556   2.914 -0.1585 -2.2665  0.2030
 7588SOL     OW34222   0.419   3.553   5.192 -0.4201  0.3979 -0.2546
 7588SOL    HW134223   0.456   3.589   5.272 -0.5559  0.0185 -0.0193
 7588SOL    HW234224   0.328   3.558   5.221 -0.6518 -0.6885 -0.7912
 7589SOL     OW34225   0.568   3.722   6.333 -0.2144 -0.4756  0.2094
 7589SOL    HW134226   0.517   3.758   6.404 -1.1555  0.2140 -0.8181
 7589SOL    HW234227   0.501   3.664   6.296 -0.5819  0.2758 -0.3055
 7590SOL     OW34228   0.763   1.673   6.654  0.0991  0.3453  0.1091
 7590SOL    HW134229   0.674   1.643   6.633 -0.0660  0.9238 -0.0243
 7590SOL    HW234230   0.809   1.631   6.581 -0.2326 -0.2171  0.2180
 7591SOL     OW34231   3.320   2.702   2.516 -0.1060 -0.1724 -0.5972
 7591SOL    HW134232   3.335   2.796   2.511  2.3300 -0.4121  2.3931
 7591SOL    HW234233   3.251   2.688   2.451  2.1413 -0.5533 -2.9234
 7592SOL     OW34234   0.160   2.255   7.420 -0.0096 -0.5953  0.0787
 7592SOL    HW134235   0.189   2.236   7.331  0.2960 -2.7032  0.6416
 7592SOL    HW234236   0.184   2.176   7.467  2.7368 -1.2208 -2.3534
 7593SOL     OW34237   0.810   1.326   6.022  0.2863  0.2073  0.2616
 7593SOL    HW134238   0.858   1.392   6.073 -1.7632  1.0549  1.1090
 7593SOL    HW234239   0.732   1.373   5.991  0.4690  0.4254  0.1332
 7594SOL     OW34240   4.675   3.342   3.456 -0.4743 -0.0479  0.1974
 7594SOL    HW134241   4.688   3.370   3.366 -1.8118  1.6802  0.5451
 7594SOL    HW234242   4.695   3.420   3.508  2.9835 -2.6317  2.7223
 7595SOL     OW34243   1.374   1.170   8.148  0.2675  0.0759  0.3582
 7595SOL    HW134244   1.310   1.210   8.206 -0.4209  1.5350 -1.4024
 7595SOL    HW234245   1.316   1.108   8.103 -0.5581 -0.6932  2.4887
 7596SOL     OW34246   0.357   2.994   4.622 -0.1222  0.2623  0.2030
 7596SOL    HW134247   0.449   2.999   4.595 -0.0493 -0.1410  0.3728
 7596SOL    HW234248   0.331   2.911   4.582 -0.5156  1.4017 -1.9687
 7597SOL     OW34249   3.005   1.242   0.623  0.0038  0.3470 -0.1025
 7597SOL    HW134250   3.040   1.194   0.698 -1.8056  1.1064  1.2223
 7597SOL    HW234251   3.023   1.180   0.553 -1.9846 -1.1330  0.7078
 7598SOL     OW34252   1.413   0.497  14.663 -0.1719 -0.2483 -0.0126
 7598SOL    HW134253   1.475   0.450  14.719  0.3932 -0.8516 -1.1617
 7598SOL    HW234254   1.410   0.442  14.585 -0.2911  0.4813 -0.5211
 7599SOL     OW34255   3.729   2.590   8.738 -0.2683 -0.3103  0.0535
 7599SOL    HW134256   3.742   2.659   8.673 -0.0653 -0.5711 -0.1818
 7599SOL    HW234257   3.635   2.575   8.726 -0.3071 -0.8093  0.9731
 7600SOL     OW34258   0.025   3.320   5.860 -0.3121 -0.0365  0.1654
 7600SOL    HW134259   0.097   3.256   5.860 -0.1234  0.1723 -1.0838
 7600SOL    HW234260   0.074   3.402   5.862  2.0319 -1.4272 -0.2985
 7601SOL     OW34261   4.224   0.197   6.082  0.0742 -0.1191  0.4386
 7601SOL    HW134262   4.235   0.286   6.114 -2.6557  0.6349 -0.6788
 7601SOL    HW234263   4.203   0.150   6.162  1.6942 -1.7124 -0.0690
 7602SOL     OW34264   1.703   3.577   9.143  0.4357  0.1816  0.0671
 7602SOL    HW134265   1.704   3.554   9.051  1.0913 -0.6119  0.2771
 7602SOL    HW234266   1.755   3.657   9.152  1.2354 -0.2913 -0.3437
 7603SOL     OW34267   0.409   1.657   9.438  0.6809 -0.3188 -0.7094
 7603SOL    HW134268   0.495   1.669   9.480  0.9362 -1.4513 -0.8841
 7603SOL    HW234269   0.373   1.734   9.480  1.9223  0.0584 -0.3393
 7604SOL     OW34270   3.264   0.033   1.571  0.1311  0.4406 -0.1595
 7604SOL    HW134271   3.252   0.103   1.636  1.3015 -1.5588  2.2061
 7604SOL    HW234272   3.348   4.722   1.600 -0.5712 -1.8453 -0.7783
 7605SOL     OW34273   0.491   3.667   0.406 -0.3905  0.2179  0.3044
 7605SOL    HW134274   0.483   3.697   0.316 -1.3727 -0.2663  0.2352
 7605SOL    HW234275   0.586   3.673   0.414 -0.3454 -1.0990  0.7189
 7606SOL     OW34276   4.431   2.297  17.281  0.2751 -0.4668  0.3378
 7606SOL    HW134277   4.410   2.292  17.188 -0.2364 -0.6607  0.4649
 7606SOL    HW234278   4.367   2.229  17.304 -0.6365  0.1982 -0.2255
 7607SOL     OW34279   1.650   4.002   3.700  0.4659 -0.4390  0.0051
 7607SOL    HW134280   1.629   3.964   3.615 -0.1664  0.6362 -0.3154
 7607SOL    HW234281   1.567   4.028   3.741  0.3782 -0.2994 -0.2623
 7608SOL     OW34282   4.107   2.712   6.075 -0.3005 -0.7011 -0.0599
 7608SOL    HW134283   4.049   2.733   6.149  0.8659 -2.6303  1.3876
 7608SOL    HW234284   4.088   2.793   6.028 -0.7189 -1.7075 -1.6150
 7609SOL     OW34285   3.153   0.259   2.838  0.5493  0.8180  0.5240
 7609SOL    HW134286   3.066   0.299   2.845 -0.4603 -1.0705 -1.3989
 7609SOL    HW234287   3.212   0.299   2.902  4.2698 -3.0766 -0.5610
 7610SOL     OW34288   2.813   3.566   5.325 -0.3078 -0.0609  0.0600
 7610SOL    HW134289   2.748   3.544   5.258 -0.0786  0.6477 -0.4033
 7610SOL    HW234290   2.752   3.566   5.398 -0.1733 -0.1968  0.1726
 7611SOL     OW34291   0.721   3.369   4.629 -0.1580 -0.0845 -0.0735
 7611SOL    HW134292   0.791   3.410   4.680  0.3473  0.9560 -1.6186
 7611SOL    HW234293   0.681   3.451   4.600  1.0331  0.2026 -0.8956
 7612SOL     OW34294   2.404   3.312  11.617  0.1085 -0.6193 -0.1931
 7612SOL    HW134295   2.312   3.290  11.606  0.5434 -0.3253 -4.6670
 7612SOL    HW234296   2.448   3.229  11.596  0.7799 -0.6098  1.1861
 7613SOL     OW34297   2.144   1.169   9.258 -0.2102  0.0417  0.4145
 7613SOL    HW134298   2.216   1.174   9.195  0.0323 -0.1467  0.6789
 7613SOL    HW234299   2.189   1.169   9.342  0.3007  0.1086  0.1424
 7614SOL     OW34300   0.048   1.353  10.095 -0.0693  0.4023  0.5628
 7614SOL    HW134301   0.129   1.393  10.065 -1.4437  2.0141 -1.0718
 7614SOL    HW234302   4.717   1.432  10.109  0.1701  1.0493 -2.1495
 7615SOL     OW34303   2.830   1.506   2.555  0.4065  0.0693  0.4181
 7615SOL    HW134304   2.777   1.510   2.476  0.4773  1.3795  0.4393
 7615SOL    HW234305   2.873   1.420   2.554  0.4621  0.0696  2.5059
 7616SOL     OW34306   4.396   0.750   1.994 -0.1212 -0.3747 -0.7873
 7616SOL    HW134307   4.443   0.770   1.913  1.3658  0.0929  0.1902
 7616SOL    HW234308   4.364   0.834   2.025 -0.6496 -0.3472 -1.4106
 7617SOL     OW34309   2.732   2.365   5.660  0.0447  0.1801 -0.1462
 7617SOL    HW134310   2.658   2.398   5.711  1.4919  0.3978  1.8139
 7617SOL    HW234311   2.699   2.276   5.650  2.2539 -0.4150 -2.1030
 7618SOL     OW34312   0.365   1.212   6.455  0.3586  0.1556 -0.6129
 7618SOL    HW134313   0.352   1.144   6.521 -0.5013  0.0583 -0.8843
 7618SOL    HW234314   0.300   1.279   6.476  0.8675  0.2152  0.7712
 7619SOL     OW34315   3.790   2.649   4.483  0.1330 -0.3670  0.0125
 7619SOL    HW134316   3.814   2.723   4.539  1.0888 -0.2936 -0.4954
 7619SOL    HW234317   3.726   2.607   4.541 -0.3060 -1.8674 -1.5533
 7620SOL     OW34318   4.538   4.370  14.757 -0.0575  0.1474  0.3375
 7620SOL    HW134319   4.522   4.412  14.841 -2.9122  0.0183 -0.1178
 7620SOL    HW234320   4.445   4.360  14.734 -0.0498  0.4610  0.1711
 7621SOL     OW34321   0.903   4.505   1.325  0.5670 -0.0302 -0.2187
 7621SOL    HW134322   0.967   4.440   1.351  0.0299  0.0476  1.3081
 7621SOL    HW234323   0.867   4.469   1.244 -0.6325  1.6999 -0.4663
 7622SOL     OW34324   2.745   0.606   9.117  0.5960  0.5611 -0.4674
 7622SOL    HW134325   2.760   0.664   9.042 -0.6050  1.3258 -0.1125
 7622SOL    HW234326   2.802   0.533   9.093 -0.9649 -0.8038 -0.0745
 7623SOL     OW34327   4.159   3.292  13.920 -0.1442 -0.0375  0.0082
 7623SOL    HW134328   4.129   3.202  13.928  1.2035 -0.5211 -0.2658
 7623SOL    HW234329   4.076   3.336  13.939  0.9248  2.3421 -0.7579
 7624SOL     OW34330   3.631   4.224  11.636 -0.0556  0.7685 -0.0993
 7624SOL    HW134331   3.717   4.249  11.602  0.4910 -0.0476  0.7024
 7624SOL    HW234332   3.640   4.129  11.626  1.0590  1.0580 -1.9769
 7625SOL     OW34333   1.083   0.376  17.125 -0.3765 -0.1791 -0.3592
 7625SOL    HW134334   1.011   0.356  17.065 -0.9718  0.1175  0.2541
 7625SOL    HW234335   1.139   0.427  17.067 -0.7994  3.2053  2.2341
 7626SOL     OW34336   4.480   2.902   5.018 -0.2280  0.3782  0.2661
 7626SOL    HW134337   4.417   2.875   5.085 -0.4683  0.4509  0.0697
 7626SOL    HW234338   4.544   2.832   5.007  0.2236  0.8176  0.0739
 7627SOL     OW34339   1.140   3.303  11.650 -0.4998  0.5654 -0.6449
 7627SOL    HW134340   1.122   3.260  11.567 -2.2097 -2.3286  1.2298
 7627SOL    HW234341   1.211   3.360  11.622  0.5249  0.3789  1.5532
 7628SOL     OW34342   1.047   0.072   1.337 -0.2364 -0.5251 -0.0764
 7628SOL    HW134343   1.137   0.085   1.307 -0.1136  0.0059  0.5197
 7628SOL    HW234344   1.044   4.709   1.381  2.0034 -0.4815  0.1737
 7629SOL     OW34345   1.480   3.363  17.041 -0.2978  0.0207 -0.1343
 7629SOL    HW134346   1.469   3.345  16.948  1.1572 -1.7198  0.0324
 7629SOL    HW234347   1.410   3.428  17.047 -0.7627 -0.4358 -0.6575
 7630SOL     OW34348   2.893   3.468   4.599  0.0810 -0.3682 -0.2934
 7630SOL    HW134349   2.894   3.484   4.694  2.7254  0.9124 -0.5333
 7630SOL    HW234350   2.861   3.552   4.568  1.6717 -0.1408 -1.3254
 7631SOL     OW34351   2.556   0.292  10.885 -0.3550 -0.4354  0.2498
 7631SOL    HW134352   2.469   0.311  10.918 -0.3424 -1.1874  0.7280
 7631SOL    HW234353   2.554   0.197  10.891  0.5253 -0.5223 -0.7975
 7632SOL     OW34354   3.855   3.465   3.123  0.3763 -0.0055  0.1289
 7632SOL    HW134355   3.888   3.422   3.201  3.3532  0.6558 -0.7697
 7632SOL    HW234356   3.852   3.398   3.054  1.6272 -0.8740  0.9214
 7633SOL     OW34357   1.247   1.541   3.450  0.4181  0.4549  0.0997
 7633SOL    HW134358   1.278   1.503   3.533 -0.4460  0.8426  0.6011
 7633SOL    HW234359   1.153   1.545   3.467  0.6666  0.4309  1.5203
 7634SOL     OW34360   2.345   0.037  10.679  0.2358  0.5375 -0.5421
 7634SOL    HW134361   2.380   4.709  10.751 -0.6593  0.0868 -0.4232
 7634SOL    HW234362   2.305   4.696  10.620 -0.1815  0.0185  0.3064
 7635SOL     OW34363   4.538   4.156   7.743  0.1801  0.0869  0.3134
 7635SOL    HW134364   4.506   4.211   7.672  1.4491  1.1246  0.5505
 7635SOL    HW234365   4.630   4.142   7.722 -0.1768 -0.7329 -0.6970
 7636SOL     OW34366   1.210   3.602  16.766  0.3361 -0.2311  0.8222
 7636SOL    HW134367   1.282   3.541  16.782 -1.0170 -2.1036 -0.2817
 7636SOL    HW234368   1.209   3.599  16.671  1.5069 -0.0221  0.8055
 7637SOL     OW34369   1.723   0.901   7.696  0.3319  0.0375  0.0888
 7637SOL    HW134370   1.644   0.909   7.642  0.7013  0.2978 -0.4140
 7637SOL    HW234371   1.787   0.935   7.634  0.6300 -1.7918 -0.6246
 7638SOL     OW34372   2.532   4.564   8.707 -0.2203  0.1577  0.2313
 7638SOL    HW134373   2.522   4.527   8.794  1.0559 -0.3526  0.1589
 7638SOL    HW234374   2.440   4.572   8.680 -0.4304  3.2154  1.9341
 7639SOL     OW34375   2.383   1.053   9.656 -0.1799  0.8000 -0.2435
 7639SOL    HW134376   2.381   1.078   9.749 -1.6415 -1.6017  0.3554
 7639SOL    HW234377   2.442   0.979   9.648  0.0873  1.0124 -0.2537
 7640SOL     OW34378   0.151   3.471   3.825 -0.2871 -0.3371  0.8195
 7640SOL    HW134379   0.081   3.485   3.762  0.8796 -1.1071 -0.6475
 7640SOL    HW234380   0.224   3.436   3.774 -0.3252 -0.5707  0.9286
 7641SOL     OW34381   2.186   2.437  15.189  0.2065  0.3226  0.1590
 7641SOL    HW134382   2.143   2.502  15.133 -0.0730 -0.3656 -0.4422
 7641SOL    HW234383   2.143   2.361  15.149 -0.7143  0.8902  0.0948
 7642SOL     OW34384   1.959   1.244   0.868 -0.1834  0.3452 -0.1956
 7642SOL    HW134385   1.943   1.150   0.880  2.5646  0.1135  1.6821
 7642SOL    HW234386   1.890   1.281   0.813 -0.7528  1.7832  1.5164
 7643SOL     OW34387   1.149   2.592   2.313 -0.0317  0.7244 -0.4573
 7643SOL    HW134388   1.135   2.497   2.316  2.7411  0.2763 -1.4452
 7643SOL    HW234389   1.066   2.629   2.282 -0.5566 -2.2565 -2.6825
 7644SOL     OW34390   4.060   2.960  10.128 -0.4442  0.1940 -0.5795
 7644SOL    HW134391   4.095   3.048  10.116  0.2869 -0.3249 -2.1673
 7644SOL    HW234392   3.978   2.962  10.080  1.0652 -0.5096 -3.2035
 7645SOL     OW34393   3.503   0.967   5.925 -0.0120 -0.3358  0.2834
 7645SOL    HW134394   3.548   1.051   5.937 -0.7848  0.2209 -0.7231
 7645SOL    HW234395   3.572   0.933   5.868  0.1241  1.1708 -0.4595
 7646SOL     OW34396   2.895   1.443  13.098 -0.2173  0.0934  0.5081
 7646SOL    HW134397   2.914   1.389  13.022 -1.1170  1.5063 -0.7414
 7646SOL    HW234398   2.964   1.505  13.075 -0.8943 -0.5634 -3.2192
 7647SOL     OW34399   0.247   4.057   5.503 -0.0312 -1.1661  0.3346
 7647SOL    HW134400   0.182   4.105   5.555 -0.6859 -0.2661 -1.3330
 7647SOL    HW234401   0.328   4.092   5.539 -0.1690 -0.0868 -0.4062
 7648SOL     OW34402   4.540   2.298   4.472  0.9362 -0.5009  0.1530
 7648SOL    HW134403   4.545   2.204   4.493  0.2176 -0.5596  0.0488
 7648SOL    HW234404   4.627   2.328   4.497  1.7275 -0.8694 -2.1506
 7649SOL     OW34405   0.992   1.467   4.872  0.3511  0.5917  0.2619
 7649SOL    HW134406   1.009   1.397   4.809 -0.0757  1.1777 -0.5189
 7649SOL    HW234407   1.001   1.423   4.956 -0.4118 -0.1648 -0.0524
 7650SOL     OW34408   1.961   0.808   8.596 -0.6257 -0.6989 -0.2344
 7650SOL    HW134409   1.900   0.792   8.668  1.0193 -0.5317  1.2110
 7650SOL    HW234410   2.030   0.869   8.621 -0.3235 -1.0890 -0.1121
 7651SOL     OW34411   0.265   1.257   1.175  0.2277  0.1351  0.5684
 7651SOL    HW134412   0.182   1.304   1.169 -0.0175 -0.5273 -1.2052
 7651SOL    HW234413   0.328   1.328   1.165 -0.6152  0.9356  1.0182
 7652SOL     OW34414   1.633   3.622   5.136 -0.0929 -0.1707  0.2145
 7652SOL    HW134415   1.599   3.533   5.128 -1.6373  0.4321  0.0576
 7652SOL    HW234416   1.710   3.608   5.080  0.1769  0.7466  0.3520
 7653SOL     OW34417   1.634   4.710   2.829  0.1854 -0.0118 -0.1585
 7653SOL    HW134418   1.662   0.049   2.897 -0.5544 -1.0731  1.0944
 7653SOL    HW234419   1.712   4.673   2.789 -0.8430 -2.5244  0.1447
 7654SOL     OW34420   0.269   3.205   5.853  0.1602 -0.4230  0.4200
 7654SOL    HW134421   0.271   3.184   5.760  3.0710 -0.2778  0.4456
 7654SOL    HW234422   0.356   3.246   5.851  0.6038 -1.3821  0.0519
 7655SOL     OW34423   3.447   3.455  17.569  0.0641  0.9841 -0.1949
 7655SOL    HW134424   3.428   3.473  17.661  4.5253  2.7292  0.4051
 7655SOL    HW234425   3.543   3.453  17.579 -0.1351 -2.8194  1.0335
 7656SOL     OW34426   1.198   2.219   7.493  0.4328 -0.1072  0.3752
 7656SOL    HW134427   1.135   2.237   7.423  1.5599 -0.3482 -0.7127
 7656SOL    HW234428   1.271   2.170   7.456 -0.3704 -0.4134 -0.7976
 7657SOL     OW34429   0.741   1.759   5.212 -0.2674 -0.2566  0.5417
 7657SOL    HW134430   0.831   1.776   5.238 -0.0953  0.0126 -0.2218
 7657SOL    HW234431   0.755   1.706   5.133 -0.3238  0.0786  0.3049
 7658SOL     OW34432   4.358   3.194   8.927 -0.4753 -0.8136 -0.3219
 7658SOL    HW134433   4.293   3.167   8.862 -0.2361  1.0191 -1.3276
 7658SOL    HW234434   4.325   3.278   8.960  0.8902 -1.0991  1.7402
 7659SOL     OW34435   4.307   2.102   4.789  0.1769  0.0578 -0.9088
 7659SOL    HW134436   4.384   2.150   4.818  1.1517 -2.5088  0.8280
 7659SOL    HW234437   4.341   2.013   4.774 -0.6908 -0.5730  0.8548
 7660SOL     OW34438   1.217   4.431   8.892  0.2957 -0.0501  0.3742
 7660SOL    HW134439   1.246   4.442   8.983 -2.3537 -0.3643  1.2528
 7660SOL    HW234440   1.202   4.520   8.860  0.6361  0.1369  0.7339
 7661SOL     OW34441   3.109   3.106   7.143  0.3421  0.1516  0.4171
 7661SOL    HW134442   3.163   3.140   7.072 -0.7471 -0.2745 -0.5947
 7661SOL    HW234443   3.166   3.134   7.215 -0.7294  0.0626  1.3045
 7662SOL     OW34444   4.661   2.683   5.061 -0.4408 -0.2858 -0.2540
 7662SOL    HW134445   4.707   2.652   5.139 -2.7396  1.3874  1.7557
 7662SOL    HW234446   4.709   2.766   5.051  0.1346 -0.2823  2.4110
 7663SOL     OW34447   2.984   2.022   1.170 -0.2122 -0.1159  0.0210
 7663SOL    HW134448   2.908   2.038   1.114  0.9618  1.5022 -1.1353
 7663SOL    HW234449   2.958   1.944   1.218  0.7262 -0.7115 -0.4426
 7664SOL     OW34450   0.746   4.490   3.277  0.2669  0.2024 -0.6886
 7664SOL    HW134451   0.736   4.491   3.372  1.2602  0.6917 -0.5920
 7664SOL    HW234452   0.820   4.430   3.268  0.9917  0.9704  0.2758
 7665SOL     OW34453   2.240   1.525   3.423 -0.1810 -0.2672  0.4537
 7665SOL    HW134454   2.145   1.523   3.409 -0.0597  0.2896 -0.4804
 7665SOL    HW234455   2.249   1.579   3.502 -0.6170  2.9388 -1.6960
 7666SOL     OW34456   0.696   4.269   5.863 -0.2085 -0.2022  0.3532
 7666SOL    HW134457   0.720   4.318   5.784  2.1101 -2.3214 -0.2936
 7666SOL    HW234458   0.736   4.184   5.841  0.4113  0.4198 -0.9098
 7667SOL     OW34459   1.998   3.542   6.772  0.2267  0.2016  0.2484
 7667SOL    HW134460   1.970   3.455   6.802 -0.2520  0.0934 -0.5086
 7667SOL    HW234461   1.945   3.603   6.824 -0.4202 -1.9984  2.1800
 7668SOL     OW34462   3.074   1.481  13.660  0.0038 -0.0254 -0.5756
 7668SOL    HW134463   3.001   1.542  13.661 -1.8223 -2.2562  0.6275
 7668SOL    HW234464   3.061   1.426  13.737  2.5952  0.9374  0.5414
 7669SOL     OW34465   2.842   4.285   8.957 -0.1026  0.4838 -0.3207
 7669SOL    HW134466   2.752   4.255   8.947 -0.0182 -0.3645  1.3993
 7669SOL    HW234467   2.853   4.362   8.903  0.4626 -0.1259 -1.0796
 7670SOL     OW34468   1.152   2.908   4.914  0.3174 -0.1487  0.4896
 7670SOL    HW134469   1.076   2.964   4.928  1.1330  0.8455  1.0130
 7670SOL    HW234470   1.149   2.887   4.821  1.3140 -0.7138  0.5738
 7671SOL     OW34471   2.669   3.715  12.780 -0.1936  0.1985  0.0785
 7671SOL    HW134472   2.683   3.670  12.863  1.9660 -1.5470 -1.2231
 7671SOL    HW234473   2.636   3.651  12.717  2.0914 -0.9838  0.0851
 7672SOL     OW34474   3.919   0.266   7.349  0.0914  0.1226 -0.0083
 7672SOL    HW134475   3.998   0.321   7.356 -1.5264  2.8029 -2.8555
 7672SOL    HW234476   3.882   0.291   7.433 -0.6825  0.1831 -0.3652
 7673SOL     OW34477   3.094   0.204   0.898  0.0930  0.0712  0.5105
 7673SOL    HW134478   3.179   0.204   0.942  0.1978  0.4020  0.3021
 7673SOL    HW234479   3.106   0.127   0.842 -0.7966 -0.3973  0.9620
 7674SOL     OW34480   0.271   4.300  12.251 -0.0381  0.0798 -0.1866
 7674SOL    HW134481   0.220   4.257  12.182  3.2342 -1.7827 -1.4603
 7674SOL    HW234482   0.270   4.393  12.231  0.8978  0.1254 -0.0546
 7675SOL     OW34483   2.239   2.562  17.602  0.0593  0.6209 -0.1121
 7675SOL    HW134484   2.276   2.529  17.520 -0.2574 -0.1278  0.0402
 7675SOL    HW234485   2.308   2.545  17.667  0.9635  1.9092 -0.7373
 7676SOL     OW34486   1.329   1.349   0.590  0.1710 -0.5869  0.0763
 7676SOL    HW134487   1.376   1.408   0.531 -0.1469 -0.6657 -0.2566
 7676SOL    HW234488   1.246   1.342   0.543 -0.3093  1.4245  0.6527
 7677SOL     OW34489   2.050   0.517   2.265  0.4181 -0.0335 -0.0844
 7677SOL    HW134490   2.117   0.476   2.319  0.7379  0.2705 -0.2502
 7677SOL    HW234491   2.008   0.571   2.332 -1.7741 -1.2698 -0.4666
 7678SOL     OW34492   3.418   2.435  10.431  0.1830  0.3949 -0.0128
 7678SOL    HW134493   3.457   2.354  10.464 -0.3252 -0.1450 -0.7209
 7678SOL    HW234494   3.333   2.426  10.474  0.4950 -0.9671  0.3138
 7679SOL     OW34495   1.880   2.454   7.268  0.1420  0.1585 -0.8880
 7679SOL    HW134496   1.827   2.429   7.343  1.3225  0.5671  0.0630
 7679SOL    HW234497   1.937   2.378   7.256 -0.2995 -0.3416  0.2672
 7680SOL     OW34498   1.276   2.039   5.085  0.1121 -0.2380  0.2359
 7680SOL    HW134499   1.315   2.069   5.167  1.2887  0.6606 -0.6602
 7680SOL    HW234500   1.188   2.008   5.107  1.5416 -0.7813  5.0295
 7681SOL     OW34501   2.123   1.082  15.432 -0.7073 -0.3648  0.6695
 7681SOL    HW134502   2.195   1.057  15.374 -0.7316 -0.3120  0.6166
 7681SOL    HW234503   2.060   1.011  15.423 -0.5698 -0.9008  3.9372
 7682SOL     OW34504   2.911   1.484   1.725  0.0658 -0.8541 -0.0300
 7682SOL    HW134505   2.966   1.463   1.801  1.3750  1.8099 -0.2390
 7682SOL    HW234506   2.929   1.578   1.723  0.6376 -0.9190  1.4099
 7683SOL     OW34507   2.864   2.071   5.491 -0.1563 -0.6202 -0.1005
 7683SOL    HW134508   2.774   2.069   5.524  0.0777 -0.8556  0.5179
 7683SOL    HW234509   2.899   2.075   5.580  0.3116 -0.2662 -0.3046
 7684SOL     OW34510   0.437   1.214  10.777 -0.7344  0.4346 -0.5336
 7684SOL    HW134511   0.527   1.212  10.810 -0.0901 -1.5673 -2.3728
 7684SOL    HW234512   0.392   1.264  10.845 -1.0361 -0.5621  0.0074
 7685SOL     OW34513   3.635   0.979   5.271  0.1401 -0.1260 -0.3036
 7685SOL    HW134514   3.712   0.928   5.244 -0.3990 -0.9852 -0.2206
 7685SOL    HW234515   3.656   1.064   5.233  0.3153 -0.5618 -1.1775
 7686SOL     OW34516   0.944   2.869  12.244 -0.6678  0.2325  0.2158
 7686SOL    HW134517   0.968   2.951  12.201  1.0922  0.6675  2.0535
 7686SOL    HW234518   1.005   2.859  12.317  0.6617  0.2183 -0.8961
 7687SOL     OW34519   1.571   2.042   4.717  0.0138  0.0875  0.3036
 7687SOL    HW134520   1.649   2.020   4.665 -1.2059  0.3218 -1.6136
 7687SOL    HW234521   1.509   2.000   4.657  0.4551  0.0381 -0.1247
 7688SOL     OW34522   3.657   3.273   7.987  0.0889  0.7198  0.2132
 7688SOL    HW134523   3.598   3.219   8.039  0.9476 -0.0161  0.4182
 7688SOL    HW234524   3.639   3.224   7.907  0.4531  0.7732  0.0983
 7689SOL     OW34525   0.112   2.537   2.106  0.1893  0.1825  0.6795
 7689SOL    HW134526   0.133   2.630   2.110 -0.3653  0.2431  2.1951
 7689SOL    HW234527   0.109   2.513   2.013  0.6941 -0.0054  0.7123
 7690SOL     OW34528   3.566   2.314   3.170  0.2299  0.2216 -0.0673
 7690SOL    HW134529   3.553   2.234   3.119 -4.0737  2.1376 -1.9261
 7690SOL    HW234530   3.502   2.374   3.132 -1.4171 -1.3886  0.1832
 7691SOL     OW34531   3.664   3.178   4.140 -0.1970 -0.1514  0.6503
 7691SOL    HW134532   3.734   3.147   4.197 -0.7784 -0.0166  1.4421
 7691SOL    HW234533   3.713   3.215   4.067  2.2422 -1.1884  1.7537
 7692SOL     OW34534   2.745   0.664   9.612 -0.2453 -0.2396  0.0002
 7692SOL    HW134535   2.672   0.721   9.590  0.1646  1.1752  2.2601
 7692SOL    HW234536   2.750   0.673   9.707  0.4278 -2.0944  0.1298
 7693SOL     OW34537   1.698   0.910  16.438 -0.0785  0.2536  0.4868
 7693SOL    HW134538   1.639   0.983  16.458 -1.0343 -0.3891 -0.0297
 7693SOL    HW234539   1.759   0.897  16.511  1.6471 -1.1636 -1.1939
 7694SOL     OW34540   3.157   0.342   5.198 -0.0365  0.3344 -0.1811
 7694SOL    HW134541   3.138   0.310   5.109 -0.6004  0.3036 -0.0475
 7694SOL    HW234542   3.098   0.279   5.239  0.1220 -0.8638 -1.7800
 7695SOL     OW34543   0.676   3.197   5.916 -0.0851  0.0935 -0.8115
 7695SOL    HW134544   0.642   3.145   5.843  0.6389  1.5680 -2.2230
 7695SOL    HW234545   0.593   3.205   5.962  0.0985  0.0712 -0.4799
 7696SOL     OW34546   0.692   1.627   3.734 -0.7827  0.2520 -0.0413
 7696SOL    HW134547   0.657   1.632   3.823 -2.1547  0.5167 -0.5958
 7696SOL    HW234548   0.784   1.612   3.753 -1.4551 -1.0739  2.1072
 7697SOL     OW34549   4.539   2.671   3.870 -0.6081  0.3653 -0.5879
 7697SOL    HW134550   4.484   2.620   3.809  0.3974 -0.0951 -1.1104
 7697SOL    HW234551   4.486   2.645   3.945  0.6614  0.5462  0.3644
 7698SOL     OW34552   0.726   2.482   4.790  0.5788  0.3278 -0.4431
 7698SOL    HW134553   0.752   2.499   4.881 -0.3378  1.1685 -0.3342
 7698SOL    HW234554   0.689   2.395   4.803  1.2362  0.3684  1.7421
 7699SOL     OW34555   0.592   3.441  11.002 -0.4015  0.3800 -0.3142
 7699SOL    HW134556   0.670   3.473  10.957 -0.2569 -2.3649 -2.0395
 7699SOL    HW234557   0.538   3.405  10.932 -0.7105 -1.7591  1.0138
 7700SOL     OW34558   1.144   4.447   5.817 -0.3509  0.3431 -0.3891
 7700SOL    HW134559   1.174   4.375   5.762  0.0101 -0.3846  0.7377
 7700SOL    HW234560   1.115   4.409   5.901  0.7728 -0.4721 -0.3704
 7701SOL     OW34561   1.629   3.204   9.042 -0.2398 -0.6876 -0.5376
 7701SOL    HW134562   1.556   3.212   8.981  1.6984 -0.2769 -2.8148
 7701SOL    HW234563   1.656   3.116   9.015 -1.1774 -0.8128 -1.0762
 7702SOL     OW34564   4.695   0.761  10.204 -0.2035  0.2272  0.2696
 7702SOL    HW134565   4.649   0.730  10.126  0.8997  0.3396 -0.4201
 7702SOL    HW234566   4.621   0.804  10.249 -0.9263  1.6110 -2.2566
 7703SOL     OW34567   1.234   2.010   6.814 -0.2734  0.3903 -0.3839
 7703SOL    HW134568   1.146   2.043   6.832  0.0563  1.4536 -0.6868
 7703SOL    HW234569   1.210   1.924   6.779  2.8576  0.3146 -2.3562
 7704SOL     OW34570   2.782   1.284   1.582 -0.1962  0.3644 -0.2465
 7704SOL    HW134571   2.824   1.308   1.499 -2.1330 -0.2730 -1.4057
 7704SOL    HW234572   2.778   1.372   1.620  0.5698  0.4061 -0.2649
 7705SOL     OW34573   0.278   0.023  12.161 -0.2845 -0.5752 -0.0731
 7705SOL    HW134574   0.350   4.683  12.174 -0.1279  0.2000  2.7984
 7705SOL    HW234575   0.217   4.675  12.183 -1.1496 -0.2551 -1.4342
 7706SOL     OW34576   3.696   3.586  15.988  0.5476 -0.1910  0.7626
 7706SOL    HW134577   3.623   3.542  16.032 -0.9755  2.2517  0.6524
 7706SOL    HW234578   3.750   3.511  15.963  0.5957  0.2877 -0.5841
 7707SOL     OW34579   1.948   1.740   9.092  0.1902 -0.9313 -0.0058
 7707SOL    HW134580   2.013   1.678   9.124 -0.4858 -0.2034  2.7758
 7707SOL    HW234581   1.957   1.735   8.997  0.8546 -1.0592  0.0637
 7708SOL     OW34582   0.357   0.366   3.568  0.0901 -0.5578  0.5085
 7708SOL    HW134583   0.278   0.417   3.582 -0.1345 -0.5052 -0.9404
 7708SOL    HW234584   0.413   0.430   3.524 -1.7117  0.0890 -0.7861
 7709SOL     OW34585   3.176   1.051   9.059 -0.3934 -0.3041  0.3827
 7709SOL    HW134586   3.137   1.040   8.972  0.4737  1.2278 -0.2106
 7709SOL    HW234587   3.100   1.017   9.106  0.4195 -1.9473  0.5261
 7710SOL     OW34588   4.722   3.595  16.859 -0.1010 -0.4032 -0.1871
 7710SOL    HW134589   4.696   3.622  16.770  3.3791  3.1124 -0.0922
 7710SOL    HW234590   0.058   3.520  16.845 -0.8916 -0.8217 -1.3325
 7711SOL     OW34591   2.432   0.521  13.952 -0.5047 -0.6375  0.3400
 7711SOL    HW134592   2.376   0.488  13.881  1.4180 -3.3772  0.0937
 7711SOL    HW234593   2.376   0.513  14.029  0.2524  1.9144  1.1461
 7712SOL     OW34594   3.283   4.007   5.041  0.6631 -0.6810  0.3265
 7712SOL    HW134595   3.269   3.918   5.011  0.7279 -0.5469 -0.0981
 7712SOL    HW234596   3.341   3.986   5.115  2.3915 -0.9378 -1.1176
 7713SOL     OW34597   4.197   1.138   7.617 -0.1852 -0.1491 -0.1989
 7713SOL    HW134598   4.149   1.101   7.692 -0.7022 -1.6348 -1.2567
 7713SOL    HW234599   4.162   1.083   7.546  0.2292  0.6030 -0.9756
 7714SOL     OW34600   0.249   3.392   8.125  0.1238  0.3960 -0.2023
 7714SOL    HW134601   0.243   3.486   8.107 -4.6503 -0.1848 -1.6901
 7714SOL    HW234602   0.157   3.386   8.152  0.5958  1.6464  1.6751
 7715SOL     OW34603   1.548   4.420   8.252  0.6430  0.3125  0.1374
 7715SOL    HW134604   1.490   4.367   8.306  1.0053 -1.3444 -1.1166
 7715SOL    HW234605   1.562   4.364   8.176 -1.4552  0.9495 -0.7245
 7716SOL     OW34606   0.276   4.508   4.684 -0.1584 -0.2389 -0.3045
 7716SOL    HW134607   0.204   4.545   4.632 -1.1766 -0.4418  0.9826
 7716SOL    HW234608   0.240   4.421   4.703 -2.9484  1.0471  0.3016
 7717SOL     OW34609   1.693   3.048   8.401 -0.0064 -0.1984 -0.6139
 7717SOL    HW134610   1.622   3.104   8.432  1.3036  0.5417  1.0631
 7717SOL    HW234611   1.680   3.047   8.306 -1.2366 -0.3002 -0.4403
 7718SOL     OW34612   2.739   4.371   5.290 -0.4286 -0.7482  0.2299
 7718SOL    HW134613   2.826   4.409   5.277 -0.0676 -2.1277 -1.4368
 7718SOL    HW234614   2.748   4.331   5.377 -0.8462 -1.0733  0.1264
 7719SOL     OW34615   4.606   1.701   0.696  0.3282 -0.0695  0.1020
 7719SOL    HW134616   4.598   1.608   0.675 -0.4587  0.2172 -0.8274
 7719SOL    HW234617   4.648   1.706   0.782 -0.5000  0.7635  0.4577
 7720SOL     OW34618   0.333   3.255  14.680  0.2084 -0.1896  0.7078
 7720SOL    HW134619   0.335   3.282  14.588 -1.6072 -0.4091  0.5993
 7720SOL    HW234620   0.408   3.198  14.697  1.0444  1.3625  2.2241
 7721SOL     OW34621   1.918   3.376   4.237 -0.0791  0.0832 -0.0236
 7721SOL    HW134622   1.987   3.396   4.300  0.8702 -2.3183 -0.2889
 7721SOL    HW234623   1.839   3.416   4.274  0.0040  0.5101 -0.3119
 7722SOL     OW34624   2.294   2.097   7.212  0.9250  0.1415 -0.3613
 7722SOL    HW134625   2.293   2.065   7.302 -0.3706  3.7767  0.9300
 7722SOL    HW234626   2.389   2.096   7.205  0.9284  0.2183 -0.3237
 7723SOL     OW34627   0.340   1.868  11.448  0.5187  0.3718  0.5370
 7723SOL    HW134628   0.378   1.780  11.459 -1.4350 -0.5982 -0.4081
 7723SOL    HW234629   0.400   1.913  11.389 -2.1399  1.6620 -1.2080
 7724SOL     OW34630   1.662   3.766   4.728  0.1356 -0.0681  0.1343
 7724SOL    HW134631   1.708   3.799   4.651 -1.8165 -0.3506 -1.1648
 7724SOL    HW234632   1.621   3.850   4.751  0.8426 -0.5895  3.3322
 7725SOL     OW34633   0.583   2.600   7.946 -0.3284  0.1205 -0.1309
 7725SOL    HW134634   0.490   2.623   7.946 -0.2971  0.2589 -3.9483
 7725SOL    HW234635   0.623   2.658   7.881  0.8283 -2.4163 -1.7188
 7726SOL     OW34636   0.460   3.350   1.659  0.0868  0.0519 -0.2982
 7726SOL    HW134637   0.554   3.369   1.654  0.0245  0.3454 -0.3377
 7726SOL    HW234638   0.430   3.414   1.724 -0.5949  0.3323 -0.8891
 7727SOL     OW34639   1.542   4.102   4.391 -0.5499  0.1003  0.1421
 7727SOL    HW134640   1.455   4.090   4.429 -0.9669  1.3873 -0.4246
 7727SOL    HW234641   1.575   4.159   4.461  2.2298 -1.8749  0.4507
 7728SOL     OW34642   1.921   2.462   5.005 -0.0383  0.1487  0.2917
 7728SOL    HW134643   1.976   2.510   4.943 -0.6973  0.0266 -0.3895
 7728SOL    HW234644   1.833   2.461   4.967  0.5096 -1.1341 -0.9468
 7729SOL     OW34645   3.011   1.955  12.201 -0.0840  0.4743 -0.9062
 7729SOL    HW134646   3.079   2.006  12.157 -1.1384  3.0714  0.4507
 7729SOL    HW234647   2.938   2.017  12.204 -0.7822 -0.4036  0.5516
 7730SOL     OW34648   0.433   1.603  16.280 -0.6586  0.2110 -0.0462
 7730SOL    HW134649   0.435   1.507  16.282 -2.2756  0.2179  3.3414
 7730SOL    HW234650   0.362   1.614  16.217 -1.6004 -2.9764  0.4568
 7731SOL     OW34651   0.911   3.722  14.738 -0.4250  0.1356  0.0788
 7731SOL    HW134652   0.915   3.791  14.672 -0.5212  0.3666  0.3165
 7731SOL    HW234653   0.899   3.650  14.675 -0.1065 -0.0701  0.2499
 7732SOL     OW34654   1.378   0.849   7.901 -0.2820 -0.1194 -0.2034
 7732SOL    HW134655   1.446   0.911   7.929  1.2440 -1.5154 -0.8036
 7732SOL    HW234656   1.354   0.884   7.815  0.0446 -1.1494 -0.7092
 7733SOL     OW34657   0.200   3.553   6.595 -0.4411 -0.2467 -0.1117
 7733SOL    HW134658   0.155   3.622   6.546 -1.6905  0.3893  1.9696
 7733SOL    HW234659   0.122   3.503   6.618 -0.5484 -0.5164 -1.0368
 7734SOL     OW34660   3.404   2.912  10.006  0.2943  0.2230 -0.0230
 7734SOL    HW134661   3.393   3.007   9.998 -2.3622 -0.1189 -0.3731
 7734SOL    HW234662   3.467   2.907  10.078  0.6392  1.1022 -0.2613
 7735SOL     OW34663   2.028   4.604  10.396 -0.5324 -0.0846 -0.0900
 7735SOL    HW134664   2.113   4.569  10.422 -0.9176 -0.7454  0.2778
 7735SOL    HW234665   2.030   4.576  10.305  0.2471  0.5371 -0.2656
 7736SOL     OW34666   3.150   3.106   3.005  0.3900 -0.0262  0.1864
 7736SOL    HW134667   3.184   3.022   2.977 -2.5466 -0.7960 -1.0943
 7736SOL    HW234668   3.132   3.088   3.097 -0.9967  0.3647  0.0038
 7737SOL     OW34669   4.316   3.824   7.850  0.0791  0.2963 -0.1159
 7737SOL    HW134670   4.396   3.780   7.822 -0.1305 -0.1668 -0.0019
 7737SOL    HW234671   4.350   3.898   7.899  3.0998  0.0404 -1.8792
 7738SOL     OW34672   3.280   0.174   0.573 -0.1280  0.0648 -0.1710
 7738SOL    HW134673   3.346   0.233   0.609 -1.8586  1.5583  0.5480
 7738SOL    HW234674   3.279   0.110   0.644  0.3364  2.7985  2.3015
 7739SOL     OW34675   2.075   2.064   8.589 -0.3759  0.2393  0.3061
 7739SOL    HW134676   2.164   2.030   8.585 -0.6446 -0.7049  2.2041
 7739SOL    HW234677   2.053   2.094   8.501 -1.1929 -0.0882  0.3941
 7740SOL     OW34678   0.117   0.963   3.452 -0.4618  0.0265 -0.4878
 7740SOL    HW134679   0.173   1.023   3.502  0.7458 -0.7056 -0.9702
 7740SOL    HW234680   0.042   1.022   3.451 -1.4472 -1.1984  1.6161
 7741SOL     OW34681   1.166   0.917  13.086  0.1241 -0.1127  1.1593
 7741SOL    HW134682   1.101   0.986  13.073 -1.0279 -0.8286  3.2830
 7741SOL    HW234683   1.231   0.963  13.139 -0.2278  2.5260 -0.6791
 7742SOL     OW34684   4.107   0.980  13.846 -0.4058  0.0049  0.2130
 7742SOL    HW134685   4.013   0.966  13.832 -0.9204  2.8363  0.7570
 7742SOL    HW234686   4.095   1.050  13.910 -2.4933 -0.1077 -0.0580
 7743SOL     OW34687   1.774   2.054  10.277  0.3348  0.0921  0.7468
 7743SOL    HW134688   1.855   2.003  10.280  1.5329  1.9956  1.0002
 7743SOL    HW234689   1.814   2.138  10.254 -1.0644  0.6252  0.2227
 7744SOL     OW34690   2.391   3.259  17.417  0.0108  0.0617  0.1453
 7744SOL    HW134691   2.370   3.350  17.396  1.3244  0.3695  0.1367
 7744SOL    HW234692   2.456   3.242  17.349 -0.1643  0.3119 -0.0887
 7745SOL     OW34693   3.349   2.592  12.209 -0.1521 -0.4799 -0.1615
 7745SOL    HW134694   3.298   2.671  12.229 -0.5890 -0.6622 -0.5882
 7745SOL    HW234695   3.442   2.616  12.206 -0.3882  0.6046  0.9019
 7746SOL     OW34696   1.713   0.154   7.134 -0.6868  0.1128  0.0925
 7746SOL    HW134697   1.784   0.117   7.082 -1.6721  0.4248 -1.4838
 7746SOL    HW234698   1.744   0.244   7.143  1.8225 -1.0086  2.6802
 7747SOL     OW34699   3.614   2.968   4.655  0.3492 -0.5098  0.6961
 7747SOL    HW134700   3.592   2.952   4.563  1.0537 -0.4792  0.5184
 7747SOL    HW234701   3.705   2.936   4.659  0.2744 -0.6238  1.4087
 7748SOL     OW34702   1.006   2.725   8.530 -0.5599 -0.1119  0.6134
 7748SOL    HW134703   0.920   2.696   8.559 -1.0642 -0.5811 -1.4037
 7748SOL    HW234704   0.989   2.711   8.438  0.2036 -1.7663  0.7345
 7749SOL     OW34705   2.311   0.971   0.370 -0.0848 -0.1800 -0.1072
 7749SOL    HW134706   2.278   1.027   0.299 -1.3667 -0.9462 -0.1249
 7749SOL    HW234707   2.239   0.908   0.370  1.5282 -2.0204 -0.0149
 7750SOL     OW34708   0.254   3.679   8.121 -0.0148 -0.1201  0.3921
 7750SOL    HW134709   0.244   3.760   8.171 -1.8490 -0.9975  1.3959
 7750SOL    HW234710   0.319   3.713   8.059  0.5019 -2.7262 -0.5116
 7751SOL     OW34711   3.566   2.253   8.760 -0.2692 -0.4911  0.1735
 7751SOL    HW134712   3.499   2.277   8.824 -0.5339  0.3116 -0.3941
 7751SOL    HW234713   3.508   2.241   8.684 -0.6218 -0.2390  0.4055
 7752SOL     OW34714   1.369   0.267  10.253  0.1214 -0.4690  0.4060
 7752SOL    HW134715   1.314   0.218  10.191  0.6799 -0.3635 -0.1708
 7752SOL    HW234716   1.333   0.230  10.334 -0.5090  1.1192  0.8476
 7753SOL     OW34717   2.868   0.143   8.864  0.0104 -0.4993  0.9030
 7753SOL    HW134718   2.781   0.125   8.829  0.0086  0.6754  0.2882
 7753SOL    HW234719   2.900   0.055   8.883  1.0587 -0.1743  0.6238
 7754SOL     OW34720   4.111   4.525   3.800  0.2385  0.3952  0.2901
 7754SOL    HW134721   4.166   4.600   3.823 -1.1134  0.7859  2.2178
 7754SOL    HW234722   4.021   4.555   3.807  0.8786  2.0589  1.4865
 7755SOL     OW34723   2.547   2.494   6.027 -0.1514  0.5424  0.1014
 7755SOL    HW134724   2.506   2.543   6.099 -0.5057 -0.9082  0.8818
 7755SOL    HW234725   2.626   2.547   6.034 -0.8674  1.4388  1.4340
 7756SOL     OW34726   2.770   1.129  11.766  0.2556  0.5754 -0.4606
 7756SOL    HW134727   2.740   1.092  11.849 -0.1870 -0.5113 -1.1158
 7756SOL    HW234728   2.863   1.128  11.789  0.7388 -0.0818 -2.4088
 7757SOL     OW34729   0.451   1.941  12.592  0.0924  0.0086 -0.3007
 7757SOL    HW134730   0.411   1.860  12.563  0.2203 -0.3343  0.4726
 7757SOL    HW234731   0.395   1.965  12.666  1.3491  0.1573  0.6103
 7758SOL     OW34732   4.319   3.013   2.517  0.7738  0.5723 -0.1123
 7758SOL    HW134733   4.243   3.008   2.458  0.0940 -0.5708  0.8829
 7758SOL    HW234734   4.359   2.929   2.495  0.0051  0.0632  0.4353
 7759SOL     OW34735   0.542   0.237  15.353 -0.0627 -0.3332 -0.4021
 7759SOL    HW134736   0.478   0.166  15.349 -0.2463 -0.2237  0.5134
 7759SOL    HW234737   0.492   0.307  15.312  0.1743  1.7736  2.9622
 7760SOL     OW34738   4.169   0.648   2.464 -0.3093 -0.1428  0.3454
 7760SOL    HW134739   4.159   0.566   2.416  1.2700  0.1279 -0.4563
 7760SOL    HW234740   4.259   0.675   2.449  0.3823 -1.7042  1.6808
 7761SOL     OW34741   1.517   3.421  13.522  0.2907  0.2456 -0.0749
 7761SOL    HW134742   1.556   3.506  13.541 -0.3515  0.6239 -0.4320
 7761SOL    HW234743   1.537   3.415  13.428 -0.7021  0.6821 -0.3135
 7762SOL     OW34744   0.582   0.875   9.104 -0.1026 -0.3306  0.0235
 7762SOL    HW134745   0.543   0.961   9.093  2.3072  0.5059 -2.1257
 7762SOL    HW234746   0.671   0.899   9.130  0.0343  0.2803 -1.0014
 7763SOL     OW34747   0.636   3.194   5.466  0.3803  0.2448  0.0628
 7763SOL    HW134748   0.566   3.258   5.450 -0.8950 -0.8195  1.3171
 7763SOL    HW234749   0.601   3.139   5.536 -2.9901  0.0793 -1.7346
 7764SOL     OW34750   3.919   1.119   2.380 -0.0607  0.2676  0.0318
 7764SOL    HW134751   3.929   1.048   2.444 -2.9467  0.7779  1.0593
 7764SOL    HW234752   3.872   1.075   2.309  0.8778  0.2553 -0.5832
 7765SOL     OW34753   2.802   4.324   6.398  0.0149  0.1265  0.2785
 7765SOL    HW134754   2.873   4.261   6.387  0.1747 -0.2075  3.1752
 7765SOL    HW234755   2.775   4.299   6.487 -0.6322 -0.3100 -0.0394
 7766SOL     OW34756   1.146   1.130  10.402 -0.3966 -0.1191  0.3153
 7766SOL    HW134757   1.072   1.091  10.449 -0.8779 -3.9852 -3.6291
 7766SOL    HW234758   1.216   1.066  10.417  0.0598  0.0027 -1.2839
 7767SOL     OW34759   1.314   0.946   3.090  0.2936  0.4518  0.2122
 7767SOL    HW134760   1.229   0.961   3.131  1.0829  0.3223  1.9203
 7767SOL    HW234761   1.292   0.881   3.024 -2.4868 -0.2541  1.8301
 7768SOL     OW34762   3.653   3.858   0.741 -0.4080  0.1902 -0.1332
 7768SOL    HW134763   3.658   3.930   0.803  0.9346 -1.9175  2.1814
 7768SOL    HW234764   3.625   3.906   0.663 -0.9638 -0.8774 -0.5975
 7769SOL     OW34765   3.344   2.100   3.888 -0.9224  0.9892 -0.0880
 7769SOL    HW134766   3.365   2.190   3.862 -1.0669  0.0513 -3.4250
 7769SOL    HW234767   3.322   2.054   3.808  2.9406 -1.6907  0.3723
 7770SOL     OW34768   1.619   2.215   6.854  0.0114  0.4035  0.6010
 7770SOL    HW134769   1.535   2.260   6.850 -1.0146 -1.6480 -1.3730
 7770SOL    HW234770   1.676   2.291   6.864  1.2199 -0.4265  0.0010
 7771SOL     OW34771   3.264   4.470   1.515  0.2261  0.2653 -0.2369
 7771SOL    HW134772   3.323   4.437   1.584 -0.5240  0.9344  0.7184
 7771SOL    HW234773   3.246   4.560   1.542  0.0868 -0.5769  2.4284
 7772SOL     OW34774   0.856   3.365   3.633  0.1394 -0.0751 -0.3658
 7772SOL    HW134775   0.890   3.440   3.683 -1.7220 -0.4941  1.5320
 7772SOL    HW234776   0.938   3.330   3.597  2.0032  3.6071  0.2333
 7773SOL     OW34777   0.883   2.873   8.002  0.7855 -0.1872  0.1653
 7773SOL    HW134778   0.868   2.860   8.096  2.0402 -1.7425  0.1419
 7773SOL    HW234779   0.812   2.825   7.959  1.6960 -2.2003  0.8991
 7774SOL     OW34780   2.697   0.061  16.676  0.1878 -0.1448  0.2557
 7774SOL    HW134781   2.671   4.692  16.668 -1.9215  0.4767 -0.0377
 7774SOL    HW234782   2.747   0.072  16.594 -0.3173 -0.6526 -0.1245
 7775SOL     OW34783   3.567   1.681   5.144 -0.1933 -0.0366  0.0069
 7775SOL    HW134784   3.617   1.762   5.131  0.1423 -0.2976 -0.3125
 7775SOL    HW234785   3.565   1.674   5.240  2.2834 -0.1793  0.0331
 7776SOL     OW34786   4.659   4.314  11.955 -0.0347  0.4285 -0.4708
 7776SOL    HW134787   0.031   4.306  11.953 -0.0205  0.4397  0.1678
 7776SOL    HW234788   4.639   4.223  11.977  2.0685  0.2468  0.6425
 7777SOL     OW34789   2.870   2.009   6.312  0.1622  0.2924  0.1861
 7777SOL    HW134790   2.917   2.065   6.373  0.5197 -0.5151  0.6460
 7777SOL    HW234791   2.941   1.984   6.252 -0.6387 -0.4499 -0.4590
 7778SOL     OW34792   0.011   3.946   1.076  0.1490 -0.4591  0.1997
 7778SOL    HW134793   0.080   3.959   1.011  1.7328 -0.7422  1.8011
 7778SOL    HW234794   4.679   4.022   1.058  1.6535 -0.2603 -3.5088
 7779SOL     OW34795   1.620   0.357  14.840  0.4266  0.5808  0.3425
 7779SOL    HW134796   1.668   0.380  14.760  0.3646  2.6625  0.8987
 7779SOL    HW234797   1.699   0.336  14.889  0.1749  0.8713  0.8713
 7780SOL     OW34798   0.750   3.952   2.906  0.9672 -0.0722 -0.0689
 7780SOL    HW134799   0.682   3.906   2.855 -0.0072 -0.2573  1.3936
 7780SOL    HW234800   0.818   3.939   2.839 -0.2268  0.4152 -1.3767
 7781SOL     OW34801   1.614   2.242   7.780  0.1714  0.6748  0.1121
 7781SOL    HW134802   1.574   2.225   7.695 -1.3434  1.2963  0.7005
 7781SOL    HW234803   1.680   2.174   7.776  0.0356  0.6053 -0.9288
 7782SOL     OW34804   4.456   3.282   3.641  0.0328 -0.6085  0.2523
 7782SOL    HW134805   4.413   3.359   3.603 -1.0507 -0.7007  1.2866
 7782SOL    HW234806   4.528   3.274   3.578 -0.7115 -1.4563 -0.4895
 7783SOL     OW34807   3.057   2.385   6.644 -0.6115 -0.1118  0.4224
 7783SOL    HW134808   2.963   2.398   6.626  0.0578  0.6396 -2.5691
 7783SOL    HW234809   3.095   2.447   6.582 -0.1004 -0.8773 -0.0258
 7784SOL     OW34810   3.754   2.766   6.532 -0.5114 -0.0369 -0.2447
 7784SOL    HW134811   3.695   2.720   6.473  2.6277 -3.8871 -0.4020
 7784SOL    HW234812   3.811   2.693   6.556  0.1955  1.1681  1.6834
 7785SOL     OW34813   2.112   4.703   3.071 -0.4168  0.3371 -0.0440
 7785SOL    HW134814   2.136   4.673   2.984  0.0126 -1.1645  0.5886
 7785SOL    HW234815   2.182   0.044   3.082  0.6905 -1.1754  1.7529
 7786SOL     OW34816   0.162   2.137   9.114  0.4127 -0.3075 -0.1341
 7786SOL    HW134817   0.199   2.164   9.198  0.8481  0.1378 -0.4688
 7786SOL    HW234818   0.220   2.062   9.112 -0.1523 -0.7818  1.6327
 7787SOL     OW34819   4.370   4.630   7.920  0.0162  0.5015  0.1439
 7787SOL    HW134820   4.285   4.670   7.904 -0.3229  0.5070  1.9598
 7787SOL    HW234821   4.404   4.617   7.832  0.2433  0.4373  0.2406
 7788SOL     OW34822   2.672   4.350   4.853  0.2570  0.3223  0.6620
 7788SOL    HW134823   2.603   4.346   4.919  1.6126  2.1291  2.1787
 7788SOL    HW234824   2.705   4.439   4.864  0.6053  0.3436 -0.5288
 7789SOL     OW34825   3.565   4.238  15.418 -0.3521 -0.0912  0.0469
 7789SOL    HW134826   3.568   4.289  15.337 -1.2055 -4.9993 -3.0599
 7789SOL    HW234827   3.622   4.284  15.480 -0.1407 -0.8850  0.4542
 7790SOL     OW34828   1.214   3.679   7.227  0.3114  0.0872 -0.4756
 7790SOL    HW134829   1.124   3.679   7.195  0.7922 -3.5711 -1.8386
 7790SOL    HW234830   1.256   3.602   7.188  0.4587 -0.0682 -0.0110
 7791SOL     OW34831   1.591   1.010   7.894  0.2288 -0.0327  0.1278
 7791SOL    HW134832   1.650   0.972   7.829 -0.4506  0.7654 -0.9471
 7791SOL    HW234833   1.521   1.034   7.832 -0.5830 -0.2178  0.9728
 7792SOL     OW34834   4.150   2.977  12.116 -0.2913  0.1906  0.0305
 7792SOL    HW134835   4.192   3.033  12.181 -2.6453 -1.5270  3.0437
 7792SOL    HW234836   4.202   2.998  12.038  0.3068 -0.0890  0.3576
 7793SOL     OW34837   1.523   2.630   6.706  0.3030  0.1415 -0.4163
 7793SOL    HW134838   1.603   2.680   6.722 -0.2914  1.1981 -0.7286
 7793SOL    HW234839   1.460   2.698   6.681  0.7312 -0.3971 -2.9722
 7794SOL     OW34840   3.881   4.272   3.929  0.4567 -0.1426 -0.1970
 7794SOL    HW134841   3.977   4.272   3.933  0.5124 -0.2528 -1.4022
 7794SOL    HW234842   3.875   4.366   3.911 -0.8203 -0.6140 -2.2732
 7795SOL     OW34843   1.617   4.597  16.967  0.1818 -0.0556 -0.3859
 7795SOL    HW134844   1.524   4.621  16.974 -0.0381 -1.9018  3.1801
 7795SOL    HW234845   1.632   4.544  17.045  0.8897  0.5234 -0.1257
 7796SOL     OW34846   3.272   3.102  14.317 -0.2418  0.2019 -0.3124
 7796SOL    HW134847   3.215   3.062  14.383 -0.0029 -0.4793 -0.5206
 7796SOL    HW234848   3.348   3.044  14.320 -0.4064  0.0792  1.5437
 7797SOL     OW34849   1.649   3.752   7.798 -0.7202  0.2909  0.3892
 7797SOL    HW134850   1.587   3.768   7.869 -1.7701  1.8989 -0.9027
 7797SOL    HW234851   1.593   3.697   7.744 -1.5615  0.3534  1.1991
 7798SOL     OW34852   3.459   2.850   8.351 -0.1515  0.0289  0.4288
 7798SOL    HW134853   3.444   2.899   8.432  1.0675  2.0444 -0.5541
 7798SOL    HW234854   3.381   2.794   8.347 -0.9676  0.9196  3.9852
 7799SOL     OW34855   4.400   0.988  13.792 -0.2599 -0.6135  0.1736
 7799SOL    HW134856   4.395   0.944  13.708 -0.9457 -0.4635  0.1362
 7799SOL    HW234857   4.306   0.992  13.808 -0.1784 -0.1498  0.5486
 7800SOL     OW34858   3.727   4.385  13.282 -0.1769 -0.3771  0.0540
 7800SOL    HW134859   3.810   4.353  13.246 -0.5682 -1.2651 -0.0536
 7800SOL    HW234860   3.759   4.452  13.343  0.4963 -1.0927  0.4762
 7801SOL     OW34861   2.841   0.348   1.196  0.6798 -0.1565 -0.1012
 7801SOL    HW134862   2.861   0.441   1.180 -0.3195 -0.6913 -4.2134
 7801SOL    HW234863   2.927   0.306   1.192  0.6591 -0.4200  2.0895
 7802SOL     OW34864   2.944   1.176   1.876 -0.4873  0.3321 -0.2039
 7802SOL    HW134865   2.944   1.221   1.960 -0.8624 -1.1041  0.5695
 7802SOL    HW234866   2.855   1.182   1.841 -0.4953  1.9232  0.1049
 7803SOL     OW34867   3.987   4.035   8.131 -0.3550 -0.2904 -0.1146
 7803SOL    HW134868   3.974   3.941   8.149  1.1927 -0.2852  1.0865
 7803SOL    HW234869   4.040   4.034   8.052  0.7670 -1.3975  0.6432
 7804SOL     OW34870   3.614   0.238   7.971 -0.3446 -0.3877 -0.1632
 7804SOL    HW134871   3.560   0.216   8.046 -0.0877 -0.9491 -0.1481
 7804SOL    HW234872   3.680   0.170   7.984 -1.4911 -1.1437  1.7757
 7805SOL     OW34873   2.840   1.562  16.503  0.4822  0.7234 -0.0586
 7805SOL    HW134874   2.881   1.514  16.431  0.3528 -0.9353  0.9628
 7805SOL    HW234875   2.859   1.491  16.564  0.1859  0.7923  0.1124
 7806SOL     OW34876   3.297   1.886   0.555  0.4723 -0.0098  0.1909
 7806SOL    HW134877   3.303   1.945   0.480  1.3558  0.9933  1.0529
 7806SOL    HW234878   3.255   1.932   0.628  1.5362  2.4432 -0.7546
 7807SOL     OW34879   2.477   1.450   9.815  0.0939  0.1213  0.3790
 7807SOL    HW134880   2.512   1.364   9.791 -0.4379 -0.0158  0.0695
 7807SOL    HW234881   2.467   1.484   9.726 -0.8892 -2.4056 -0.4747
 7808SOL     OW34882   2.899   3.289   9.727  0.1541 -0.0232 -0.5035
 7808SOL    HW134883   2.974   3.238   9.694  0.6141  1.5333 -1.8489
 7808SOL    HW234884   2.933   3.378   9.730  1.0174 -0.3783  0.5920
 7809SOL     OW34885   4.099   1.541   6.823  0.2422 -0.2565  0.3819
 7809SOL    HW134886   4.155   1.527   6.747 -1.4195  0.2551 -0.9434
 7809SOL    HW234887   4.055   1.459   6.843 -0.5351 -0.4895 -2.2948
 7810SOL     OW34888   2.752   4.056  11.584  0.0005  0.9317  0.1643
 7810SOL    HW134889   2.807   3.982  11.610  2.8301  2.6453 -1.0236
 7810SOL    HW234890   2.794   4.084  11.503 -0.2018 -1.0018 -0.6133
 7811SOL     OW34891   3.996   0.875  17.144  0.6219  0.1906  0.0877
 7811SOL    HW134892   3.926   0.834  17.195  0.3409 -2.3576 -2.3527
 7811SOL    HW234893   3.942   0.893  17.067  0.1947  0.7131  0.5162
 7812SOL     OW34894   1.520   1.724   5.379  0.5343 -0.1685 -0.1357
 7812SOL    HW134895   1.558   1.636   5.377 -0.0403 -0.3652 -2.4946
 7812SOL    HW234896   1.525   1.755   5.288 -0.4382 -0.3878 -0.2653
 7813SOL     OW34897   3.751   2.829   1.260  0.1038 -0.1481 -0.8900
 7813SOL    HW134898   3.670   2.874   1.234 -0.0404 -0.0796 -0.3198
 7813SOL    HW234899   3.713   2.742   1.269  2.2923 -0.9436  0.5283
 7814SOL     OW34900   3.044   2.546  16.397  0.5614 -0.0223 -0.0478
 7814SOL    HW134901   3.008   2.606  16.332  0.1654 -0.9918 -0.7243
 7814SOL    HW234902   3.095   2.484  16.345  0.7225  0.1033 -0.0397
 7815SOL     OW34903   3.634   3.687   0.097 -0.1558 -0.1206 -0.3786
 7815SOL    HW134904   3.664   3.634   0.023 -0.5710  0.8767 -1.2451
 7815SOL    HW234905   3.694   3.652   0.164 -0.1777 -0.9853 -0.8083
 7816SOL     OW34906   0.398   1.665  16.966 -0.1188 -0.1126 -0.2955
 7816SOL    HW134907   0.417   1.604  16.894  3.4564 -0.6105  1.0718
 7816SOL    HW234908   0.432   1.624  17.045 -2.0383 -1.3953 -0.1378
 7817SOL     OW34909   1.930   4.332   9.115 -0.2637 -0.1170 -0.2549
 7817SOL    HW134910   1.999   4.382   9.158  1.0055 -0.9717 -1.2601
 7817SOL    HW234911   1.909   4.272   9.187 -0.8571  0.8174  0.3391
 7818SOL     OW34912   4.592   2.709  15.485 -0.3337 -0.5013 -0.7944
 7818SOL    HW134913   4.567   2.656  15.560  0.1718  1.9941  1.1664
 7818SOL    HW234914   4.511   2.727  15.437 -0.9822  1.4998  1.0601
 7819SOL     OW34915   0.661   4.692   3.106  0.5247  0.3033  0.1633
 7819SOL    HW134916   0.714   4.667   3.030 -0.4550 -1.5736  0.0876
 7819SOL    HW234917   0.672   4.611   3.156 -0.9563 -0.8675 -1.3743
 7820SOL     OW34918   1.201   3.504   9.232  0.5996  0.0786  0.1733
 7820SOL    HW134919   1.116   3.501   9.189  1.3883  0.3266 -1.4072
 7820SOL    HW234920   1.239   3.567   9.171  0.3823  0.0384 -0.0028
 7821SOL     OW34921   0.395   4.526   4.199  0.0805 -0.3381 -0.1160
 7821SOL    HW134922   0.423   4.514   4.289  0.5901  1.2857 -0.0538
 7821SOL    HW234923   0.422   4.444   4.159  1.3292  0.5358 -1.0758
 7822SOL     OW34924   3.985   4.222  14.822  0.1454 -0.4359 -0.0801
 7822SOL    HW134925   4.025   4.161  14.760  2.3721 -0.1994  1.1251
 7822SOL    HW234926   3.933   4.270  14.758  0.3117 -0.7135 -0.4232
 7823SOL     OW34927   2.006   4.581   6.152 -0.0058  0.0507  0.3300
 7823SOL    HW134928   1.914   4.605   6.149  0.4441  1.8310  0.4987
 7823SOL    HW234929   2.013   4.531   6.071  2.1127 -0.2254  0.6599
 7824SOL     OW34930   3.240   3.484   3.964 -0.0741 -0.4100  0.1142
 7824SOL    HW134931   3.273   3.559   4.014  0.0932 -0.3528 -0.0829
 7824SOL    HW234932   3.323   3.446   3.933 -1.3379  0.6452 -4.4619
 7825SOL     OW34933   1.696   0.326   3.779  0.0284  0.6175 -0.5630
 7825SOL    HW134934   1.726   0.254   3.723  1.1952 -0.6291  1.6265
 7825SOL    HW234935   1.780   0.363   3.805  1.0403 -1.8719 -0.2353
 7826SOL     OW34936   2.429   3.166   6.965  0.2471 -0.4314 -0.3988
 7826SOL    HW134937   2.459   3.233   7.027  0.5051  0.5598 -1.5811
 7826SOL    HW234938   2.484   3.093   6.993  3.4913  2.8814  1.9462
 7827SOL     OW34939   3.443   4.027   3.249 -0.0180  0.3080  0.0160
 7827SOL    HW134940   3.510   4.068   3.194 -0.2543 -1.1764 -1.3633
 7827SOL    HW234941   3.366   4.081   3.233  1.2028  1.9660 -0.3597
 7828SOL     OW34942   2.278   2.192  17.633 -0.5845 -0.7461 -0.5854
 7828SOL    HW134943   2.252   2.267  17.580  1.9916  0.2650 -0.4114
 7828SOL    HW234944   2.316   2.243   0.012  0.8090 -3.5672  0.7057
 7829SOL     OW34945   0.612   3.770  16.802 -0.3145  0.7052  0.6956
 7829SOL    HW134946   0.565   3.760  16.720  1.0379 -0.3097  0.0444
 7829SOL    HW234947   0.695   3.791  16.759 -0.1764  1.6231  1.4146
 7830SOL     OW34948   3.086   4.676   0.774  0.2690  0.6797 -0.0544
 7830SOL    HW134949   3.100   4.616   0.848  2.2912  0.7863 -0.3323
 7830SOL    HW234950   3.178   4.696   0.757  0.1987  0.3678 -0.7804
 7831SOL     OW34951   1.567   0.428  10.157 -0.3688 -0.1449  1.0431
 7831SOL    HW134952   1.506   0.357  10.174 -1.3787  0.2770 -0.7737
 7831SOL    HW234953   1.648   0.379  10.145 -0.7670 -0.9038  1.4751
 7832SOL     OW34954   2.613   0.839   6.872 -0.1958  0.0088 -0.2195
 7832SOL    HW134955   2.639   0.892   6.947  2.0453  0.9355 -1.6600
 7832SOL    HW234956   2.525   0.876   6.860  0.2594  0.8860 -0.8391
 7833SOL     OW34957   3.840   4.552  13.472 -0.1323  0.1000 -0.2719
 7833SOL    HW134958   3.882   4.638  13.465 -0.7187  0.3112 -1.1925
 7833SOL    HW234959   3.923   4.505  13.483  0.1952  0.5393 -0.8216
 7834SOL     OW34960   2.805   2.141   2.369 -0.0553 -0.2717 -0.2574
 7834SOL    HW134961   2.754   2.065   2.342  1.3468 -0.3785 -2.5726
 7834SOL    HW234962   2.826   2.106   2.456  1.3800 -0.5285 -0.7090
 7835SOL     OW34963   4.614   1.804  16.291 -0.0992 -0.4248 -0.2736
 7835SOL    HW134964   4.658   1.738  16.343  0.0956  1.1123  1.5084
 7835SOL    HW234965   4.535   1.819  16.343  0.2190  0.2855 -0.0001
 7836SOL     OW34966   3.052   4.633   9.871 -0.0945 -0.7378 -0.5856
 7836SOL    HW134967   3.122   4.575   9.901 -0.3214 -0.7559 -0.0790
 7836SOL    HW234968   3.065   4.645   9.777 -0.6982  1.3494 -0.4032
 7837SOL     OW34969   1.346   2.638   7.001  0.4169 -0.5402  0.0615
 7837SOL    HW134970   1.320   2.581   7.073  1.0041  1.9151  2.2072
 7837SOL    HW234971   1.411   2.696   7.041 -1.1955  2.0838 -1.1620
 7838SOL     OW34972   2.177   3.219   3.466 -0.5434  0.0254  0.2200
 7838SOL    HW134973   2.154   3.269   3.387 -1.5188 -0.3185  0.2884
 7838SOL    HW234974   2.124   3.140   3.460 -0.1201 -0.3319  1.1668
 7839SOL     OW34975   3.240   3.402   1.738 -1.4715 -0.0527 -0.2471
 7839SOL    HW134976   3.213   3.483   1.780 -1.5734  0.0196 -0.4522
 7839SOL    HW234977   3.255   3.347   1.815 -1.2731 -0.6312 -0.6950
 7840SOL     OW34978   1.954   0.642   3.766  0.3466 -0.4126  0.1008
 7840SOL    HW134979   2.036   0.620   3.721  0.6975 -1.9002  1.4628
 7840SOL    HW234980   1.938   0.563   3.818 -0.4756 -1.2665 -1.4326
 7841SOL     OW34981   1.932   3.237   3.252 -0.1855 -0.3977  0.8269
 7841SOL    HW134982   2.008   3.222   3.196 -1.6524 -2.1757 -0.6547
 7841SOL    HW234983   1.866   3.229   3.184  0.8059 -0.7559 -0.0856
 7842SOL     OW34984   1.662   1.998   5.275 -1.0478 -0.2327  0.6768
 7842SOL    HW134985   1.612   1.974   5.353  1.5835  0.9314  2.7307
 7842SOL    HW234986   1.652   2.093   5.265 -1.2849 -0.5166 -1.6971
 7843SOL     OW34987   2.084   0.002  10.757 -0.2289  0.0803  0.1300
 7843SOL    HW134988   2.047   0.082  10.795  1.0273  0.7895 -0.1400
 7843SOL    HW234989   2.168   0.037  10.726 -1.6611  2.9835 -0.4660
 7844SOL     OW34990   1.813   2.093   4.566 -0.0269 -1.3109 -0.4247
 7844SOL    HW134991   1.831   2.115   4.475  0.0900 -0.4023 -0.1851
 7844SOL    HW234992   1.784   2.178   4.601 -0.1372 -2.3864  2.1265
 7845SOL     OW34993   3.030   1.548   8.250 -0.3875  0.2349 -0.3321
 7845SOL    HW134994   3.110   1.576   8.294  0.1996 -2.4071  0.2998
 7845SOL    HW234995   3.009   1.631   8.207  0.7500  0.9510  0.4959
 7846SOL     OW34996   3.165   2.786   4.786  0.0806 -0.3516  0.2369
 7846SOL    HW134997   3.154   2.767   4.693 -1.1209 -1.3318  0.5814
 7846SOL    HW234998   3.255   2.820   4.787  0.2334 -0.6650 -1.8849
 7847SOL     OW34999   1.607   3.033   1.125  0.4179  0.2752  0.3110
 7847SOL    HW135000   1.632   2.971   1.058  0.7709 -0.2587  0.9351
 7847SOL    HW235001   1.657   3.000   1.200 -0.2726  0.8737  1.0514
 7848SOL     OW35002   2.972   4.221   4.606  0.0107 -0.2507  0.7613
 7848SOL    HW135003   2.945   4.312   4.593  0.7952 -0.0915  0.2394
 7848SOL    HW235004   2.888   4.177   4.589 -0.2024  1.4805 -2.5718
 7849SOL     OW35005   3.217   1.421   8.649 -0.0411  0.5130  0.6092
 7849SOL    HW135006   3.260   1.348   8.693 -1.9471  0.4944  2.4393
 7849SOL    HW235007   3.234   1.399   8.557 -1.4669 -0.3211  0.5466
 7850SOL     OW35008   0.944   1.987   0.071 -0.3323  0.2883 -0.2665
 7850SOL    HW135009   0.944   1.947   0.158  0.0088  0.6892 -0.0782
 7850SOL    HW235010   1.036   1.973   0.048  0.1898  0.4399  1.7434
 7851SOL     OW35011   0.633   0.547   4.619  0.0017  0.4679 -0.0086
 7851SOL    HW135012   0.676   0.475   4.664  1.9236  0.4819 -1.8430
 7851SOL    HW235013   0.644   0.518   4.528 -1.2898 -0.0582 -0.0071
 7852SOL     OW35014   4.447   4.067   0.473 -0.1146  0.1537 -0.1810
 7852SOL    HW135015   4.457   4.023   0.558  2.9013  1.0687 -0.0593
 7852SOL    HW235016   4.433   3.995   0.411 -2.4909 -0.9875  1.6508
 7853SOL     OW35017   2.220   0.844   8.334  0.5606 -0.1128 -0.0103
 7853SOL    HW135018   2.179   0.771   8.381 -0.4304  0.2337 -0.3548
 7853SOL    HW235019   2.312   0.835   8.361  0.5158 -2.7741 -0.6947
 7854SOL     OW35020   2.726   2.619   4.332 -0.6144 -0.4796  0.1182
 7854SOL    HW135021   2.733   2.704   4.375  1.9745 -1.2173  1.1230
 7854SOL    HW235022   2.803   2.621   4.275  0.6686 -0.2622  1.8446
 7855SOL     OW35023   3.698   2.934   6.262  0.9596  0.2053  0.0544
 7855SOL    HW135024   3.626   2.937   6.325  0.8758  0.8604 -0.0822
 7855SOL    HW235025   3.773   2.904   6.315  0.6610 -1.4952 -0.4863
 7856SOL     OW35026   3.752   4.541  17.122 -0.0216 -0.7164  0.2500
 7856SOL    HW135027   3.780   4.454  17.151 -0.1090 -0.8324 -0.0135
 7856SOL    HW235028   3.664   4.549  17.159 -0.2941  0.5104 -0.6403
 7857SOL     OW35029   0.771   3.572   3.249  0.1277  0.5731 -0.0548
 7857SOL    HW135030   0.684   3.603   3.275 -0.0573  2.2739 -2.6355
 7857SOL    HW235031   0.824   3.645   3.279 -1.3628  1.6171  0.0575
 7858SOL     OW35032   4.463   2.456   3.539  0.9946  0.5432  0.0396
 7858SOL    HW135033   4.439   2.494   3.624 -0.8586  0.9198 -0.6567
 7858SOL    HW235034   4.404   2.492   3.474  0.5282  2.3418  1.4440
 7859SOL     OW35035   2.266   0.398   5.869  0.0193  0.2716  0.8966
 7859SOL    HW135036   2.202   0.467   5.851 -0.0416 -0.1148 -0.3479
 7859SOL    HW235037   2.292   0.425   5.957 -0.9959  0.9945  0.9771
 7860SOL     OW35038   3.041   1.935   3.878 -0.0453 -0.3350 -0.3284
 7860SOL    HW135039   3.107   1.889   3.826  2.3721  3.1108 -0.2625
 7860SOL    HW235040   2.966   1.918   3.822  0.1745  1.5796 -1.1861
 7861SOL     OW35041   0.828   3.148   7.089 -0.2651  0.0543  0.1247
 7861SOL    HW135042   0.887   3.221   7.108  0.0136 -0.2924  0.6076
 7861SOL    HW235043   0.837   3.135   6.995  1.1439  1.3719  0.0812
 7862SOL     OW35044   3.586   4.665  16.133  0.4339 -0.0923  0.4576
 7862SOL    HW135045   3.617   4.652  16.044  0.8238 -0.2806  0.6177
 7862SOL    HW235046   3.669   4.684  16.177  0.2991 -0.5814  0.9296
 7863SOL     OW35047   2.935   2.677  13.169 -0.2712 -0.7139 -0.0008
 7863SOL    HW135048   2.875   2.720  13.109 -0.5785  0.4714  1.1666
 7863SOL    HW235049   2.993   2.629  13.109  1.4185  0.4802  0.6587
 7864SOL     OW35050   1.261   0.648  13.691 -0.1787 -0.3384 -0.3692
 7864SOL    HW135051   1.179   0.691  13.714 -0.7178 -1.2013 -0.6535
 7864SOL    HW235052   1.233   0.589  13.621 -0.4161 -0.4475 -0.1838
 7865SOL     OW35053   2.225   2.090   2.082 -0.5987  0.4159 -0.4685
 7865SOL    HW135054   2.248   2.092   2.175 -0.9720 -2.0303 -0.3183
 7865SOL    HW235055   2.141   2.046   2.080 -1.4624  1.9818  1.3920
 7866SOL     OW35056   3.732   3.316  15.914  0.2815  0.2582 -0.1232
 7866SOL    HW135057   3.656   3.312  15.857 -1.6851  0.8536  2.4378
 7866SOL    HW235058   3.779   3.237  15.887  1.5867  0.6348  1.0220
 7867SOL     OW35059   2.318   3.650  14.106  1.1897  0.5799  0.0089
 7867SOL    HW135060   2.242   3.634  14.163  0.4084 -1.0675 -1.5127
 7867SOL    HW235061   2.344   3.562  14.082  3.7224  1.2348  0.3602
 7868SOL     OW35062   1.871   3.176  17.075 -0.1011 -0.1727 -0.4394
 7868SOL    HW135063   1.892   3.269  17.068  1.1988 -0.5193 -1.0685
 7868SOL    HW235064   1.950   3.129  17.047 -1.6119 -3.0432  0.1210
 7869SOL     OW35065   0.932   0.686   3.283 -0.2163  0.3428  0.2863
 7869SOL    HW135066   0.904   0.595   3.286 -1.0779  0.5880 -0.2806
 7869SOL    HW235067   0.856   0.729   3.243  0.3628  0.3718 -0.7784
 7870SOL     OW35068   2.270   1.208   6.167  0.0355  0.3461 -0.8428
 7870SOL    HW135069   2.319   1.226   6.247  1.0713 -0.4820 -1.3079
 7870SOL    HW235070   2.334   1.164   6.112 -1.3875 -0.4879 -1.8371
 7871SOL     OW35071   0.027   1.352   7.682  0.5913  0.3164  0.0235
 7871SOL    HW135072   0.064   1.377   7.767 -2.6194  1.0210  1.2095
 7871SOL    HW235073   4.657   1.373   7.693  0.6096  0.2546  0.2976
 7872SOL     OW35074   1.937   1.873   6.039 -0.0569  0.0827  0.2676
 7872SOL    HW135075   1.902   1.847   5.954 -0.0822 -1.4997  0.7700
 7872SOL    HW235076   1.935   1.793   6.091  1.6692 -0.3850 -0.3953
 7873SOL     OW35077   0.955   4.615   5.001  0.0644 -0.4521  0.2675
 7873SOL    HW135078   1.013   4.573   4.938 -0.4073 -0.7387  0.0237
 7873SOL    HW235079   0.971   4.561   5.078 -0.5481  0.0601  0.7583
 7874SOL     OW35080   3.034   2.405  13.150  0.0557  0.6143 -0.3333
 7874SOL    HW135081   3.125   2.413  13.179  0.6096 -3.5585 -0.8961
 7874SOL    HW235082   3.047   2.403  13.055  1.6853  3.8955 -0.1894
 7875SOL     OW35083   3.812   1.947   6.573  0.0892  0.2200  0.2840
 7875SOL    HW135084   3.774   1.885   6.635  1.0462  0.1530  0.7996
 7875SOL    HW235085   3.893   1.906   6.542 -0.9573 -1.1646 -0.6476
 7876SOL     OW35086   4.647   0.173   7.629 -0.4592 -0.6774 -0.1805
 7876SOL    HW135087   4.638   0.080   7.612 -1.2738 -0.5802 -0.2517
 7876SOL    HW235088   0.016   0.196   7.647 -0.8132  0.0501  0.7146
 7877SOL     OW35089   0.816   3.375   1.391 -0.3075  0.2381 -0.1711
 7877SOL    HW135090   0.892   3.322   1.369  0.0428  0.5306  0.3676
 7877SOL    HW235091   0.773   3.375   1.305 -1.9597 -1.3925  0.6486
 7878SOL     OW35092   2.866   2.788   1.020 -0.2651 -0.1150 -0.0640
 7878SOL    HW135093   2.774   2.803   1.040  0.0036 -2.5126  2.9846
 7878SOL    HW235094   2.847   2.704   0.978 -1.4978 -0.4362  1.1373
 7879SOL     OW35095   1.403   1.077  13.143  0.0401 -0.1483  0.6771
 7879SOL    HW135096   1.486   1.124  13.137  0.5232 -0.7989  2.2763
 7879SOL    HW235097   1.356   1.133  13.081 -0.1057 -2.7217 -1.5284
 7880SOL     OW35098   4.372   1.893   2.658  0.2311 -0.1661 -0.0803
 7880SOL    HW135099   4.465   1.909   2.674 -0.5931  1.3693  3.0637
 7880SOL    HW235100   4.369   1.798   2.652  0.3393 -0.1934  0.3088
 7881SOL     OW35101   4.373   2.873   2.216 -0.1963  0.3567  0.2566
 7881SOL    HW135102   4.411   2.946   2.168 -1.9515  0.5142 -0.9267
 7881SOL    HW235103   4.284   2.872   2.180 -0.1754  0.1302  0.2105
 7882SOL     OW35104   2.736   2.539  14.792  0.2005 -0.1387  0.5073
 7882SOL    HW135105   2.766   2.524  14.881 -1.4836  2.2235  1.4564
 7882SOL    HW235106   2.676   2.612  14.806  1.9719  1.8231 -2.0432
 7883SOL     OW35107   2.193   3.999   2.804 -0.2991 -0.0988  0.3109
 7883SOL    HW135108   2.259   4.045   2.751 -0.3052  1.3263  1.5526
 7883SOL    HW235109   2.162   4.068   2.862  0.0337  0.8625 -0.6638
 7884SOL     OW35110   0.662   2.826  12.269  0.2464 -0.5638 -0.4814
 7884SOL    HW135111   0.733   2.880  12.234 -0.8467  1.5329  0.5793
 7884SOL    HW235112   0.692   2.737  12.248 -0.2915 -1.2977  1.8100
 7885SOL     OW35113   3.282   1.283   8.399 -0.4656 -0.2741 -0.1955
 7885SOL    HW135114   3.372   1.289   8.366  0.2319 -0.7393  1.6410
 7885SOL    HW235115   3.231   1.264   8.320 -0.4782 -0.0049 -0.2523
 7886SOL     OW35116   0.870   0.949  13.824  0.1258  0.1481 -0.4136
 7886SOL    HW135117   0.842   0.931  13.914 -1.5496 -1.2571 -1.2173
 7886SOL    HW235118   0.893   1.042  13.829 -2.0296  0.5454  2.1978
 7887SOL     OW35119   1.905   2.378   2.633  0.0013  0.2514 -0.1905
 7887SOL    HW135120   1.867   2.405   2.550 -1.0817  0.4621  0.3833
 7887SOL    HW235121   1.974   2.444   2.634 -0.7309  1.0147 -1.2505
 7888SOL     OW35122   0.379   3.095   1.721  0.2324  0.4294 -0.1841
 7888SOL    HW135123   0.429   3.029   1.673  0.2700 -0.8197  1.5629
 7888SOL    HW235124   0.420   3.177   1.696 -1.1348  0.1589 -3.3081
 7889SOL     OW35125   3.437   3.464  15.334  0.2745 -0.4693  0.1816
 7889SOL    HW135126   3.515   3.436  15.285 -0.8440 -0.4667 -1.5809
 7889SOL    HW235127   3.483   3.471  15.418 -1.8263  1.5738  1.1469
 7890SOL     OW35128   4.320   1.236  12.409 -0.3630 -0.1512 -0.3226
 7890SOL    HW135129   4.252   1.237  12.342  0.3615 -0.7851 -1.0621
 7890SOL    HW235130   4.273   1.300  12.462  0.9515 -0.2034  0.9232
 7891SOL     OW35131   2.184   0.674  16.277 -0.0479  0.0725  0.1189
 7891SOL    HW135132   2.213   0.735  16.345  1.5875  0.5320 -1.0156
 7891SOL    HW235133   2.102   0.721  16.261 -0.5911 -1.3066 -1.1763
 7892SOL     OW35134   4.206   1.834   3.305 -0.8333  0.1574 -0.5501
 7892SOL    HW135135   4.189   1.849   3.398 -0.5316  1.5414 -0.7058
 7892SOL    HW235136   4.136   1.773   3.284 -1.1087 -0.1368  1.2311
 7893SOL     OW35137   0.341   2.234   2.503 -0.8164  0.0832 -0.1154
 7893SOL    HW135138   0.428   2.268   2.480 -1.0233  0.5884 -0.1512
 7893SOL    HW235139   0.364   2.180   2.578 -0.0921  0.2935 -0.1880
 7894SOL     OW35140   3.581   0.010   2.052 -0.1558 -0.1495 -0.1353
 7894SOL    HW135141   3.532   4.655   2.080  1.3697 -0.5204  1.5002
 7894SOL    HW235142   3.666   4.693   2.072 -1.0312 -2.7882 -1.6428
 7895SOL     OW35143   2.770   3.669   5.033 -0.3649 -0.0347 -0.0840
 7895SOL    HW135144   2.829   3.679   4.958  1.5027 -0.9937  1.2480
 7895SOL    HW235145   2.733   3.757   5.035 -2.4497 -0.9293  0.1631
 7896SOL     OW35146   4.541   0.395   4.737 -0.6448  0.2386  0.0561
 7896SOL    HW135147   4.466   0.454   4.729 -1.5854 -0.7563  1.5206
 7896SOL    HW235148   4.582   0.403   4.651  0.0776 -0.5127  0.3262
 7897SOL     OW35149   0.540   0.770   8.161  0.0173 -0.3916  0.3013
 7897SOL    HW135150   0.619   0.812   8.127 -1.2182  2.0614  0.4477
 7897SOL    HW235151   0.492   0.771   8.078 -1.1609 -2.3800  0.9694
 7898SOL     OW35152   2.582   1.238   2.520 -0.1614 -0.3577  0.0508
 7898SOL    HW135153   2.547   1.255   2.433  1.2586 -2.1507 -0.8889
 7898SOL    HW235154   2.650   1.180   2.484  1.1380  0.0230  1.8412
 7899SOL     OW35155   4.156   2.560  12.115  0.1598  0.1321 -0.1006
 7899SOL    HW135156   4.217   2.514  12.057  1.4612  1.8959 -0.1263
 7899SOL    HW235157   4.115   2.502  12.179 -0.0880 -0.7941 -1.0861
 7900SOL     OW35158   0.591   2.274   9.478  0.5123  0.0089  0.5385
 7900SOL    HW135159   0.654   2.295   9.409  3.0780 -0.3198  2.7457
 7900SOL    HW235160   0.603   2.184   9.508  2.2253 -0.0623 -0.3530
 7901SOL     OW35161   0.588   3.092   8.814 -0.6511 -0.1370  0.0806
 7901SOL    HW135162   0.534   3.071   8.890  1.5564 -1.3466  1.3042
 7901SOL    HW235163   0.537   3.057   8.740 -0.1978 -1.3699  0.3496
 7902SOL     OW35164   0.309   3.566   4.802 -0.0121  0.2842  0.0489
 7902SOL    HW135165   0.292   3.489   4.856  1.6929  1.8840  2.9255
 7902SOL    HW235166   0.222   3.602   4.786 -0.9880 -2.3078 -0.3264
 7903SOL     OW35167   0.065   1.488  13.344 -0.1639 -0.6225  0.1667
 7903SOL    HW135168   0.050   1.479  13.438  0.4414  1.3486  0.4644
 7903SOL    HW235169   0.142   1.544  13.353 -0.4167  0.1591 -2.6648
 7904SOL     OW35170   0.203   1.882   7.363  0.4170  0.3981 -0.0110
 7904SOL    HW135171   0.168   1.818   7.425 -0.1045  0.3867 -0.3102
 7904SOL    HW235172   0.232   1.955   7.418 -0.2198 -0.2040  1.1313
 7905SOL     OW35173   1.641   2.921   2.977 -0.2062  0.0413  0.3181
 7905SOL    HW135174   1.698   2.961   3.043 -1.7660  2.0959  0.4314
 7905SOL    HW235175   1.602   2.989   2.922 -0.6084  0.6905  1.3950
 7906SOL     OW35176   0.814   1.432  13.576 -0.3529  0.0054 -0.4791
 7906SOL    HW135177   0.873   1.504  13.599 -0.6833 -0.4575  1.7883
 7906SOL    HW235178   0.729   1.475  13.586 -0.4106 -0.1378 -0.3561
 7907SOL     OW35179   4.404   2.508   6.501 -0.0757 -0.5008 -0.9477
 7907SOL    HW135180   4.444   2.595   6.506 -2.3892  0.4930  0.1885
 7907SOL    HW235181   4.342   2.535   6.433 -0.5972  0.6036 -0.0363
 7908SOL     OW35182   3.510   0.975  10.828 -0.2379 -0.1816 -0.1413
 7908SOL    HW135183   3.490   0.950  10.738 -1.4967 -0.0910  0.1142
 7908SOL    HW235184   3.578   0.909  10.843  0.9540  1.3105  1.0450
 7909SOL     OW35185   1.814   2.715   5.349 -0.0173 -0.1407 -0.6553
 7909SOL    HW135186   1.719   2.717   5.335  0.2549  0.6552 -2.3183
 7909SOL    HW235187   1.826   2.804   5.315  1.6892  0.0086  0.3251
 7910SOL     OW35188   0.226   0.771   2.328 -0.2298  0.2601 -0.1178
 7910SOL    HW135189   0.159   0.749   2.264 -1.9264  3.2944  0.5894
 7910SOL    HW235190   0.264   0.685   2.345  0.0234  0.4439  0.2477
 7911SOL     OW35191   3.301   1.923  17.662 -0.1978 -0.7461 -0.1306
 7911SOL    HW135192   3.246   1.853  17.628  0.3831 -0.8429 -0.8880
 7911SOL    HW235193   3.333   1.877   0.047  0.4998  1.1613  0.7094
 7912SOL     OW35194   0.152   2.972   7.593 -0.8805  0.1093  0.4831
 7912SOL    HW135195   0.181   3.060   7.615 -0.8498 -0.1960  1.7072
 7912SOL    HW235196   0.083   2.992   7.530 -1.1250 -0.9091  0.4172
 7913SOL     OW35197   1.073   3.058  13.144 -0.0012  0.1968 -0.1323
 7913SOL    HW135198   1.054   3.020  13.058 -2.3235 -2.3214  1.4758
 7913SOL    HW235199   1.154   3.103  13.124 -1.4345  3.1973  0.8884
 7914SOL     OW35200   3.700   1.416  14.794  0.1641  0.4318 -0.0653
 7914SOL    HW135201   3.699   1.511  14.806  0.3231  0.5905 -1.2409
 7914SOL    HW235202   3.656   1.419  14.709 -2.2842  0.3268  1.2321
 7915SOL     OW35203   4.410   2.807   3.442  0.2246 -0.2060 -0.2494
 7915SOL    HW135204   4.414   2.896   3.477  3.5714  0.1946 -1.6423
 7915SOL    HW235205   4.327   2.805   3.393  0.2490  1.0993 -0.3451
 7916SOL     OW35206   0.369   3.347   8.963  0.1113 -0.1421  0.1610
 7916SOL    HW135207   0.353   3.264   8.919 -2.8226  0.8889 -0.7031
 7916SOL    HW235208   0.364   3.414   8.895 -1.4319  0.3166  0.6984
 7917SOL     OW35209   3.135   4.495   3.660  0.4377 -0.2809 -0.1398
 7917SOL    HW135210   3.214   4.442   3.653  0.1593 -0.5561 -1.1979
 7917SOL    HW235211   3.074   4.421   3.650  1.4585 -0.7545 -2.9882
 7918SOL     OW35212   1.679   3.876   7.172 -0.0812  0.2766 -0.0366
 7918SOL    HW135213   1.731   3.946   7.210 -2.0078  1.2269  0.8881
 7918SOL    HW235214   1.588   3.907   7.178 -0.5069 -1.1372  1.0370
 7919SOL     OW35215   3.034   0.702   3.113 -0.2112  0.2481  0.1863
 7919SOL    HW135216   2.957   0.670   3.159 -1.2232  1.5513 -0.6242
 7919SOL    HW235217   3.002   0.788   3.087  2.7180  0.6063 -2.3022
 7920SOL     OW35218   3.556   2.634   7.788  0.0624 -0.7273  0.1522
 7920SOL    HW135219   3.567   2.600   7.699 -1.4009  1.0658 -0.7096
 7920SOL    HW235220   3.599   2.561   7.832  0.7052 -0.5714 -0.2237
 7921SOL     OW35221   3.222   0.979  13.907  0.4201  0.4169  0.2762
 7921SOL    HW135222   3.250   1.069  13.889 -0.3107  0.5868 -0.0173
 7921SOL    HW235223   3.153   0.993  13.972 -0.8632  0.1974 -1.0347
 7922SOL     OW35224   0.939   0.056   6.528  0.3960  0.2447  0.4286
 7922SOL    HW135225   1.023   0.088   6.564  0.7493 -0.6865  0.4303
 7922SOL    HW235226   0.934   0.107   6.448 -1.0134 -0.4004  0.1222
 7923SOL     OW35227   2.311   2.043  15.263 -0.4383 -0.2647  0.1159
 7923SOL    HW135228   2.280   1.952  15.261  1.0953 -0.8728  3.4610
 7923SOL    HW235229   2.397   2.032  15.303 -0.6069  2.3411  1.1945
 7924SOL     OW35230   0.942   1.561   0.429 -1.0171 -0.9280 -0.1335
 7924SOL    HW135231   0.983   1.476   0.445  1.0167 -0.3100 -2.1188
 7924SOL    HW235232   0.988   1.618   0.490  0.8695 -1.1702 -1.3334
 7925SOL     OW35233   3.120   1.403   3.795  0.7391  0.1147 -0.4464
 7925SOL    HW135234   3.153   1.451   3.719  0.0585  0.2813 -0.6356
 7925SOL    HW235235   3.115   1.313   3.764  0.3233  0.4922 -1.4763
 7926SOL     OW35236   1.086   0.858   5.047  0.2272  0.2031  0.0452
 7926SOL    HW135237   1.171   0.820   5.070 -0.1990 -0.8130 -0.0789
 7926SOL    HW235238   1.053   0.785   4.994 -1.1779 -0.0527  1.2699
 7927SOL     OW35239   0.778   1.998   5.349 -0.0266  0.5139  0.1795
 7927SOL    HW135240   0.747   1.925   5.295 -0.1149  0.5145  0.2297
 7927SOL    HW235241   0.827   2.049   5.285  1.1029 -0.7454  0.0351
 7928SOL     OW35242   3.461   4.569   4.492  0.3863 -0.3440 -0.1786
 7928SOL    HW135243   3.421   4.488   4.459  0.8712 -0.7033  0.1249
 7928SOL    HW235244   3.513   4.546   4.569  0.5875 -1.8760 -0.7780
 7929SOL     OW35245   2.776   0.609   8.420  0.3425 -0.0014  0.3414
 7929SOL    HW135246   2.795   0.635   8.329 -2.6827  1.8671  0.2585
 7929SOL    HW235247   2.851   0.643   8.470  0.2325 -3.1485  2.6270
 7930SOL     OW35248   0.169   3.428  10.991  0.1356  0.1754 -0.5160
 7930SOL    HW135249   0.196   3.509  11.033 -0.1437 -0.1075  0.2193
 7930SOL    HW235250   0.076   3.423  11.016 -0.3047  0.0367 -2.1817
 7931SOL     OW35251   2.722   0.487   9.364 -0.5949  0.3544  0.2671
 7931SOL    HW135252   2.757   0.535   9.439 -0.0425 -1.3590  1.1057
 7931SOL    HW235253   2.712   0.556   9.298  0.6826  1.2836  1.0461
 7932SOL     OW35254   4.332   3.057   5.738  0.2454 -0.4194  0.6892
 7932SOL    HW135255   4.343   2.965   5.761 -0.9293 -0.8807 -0.6323
 7932SOL    HW235256   4.414   3.081   5.695 -0.8644  1.9834 -0.0927
 7933SOL     OW35257   4.420   3.021  13.050  0.4282  0.2241  0.2937
 7933SOL    HW135258   4.463   3.086  12.993  2.1343 -1.3071 -0.1573
 7933SOL    HW235259   4.494   2.992  13.103  4.5269  2.4342 -4.1706
 7934SOL     OW35260   0.710   3.349   3.854 -0.3256  0.0759 -0.0550
 7934SOL    HW135261   0.717   3.266   3.902  1.1460 -1.4843 -2.9555
 7934SOL    HW235262   0.755   3.332   3.772  1.2748  0.3810  0.7538
 7935SOL     OW35263   2.413   3.170   3.599  0.3309  0.4189  0.3409
 7935SOL    HW135264   2.389   3.079   3.612 -0.4811  0.5907  0.0321
 7935SOL    HW235265   2.334   3.200   3.554  0.5205 -0.7726 -0.7737
 7936SOL     OW35266   4.452   3.530  14.280 -0.4352 -0.1027  0.4572
 7936SOL    HW135267   4.365   3.493  14.291 -0.9423  0.4239 -1.7700
 7936SOL    HW235268   4.493   3.447  14.302 -0.7749 -0.0436  1.3171
 7937SOL     OW35269   0.478   3.181   7.918  0.2011  0.1660 -0.3095
 7937SOL    HW135270   0.446   3.096   7.947  0.5634  0.0663 -0.2004
 7937SOL    HW235271   0.502   3.219   8.002  0.8453  0.6665 -0.7208
 7938SOL     OW35272   0.062   4.456   1.987 -0.9622  0.4632 -0.2396
 7938SOL    HW135273   0.071   4.369   2.026 -0.3088  0.2188 -0.9511
 7938SOL    HW235274   4.690   4.458   1.971 -0.8129 -1.4444 -1.4103
 7939SOL     OW35275   3.066   0.996   2.179 -0.6467 -0.0482  0.3589
 7939SOL    HW135276   2.994   1.050   2.209  1.2494  3.6526 -1.8042
 7939SOL    HW235277   3.141   1.047   2.210 -1.1838  1.2910 -0.5824
 7940SOL     OW35278   2.054   2.079  13.527  0.1671 -0.3028  0.1615
 7940SOL    HW135279   2.067   2.172  13.505 -1.4044  0.0496  0.7394
 7940SOL    HW235280   1.964   2.084  13.559 -0.3155 -1.9350 -0.9394
 7941SOL     OW35281   1.459   3.063   6.123  0.1745  0.3625 -0.4353
 7941SOL    HW135282   1.554   3.057   6.117  0.3950  1.6414  1.7354
 7941SOL    HW235283   1.446   3.054   6.218 -3.4348 -1.8087 -1.1430
 7942SOL     OW35284   2.069   1.980   4.581 -0.2861 -0.5777 -0.0888
 7942SOL    HW135285   1.981   2.017   4.594 -0.1905 -0.9826  1.7733
 7942SOL    HW235286   2.088   1.989   4.488 -1.8742  0.6823 -0.2949
 7943SOL     OW35287   2.978   3.384   6.699  0.1906 -0.2598 -0.7524
 7943SOL    HW135288   2.964   3.395   6.605 -0.4037  2.2930 -0.3447
 7943SOL    HW235289   2.890   3.381   6.734  0.0417  2.9824 -0.9211
 7944SOL     OW35290   3.123   2.482   3.744 -0.2951 -0.1345 -0.2341
 7944SOL    HW135291   3.132   2.387   3.752 -0.4799 -0.0735  0.7310
 7944SOL    HW235292   3.102   2.495   3.651  0.7595  0.1834 -0.4179
 7945SOL     OW35293   0.909   3.366   5.884  0.0318 -0.1543 -0.8285
 7945SOL    HW135294   0.851   3.293   5.904  0.8380 -0.9345 -1.3069
 7945SOL    HW235295   0.841   3.424   5.851 -1.3171 -0.4844  1.3518
 7946SOL     OW35296   2.993   0.235   5.454  0.1050 -0.3366  0.1905
 7946SOL    HW135297   3.005   0.238   5.549  0.7575 -1.3880  0.1478
 7946SOL    HW235298   2.911   0.277   5.428 -0.4747 -1.2691  0.4946
 7947SOL     OW35299   2.053   3.675   1.596  0.4536  0.2291 -0.2681
 7947SOL    HW135300   2.035   3.617   1.522 -1.2473  0.9898 -0.4548
 7947SOL    HW235301   2.034   3.757   1.551  1.5804  0.5286 -0.1820
 7948SOL     OW35302   1.439   1.737   3.383  0.0163  0.2493 -0.2903
 7948SOL    HW135303   1.375   1.667   3.397  0.7020 -0.5364 -1.0975
 7948SOL    HW235304   1.447   1.779   3.469 -2.1518 -1.1892  0.6066
 7949SOL     OW35305   3.486   1.765   2.565 -0.5288 -0.6790 -0.0888
 7949SOL    HW135306   3.394   1.764   2.593 -1.1684  0.7134 -2.0945
 7949SOL    HW235307   3.474   1.691   2.506 -0.1353 -0.2810 -0.6727
 7950SOL     OW35308   3.115   2.132   7.799  0.2211  0.4144 -0.6761
 7950SOL    HW135309   3.077   2.044   7.798 -0.5355  0.7387 -0.5116
 7950SOL    HW235310   3.172   2.118   7.875  0.2750  0.4972 -0.7010
 7951SOL     OW35311   1.467   2.183   7.322 -0.3033  0.4045  0.5665
 7951SOL    HW135312   1.518   2.120   7.270  2.2680  1.9328  1.2783
 7951SOL    HW235313   1.496   2.154   7.408  0.7661  2.2543  0.8148
 7952SOL     OW35314   3.785   1.574   5.786 -0.6215  0.1433 -0.3437
 7952SOL    HW135315   3.760   1.632   5.858  2.2509  0.7072  0.2285
 7952SOL    HW235316   3.815   1.498   5.837  0.6653  0.5313 -0.5285
 7953SOL     OW35317   4.203   3.624  10.393  0.3980 -0.0844 -0.3429
 7953SOL    HW135318   4.195   3.695  10.458 -1.5457 -1.2864  0.7395
 7953SOL    HW235319   4.122   3.637  10.344  0.6927  0.3027 -0.7227
 7954SOL     OW35320   1.407   1.320  12.496  0.1720 -0.2280 -0.1374
 7954SOL    HW135321   1.407   1.405  12.451  0.1399 -0.3403 -0.3519
 7954SOL    HW235322   1.376   1.351  12.581  1.1120 -1.2986  0.6012
 7955SOL     OW35323   1.002   3.146   2.175  0.6304  0.3319  0.1273
 7955SOL    HW135324   1.084   3.112   2.209  0.0996 -0.4823  0.5932
 7955SOL    HW235325   0.938   3.090   2.219 -0.1595  0.6008 -0.6810
 7956SOL     OW35326   1.673   1.307  10.904  0.3772 -0.3913  0.0210
 7956SOL    HW135327   1.755   1.287  10.950  0.9890  3.2181  0.5301
 7956SOL    HW235328   1.672   1.234  10.842 -1.8488 -1.6358  1.5381
 7957SOL     OW35329   2.783   2.796   5.737 -0.0891 -0.7502 -0.4723
 7957SOL    HW135330   2.831   2.873   5.706 -2.5107  1.2260  0.7365
 7957SOL    HW235331   2.691   2.821   5.727  0.2926  0.3825 -1.2261
 7958SOL     OW35332   0.307   4.130   7.046 -0.3712  0.0032 -0.3728
 7958SOL    HW135333   0.270   4.042   7.053  1.6804 -0.5862  3.2645
 7958SOL    HW235334   0.375   4.098   6.986 -0.3851  1.5987 -1.2327
 7959SOL     OW35335   1.045   0.965   2.266 -0.1266 -0.0049  0.2049
 7959SOL    HW135336   1.084   1.033   2.321 -0.1831  0.9066 -0.8567
 7959SOL    HW235337   1.114   0.900   2.256  1.1956  1.3955  0.2967
 7960SOL     OW35338   1.486   1.999   6.929 -0.2002  0.0662 -0.4073
 7960SOL    HW135339   1.524   2.087   6.924  0.0160 -0.2398 -4.2691
 7960SOL    HW235340   1.418   2.014   6.863 -1.4277 -1.3092  0.5325
 7961SOL     OW35341   1.312   0.189  17.178  0.3253 -0.5761  0.7655
 7961SOL    HW135342   1.238   0.250  17.172  0.9212 -0.0820 -1.4369
 7961SOL    HW235343   1.341   0.205  17.268 -0.8016 -0.9507  1.1983
 7962SOL     OW35344   0.456   0.700   5.213 -0.1666  1.4469  0.1609
 7962SOL    HW135345   0.544   0.712   5.178 -0.2137  0.5076 -0.2936
 7962SOL    HW235346   0.430   0.612   5.184 -1.2047  1.7516  0.1647
 7963SOL     OW35347   3.130   3.014   6.579 -0.0708 -0.4419  0.4184
 7963SOL    HW135348   3.041   3.017   6.544 -0.1493 -1.7635  0.5052
 7963SOL    HW235349   3.159   2.930   6.545 -0.7038 -0.2313 -0.6571
 7964SOL     OW35350   1.277   3.813   4.604 -0.0125  0.7642  0.5784
 7964SOL    HW135351   1.334   3.798   4.680 -0.7120 -1.9369  0.5768
 7964SOL    HW235352   1.321   3.891   4.572 -1.2194  1.2157  0.0141
 7965SOL     OW35353   1.665   0.926   8.423  0.5627  0.2115 -0.0143
 7965SOL    HW135354   1.706   1.006   8.456  0.7524  1.0647 -2.3001
 7965SOL    HW235355   1.713   0.857   8.470 -0.3228 -0.6161 -0.3312
 7966SOL     OW35356   4.138   3.829  12.573  0.2311 -0.4426  0.5038
 7966SOL    HW135357   4.158   3.915  12.537 -4.2232  0.1900 -0.4790
 7966SOL    HW235358   4.209   3.823  12.637  1.4855  3.4574 -0.5195
 7967SOL     OW35359   0.326   4.338   0.454 -0.0694  0.1146  0.1392
 7967SOL    HW135360   0.414   4.337   0.418  0.1261  1.1709  0.5893
 7967SOL    HW235361   0.312   4.433   0.455  1.8915  0.4091 -1.2936
 7968SOL     OW35362   1.063   0.850  14.894 -0.0919  0.1440 -0.3943
 7968SOL    HW135363   1.121   0.797  14.839  2.4644  0.9340  1.5691
 7968SOL    HW235364   0.986   0.857  14.838 -1.7722  0.2882  1.9446
 7969SOL     OW35365   3.013   2.513   0.466  0.8249  0.3175  0.1928
 7969SOL    HW135366   2.937   2.474   0.425 -0.0406 -0.1696  2.2896
 7969SOL    HW235367   2.974   2.572   0.531 -1.0587 -0.5026 -0.2048
 7970SOL     OW35368   3.719   0.992   8.574  0.2509 -0.4064 -1.1662
 7970SOL    HW135369   3.691   1.075   8.536 -1.0545 -0.5317 -0.5024
 7970SOL    HW235370   3.682   1.006   8.661 -1.5306 -0.0245 -1.9767
 7971SOL     OW35371   1.012   3.959  12.377 -0.0499 -0.0721  0.0357
 7971SOL    HW135372   1.086   3.915  12.334 -2.8510 -1.9862 -2.8528
 7971SOL    HW235373   1.016   4.049  12.345 -1.8417 -0.2513 -0.7207
 7972SOL     OW35374   1.764   3.991  12.659  0.8100 -0.1049  0.2265
 7972SOL    HW135375   1.845   4.025  12.697  1.8556 -1.3058 -0.9111
 7972SOL    HW235376   1.733   4.077  12.630 -2.1834 -1.4507 -0.5516
 7973SOL     OW35377   3.202   0.045   8.646 -0.7747 -0.2072  0.3205
 7973SOL    HW135378   3.277   0.027   8.702 -0.6047  1.4885  0.6429
 7973SOL    HW235379   3.166   0.124   8.687 -0.1228 -1.4825  3.3522
 7974SOL     OW35380   0.933   3.524  15.235  0.6069 -0.1098  0.0200
 7974SOL    HW135381   1.025   3.550  15.234  0.0504  1.8699  0.6773
 7974SOL    HW235382   0.953   3.441  15.280 -0.9180 -1.0543 -1.0465
 7975SOL     OW35383   4.445   2.242  12.097  0.6780  0.0350  0.2785
 7975SOL    HW135384   4.455   2.178  12.026 -0.6171 -0.8821  0.9102
 7975SOL    HW235385   4.448   2.172  12.162 -0.3812 -0.3211 -0.0582
 7976SOL     OW35386   0.774   3.970   0.303  0.9537  0.2586  0.3087
 7976SOL    HW135387   0.705   3.979   0.369 -0.3875 -1.7287 -0.8356
 7976SOL    HW235388   0.740   4.025   0.233 -0.0732  0.3742  0.8894
 7977SOL     OW35389   1.685   3.202  15.841  0.0940 -0.3080  0.1008
 7977SOL    HW135390   1.695   3.221  15.747 -1.0082 -1.3361 -0.2287
 7977SOL    HW235391   1.691   3.290  15.879 -1.6394 -0.5694  0.9518
 7978SOL     OW35392   1.612   2.944   6.764  0.1854 -0.5056  0.0824
 7978SOL    HW135393   1.620   3.028   6.810  1.0075  1.0519 -2.9009
 7978SOL    HW235394   1.607   2.888   6.841 -2.8876 -0.1464  0.1214
 7979SOL     OW35395   2.002   0.226   4.123 -0.3279  0.6405 -0.0308
 7979SOL    HW135396   1.983   0.255   4.213  0.5332  1.4694 -0.1109
 7979SOL    HW235397   2.004   0.131   4.137  1.2656  0.6485 -0.1856
 7980SOL     OW35398   0.678   1.739  11.593 -0.2081  0.1749 -0.3207
 7980SOL    HW135399   0.646   1.672  11.532  0.5343 -1.1972  0.8048
 7980SOL    HW235400   0.602   1.758  11.649  2.3813 -1.1845  3.5712
 7981SOL     OW35401   3.226   2.017   6.261  0.2861  0.0566 -0.0933
 7981SOL    HW135402   3.305   2.072   6.270  0.8383 -0.7923  0.2341
 7981SOL    HW235403   3.188   2.019   6.349 -0.1241 -0.6843 -0.2606
 7982SOL     OW35404   0.394   2.944   9.759  0.0343 -0.5185  0.0732
 7982SOL    HW135405   0.412   2.885   9.687  3.1034 -0.0685  0.4910
 7982SOL    HW235406   0.461   2.920   9.823  0.5618 -1.4822 -0.8607
 7983SOL     OW35407   3.410   1.667   2.962  0.8356  0.0083  0.6810
 7983SOL    HW135408   3.357   1.588   2.962 -0.1994  0.7059  1.2858
 7983SOL    HW235409   3.414   1.703   2.873 -2.1130  1.1631  1.0391
 7984SOL     OW35410   3.629   4.113  17.068 -0.3446 -0.8340  0.2356
 7984SOL    HW135411   3.610   4.174  17.139 -1.1241 -0.3520 -0.3795
 7984SOL    HW235412   3.664   4.035  17.109  0.7830 -0.0727  0.7055
 7985SOL     OW35413   0.643   2.182   3.194  0.1017 -0.4975 -0.2510
 7985SOL    HW135414   0.607   2.173   3.106  1.9419  0.5183 -1.1123
 7985SOL    HW235415   0.735   2.205   3.183  0.6762 -3.2652 -1.3070
 7986SOL     OW35416   1.260   0.748   5.852 -0.3943  0.0984  0.1466
 7986SOL    HW135417   1.259   0.663   5.895 -0.5564 -0.1295 -0.3117
 7986SOL    HW235418   1.332   0.787   5.902  1.5538 -1.4502 -1.4674
 7987SOL     OW35419   0.820   3.664   0.912  0.0705  0.1930 -0.2879
 7987SOL    HW135420   0.802   3.666   1.006 -1.8012  4.1771 -0.7336
 7987SOL    HW235421   0.910   3.637   0.928 -0.0061  0.0103 -0.1579
 7988SOL     OW35422   2.439   1.584   2.390 -0.2506  0.1631 -0.3175
 7988SOL    HW135423   2.417   1.668   2.431  0.4297  1.1191 -1.9393
 7988SOL    HW235424   2.357   1.535   2.397 -0.5669  0.8709  1.1871
 7989SOL     OW35425   2.150   4.312   7.128 -0.5152 -0.3181 -0.1771
 7989SOL    HW135426   2.246   4.319   7.130 -0.5641  0.4111 -0.3830
 7989SOL    HW235427   2.138   4.220   7.151 -0.5514 -0.1530  0.4430
 7990SOL     OW35428   1.732   0.912  17.191  0.8449 -0.0992 -0.4639
 7990SOL    HW135429   1.637   0.903  17.182  1.1581 -3.9537  0.3745
 7990SOL    HW235430   1.731   1.008  17.186  0.2923 -0.1347 -1.1051
 7991SOL     OW35431   4.406   0.108   3.925 -0.1238 -0.0246  0.0223
 7991SOL    HW135432   4.464   0.051   3.976  1.3752  0.2978 -1.3318
 7991SOL    HW235433   4.425   0.193   3.964 -0.3000 -0.8819  1.9516
 7992SOL     OW35434   0.960   0.421   7.364 -0.0266 -0.0462  0.1349
 7992SOL    HW135435   1.018   0.490   7.396  0.5022  0.3347 -1.6348
 7992SOL    HW235436   0.988   0.351   7.423 -0.6670 -0.5193 -0.1252
 7993SOL     OW35437   4.592   4.110   1.927  1.4321  0.2731 -1.0763
 7993SOL    HW135438   4.548   4.163   1.861  2.2781  0.1805 -1.7230
 7993SOL    HW235439   4.676   4.122   1.881  1.8057  1.5207 -0.1024
 7994SOL     OW35440   2.001   0.115   0.327 -0.3712 -0.5819  0.0555
 7994SOL    HW135441   2.075   0.098   0.385 -1.3489  0.7398  1.6846
 7994SOL    HW235442   2.043   0.122   0.241 -1.5147  0.9896 -0.3669
 7995SOL     OW35443   2.701   2.870   5.036 -0.0701  0.5985 -0.3995
 7995SOL    HW135444   2.766   2.939   5.025  0.2440  0.1970 -1.0182
 7995SOL    HW235445   2.730   2.823   5.114  1.2164  1.8358 -0.1341
 7996SOL     OW35446   2.886   3.133   3.598 -0.0157 -0.2832  0.1109
 7996SOL    HW135447   2.949   3.205   3.606 -0.4211  0.1947 -1.0305
 7996SOL    HW235448   2.823   3.160   3.532  0.0511 -0.4737 -0.0312
 7997SOL     OW35449   1.934   1.247   8.764  0.7648 -0.4845 -0.1450
 7997SOL    HW135450   1.962   1.300   8.839 -1.6260 -0.0308  0.4055
 7997SOL    HW235451   1.992   1.172   8.776  0.5069 -0.7519 -0.6113
 7998SOL     OW35452   4.337   3.845   9.008 -0.4473 -0.0172 -0.0009
 7998SOL    HW135453   4.349   3.877   8.919 -0.7984 -1.0470 -0.4260
 7998SOL    HW235454   4.338   3.749   8.998 -0.3926  0.1539 -1.7211
 7999SOL     OW35455   0.026   2.912   5.753 -0.4111  0.1468 -0.0097
 7999SOL    HW135456   4.693   2.842   5.786  0.2258  0.7192  2.2548
 7999SOL    HW235457   0.091   2.931   5.821 -0.3906  2.5936 -0.7314
 8000SOL     OW35458   2.245   1.852   5.513  0.5718 -0.0032 -0.0018
 8000SOL    HW135459   2.179   1.902   5.561  1.5118  2.6045 -1.4044
 8000SOL    HW235460   2.321   1.910   5.522 -0.8852  1.6534  1.5281
 8001SOL     OW35461   3.989   4.092   0.070 -0.3803  0.4991 -0.2091
 8001SOL    HW135462   3.927   4.068   0.001 -0.2553 -0.2832 -0.0439
 8001SOL    HW235463   3.930   4.101   0.145  2.0717 -1.2939  1.9394
 8002SOL     OW35464   0.101   3.713   4.673 -0.2616 -0.1229  0.1048
 8002SOL    HW135465   0.015   3.720   4.633  1.0967  0.8350 -2.6514
 8002SOL    HW235466   0.151   3.744   4.597 -1.7724  1.1891 -0.3613
 8003SOL     OW35467   3.284   4.604  12.861  0.5461  0.1229  0.1542
 8003SOL    HW135468   3.275   4.680  12.804  0.7401 -0.9501 -1.2985
 8003SOL    HW235469   3.239   4.622  12.943 -1.1220 -1.8699 -0.3341
 8004SOL     OW35470   2.281   2.375   3.161 -0.3056  0.0912 -0.5534
 8004SOL    HW135471   2.270   2.303   3.224  1.8364  0.9181  0.7810
 8004SOL    HW235472   2.373   2.366   3.136 -0.0430  0.9361  0.1117
 8005SOL     OW35473   2.242   2.094   5.791  0.1516  0.3361  0.7430
 8005SOL    HW135474   2.241   2.142   5.874  1.1111 -0.9162  1.4762
 8005SOL    HW235475   2.151   2.065   5.795  0.4974 -0.6785  1.3170
 8006SOL     OW35476   2.281   2.224   7.829  0.3717  0.1493  0.3204
 8006SOL    HW135477   2.277   2.156   7.896  0.0633 -0.1429  0.0062
 8006SOL    HW235478   2.286   2.303   7.883 -1.8613 -0.3542  1.2591
 8007SOL     OW35479   1.993   0.525  14.326 -0.0619 -0.0061 -0.3575
 8007SOL    HW135480   1.955   0.564  14.247 -0.4182 -1.8179 -1.0655
 8007SOL    HW235481   1.948   0.571  14.397  0.5495 -2.0316  1.3217
 8008SOL     OW35482   0.360   1.721   6.181 -0.3399  0.3742  0.0306
 8008SOL    HW135483   0.305   1.757   6.111  0.2258  1.3815  0.1090
 8008SOL    HW235484   0.344   1.628   6.161 -1.0938  0.6842 -0.8153
 8009SOL     OW35485   1.845   2.970   6.637 -0.5918  0.4732  0.1724
 8009SOL    HW135486   1.845   2.877   6.661 -2.2376  0.7111  1.0612
 8009SOL    HW235487   1.760   2.986   6.676 -0.5338  1.0345  0.0614
 8010SOL     OW35488   4.526   2.156   7.212  0.0385 -0.2821 -0.4149
 8010SOL    HW135489   4.535   2.216   7.286  1.6726  0.5501 -1.2847
 8010SOL    HW235490   4.565   2.076   7.247  0.7100  0.5760  0.7947
 8011SOL     OW35491   0.248   2.261   8.228 -0.3260  0.3189 -0.6199
 8011SOL    HW135492   0.215   2.211   8.303  0.3580  1.2425  0.2926
 8011SOL    HW235493   0.332   2.217   8.211 -0.1817  0.6567 -0.7809
 8012SOL     OW35494   0.639   2.002   6.310  0.0524  0.1133 -0.3124
 8012SOL    HW135495   0.618   1.999   6.216 -0.3718  0.3569 -0.2222
 8012SOL    HW235496   0.734   2.008   6.300  0.1231 -0.4481 -0.0201
 8013SOL     OW35497   0.216   2.340   3.966  0.0561  0.9567  0.3309
 8013SOL    HW135498   0.141   2.285   3.987  0.5260  0.7007  1.3323
 8013SOL    HW235499   0.178   2.426   3.984 -1.1270  0.2940  1.0034
 8014SOL     OW35500   2.766   2.503   2.017 -0.0254  0.1618 -0.4921
 8014SOL    HW135501   2.811   2.434   2.066 -0.5747  0.3429  0.2609
 8014SOL    HW235502   2.685   2.456   1.998 -0.6157  1.2535 -0.6606
 8015SOL     OW35503   2.204   4.385   4.327  0.6139 -0.3178  0.6143
 8015SOL    HW135504   2.236   4.341   4.248  2.8654 -0.0032  1.3317
 8015SOL    HW235505   2.115   4.406   4.299  0.4899  0.6466  1.7602
 8016SOL     OW35506   4.139   2.660   7.917 -0.1731 -0.2900  0.1015
 8016SOL    HW135507   4.128   2.711   7.837 -0.0465  2.7520  1.9882
 8016SOL    HW235508   4.056   2.613   7.915 -0.0940 -0.5293  2.0312
 8017SOL     OW35509   1.643   1.364  16.805  0.1863 -0.0467  0.2253
 8017SOL    HW135510   1.680   1.449  16.829 -1.1778  0.5449  0.2954
 8017SOL    HW235511   1.559   1.388  16.764 -0.7317 -1.6429  1.1861
 8018SOL     OW35512   1.462   3.434   0.293  0.5496 -0.8783  0.3857
 8018SOL    HW135513   1.504   3.520   0.293 -0.0296 -0.5926 -0.3793
 8018SOL    HW235514   1.422   3.435   0.380 -0.3860  0.6970 -0.0650
 8019SOL     OW35515   4.506   2.169   9.466 -0.4351 -0.2445 -0.3642
 8019SOL    HW135516   4.450   2.243   9.488 -2.1230 -1.3715 -0.8602
 8019SOL    HW235517   4.572   2.182   9.533 -0.4121  1.7877 -0.7908
 8020SOL     OW35518   2.811   1.819   3.701 -0.2662 -0.2358 -0.1978
 8020SOL    HW135519   2.783   1.841   3.612  0.5931 -0.9076 -0.6293
 8020SOL    HW235520   2.735   1.859   3.745  0.5523  0.6089  0.4524
 8021SOL     OW35521   2.130   2.873   2.395  0.6005  1.0936 -0.0109
 8021SOL    HW135522   2.133   2.778   2.400  0.9194  1.0840 -0.4311
 8021SOL    HW235523   2.220   2.885   2.364  0.2739 -0.1289 -1.4461
 8022SOL     OW35524   1.861   4.592   2.764 -0.2337  0.4184 -0.4072
 8022SOL    HW135525   1.867   4.555   2.675 -2.1893 -0.6381 -0.0946
 8022SOL    HW235526   1.923   4.663   2.746  0.5401 -0.2926 -0.6088
 8023SOL     OW35527   0.738   2.612   1.389 -0.0102  0.1463 -0.2025
 8023SOL    HW135528   0.795   2.689   1.381 -0.8066  0.7874  0.2225
 8023SOL    HW235529   0.668   2.643   1.446  0.6902  1.4422 -0.0343
 8024SOL     OW35530   3.308   4.307  15.581 -0.2122 -0.2886 -0.2152
 8024SOL    HW135531   3.318   4.349  15.667 -0.4188  1.0809 -0.8603
 8024SOL    HW235532   3.394   4.316  15.540 -0.0374  0.4052  0.2927
 8025SOL     OW35533   0.380   3.765   4.257  0.6561 -0.8376 -0.4202
 8025SOL    HW135534   0.475   3.755   4.244  0.9383  1.1036  0.0905
 8025SOL    HW235535   0.352   3.698   4.196 -0.0825  0.2284 -1.2611
 8026SOL     OW35536   2.142   2.951  16.087  0.2359  0.1929 -0.1530
 8026SOL    HW135537   2.183   2.940  16.002 -2.9101  0.6476 -1.7279
 8026SOL    HW235538   2.048   2.947  16.066 -0.1370 -0.1903  1.5574
 8027SOL     OW35539   3.732   2.745   9.745  0.1805  0.1740  0.6165
 8027SOL    HW135540   3.688   2.697   9.815  0.0095  0.9586  1.0516
 8027SOL    HW235541   3.762   2.680   9.681 -0.7876  1.7402 -1.4007
 8028SOL     OW35542   3.700   4.583   6.606 -0.6388 -0.0022  0.5739
 8028SOL    HW135543   3.632   4.568   6.673 -0.9021 -1.0233  0.0756
 8028SOL    HW235544   3.650   4.641   6.548 -2.8479 -1.6935  0.7909
 8029SOL     OW35545   3.841   1.486   7.551  0.3636  0.4649 -0.0579
 8029SOL    HW135546   3.932   1.474   7.578 -0.1146 -1.8733  0.4620
 8029SOL    HW235547   3.842   1.537   7.470  0.0832 -0.4288 -0.6235
 8030SOL     OW35548   3.403   0.431   5.259  0.3049  0.1076  0.3686
 8030SOL    HW135549   3.430   0.505   5.204 -1.9366  2.5515  2.5915
 8030SOL    HW235550   3.320   0.408   5.216  1.2628 -0.0079 -1.4587
 8031SOL     OW35551   3.828   3.991   4.496 -0.1578  0.2469 -0.0364
 8031SOL    HW135552   3.823   4.080   4.460 -0.9642  0.8249  1.5240
 8031SOL    HW235553   3.795   3.941   4.421 -1.1128  2.5229 -1.1322
 8032SOL     OW35554   3.440   0.072   2.769  0.3827  0.1451 -0.0099
 8032SOL    HW135555   3.447   0.166   2.753 -0.9953 -0.2662 -3.0174
 8032SOL    HW235556   3.398   0.041   2.689 -0.0353  0.5047  0.0690
 8033SOL     OW35557   0.458   2.557   2.922 -0.4184 -0.4382  0.0194
 8033SOL    HW135558   0.441   2.648   2.900  1.6741  0.5522  2.5286
 8033SOL    HW235559   0.375   2.518   2.894 -0.2954 -1.7217  1.4532
 8034SOL     OW35560   1.042   4.482  16.837  0.8442 -0.1106 -0.6063
 8034SOL    HW135561   1.105   4.411  16.827  1.3624  0.2195  0.2684
 8034SOL    HW235562   1.099   4.550  16.873 -2.2301  1.8124  0.6328
 8035SOL     OW35563   4.684   0.703   6.544  0.0734 -0.0829 -0.3986
 8035SOL    HW135564   4.650   0.763   6.477 -1.6288 -0.7637 -0.1598
 8035SOL    HW235565   4.603   0.679   6.590  0.4252  0.0901  0.3084
 8036SOL     OW35566   0.461   3.242   7.520  0.1952  0.5197  0.4604
 8036SOL    HW135567   0.543   3.291   7.528  0.0374  0.7986  0.3612
 8036SOL    HW235568   0.500   3.155   7.520  0.8455  0.7971  1.8353
 8037SOL     OW35569   2.297   2.813   6.797  0.5215 -0.0481  0.8729
 8037SOL    HW135570   2.324   2.749   6.732  0.0510 -2.0920  2.6874
 8037SOL    HW235571   2.352   2.888   6.773  1.1543 -0.9285 -0.3884
 8038SOL     OW35572   1.471   3.139   3.748  0.2549 -0.5754 -0.0465
 8038SOL    HW135573   1.450   3.051   3.716 -0.3252 -0.3742 -0.2284
 8038SOL    HW235574   1.520   3.173   3.673  0.0468  2.1246  1.0562
 8039SOL     OW35575   0.852   3.614   4.472  0.3159 -0.6009 -0.0729
 8039SOL    HW135576   0.842   3.707   4.490 -1.2600 -0.9584  0.8719
 8039SOL    HW235577   0.913   3.586   4.540  1.3747  0.6393 -0.5222
 8040SOL     OW35578   4.422   3.537   4.401  0.1311  0.7706 -0.0264
 8040SOL    HW135579   4.495   3.568   4.347  0.4172  1.7027  0.9103
 8040SOL    HW235580   4.454   3.447   4.410 -2.3183  0.0891  1.8009
 8041SOL     OW35581   2.299   1.252   9.497  0.7214  0.1405 -0.0781
 8041SOL    HW135582   2.255   1.302   9.565  1.0643  1.2881 -0.6986
 8041SOL    HW235583   2.325   1.173   9.544  0.4805  1.8994  3.0101
 8042SOL     OW35584   3.786   0.791   9.033 -0.8195  0.0895 -0.0858
 8042SOL    HW135585   3.827   0.875   9.012  0.4986 -0.5539 -0.0897
 8042SOL    HW235586   3.864   0.736   9.033 -1.1996 -0.4605  0.3070
 8043SOL     OW35587   0.966   0.862  16.150 -0.1802 -0.2878 -0.6347
 8043SOL    HW135588   0.889   0.859  16.208 -0.7252  0.2389 -1.3195
 8043SOL    HW235589   0.978   0.771  16.127  1.4215 -0.4837  0.9545
 8044SOL     OW35590   1.960   1.677   8.825 -0.1720  0.1706  0.6635
 8044SOL    HW135591   1.940   1.588   8.855  3.4397  0.1525  2.9568
 8044SOL    HW235592   1.968   1.654   8.733  0.3989  1.0560  0.4943
 8045SOL     OW35593   4.109   1.038   4.840 -0.0935 -0.1693 -0.5923
 8045SOL    HW135594   4.068   1.074   4.761 -0.3839  0.1949 -0.2775
 8045SOL    HW235595   4.200   1.028   4.812 -0.0235 -1.4987  0.1525
 8046SOL     OW35596   2.888   2.448  12.118 -0.6278 -0.3049 -0.3528
 8046SOL    HW135597   2.962   2.446  12.178  0.6754 -0.3114 -1.9573
 8046SOL    HW235598   2.868   2.540  12.132  0.3995 -0.1919  0.3102
 8047SOL     OW35599   2.866   0.358   9.048  0.3149  0.0330  0.5718
 8047SOL    HW135600   2.844   0.282   8.994 -0.6265  1.0810 -0.4950
 8047SOL    HW235601   2.939   0.398   9.002  1.3397  0.4449  2.5362
 8048SOL     OW35602   1.184   1.293   3.096  0.4418  0.3695 -0.1909
 8048SOL    HW135603   1.109   1.351   3.084 -0.5872 -0.7349  0.9175
 8048SOL    HW235604   1.139   1.211   3.114 -0.8663  0.8525 -1.2006
 8049SOL     OW35605   1.103   1.308   4.239 -0.4514 -0.0209  0.5354
 8049SOL    HW135606   1.154   1.269   4.309  1.3381  2.2464  0.4999
 8049SOL    HW235607   1.126   1.401   4.251 -0.0070 -0.2185  1.1876
 8050SOL     OW35608   0.035   1.774  17.582 -0.5604  0.0526  0.3905
 8050SOL    HW135609   0.104   1.727  17.629  0.9674 -0.1620 -2.0948
 8050SOL    HW235610   4.699   1.780  17.658 -0.1394 -0.6982  0.7728
 8051SOL     OW35611   2.048   3.199  15.989 -0.2335  0.7817  0.2931
 8051SOL    HW135612   1.994   3.124  15.966 -0.6495  0.8591  1.0192
 8051SOL    HW235613   2.050   3.241  15.903  0.2662 -1.3012 -0.7175
 8052SOL     OW35614   2.481   1.241   7.671 -0.6142 -0.1546  0.1096
 8052SOL    HW135615   2.462   1.170   7.731  0.1656 -1.1847 -0.8627
 8052SOL    HW235616   2.396   1.270   7.639 -0.2901 -0.1348 -0.7347
 8053SOL     OW35617   2.676   2.194   0.128  0.4231 -0.0499 -0.8060
 8053SOL    HW135618   2.646   2.154   0.210 -1.3236  2.1831 -0.3533
 8053SOL    HW235619   2.717   2.123   0.078  1.9195  0.9627 -1.0108
 8054SOL     OW35620   3.780   0.641   6.108 -0.1445 -0.7739 -0.5280
 8054SOL    HW135621   3.728   0.609   6.034  1.2724 -0.0204 -1.8495
 8054SOL    HW235622   3.717   0.666   6.175 -1.9327  0.2234 -2.6062
 8055SOL     OW35623   2.022   1.146   3.549  0.0418 -0.3405 -0.1731
 8055SOL    HW135624   2.006   1.072   3.489  1.3562 -0.7873  0.0436
 8055SOL    HW235625   1.946   1.200   3.524 -0.0400 -1.0769 -1.5539
 8056SOL     OW35626   4.393   3.537   3.530  0.0735  0.1615  0.5802
 8056SOL    HW135627   4.473   3.575   3.492  0.0560 -1.7274 -1.3225
 8056SOL    HW235628   4.374   3.597   3.603  1.4251  1.3899 -0.0862
 8057SOL     OW35629   3.632   3.454   4.938  0.2042  0.5282  0.7897
 8057SOL    HW135630   3.686   3.428   5.013 -1.9466 -0.4850  1.9845
 8057SOL    HW235631   3.632   3.372   4.889  0.6069  0.8234  0.2978
 8058SOL     OW35632   4.095   0.386   4.431  0.2511  0.2459  0.5324
 8058SOL    HW135633   4.114   0.366   4.339 -2.6261 -0.1465  0.0190
 8058SOL    HW235634   4.157   0.456   4.450 -0.7154  1.0963  0.5894
 8059SOL     OW35635   1.406   4.083  11.861  0.3583 -0.1075  0.0738
 8059SOL    HW135636   1.315   4.055  11.862 -0.1066  1.4135  0.5979
 8059SOL    HW235637   1.424   4.097  11.768  2.3185 -1.2309  0.2722
 8060SOL     OW35638   4.645   1.899   0.100  0.3265 -0.6496  0.6185
 8060SOL    HW135639   4.684   1.987   0.094  2.4742 -1.7123 -1.0811
 8060SOL    HW235640   4.552   1.918   0.088  0.8930  1.8342  0.1694
 8061SOL     OW35641   3.073   3.029   5.976 -0.0469 -0.2419 -0.0322
 8061SOL    HW135642   2.979   3.048   5.974  0.4661  2.2418 -0.3743
 8061SOL    HW235643   3.096   3.063   6.063 -1.6774 -0.3253  0.4191
 8062SOL     OW35644   0.037   0.836   5.844 -0.1353  0.6929  0.0756
 8062SOL    HW135645   4.681   0.875   5.808 -0.2029  0.6700  0.2001
 8062SOL    HW235646   0.044   0.754   5.794  1.0463  0.1456  1.1233
 8063SOL     OW35647   0.066   2.308  11.855 -0.2928  0.5817 -0.1710
 8063SOL    HW135648   0.011   2.355  11.792  0.1775  1.1643 -0.1402
 8063SOL    HW235649   0.015   2.314  11.936 -0.0058  1.8823 -0.0936
 8064SOL     OW35650   1.264   3.575   2.634  0.2037 -0.2004 -0.4362
 8064SOL    HW135651   1.315   3.641   2.681 -1.2033  1.2974 -0.9979
 8064SOL    HW235652   1.334   3.520   2.600  0.6903  0.2671 -0.1888
 8065SOL     OW35653   2.559   4.642  13.660 -0.0118 -0.0115  0.5045
 8065SOL    HW135654   2.642   4.688  13.646 -0.4809  0.8744  0.6622
 8065SOL    HW235655   2.496   4.709  13.635  1.3734  0.8323 -0.7284
 8066SOL     OW35656   3.948   4.544   6.864  0.3467  0.1296  0.1198
 8066SOL    HW135657   3.888   4.618   6.854 -0.2101  0.0022  2.5323
 8066SOL    HW235658   4.025   4.581   6.822  0.1649  1.2418  0.7708
 8067SOL     OW35659   3.333   0.688   5.457 -0.3684  0.3581 -0.3322
 8067SOL    HW135660   3.255   0.735   5.488 -0.6465  0.4342 -1.1355
 8067SOL    HW235661   3.294   0.667   5.372 -0.9052 -3.9575  1.0156
 8068SOL     OW35662   4.589   4.343   0.874  0.4248 -0.1878  0.4656
 8068SOL    HW135663   4.511   4.390   0.843 -0.1215 -1.8334 -0.6681
 8068SOL    HW235664   4.628   4.333   0.787 -0.4174 -2.9181  0.4049
 8069SOL     OW35665   1.367   4.699  17.027  0.5310  0.4516  0.0895
 8069SOL    HW135666   1.342   0.067  17.046  0.1311  0.0402  1.4554
 8069SOL    HW235667   1.312   4.651  17.088  2.8245 -1.5739  0.5702
 8070SOL     OW35668   3.029   2.604   5.508 -0.4743  0.1183 -0.6181
 8070SOL    HW135669   3.034   2.699   5.508  0.5100  0.0733 -1.2231
 8070SOL    HW235670   3.021   2.585   5.414  3.0124  0.3565 -0.9836
 8071SOL     OW35671   3.338   2.489  12.686  0.0453 -0.2225 -0.3032
 8071SOL    HW135672   3.361   2.561  12.745 -0.1836 -1.7857  1.6886
 8071SOL    HW235673   3.250   2.468  12.718  0.7314 -2.6715 -0.0798
 8072SOL     OW35674   1.659   0.157   4.868 -0.0589 -0.9075 -0.1024
 8072SOL    HW135675   1.751   0.138   4.886  0.4072 -1.0718 -2.6651
 8072SOL    HW235676   1.651   0.251   4.883 -0.9049 -1.6866  4.4250
 8073SOL     OW35677   4.174   3.582   7.510 -0.0932  0.1760  0.5128
 8073SOL    HW135678   4.240   3.651   7.503 -0.0882  0.1633  0.4249
 8073SOL    HW235679   4.100   3.609   7.456 -0.3638  0.6500  1.1223
 8074SOL     OW35680   2.761   4.128   3.194  0.4616  0.2881  0.4004
 8074SOL    HW135681   2.768   4.223   3.204  1.5863  0.1844  0.5872
 8074SOL    HW235682   2.724   4.135   3.106  0.6255 -1.1947  0.2085
 8075SOL     OW35683   4.430   4.623   6.540 -0.2150  0.3585  0.2125
 8075SOL    HW135684   4.437   4.679   6.616  2.9724 -1.6697  1.4141
 8075SOL    HW235685   4.343   4.587   6.560 -0.1834  1.6374  2.5804
 8076SOL     OW35686   2.148   0.440   3.419 -0.2259 -0.2229  0.6235
 8076SOL    HW135687   2.143   0.529   3.384 -0.7466 -0.5848 -0.2391
 8076SOL    HW235688   2.201   0.466   3.495  1.3006 -1.2966 -0.0545
 8077SOL     OW35689   4.512   1.507  10.000  0.2418 -0.1855  0.6740
 8077SOL    HW135690   4.593   1.558  10.002  0.0519  0.1368  0.1761
 8077SOL    HW235691   4.469   1.550   9.926  0.5515  0.3393  0.7949
 8078SOL     OW35692   1.594   1.876   7.328 -0.9175 -0.1873  0.2128
 8078SOL    HW135693   1.607   1.793   7.282 -0.9661 -0.9806  1.5977
 8078SOL    HW235694   1.622   1.935   7.258  1.7089 -1.3257  0.2879
 8079SOL     OW35695   1.919   4.523   9.426  0.5513  0.3615 -0.4487
 8079SOL    HW135696   1.997   4.503   9.374 -0.3101  1.1558 -2.0437
 8079SOL    HW235697   1.862   4.447   9.433  0.1165  0.7966  0.7215
 8080SOL     OW35698   3.382   2.433   5.373 -0.0336  0.1834 -0.1678
 8080SOL    HW135699   3.300   2.415   5.418 -0.6188  1.8139 -0.5922
 8080SOL    HW235700   3.358   2.427   5.280  0.1629  0.6137 -0.2459
 8081SOL     OW35701   4.079   2.670   3.580 -0.5474 -0.8538 -0.7213
 8081SOL    HW135702   3.993   2.630   3.592 -1.1905  1.3916  2.1120
 8081SOL    HW235703   4.059   2.704   3.492 -0.1277 -0.7485 -0.7772
 8082SOL     OW35704   2.725   1.978   3.099 -0.0552  0.0687 -0.0964
 8082SOL    HW135705   2.727   1.926   3.019 -0.7396 -0.3819  0.1688
 8082SOL    HW235706   2.638   2.011   3.075 -0.4784 -1.5899 -0.8404
 8083SOL     OW35707   2.700   3.306   6.750 -0.1710  0.1501 -0.2044
 8083SOL    HW135708   2.751   3.226   6.763 -0.6665 -0.0198  0.7822
 8083SOL    HW235709   2.609   3.287   6.776  0.1534 -1.2571 -0.0962
 8084SOL     OW35710   1.797   1.207   6.581  0.2749 -0.2363  1.0307
 8084SOL    HW135711   1.741   1.151   6.635  1.4402 -0.8814  1.5832
 8084SOL    HW235712   1.781   1.288   6.631  0.2289 -0.2056  0.9661
 8085SOL     OW35713   0.035   4.109  10.913 -0.3067  0.8722 -0.0556
 8085SOL    HW135714   4.719   4.168  10.848  0.4686  0.3675 -0.9815
 8085SOL    HW235715   0.112   4.161  10.939  0.4266  0.6373 -1.7348
 8086SOL     OW35716   2.836   2.512  15.064  0.2130  0.3866 -0.1888
 8086SOL    HW135717   2.778   2.587  15.077  0.3576  0.7501 -1.6539
 8086SOL    HW235718   2.801   2.468  15.141 -1.0120 -1.5623 -1.8509
 8087SOL     OW35719   3.858   3.958   6.476 -0.3232  0.2350  0.1568
 8087SOL    HW135720   3.867   3.979   6.569  3.4597  2.1075 -0.6299
 8087SOL    HW235721   3.797   3.885   6.482 -0.2430 -0.0040 -1.8875
 8088SOL     OW35722   2.228   4.259   5.997 -0.3181  0.4545 -0.3109
 8088SOL    HW135723   2.192   4.283   6.083  0.2421 -1.3295  0.4111
 8088SOL    HW235724   2.288   4.332   5.986  0.6081 -0.4128 -0.9116
 8089SOL     OW35725   0.024   2.648   2.448 -0.0038  0.5951 -0.3201
 8089SOL    HW135726   0.112   2.654   2.410  1.1794  0.3989  2.4129
 8089SOL    HW235727   0.023   2.557   2.475 -2.0952  0.4894 -0.7591
 8090SOL     OW35728   0.479   3.417   5.534 -0.4509 -0.8374 -0.1142
 8090SOL    HW135729   0.419   3.357   5.577 -0.0973 -1.3664 -0.3657
 8090SOL    HW235730   0.420   3.485   5.500 -0.4071 -1.3117 -1.1177
 8091SOL     OW35731   3.417   2.189  12.841 -0.4893  0.1424  0.1715
 8091SOL    HW135732   3.375   2.168  12.758 -1.0002  0.2774  0.3954
 8091SOL    HW235733   3.509   2.169  12.824 -0.6699  0.9687 -1.7580
 8092SOL     OW35734   0.805   0.282  15.297  0.2214 -0.2899 -0.1948
 8092SOL    HW135735   0.783   0.347  15.230  1.5231 -0.3204 -0.6395
 8092SOL    HW235736   0.726   0.291  15.350 -0.4123  1.6529 -1.4444
 8093SOL     OW35737   1.071   0.191   5.941 -0.4338 -0.2304 -0.3417
 8093SOL    HW135738   1.055   0.102   5.910 -2.2830  0.5223 -1.4809
 8093SOL    HW235739   0.990   0.209   5.988  0.9458  2.1733  1.1409
 8094SOL     OW35740   0.862   0.872  14.727 -0.3368 -0.3369 -0.0694
 8094SOL    HW135741   0.795   0.939  14.713  1.2814  0.9564 -1.5530
 8094SOL    HW235742   0.824   0.804  14.671 -0.6196 -0.8062  0.6857
 8095SOL     OW35743   3.952   3.915   2.243 -0.0730  0.2324 -0.8583
 8095SOL    HW135744   3.965   4.007   2.266  3.1829 -0.2449 -0.7992
 8095SOL    HW235745   3.857   3.910   2.250 -0.0666 -1.0850 -1.7392
 8096SOL     OW35746   4.157   0.824   6.975 -0.0437 -0.6227 -0.3575
 8096SOL    HW135747   4.183   0.887   7.042  2.4159 -1.6721 -0.3487
 8096SOL    HW235748   4.108   0.764   7.032 -2.3746  0.6759 -0.9674
 8097SOL     OW35749   0.652   1.113   6.924  0.0593 -0.0858  0.5399
 8097SOL    HW135750   0.727   1.059   6.951  0.6833  0.4238 -0.1837
 8097SOL    HW235751   0.580   1.051   6.915 -1.8382  1.7316  3.4304
 8098SOL     OW35752   0.397   2.035  10.465  0.0466  0.3231 -0.1309
 8098SOL    HW135753   0.398   2.021  10.560 -1.1447 -0.7958 -0.2832
 8098SOL    HW235754   0.347   2.115  10.453  0.2378  0.6870  1.4705
 8099SOL     OW35755   3.766   3.568  16.303  0.0366  0.4551  0.2148
 8099SOL    HW135756   3.708   3.515  16.249 -1.2211 -0.8487  2.8581
 8099SOL    HW235757   3.707   3.640  16.325 -0.1745 -0.0334  1.2522
 8100SOL     OW35758   3.238   4.578  11.606  0.2255 -0.0463 -0.3242
 8100SOL    HW135759   3.314   4.618  11.647 -0.5017 -0.2272  1.2209
 8100SOL    HW235760   3.177   4.647  11.634  1.0831  0.5304  0.1016
 8101SOL     OW35761   2.463   1.074   6.994 -0.2418  0.3779  0.4528
 8101SOL    HW135762   2.369   1.067   6.974 -0.1339 -3.4257  1.2572
 8101SOL    HW235763   2.466   1.145   7.058  0.5589  0.4244  0.3542
 8102SOL     OW35764   2.747   4.678   3.466  0.2937 -0.1488 -0.7713
 8102SOL    HW135765   2.670   4.671   3.410  0.9794  1.4298 -1.8867
 8102SOL    HW235766   2.742   4.595   3.513 -3.4823  0.1844 -0.5822
 8103SOL     OW35767   4.428   2.756   6.882  0.2203 -0.0573 -0.1068
 8103SOL    HW135768   4.340   2.719   6.876  0.3425 -0.7426  2.5467
 8103SOL    HW235769   4.431   2.805   6.799  0.1313 -2.2446 -1.4198
 8104SOL     OW35770   1.301   0.653   0.349  0.1257  0.0688 -0.2646
 8104SOL    HW135771   1.247   0.675   0.424  1.9541 -0.6473  1.2568
 8104SOL    HW235772   1.273   0.563   0.334  0.8220 -0.3879  1.1802
 8105SOL     OW35773   2.326   2.391   0.825 -1.1980  0.0397  0.4873
 8105SOL    HW135774   2.333   2.296   0.822  1.2477  0.3311 -2.3593
 8105SOL    HW235775   2.231   2.401   0.824 -1.3234 -1.4851 -1.4055
 8106SOL     OW35776   3.267   2.948   2.192  0.1002 -0.3262 -0.2320
 8106SOL    HW135777   3.245   2.961   2.284 -2.1486  1.0696 -0.9666
 8106SOL    HW235778   3.363   2.956   2.196  0.0724 -0.0564 -0.1040
 8107SOL     OW35779   4.603   4.068   3.902  0.4422  0.0656 -0.4458
 8107SOL    HW135780   4.530   4.018   3.938  0.3441  1.1672  0.8946
 8107SOL    HW235781   4.660   4.001   3.862 -2.2894 -2.2397 -0.4508
 8108SOL     OW35782   0.488   0.046   4.515  0.0234 -0.1160 -0.0121
 8108SOL    HW135783   0.582   0.031   4.512  0.3172  2.0560 -1.7786
 8108SOL    HW235784   0.469   0.022   4.606 -1.2339 -2.1258 -0.8197
 8109SOL     OW35785   1.288   3.100  10.437 -0.3224  0.0320  0.5862
 8109SOL    HW135786   1.331   3.022  10.400 -0.3673 -0.4927  1.6533
 8109SOL    HW235787   1.277   3.157  10.361  0.9944 -0.1647  0.2438
 8110SOL     OW35788   3.083   3.066   6.844  0.4049 -0.3492 -0.0529
 8110SOL    HW135789   3.143   3.007   6.890 -0.8136 -1.5058  0.0419
 8110SOL    HW235790   3.099   3.053   6.750 -0.8504  1.8373 -0.5601
 8111SOL     OW35791   2.392   1.231   8.347 -0.4340  0.6127  0.3530
 8111SOL    HW135792   2.324   1.224   8.414  0.4804  0.0291  1.1965
 8111SOL    HW235793   2.350   1.186   8.273  1.7041 -1.3024  0.3317
 8112SOL     OW35794   3.224   3.107   2.709  0.1672 -0.1152  0.1890
 8112SOL    HW135795   3.258   3.196   2.707  0.1260 -0.0723  1.2173
 8112SOL    HW235796   3.210   3.097   2.804  1.4533  1.2877  0.5228
 8113SOL     OW35797   0.241   1.306  11.182 -0.0935  0.3324 -0.3025
 8113SOL    HW135798   0.204   1.391  11.205  1.3716  1.0676 -0.6880
 8113SOL    HW235799   0.183   1.248  11.231 -1.3954  0.9408 -1.1182
 8114SOL     OW35800   3.546   0.155  15.752  0.1712 -0.2895 -0.4042
 8114SOL    HW135801   3.594   0.177  15.832 -2.2925  3.7647 -0.0323
 8114SOL    HW235802   3.540   0.245  15.720 -1.4370  0.1502  1.1791
 8115SOL     OW35803   0.825   3.264   2.000  0.4393  0.2869  0.3966
 8115SOL    HW135804   0.886   3.322   1.956  2.5991 -2.6819 -0.5281
 8115SOL    HW235805   0.882   3.221   2.064 -2.3307 -3.7946  0.1697
 8116SOL     OW35806   0.583   4.231   5.261 -0.1754  0.9254 -0.4546
 8116SOL    HW135807   0.569   4.151   5.210 -3.7211  1.4461 -0.3166
 8116SOL    HW235808   0.586   4.208   5.354 -0.1031  1.4365 -0.3307
 8117SOL     OW35809   3.751   1.212   5.167 -0.0400  0.6601  0.4342
 8117SOL    HW135810   3.692   1.253   5.103 -0.1316  2.4832  1.6765
 8117SOL    HW235811   3.834   1.207   5.120  1.2936  1.7875  2.7264
 8118SOL     OW35812   0.347   1.744   7.136  0.5757  0.0041 -0.4580
 8118SOL    HW135813   0.329   1.768   7.227  1.8128  1.5836 -0.6131
 8118SOL    HW235814   0.324   1.828   7.095 -1.0959 -0.0938  0.2732
 8119SOL     OW35815   0.572   3.902   9.902  0.0184 -0.3628  0.4604
 8119SOL    HW135816   0.476   3.900   9.895 -0.0151  0.3346  0.7282
 8119SOL    HW235817   0.597   3.812   9.882  0.1488 -0.5324  1.3639
 8120SOL     OW35818   0.329   1.649   2.482 -0.0519  0.4922 -0.0329
 8120SOL    HW135819   0.377   1.727   2.455  1.2569 -0.0413  0.7479
 8120SOL    HW235820   0.239   1.673   2.463  0.0762  0.2058 -0.9946
 8121SOL     OW35821   2.917   4.420   8.132 -0.1747 -0.2575 -0.2003
 8121SOL    HW135822   2.888   4.488   8.070  1.3575  0.3757 -0.2288
 8121SOL    HW235823   2.988   4.464   8.178  0.7422 -1.5837 -0.3628
 8122SOL     OW35824   0.434   1.407   6.205  0.2526  0.0505 -0.1491
 8122SOL    HW135825   0.485   1.402   6.124  0.5435 -1.8015  0.1551
 8122SOL    HW235826   0.447   1.318   6.238  1.9452  0.5360  0.4802
 8123SOL     OW35827   3.437   3.350   9.482  0.2864 -0.2278 -0.0270
 8123SOL    HW135828   3.483   3.401   9.549  1.0324 -0.6659 -0.2002
 8123SOL    HW235829   3.346   3.376   9.498  0.9335  2.8325 -1.4762
 8124SOL     OW35830   2.143   3.751   4.020  0.0660 -0.6733  0.7393
 8124SOL    HW135831   2.183   3.668   4.045 -2.9874 -2.4545 -0.2077
 8124SOL    HW235832   2.056   3.716   4.000 -0.5304  0.9527  0.4527
 8125SOL     OW35833   3.249   3.018   3.869 -0.5534  0.0875 -0.6505
 8125SOL    HW135834   3.252   2.926   3.840 -1.3263 -0.3770  0.7767
 8125SOL    HW235835   3.339   3.045   3.849 -0.5444  0.5096 -0.0151
 8126SOL     OW35836   2.903   2.222   6.877  0.2855 -0.2644  0.2063
 8126SOL    HW135837   2.826   2.209   6.932 -1.1091  0.2205 -1.5925
 8126SOL    HW235838   2.902   2.315   6.853  1.4422 -0.4687 -0.6621
 8127SOL     OW35839   2.937   0.730   9.422  0.4094 -0.0270 -0.6165
 8127SOL    HW135840   2.857   0.728   9.475  1.0217  0.8654  0.3237
 8127SOL    HW235841   2.965   0.641   9.445 -0.9066 -0.6931 -1.5503
 8128SOL     OW35842   2.944   4.023   8.201 -0.5421 -0.2667  0.4668
 8128SOL    HW135843   2.980   3.940   8.232  0.2507  0.3247  1.1185
 8128SOL    HW235844   2.935   4.075   8.281 -1.4591  1.1254 -0.5391
 8129SOL     OW35845   0.984   1.980   6.544 -0.0015 -0.1824 -0.1246
 8129SOL    HW135846   1.054   1.920   6.521  0.1583  0.5724 -1.5690
 8129SOL    HW235847   0.983   2.048   6.478  1.2992 -0.0881 -0.0495
 8130SOL     OW35848   4.048   1.795   2.490 -0.3827  0.2394  0.0142
 8130SOL    HW135849   3.954   1.803   2.507 -0.0419 -0.6609  2.3585
 8130SOL    HW235850   4.044   1.699   2.490 -1.9814  0.3142 -1.2200
 8131SOL     OW35851   1.222   3.235   9.756  0.1819  0.0484 -0.4824
 8131SOL    HW135852   1.306   3.216   9.796  0.7646 -1.5517 -2.4451
 8131SOL    HW235853   1.175   3.177   9.815  0.6693  1.5296  1.3506
 8132SOL     OW35854   3.981   0.318   4.934 -0.5266  0.2251 -0.1203
 8132SOL    HW135855   3.930   0.400   4.941 -0.6537 -0.0124  1.6920
 8132SOL    HW235856   3.911   0.255   4.916  0.2363 -0.6916  0.1547
 8133SOL     OW35857   3.504   2.974   3.006  0.7108 -0.5396  0.1938
 8133SOL    HW135858   3.576   2.988   2.945  0.1211 -2.2920 -0.9206
 8133SOL    HW235859   3.500   3.055   3.057  1.3256 -0.1291 -0.4100
 8134SOL     OW35860   4.199   3.084   4.337 -0.3276  0.3358  0.2269
 8134SOL    HW135861   4.248   3.036   4.271  0.3324 -0.9346  1.6307
 8134SOL    HW235862   4.229   3.174   4.325  0.8768  0.0310  0.8795
 8135SOL     OW35863   0.422   4.555  10.599  0.1167 -0.2488  0.3158
 8135SOL    HW135864   0.506   4.512  10.581  1.3672  3.2978 -2.2847
 8135SOL    HW235865   0.424   4.591  10.688  0.5562 -0.4568  0.3880
 8136SOL     OW35866   2.401   0.762   3.649 -0.4210 -0.0180  0.0739
 8136SOL    HW135867   2.402   0.840   3.593  1.5933  1.0402  1.5972
 8136SOL    HW235868   2.487   0.721   3.648 -1.2020 -1.6602  1.3234
 8137SOL     OW35869   0.754   4.040   7.128  0.1387 -0.3918 -0.3754
 8137SOL    HW135870   0.682   4.102   7.137 -0.5332 -1.2466  0.0508
 8137SOL    HW235871   0.786   4.053   7.038 -2.1069  0.7300 -0.9907
 8138SOL     OW35872   0.389   1.034   4.210  0.4467 -0.2530 -0.5289
 8138SOL    HW135873   0.370   1.082   4.130  1.1173  0.0619 -0.4990
 8138SOL    HW235874   0.482   1.015   4.197  0.3604  0.4596 -2.1580
 8139SOL     OW35875   2.874   3.017   6.484  0.2945  0.4938  0.1207
 8139SOL    HW135876   2.841   3.099   6.448 -1.2152 -1.1385 -2.2332
 8139SOL    HW235877   2.807   3.003   6.551  1.1543  0.7381  1.0201
 8140SOL     OW35878   3.402   1.509  13.762  0.3517 -0.3254 -0.1567
 8140SOL    HW135879   3.358   1.509  13.677 -1.3227 -1.0419  0.7220
 8140SOL    HW235880   3.464   1.582  13.754  1.4983 -1.5006 -1.9952
 8141SOL     OW35881   0.622   1.153   8.334 -0.1150  0.6002  0.3328
 8141SOL    HW135882   0.585   1.066   8.346  1.5555 -0.0766  0.5673
 8141SOL    HW235883   0.709   1.135   8.299 -0.2766  1.2859 -0.4339
 8142SOL     OW35884   0.451   3.299  15.657 -0.2204 -0.1110  0.1767
 8142SOL    HW135885   0.497   3.230  15.704 -0.5575  0.9725  2.0817
 8142SOL    HW235886   0.359   3.285  15.679 -0.4483 -1.1270 -1.4532
 8143SOL     OW35887   1.219   1.235   5.355 -0.3974 -0.1922 -0.1741
 8143SOL    HW135888   1.186   1.153   5.319 -1.1268 -0.8424  1.9830
 8143SOL    HW235889   1.171   1.246   5.437 -0.6532  1.0598 -0.4802
 8144SOL     OW35890   4.152   2.142   5.728  0.3127  0.0341 -0.1310
 8144SOL    HW135891   4.160   2.088   5.650 -2.8845 -0.3554 -0.1794
 8144SOL    HW235892   4.061   2.126   5.750  0.3765  0.7710  0.6712
 8145SOL     OW35893   3.121   1.144   3.037 -0.1515  0.2706  0.4737
 8145SOL    HW135894   3.081   1.230   3.036  1.2919  0.9561  0.6723
 8145SOL    HW235895   3.198   1.158   3.093 -1.1996  1.5744  1.5778
 8146SOL     OW35896   4.324   4.542  10.446  0.1023  0.9846 -0.3030
 8146SOL    HW135897   4.372   4.467  10.483  0.8952  0.0643 -3.1867
 8146SOL    HW235898   4.270   4.490  10.387  0.9484  1.3324 -1.3852
 8147SOL     OW35899   3.178   2.257  11.027 -0.0429 -0.2420  0.4683
 8147SOL    HW135900   3.231   2.178  11.034  0.6135  0.0785 -0.8448
 8147SOL    HW235901   3.212   2.297  10.947 -0.1877 -2.6542 -0.7771
 8148SOL     OW35902   0.593   2.162   9.042 -0.2552 -0.3683 -0.5264
 8148SOL    HW135903   0.622   2.118   9.122 -0.0412 -0.7053 -0.7855
 8148SOL    HW235904   0.679   2.173   9.000  0.2175 -0.2803  0.4785
 8149SOL     OW35905   1.768   3.942   5.559 -0.1522 -0.0286  0.1743
 8149SOL    HW135906   1.788   3.848   5.559 -2.2221 -0.4635  0.2214
 8149SOL    HW235907   1.760   3.951   5.654 -1.0100 -0.6295  0.1603
 8150SOL     OW35908   4.352   3.580   9.078  0.2861 -0.3510  0.0559
 8150SOL    HW135909   4.335   3.493   9.114  0.1246 -0.0640  0.6669
 8150SOL    HW235910   4.393   3.539   9.001 -0.0825 -0.5918 -0.0079
 8151SOL     OW35911   1.710   0.417   7.874 -0.7019  0.2865  0.3091
 8151SOL    HW135912   1.642   0.404   7.807 -0.2131  0.2771 -0.1837
 8151SOL    HW235913   1.655   0.404   7.951 -0.5334 -0.3037  0.3310
 8152SOL     OW35914   0.396   2.181   5.103 -0.3753  0.1343 -0.0269
 8152SOL    HW135915   0.343   2.123   5.048  0.3291  0.5073 -1.1082
 8152SOL    HW235916   0.347   2.264   5.103  1.4096  1.2210 -3.6298
 8153SOL     OW35917   2.211   3.991   3.511 -0.0237 -0.6892  0.0130
 8153SOL    HW135918   2.124   3.957   3.532 -0.5234  0.8187  0.3137
 8153SOL    HW235919   2.234   4.044   3.587  1.8069 -0.0815 -0.9558
 8154SOL     OW35920   4.508   0.646   1.497 -0.4529  0.6128 -0.1632
 8154SOL    HW135921   4.531   0.586   1.426  0.1544  0.6376  0.0111
 8154SOL    HW235922   4.419   0.616   1.514  0.2581 -1.6594 -0.3299
 8155SOL     OW35923   3.356   1.815   8.866 -0.0228  0.0548  0.0667
 8155SOL    HW135924   3.368   1.895   8.917  0.0123  1.1141 -1.6000
 8155SOL    HW235925   3.338   1.748   8.932 -1.8078  0.3321 -0.1488
 8156SOL     OW35926   2.739   2.936  13.951 -0.0793  0.1278 -0.2131
 8156SOL    HW135927   2.806   2.915  14.016  0.4700 -1.5209 -1.3238
 8156SOL    HW235928   2.677   2.968  14.017  0.7060  1.3722 -0.0771
 8157SOL     OW35929   2.414   2.072   3.273  0.6121  0.1201  0.3688
 8157SOL    HW135930   2.406   2.064   3.178 -0.2871 -1.2678  0.5574
 8157SOL    HW235931   2.469   1.999   3.303 -3.0932 -4.0273 -2.9447
 8158SOL     OW35932   3.188   3.291   3.746  0.0687 -0.1169  0.1681
 8158SOL    HW135933   3.179   3.205   3.786 -1.4532  0.9400  2.0845
 8158SOL    HW235934   3.192   3.356   3.816  0.5991 -0.0142  0.0450
 8159SOL     OW35935   4.081   3.529   3.631 -0.0167  0.3313  0.1560
 8159SOL    HW135936   4.162   3.578   3.646 -0.5596  1.0719  0.6078
 8159SOL    HW235937   4.022   3.581   3.684  1.7940  0.1517  2.3576
 8160SOL     OW35938   4.167   1.840   8.431  0.5842 -0.1554  0.1401
 8160SOL    HW135939   4.179   1.747   8.454  2.5029 -0.5698 -2.5765
 8160SOL    HW235940   4.182   1.833   8.337 -0.1556  0.2002 -0.0038
 8161SOL     OW35941   2.149   4.349   4.631  0.1550  0.3812 -0.1997
 8161SOL    HW135942   2.194   4.352   4.546 -0.8676  0.3288 -0.7343
 8161SOL    HW235943   2.217   4.299   4.677  0.7773  1.8332  0.4465
 8162SOL     OW35944   0.911   0.652   8.058  0.2722 -0.1023  0.3091
 8162SOL    HW135945   0.943   0.670   8.146 -0.1827  2.9852 -0.1457
 8162SOL    HW235946   0.857   0.729   8.039  1.5129  1.0332  1.3331
 8163SOL     OW35947   4.459   2.958  10.653 -0.6247 -0.1689  0.3069
 8163SOL    HW135948   4.370   2.925  10.663 -1.0247 -0.0545 -3.1259
 8163SOL    HW235949   4.435   3.048  10.634  1.8070  0.5501  0.5857
 8164SOL     OW35950   0.817   1.193   5.247  0.8152  0.5272  0.0941
 8164SOL    HW135951   0.739   1.174   5.196  0.2449  0.8426  0.8559
 8164SOL    HW235952   0.834   1.125   5.312 -1.9609  0.5362  0.7928
 8165SOL     OW35953   3.136   1.755   2.325  0.0813  0.2526  0.2232
 8165SOL    HW135954   3.061   1.779   2.379 -0.8175 -1.8877 -0.0911
 8165SOL    HW235955   3.146   1.832   2.269  0.4733  0.3084  0.3656
 8166SOL     OW35956   2.759   0.483  14.220 -0.5881 -0.0446  0.6980
 8166SOL    HW135957   2.754   0.405  14.276  2.1027 -0.7681 -0.0617
 8166SOL    HW235958   2.771   0.439  14.135 -1.2064 -0.9458  1.0710
 8167SOL     OW35959   3.353   4.352   9.063  0.1766 -0.1215 -0.1052
 8167SOL    HW135960   3.380   4.407   9.136 -0.7684 -0.5395  0.5532
 8167SOL    HW235961   3.272   4.315   9.099 -0.8544  0.9546 -1.3362
 8168SOL     OW35962   4.548   2.576   7.242 -0.0741 -0.2270 -0.3305
 8168SOL    HW135963   4.637   2.607   7.225 -0.4482  0.1096 -1.6328
 8168SOL    HW235964   4.507   2.651   7.200  1.5542  0.5328 -0.5375
 8169SOL     OW35965   3.244   1.719   2.696  0.1778 -0.0970  0.7326
 8169SOL    HW135966   3.165   1.671   2.720  0.6298 -0.2161  1.9397
 8169SOL    HW235967   3.211   1.809   2.696  1.0834  0.2471 -1.9464
 8170SOL     OW35968   4.554   4.444   8.582 -0.1814  0.2258 -0.7082
 8170SOL    HW135969   4.586   4.428   8.671 -2.0523  2.0958  0.2997
 8170SOL    HW235970   4.463   4.461   8.604 -0.6052 -1.9531 -0.8130
 8171SOL     OW35971   2.429   3.017   8.394  0.0060  0.2877 -0.1304
 8171SOL    HW135972   2.446   2.966   8.473  0.4016  2.0978  0.9499
 8171SOL    HW235973   2.488   3.090   8.415  0.0860 -0.4060  1.9878
 8172SOL     OW35974   4.075   2.231   6.074  0.0116 -0.4542 -0.3748
 8172SOL    HW135975   4.013   2.293   6.112  0.6364 -0.5824  0.8283
 8172SOL    HW235976   4.057   2.151   6.123 -3.2450 -0.0390 -0.8908
 8173SOL     OW35977   4.156   0.100   4.484 -0.0085  0.0841  0.6160
 8173SOL    HW135978   4.234   0.067   4.530 -0.8060 -1.3023  0.9940
 8173SOL    HW235979   4.154   0.193   4.507  2.8737 -0.4300  3.0851
 8174SOL     OW35980   1.583   3.393   7.052 -0.1567 -0.3640 -0.2894
 8174SOL    HW135981   1.580   3.445   7.132 -1.6033 -2.4694  1.0453
 8174SOL    HW235982   1.633   3.319   7.087  3.2370  1.8064 -0.6349
 8175SOL     OW35983   1.971   0.626   5.510  0.1470  0.0944  0.1440
 8175SOL    HW135984   1.988   0.720   5.503  2.4270 -0.5066 -2.6952
 8175SOL    HW235985   1.968   0.611   5.604  0.3964  1.3271  0.3427
 8176SOL     OW35986   3.140   3.168  16.152  0.0731 -0.3732  0.5424
 8176SOL    HW135987   3.107   3.244  16.200 -2.8573 -1.4154  0.1487
 8176SOL    HW235988   3.075   3.148  16.085  0.1676  0.6751  0.1501
 8177SOL     OW35989   3.133   4.097   7.988  0.0013 -0.2219 -0.3954
 8177SOL    HW135990   3.094   4.054   8.063 -1.0532  0.6324 -0.4581
 8177SOL    HW235991   3.192   4.161   8.028  0.3307 -0.2127 -0.8926
 8178SOL     OW35992   0.289   1.415   8.470 -0.3788 -0.3547  0.2970
 8178SOL    HW135993   0.378   1.413   8.434 -0.2605  2.0373  0.4070
 8178SOL    HW235994   0.239   1.426   8.389  2.7682  0.4401 -1.5716
 8179SOL     OW35995   0.414   0.227   6.576 -0.2456  0.1733 -0.5609
 8179SOL    HW135996   0.491   0.182   6.610 -0.6440  2.0800  2.8909
 8179SOL    HW235997   0.400   0.193   6.488  0.9843 -1.3362 -0.1709
 8180SOL     OW35998   1.773   4.130  10.293 -0.3435 -0.0342  0.6296
 8180SOL    HW135999   1.695   4.151  10.345  0.0916 -0.0599  1.2895
 8180SOL    HW236000   1.754   4.186  10.217 -1.4039  0.1298  1.0096
 8181SOL     OW36001   2.310   1.554  15.178 -0.6481  0.0141 -0.0324
 8181SOL    HW136002   2.258   1.475  15.194 -1.3606  0.7159  1.1280
 8181SOL    HW236003   2.385   1.524  15.128  0.0023  1.8314 -0.1271
 8182SOL     OW36004   4.399   1.091  15.615  0.5916  0.4112 -0.1914
 8182SOL    HW136005   4.495   1.091  15.609  0.6546  0.5735  0.8064
 8182SOL    HW236006   4.398   1.021  15.680 -0.8617  1.4966  0.9477
 8183SOL     OW36007   2.513   0.196   8.232  0.0012  0.0332  0.1237
 8183SOL    HW136008   2.508   0.278   8.182  1.6691  0.6458  0.9262
 8183SOL    HW236009   2.445   0.143   8.192  1.0252 -0.5476 -0.8437
 8184SOL     OW36010   2.878   2.475  17.070  0.3704 -0.5018 -0.1193
 8184SOL    HW136011   2.953   2.446  17.122  1.0167  0.3949 -0.5582
 8184SOL    HW236012   2.927   2.542  17.022  1.3129  0.0123  1.5214
 8185SOL     OW36013   1.682   3.504  16.519 -0.0876 -0.1483  0.3306
 8185SOL    HW136014   1.633   3.493  16.600  0.6382  2.6493  1.1439
 8185SOL    HW236015   1.742   3.575  16.545  0.9724 -1.4897  1.5578
 8186SOL     OW36016   1.478   2.440  14.665 -0.3074 -0.5578  0.1185
 8186SOL    HW136017   1.507   2.382  14.595 -0.2913 -1.1838  0.6478
 8186SOL    HW236018   1.463   2.524  14.621 -0.6093  0.5865  2.4298
 8187SOL     OW36019   2.968   3.879  11.638 -0.5080 -0.0589 -0.3663
 8187SOL    HW136020   3.029   3.952  11.636 -1.9453  1.0444 -4.3123
 8187SOL    HW236021   3.020   3.820  11.583  0.3236 -1.8784  2.3536
 8188SOL     OW36022   4.651   4.573   3.900 -0.2972  0.2084 -0.8098
 8188SOL    HW136023   4.667   4.644   3.961 -0.9196  0.8133 -1.3450
 8188SOL    HW236024   4.572   4.544   3.946  1.4955 -1.1069  1.3979
 8189SOL     OW36025   2.707   4.555   5.755 -0.6751  0.9376  0.2237
 8189SOL    HW136026   2.773   4.530   5.691 -1.9180 -0.1285 -0.6480
 8189SOL    HW236027   2.754   4.537   5.836 -0.0621  0.4920 -0.2355
 8190SOL     OW36028   0.784   2.764  12.510 -0.5996  0.0981 -0.3615
 8190SOL    HW136029   0.870   2.777  12.469 -0.7401 -0.1575 -0.7401
 8190SOL    HW236030   0.728   2.787  12.436 -0.6529 -1.3110 -0.7519
 8191SOL     OW36031   3.283   4.171   6.466  0.1806  0.2953 -0.8854
 8191SOL    HW136032   3.362   4.122   6.445  0.1604 -0.6808  1.2771
 8191SOL    HW236033   3.328   4.255   6.475 -0.1852  0.5418 -1.3669
 8192SOL     OW36034   3.626   0.142   5.959  0.3208 -0.0682 -0.0792
 8192SOL    HW136035   3.709   0.141   6.005  0.0356 -0.1382  0.4349
 8192SOL    HW236036   3.592   0.221   6.002  0.2489 -0.4783  0.6099
 8193SOL     OW36037   3.867   0.343   2.673  0.0142  0.6851  0.7156
 8193SOL    HW136038   3.930   0.410   2.701  0.6540  0.2928  0.2271
 8193SOL    HW236039   3.791   0.363   2.728 -0.2379  0.8466  0.3106
 8194SOL     OW36040   0.783   3.837   6.202 -0.4049 -0.1633 -0.5122
 8194SOL    HW136041   0.699   3.799   6.228  0.2030 -0.9451  0.2985
 8194SOL    HW236042   0.832   3.803   6.276  1.2398  2.4572 -0.3942
 8195SOL     OW36043   0.339   1.894   4.554  0.3839 -0.3713 -0.2229
 8195SOL    HW136044   0.291   1.811   4.553  0.6675 -0.5641  2.7981
 8195SOL    HW236045   0.352   1.902   4.649  0.1420 -2.2765 -0.0378
 8196SOL     OW36046   0.131   0.530   3.628  0.1617  0.0726  0.3218
 8196SOL    HW136047   0.081   0.493   3.701 -0.1772  4.1264  2.1643
 8196SOL    HW236048   0.086   0.614   3.625  0.0013 -0.0220  0.0965
 8197SOL     OW36049   2.888   2.872  16.706  0.4348 -0.4253  0.5170
 8197SOL    HW136050   2.891   2.967  16.712  0.8326 -0.4872  1.3533
 8197SOL    HW236051   2.823   2.865  16.636  1.2151  0.0233 -0.2605
 8198SOL     OW36052   0.689   2.200  15.532  0.4226 -0.1662 -0.3901
 8198SOL    HW136053   0.762   2.139  15.540  1.6057  1.0350 -2.0303
 8198SOL    HW236054   0.659   2.177  15.445  1.3469  0.4787 -0.8823
 8199SOL     OW36055   2.607   0.121   4.862  0.0062 -0.3961  0.5897
 8199SOL    HW136056   2.644   0.092   4.946  1.3227 -2.2616 -0.6302
 8199SOL    HW236057   2.516   0.103   4.883 -0.5770  3.1753  1.2013
 8200SOL     OW36058   3.448   0.305   0.742 -0.3564 -0.3685  0.6115
 8200SOL    HW136059   3.487   0.225   0.776  1.1017  0.3097  0.5425
 8200SOL    HW236060   3.499   0.371   0.789 -0.6875 -1.2155  2.1347
 8201SOL     OW36061   2.117   4.535   9.642 -0.2900  0.0464 -0.1204
 8201SOL    HW136062   2.192   4.537   9.583 -0.4465 -4.7334 -0.5255
 8201SOL    HW236063   2.047   4.559   9.581 -1.8641 -0.1971  1.5727
 8202SOL     OW36064   2.382   2.696   8.689  0.2767 -0.0613 -0.4519
 8202SOL    HW136065   2.332   2.653   8.758  1.7275 -0.0723  0.5944
 8202SOL    HW236066   2.333   2.666   8.612  1.4363 -1.3147 -0.7003
 8203SOL     OW36067   2.048   0.007   4.405 -0.0065  0.6501  0.0714
 8203SOL    HW136068   2.002   4.688   4.478 -1.1928  0.5191 -0.7487
 8203SOL    HW236069   2.134   0.023   4.444  0.5200  0.6591 -1.1014
 8204SOL     OW36070   3.729   2.128   8.252 -0.0476 -0.1704  0.1428
 8204SOL    HW136071   3.732   2.041   8.293  1.6053 -0.8865 -1.4858
 8204SOL    HW236072   3.782   2.173   8.318 -1.7406  2.6476 -0.4514
 8205SOL     OW36073   0.106   2.764   2.695 -0.3607 -0.1532 -0.4100
 8205SOL    HW136074   0.063   2.738   2.614  0.0380 -0.2411 -0.5898
 8205SOL    HW236075   0.159   2.837   2.663  0.7628 -2.0551 -2.8618
 8206SOL     OW36076   3.417   0.724   2.069 -0.1607  0.0676 -0.0030
 8206SOL    HW136077   3.476   0.799   2.063 -0.8709  0.6591  0.4098
 8206SOL    HW236078   3.337   0.767   2.038 -0.3031 -1.3058 -1.5238
 8207SOL     OW36079   1.431   3.711  14.901  0.4733 -0.0054 -0.3934
 8207SOL    HW136080   1.341   3.735  14.876  0.3634  0.6977  0.6907
 8207SOL    HW236081   1.425   3.636  14.961  1.2449  0.5198  0.3244
 8208SOL     OW36082   2.204   2.505   5.412  0.3623  0.3628  0.5391
 8208SOL    HW136083   2.201   2.453   5.332  2.1242  0.9871  0.0817
 8208SOL    HW236084   2.128   2.467   5.457  1.0128 -1.9936 -0.3830
 8209SOL     OW36085   2.762   2.743   2.656  0.1214  0.5236  0.1316
 8209SOL    HW136086   2.703   2.793   2.712  0.5262  0.9650  0.1558
 8209SOL    HW236087   2.836   2.803   2.655 -1.3354  2.3921  4.5249
 8210SOL     OW36088   4.401   0.693   8.977  0.3815  0.8151  0.5108
 8210SOL    HW136089   4.329   0.698   8.915 -1.1820  0.2997  2.2633
 8210SOL    HW236090   4.365   0.642   9.050  0.2602 -0.7251 -0.6334
 8211SOL     OW36091   2.283   1.332  14.820 -0.3274  0.1554 -0.0918
 8211SOL    HW136092   2.200   1.343  14.866 -0.3923  1.4663 -0.4920
 8211SOL    HW236093   2.277   1.398  14.751 -0.9294 -0.1616 -0.3439
 8212SOL     OW36094   1.610   1.891   8.201 -0.1395  0.2266  0.0453
 8212SOL    HW136095   1.518   1.912   8.213 -0.4683 -1.8936  1.2994
 8212SOL    HW236096   1.597   1.840   8.121 -1.0277  0.1590  0.2411
 8213SOL     OW36097   3.784   1.727  16.261  0.1256  0.1516 -0.0630
 8213SOL    HW136098   3.717   1.701  16.198 -0.0402 -0.6404  0.4449
 8213SOL    HW236099   3.830   1.787  16.202 -0.8516 -0.4349 -1.4184
 8214SOL     OW36100   3.585   4.500   5.166 -0.2241  0.7480 -0.1850
 8214SOL    HW136101   3.572   4.414   5.125 -0.6325  0.4800  0.5047
 8214SOL    HW236102   3.603   4.561   5.094  1.9320  1.4129  0.9477
 8215SOL     OW36103   3.549   3.965   8.487  0.2880 -0.7077  0.2574
 8215SOL    HW136104   3.492   4.022   8.437  1.1135 -0.0345  0.0873
 8215SOL    HW236105   3.587   3.915   8.415 -0.4310 -2.1904  0.8987
 8216SOL     OW36106   0.018   3.660   0.680 -0.0670 -0.8096 -0.4757
 8216SOL    HW136107   0.078   3.651   0.753 -0.0482  0.8682 -0.2853
 8216SOL    HW236108   4.714   3.750   0.697 -0.3366 -0.7619 -1.1468
 8217SOL     OW36109   2.918   3.113   5.642 -0.5944 -0.1671 -0.3094
 8217SOL    HW136110   2.944   3.170   5.570  0.2786 -0.8738 -0.5573
 8217SOL    HW236111   2.825   3.135   5.646 -0.3198  0.5375  1.8692
 8218SOL     OW36112   3.293   2.147   4.402  0.4255 -0.8682  0.9745
 8218SOL    HW136113   3.216   2.186   4.442 -0.7646 -1.1247 -1.0857
 8218SOL    HW236114   3.259   2.127   4.315  0.9494  0.8345  0.3718
 8219SOL     OW36115   2.955   1.572  16.778  0.6472  0.2489 -0.0281
 8219SOL    HW136116   2.958   1.478  16.761  0.5256  0.4662 -1.2140
 8219SOL    HW236117   3.015   1.582  16.853  0.3432  0.5645  0.1706
 8220SOL     OW36118   3.050   0.147   7.446 -0.1169 -0.5014  0.3200
 8220SOL    HW136119   3.124   0.141   7.507  2.0261 -0.6830 -2.2791
 8220SOL    HW236120   3.072   0.230   7.405 -1.4246 -0.3730 -0.0993
 8221SOL     OW36121   2.622   3.167   5.725 -0.0021  0.2753 -0.0793
 8221SOL    HW136122   2.570   3.218   5.787 -0.0995 -1.9011  1.6431
 8221SOL    HW236123   2.586   3.196   5.642 -0.2553 -2.0630 -0.7840
 8222SOL     OW36124   2.434   0.858   3.940 -0.0360 -0.1623  0.2266
 8222SOL    HW136125   2.400   0.813   3.862 -0.5558 -0.1184  0.4248
 8222SOL    HW236126   2.424   0.947   3.907 -1.8025 -1.2308 -2.1547
 8223SOL     OW36127   3.235   3.850   5.860 -0.6751 -0.4690  0.1273
 8223SOL    HW136128   3.151   3.823   5.823 -1.2278  3.4096 -1.4219
 8223SOL    HW236129   3.264   3.770   5.904  2.4434 -0.7470 -2.4731
 8224SOL     OW36130   4.177   1.340  13.624  0.3585 -0.1690  0.7977
 8224SOL    HW136131   4.110   1.361  13.559 -0.5515 -1.1730  1.4131
 8224SOL    HW236132   4.226   1.267  13.587  2.6805  1.7449  0.0695
 8225SOL     OW36133   4.533   3.316   1.430 -0.3090  0.0094  0.3766
 8225SOL    HW136134   4.589   3.243   1.404 -0.0788 -0.0285  0.9980
 8225SOL    HW236135   4.577   3.392   1.390  0.9418 -1.3181 -0.7637
 8226SOL     OW36136   4.101   1.200  14.772  0.0380 -0.1668  0.0774
 8226SOL    HW136137   4.096   1.216  14.867  0.1456 -0.0270  0.0575
 8226SOL    HW236138   4.064   1.111  14.769 -0.3072 -0.1452  3.2595
 8227SOL     OW36139   3.022   3.475  11.107  0.2894 -0.0893  0.3075
 8227SOL    HW136140   2.954   3.535  11.138  1.4848  0.7911  1.2326
 8227SOL    HW236141   3.031   3.423  11.186  0.6444  2.7878  2.1633
 8228SOL     OW36142   1.171   3.595  15.134  0.8406  0.0891  0.2700
 8228SOL    HW136143   1.187   3.513  15.087 -0.4039 -0.4674  0.8489
 8228SOL    HW236144   1.137   3.646  15.061  1.0476  0.7353  0.6270
 8229SOL     OW36145   3.284   2.342  10.766  0.0248 -0.3600  0.0593
 8229SOL    HW136146   3.379   2.336  10.757  0.1846  1.7334  0.4267
 8229SOL    HW236147   3.263   2.419  10.714  0.6771 -1.1565 -1.4113
 8230SOL     OW36148   0.775   1.099   2.846  0.1122  0.5879 -0.0235
 8230SOL    HW136149   0.843   1.047   2.802 -1.0204 -0.1502 -0.9111
 8230SOL    HW236150   0.707   1.101   2.778  2.3890 -2.3126 -2.4065
 8231SOL     OW36151   2.814   4.582   1.496  0.2812 -0.3234  0.7674
 8231SOL    HW136152   2.846   4.565   1.407  2.3459  2.2379  1.0043
 8231SOL    HW236153   2.880   4.648   1.517  0.8273 -0.0445 -1.8210
 8232SOL     OW36154   3.528   0.712   5.117  0.9270  0.4234 -0.3069
 8232SOL    HW136155   3.601   0.730   5.058 -0.5328  0.0493 -2.2129
 8232SOL    HW236156   3.521   0.799   5.157  2.6491  1.0693 -1.3770
 8233SOL     OW36157   1.969   2.428   3.441 -0.0023 -0.9181 -0.2144
 8233SOL    HW136158   1.997   2.424   3.532 -2.2362  1.4554  0.5561
 8233SOL    HW236159   1.893   2.483   3.461  0.1410 -0.4662 -0.9283
 8234SOL     OW36160   4.688   4.499   2.541 -0.8498 -0.3935  0.2042
 8234SOL    HW136161   4.640   4.426   2.581 -0.5356 -1.0496 -0.6161
 8234SOL    HW236162   0.008   4.466   2.462 -0.6357  0.2438  0.0538
 8235SOL     OW36163   1.378   4.073   6.597 -0.0893  1.3664 -0.9485
 8235SOL    HW136164   1.376   3.980   6.571 -2.7183  1.1042  0.1918
 8235SOL    HW236165   1.330   4.066   6.679  0.3620 -1.9749 -0.9549
 8236SOL     OW36166   1.699   1.737   9.200 -0.7357 -0.7901  0.2350
 8236SOL    HW136167   1.679   1.661   9.145 -0.4918  0.1068 -1.1085
 8236SOL    HW236168   1.788   1.763   9.175 -0.1103 -1.7046  1.5436
 8237SOL     OW36169   1.903   3.049   9.480  0.2228  0.0521 -0.0539
 8237SOL    HW136170   1.911   3.067   9.386  0.2408 -3.3127 -0.7128
 8237SOL    HW236171   1.808   3.061   9.485  0.1127 -0.3487 -1.2423
 8238SOL     OW36172   3.922   1.523  13.131 -0.0069 -0.1466  0.0562
 8238SOL    HW136173   3.867   1.509  13.053 -0.7222  1.9660  0.1924
 8238SOL    HW236174   3.893   1.612  13.151  0.2858 -0.3519  1.3466
 8239SOL     OW36175   0.841   1.814   0.301  0.9204 -0.3072  0.1290
 8239SOL    HW136176   0.933   1.840   0.304  1.6538 -3.1219  2.5104
 8239SOL    HW236177   0.865   1.722   0.308 -0.7706 -0.6688  1.2047
 8240SOL     OW36178   0.656   3.659   4.238  0.3729 -0.2463 -0.2356
 8240SOL    HW136179   0.747   3.683   4.219  0.7603 -0.2424  1.6644
 8240SOL    HW236180   0.675   3.622   4.324 -2.4893  0.2066  0.5673
 8241SOL     OW36181   1.850   3.421  11.243 -0.7312 -0.3521  0.7767
 8241SOL    HW136182   1.842   3.326  11.237 -2.4145 -0.1771  0.1424
 8241SOL    HW236183   1.857   3.432  11.337 -1.9134 -1.2910  0.9754
 8242SOL     OW36184   4.102   1.255  12.257 -0.1643 -0.1524 -0.2096
 8242SOL    HW136185   4.084   1.176  12.206  0.3822  1.1532 -2.4277
 8242SOL    HW236186   4.043   1.309  12.205  2.0205  1.4923 -0.9695
 8243SOL     OW36187   1.805   3.651  13.438 -0.0191  0.6135 -0.4388
 8243SOL    HW136188   1.865   3.666  13.365 -0.3420 -0.9376 -1.0248
 8243SOL    HW236189   1.726   3.703  13.421 -1.9095 -2.0996 -0.0387
 8244SOL     OW36190   4.002   0.677   6.462  0.0076  0.2646 -0.2701
 8244SOL    HW136191   3.934   0.745   6.461  2.5537  2.8200 -1.0242
 8244SOL    HW236192   4.045   0.678   6.548  0.9719 -0.1175 -0.7482
 8245SOL     OW36193   3.762   0.158   2.515 -0.8487  0.2448  0.4537
 8245SOL    HW136194   3.670   0.184   2.518 -0.8575  0.2744 -0.0914
 8245SOL    HW236195   3.802   0.230   2.562 -0.1763  0.2700 -0.1677
 8246SOL     OW36196   1.607   2.137  14.251  0.0223  0.3935 -0.1447
 8246SOL    HW136197   1.544   2.097  14.191 -0.3896 -2.4165  2.1342
 8246SOL    HW236198   1.691   2.095  14.234 -0.5748 -1.0702  0.5808
 8247SOL     OW36199   4.164   4.110   8.346  0.4603 -0.2951 -0.5762
 8247SOL    HW136200   4.114   4.151   8.418 -1.4880 -2.2296 -0.8216
 8247SOL    HW236201   4.092   4.103   8.283 -0.5750  3.6510  0.1184
 8248SOL     OW36202   0.818   3.890  16.366 -0.3982 -0.1262  0.0715
 8248SOL    HW136203   0.837   3.800  16.340  0.3728 -0.0892  0.4902
 8248SOL    HW236204   0.728   3.905  16.336 -0.4467  1.0994  0.8129
 8249SOL     OW36205   2.815   0.920   0.345  0.3607 -0.1484 -0.1762
 8249SOL    HW136206   2.735   0.962   0.313  1.6645  1.0978 -1.8170
 8249SOL    HW236207   2.801   0.923   0.439 -1.2286  2.0770 -0.4992
 8250SOL     OW36208   1.507   3.878  10.928  0.0074 -0.4777  0.4495
 8250SOL    HW136209   1.496   3.960  10.880 -1.3143 -1.0114 -0.1762
 8250SOL    HW236210   1.587   3.901  10.976 -0.0851  1.6154 -0.3827
 8251SOL     OW36211   4.118   2.784  13.032 -0.1118 -0.1689 -0.5328
 8251SOL    HW136212   4.105   2.689  13.037  1.2266 -0.5105 -3.8300
 8251SOL    HW236213   4.212   2.783  13.013  0.2081  1.0946  0.9760
 8252SOL     OW36214   1.704   0.004   1.999  0.4945  0.0038 -0.4186
 8252SOL    HW136215   1.720   0.096   2.022  1.9686 -0.5223  0.6287
 8252SOL    HW236216   1.742   4.682   2.074 -0.5960 -1.2965 -0.6338
 8253SOL     OW36217   3.256   2.364   8.253 -0.0335  0.2423 -0.3189
 8253SOL    HW136218   3.239   2.335   8.342 -1.7980  0.4030 -0.6021
 8253SOL    HW236219   3.351   2.358   8.260 -0.1855 -2.0979 -0.2700
 8254SOL     OW36220   0.554   0.400  15.577  0.1702  0.2454 -0.2088
 8254SOL    HW136221   0.553   0.346  15.498  0.5112  1.5539 -1.1291
 8254SOL    HW236222   0.624   0.349  15.618  0.4771  0.7718 -0.0615
 8255SOL     OW36223   1.640   2.059  17.669 -0.4796 -0.5132  0.5047
 8255SOL    HW136224   1.721   2.022   0.010  1.2553  2.7418 -0.0913
 8255SOL    HW236225   1.605   2.092   0.059  2.0964  3.6505 -0.0750
 8256SOL     OW36226   2.838   1.346  10.427  0.2780 -0.0086 -0.4223
 8256SOL    HW136227   2.846   1.307  10.514 -1.6955 -0.7826 -0.5901
 8256SOL    HW236228   2.923   1.390  10.423  0.2885 -0.1436 -1.5109
 8257SOL     OW36229   4.594   1.753  10.934 -0.5487 -0.2387 -0.6622
 8257SOL    HW136230   4.664   1.709  10.886 -0.2436  0.1145 -0.5402
 8257SOL    HW236231   4.603   1.844  10.907  1.1714 -0.2584 -0.1594
 8258SOL     OW36232   3.416   0.899   7.694  0.2795  0.1926 -0.1453
 8258SOL    HW136233   3.509   0.888   7.712  0.1022 -1.3326 -0.1391
 8258SOL    HW236234   3.377   0.916   7.780  0.3976 -0.8830  0.1216
 8259SOL     OW36235   1.282   0.251   5.784  0.0489 -0.3531 -0.0014
 8259SOL    HW136236   1.199   0.226   5.824  0.3602 -4.0513 -1.6837
 8259SOL    HW236237   1.316   0.162   5.788  2.3320  0.3900 -2.9136
 8260SOL     OW36238   0.855   1.636  14.644  0.2660 -0.0031 -0.0752
 8260SOL    HW136239   0.870   1.576  14.572  0.4816 -0.5839  0.4495
 8260SOL    HW236240   0.820   1.710  14.595  1.7407  0.3994 -0.5101
 8261SOL     OW36241   1.273   1.954   8.797 -0.5279  0.1476  0.4170
 8261SOL    HW136242   1.271   2.005   8.878  0.2250 -0.9107  1.1060
 8261SOL    HW236243   1.331   2.009   8.745  1.8325 -2.6375  0.0808
 8262SOL     OW36244   4.661   3.768   3.033  0.1165 -0.2238  0.5768
 8262SOL    HW136245   4.636   3.829   2.964 -3.0274 -0.8334  1.1800
 8262SOL    HW236246   4.688   3.828   3.103  0.5584 -0.8875  0.9753
 8263SOL     OW36247   4.269   3.812   3.984 -0.5183 -0.0271 -0.0729
 8263SOL    HW136248   4.286   3.906   3.986  1.3174 -0.3940  1.5213
 8263SOL    HW236249   4.212   3.806   4.060  0.9659  2.9800  1.2953
 8264SOL     OW36250   0.661   3.620   1.157 -0.2615  0.0772 -0.7777
 8264SOL    HW136251   0.654   3.625   1.253 -2.3533 -0.6236 -0.8848
 8264SOL    HW236252   0.670   3.524   1.151 -0.7237  0.1167 -2.0608
 8265SOL     OW36253   0.071   2.702  17.215 -0.3630  0.1675  0.7094
 8265SOL    HW136254   0.043   2.693  17.124 -0.3221 -1.0758  0.8198
 8265SOL    HW236255   0.143   2.765  17.220  0.8376 -1.1034 -0.8157
 8266SOL     OW36256   2.925   2.669   0.098 -0.1119  0.2989 -0.0520
 8266SOL    HW136257   2.831   2.651   0.109  0.7859 -5.3611 -1.7223
 8266SOL    HW236258   2.947   2.625   0.016  1.6098  1.5100 -0.2309
 8267SOL     OW36259   4.259   0.534   4.959  0.2025 -0.0149  0.1087
 8267SOL    HW136260   4.339   0.576   4.928  1.3914 -1.2851  1.4375
 8267SOL    HW236261   4.291   0.516   5.048  2.0382  3.5829  0.1520
 8268SOL     OW36262   1.028   1.395   2.244  0.2660  0.1100  0.2339
 8268SOL    HW136263   1.011   1.351   2.328 -0.4182 -2.1553 -1.0857
 8268SOL    HW236264   0.942   1.419   2.210  0.4074  0.3696  0.0677
 8269SOL     OW36265   0.109   0.396   4.152  0.1985  0.2207  0.3280
 8269SOL    HW136266   0.170   0.448   4.204 -0.4762  1.1827  0.1392
 8269SOL    HW236267   0.155   0.315   4.130  0.1053  0.6484 -1.4359
 8270SOL     OW36268   1.615   2.234   8.506 -0.0047 -0.4965  0.7871
 8270SOL    HW136269   1.587   2.321   8.478  0.6702 -1.0251 -1.5878
 8270SOL    HW236270   1.692   2.266   8.551 -0.4707  0.0546  1.1923
 8271SOL     OW36271   2.733   1.762   8.777  0.2051  0.2268 -0.2971
 8271SOL    HW136272   2.790   1.709   8.832 -0.7554 -0.4448  0.0528
 8271SOL    HW236273   2.685   1.812   8.843 -0.7740  1.2225 -1.7582
 8272SOL     OW36274   1.533   1.641  17.034  0.4028  0.5572 -0.2264
 8272SOL    HW136275   1.512   1.678  16.949  0.5114 -1.2594 -1.0364
 8272SOL    HW236276   1.502   1.707  17.096 -1.0714 -1.0180  0.6983
 8273SOL     OW36277   0.789   3.786   1.402  0.0512  0.1082 -0.5478
 8273SOL    HW136278   0.698   3.757   1.402 -0.8724  2.9655  1.1943
 8273SOL    HW236279   0.784   3.855   1.469  1.3059  0.6932 -1.0484
 8274SOL     OW36280   2.175   0.234   7.103 -0.4743 -0.8690  0.1654
 8274SOL    HW136281   2.227   0.238   7.182 -0.7930  3.8073  0.1000
 8274SOL    HW236282   2.097   0.277   7.137  0.9819  2.1205 -0.3101
 8275SOL     OW36283   1.913   1.336   9.251  0.1611  0.4821 -0.0279
 8275SOL    HW136284   1.969   1.261   9.272  0.6070  0.6418 -0.6516
 8275SOL    HW236285   1.950   1.401   9.311  0.9299  0.5434 -0.5733
 8276SOL     OW36286   1.653   3.706   1.566  0.7241 -0.1611  0.6211
 8276SOL    HW136287   1.649   3.634   1.504 -1.5274  1.2277 -0.8105
 8276SOL    HW236288   1.584   3.681   1.628 -0.3406 -1.3026 -1.0398
 8277SOL     OW36289   1.499   2.408   2.551  0.5496 -0.1939 -0.1659
 8277SOL    HW136290   1.578   2.413   2.498  0.3641  2.6082 -0.1732
 8277SOL    HW236291   1.543   2.386   2.633  0.8238 -0.1040 -0.2904
 8278SOL     OW36292   2.982   0.757   4.018 -0.1072 -0.2239 -0.2160
 8278SOL    HW136293   2.941   0.712   4.092  1.5403  0.6090  1.1947
 8278SOL    HW236294   2.907   0.797   3.973 -2.0770 -2.1189  1.3526
 8279SOL     OW36295   3.270   1.087   3.601  0.7210  0.2682 -0.2364
 8279SOL    HW136296   3.255   1.033   3.524  0.2290 -0.9535  0.7246
 8279SOL    HW236297   3.185   1.111   3.639  1.2388 -1.2714  1.9178
 8280SOL     OW36298   4.550   4.333   5.416  0.4183  0.0496 -0.4417
 8280SOL    HW136299   4.486   4.262   5.419 -0.4059  0.9027  2.4734
 8280SOL    HW236300   4.584   4.303   5.332 -0.5361 -2.3411  0.0305
 8281SOL     OW36301   0.537   2.912  13.417  0.3186 -0.2483 -0.0068
 8281SOL    HW136302   0.505   2.860  13.344 -0.8308  1.2799 -0.6006
 8281SOL    HW236303   0.452   2.932  13.455  0.4219  2.0614 -0.9513
 8282SOL     OW36304   2.948   0.211   5.943 -0.3463  0.0204  0.4587
 8282SOL    HW136305   2.995   0.154   6.004 -0.6453 -0.7315 -0.0294
 8282SOL    HW236306   2.861   0.173   5.946  0.2481 -1.0683  3.8381
 8283SOL     OW36307   1.336   4.226   6.200 -0.2286 -0.1524 -0.1548
 8283SOL    HW136308   1.270   4.282   6.160 -1.6580 -0.7681  1.3408
 8283SOL    HW236309   1.409   4.259   6.148  0.2004  0.1678  0.6511
 8284SOL     OW36310   0.885   0.681  13.150  0.6654 -0.0420  0.0961
 8284SOL    HW136311   0.876   0.775  13.169 -0.1867 -0.3610  1.2367
 8284SOL    HW236312   0.820   0.644  13.210 -0.3085 -0.1681 -1.0287
 8285SOL     OW36313   4.180   4.694   6.758 -0.1457 -0.1556 -0.2155
 8285SOL    HW136314   4.186   0.066   6.761  1.2517 -0.2574  0.4797
 8285SOL    HW236315   4.274   4.679   6.768 -0.1101  1.0825  1.3944
 8286SOL     OW36316   3.278   3.669   6.733 -0.5117  0.0874  0.0621
 8286SOL    HW136317   3.262   3.614   6.656 -1.6786 -1.7025  1.5897
 8286SOL    HW236318   3.356   3.621   6.761  0.3058  0.8708 -0.8524
 8287SOL     OW36319   2.266   1.619   5.921 -0.1342 -0.0755 -0.1645
 8287SOL    HW136320   2.275   1.713   5.933  1.1008  0.0463 -2.0029
 8287SOL    HW236321   2.248   1.605   5.828  1.2416 -1.1007 -0.2832
 8288SOL     OW36322   0.914   4.212   0.301  0.1174 -0.1895  0.6113
 8288SOL    HW136323   0.898   4.118   0.304 -0.7649 -0.0658 -0.0838
 8288SOL    HW236324   0.981   4.224   0.368  0.4434 -0.5001  0.3374
 8289SOL     OW36325   0.620   4.176   8.390  0.3214  0.1814 -0.6284
 8289SOL    HW136326   0.576   4.093   8.372  1.5107 -0.6622  0.4312
 8289SOL    HW236327   0.613   4.213   8.302  2.0652 -3.1783 -2.1723
 8290SOL     OW36328   2.463   1.163   5.646 -0.0535  0.4243 -0.0286
 8290SOL    HW136329   2.458   1.254   5.675 -1.1407  0.5953 -0.7412
 8290SOL    HW236330   2.448   1.186   5.554  1.7023  0.8133 -0.2103
 8291SOL     OW36331   3.086   1.503  10.407  0.1569 -0.7408  0.4762
 8291SOL    HW136332   3.144   1.535  10.476 -0.5959 -1.5567  1.4724
 8291SOL    HW236333   3.051   1.587  10.380  1.0969  0.2842  2.4477
 8292SOL     OW36334   3.937   3.392   6.827  0.2724  0.0411 -0.0734
 8292SOL    HW136335   3.851   3.434   6.822  0.5387  0.6163  0.2072
 8292SOL    HW236336   3.947   3.370   6.734  2.1839 -0.7106  0.3259
 8293SOL     OW36337   4.594   0.521   4.326 -0.2741  0.2720  0.0521
 8293SOL    HW136338   4.664   0.509   4.389 -1.5917 -3.0243  0.8930
 8293SOL    HW236339   4.555   0.603   4.356 -0.5937  0.4831 -0.9178
 8294SOL     OW36340   3.700   1.120   7.753  0.1570 -0.3847  0.3020
 8294SOL    HW136341   3.714   1.083   7.666 -1.4194  1.7759 -0.8786
 8294SOL    HW236342   3.736   1.207   7.735 -1.0086 -0.5104 -2.6461
 8295SOL     OW36343   2.742   2.289   3.806 -0.1130  0.2949 -0.4512
 8295SOL    HW136344   2.825   2.288   3.758 -0.3221  2.6388 -0.8739
 8295SOL    HW236345   2.755   2.235   3.883 -1.3604  1.0270  0.2828
 8296SOL     OW36346   0.652   3.655  17.607  0.2387  0.5978  0.9001
 8296SOL    HW136347   0.564   3.685  17.586  0.8070  0.1265 -2.1105
 8296SOL    HW236348   0.700   3.737  17.596 -0.3018  0.7697 -0.1178
 8297SOL     OW36349   3.520   3.733   4.486 -0.5453  0.3954  0.0339
 8297SOL    HW136350   3.493   3.646   4.458 -0.6801  0.6603 -0.6702
 8297SOL    HW236351   3.596   3.702   4.535  0.1658  2.0112 -0.0241
 8298SOL     OW36352   0.788   3.096   1.774  0.3103  0.6447 -0.1994
 8298SOL    HW136353   0.790   3.136   1.861 -2.2382  0.0887  0.1169
 8298SOL    HW236354   0.820   3.167   1.718 -0.1332  1.0389  0.0478
 8299SOL     OW36355   1.913   2.087  11.500  0.2340  0.2931 -0.2759
 8299SOL    HW136356   1.830   2.068  11.456 -0.0479 -0.6190  0.6673
 8299SOL    HW236357   1.874   2.121  11.581  2.9806  2.3731  0.1697
 8300SOL     OW36358   1.529   3.997   9.176  0.9723 -0.0235 -0.5138
 8300SOL    HW136359   1.571   4.034   9.254  1.0285  1.7247 -1.3701
 8300SOL    HW236360   1.445   3.974   9.215  1.7748  1.3508  2.0500
 8301SOL     OW36361   4.193   1.719  15.962 -0.2254 -0.4538 -0.0099
 8301SOL    HW136362   4.133   1.757  15.898 -1.6297 -1.3408  0.7921
 8301SOL    HW236363   4.271   1.768  15.934  1.2041 -1.9321  1.4119
 8302SOL     OW36364   0.407   4.200  14.484  0.0053  0.5511  0.4535
 8302SOL    HW136365   0.333   4.260  14.492  0.5479  1.0963  1.3130
 8302SOL    HW236366   0.485   4.256  14.488  3.3214 -4.2701  3.9569
 8303SOL     OW36367   2.089   0.802   0.332  0.1999  0.1895  0.0440
 8303SOL    HW136368   2.084   0.742   0.258 -0.2267 -0.5376  0.6676
 8303SOL    HW236369   1.998   0.832   0.339  0.8343  1.8975  0.9664
 8304SOL     OW36370   3.032   1.981   8.374 -1.0056 -0.5834  0.0539
 8304SOL    HW136371   3.084   2.029   8.439 -0.4338  0.5803 -1.2469
 8304SOL    HW236372   2.947   2.014   8.404 -0.6991  0.5075 -0.2815
 8305SOL     OW36373   4.550   2.574   1.669 -0.5948 -0.3390  0.2919
 8305SOL    HW136374   4.632   2.570   1.720 -0.0855 -0.7469 -0.5700
 8305SOL    HW236375   4.488   2.584   1.742 -1.0766  0.6737 -0.2641
 8306SOL     OW36376   2.025   0.138  16.905 -0.0058  0.1958 -0.1848
 8306SOL    HW136377   2.118   0.159  16.907 -0.0197  0.2564 -0.1834
 8306SOL    HW236378   2.003   0.123  16.813  1.0201  0.9422 -0.5466
 8307SOL     OW36379   0.597   2.012  12.364 -0.3142  0.0539  0.0318
 8307SOL    HW136380   0.516   2.030  12.316 -0.2015  0.2230 -0.0965
 8307SOL    HW236381   0.656   2.009  12.288 -0.4716  1.3201 -0.1437
 8308SOL     OW36382   0.109   3.601  10.146 -0.1313 -0.1031 -0.3557
 8308SOL    HW136383   0.199   3.607  10.114  0.7132 -0.4667  2.0131
 8308SOL    HW236384   0.080   3.687  10.175  0.4030 -0.9772  2.7273
 8309SOL     OW36385   0.370   2.067   2.209  0.2822  0.0557  0.2225
 8309SOL    HW136386   0.317   2.144   2.230  0.4563  0.2314  0.0230
 8309SOL    HW236387   0.415   2.104   2.133  1.8075 -0.0769  1.0555
 8310SOL     OW36388   3.880   0.359   6.127 -0.1043 -0.6054  0.0710
 8310SOL    HW136389   3.892   0.452   6.110  2.9490 -0.7105  1.7436
 8310SOL    HW236390   3.913   0.332   6.041 -0.3170  1.4077 -0.6332
 8311SOL     OW36391   2.156   0.113   7.600 -0.3138 -0.1843 -0.5585
 8311SOL    HW136392   2.229   0.074   7.648 -0.5100 -1.2312 -1.1245
 8311SOL    HW236393   2.087   0.111   7.665 -0.0229  0.8911 -0.2070
 8312SOL     OW36394   0.937   2.538   5.992 -0.8068 -0.8462 -0.1048
 8312SOL    HW136395   0.940   2.492   5.908 -1.1712  2.0913 -1.7362
 8312SOL    HW236396   1.020   2.586   5.999 -1.8482  0.6312  1.7850
 8313SOL     OW36397   1.720   2.814  10.193 -0.4090 -0.2346 -0.1361
 8313SOL    HW136398   1.760   2.799  10.107 -0.4872  0.0442 -0.2208
 8313SOL    HW236399   1.628   2.823  10.168 -0.2375 -2.0336 -1.4376
 8314SOL     OW36400   0.205   4.588   6.241 -0.4306  0.3877 -0.1831
 8314SOL    HW136401   0.157   4.558   6.318 -0.7283  0.2622 -0.4207
 8314SOL    HW236402   0.138   4.566   6.177 -1.2108 -1.9680  1.4279
 8315SOL     OW36403   2.340   0.174   6.670 -0.6982 -0.6316 -0.1032
 8315SOL    HW136404   2.323   0.267   6.655  0.8501 -0.5706 -1.4943
 8315SOL    HW236405   2.375   0.185   6.758 -1.2583 -2.4405  0.3276
 8316SOL     OW36406   0.753   4.552   4.029 -0.3803  0.0625  0.1368
 8316SOL    HW136407   0.766   4.507   3.946  3.4761 -1.7182  1.6810
 8316SOL    HW236408   0.793   4.637   4.007 -0.7087  0.1091 -0.2820
 8317SOL     OW36409   2.633   0.922   4.901  0.0650 -0.1717  0.8825
 8317SOL    HW136410   2.675   0.967   4.828 -3.1689 -0.7318 -1.3288
 8317SOL    HW236411   2.546   0.961   4.897 -0.2849 -0.9568  0.7377
 8318SOL     OW36412   0.956   0.217  15.038  0.3671 -0.2954 -0.6386
 8318SOL    HW136413   0.895   0.269  15.091 -0.8622 -0.1657 -2.1883
 8318SOL    HW236414   0.978   0.282  14.972  0.9320  0.4821  0.3166
 8319SOL     OW36415   0.526   0.872   3.262  0.5356  0.3906  0.3308
 8319SOL    HW136416   0.600   0.812   3.271  0.2039 -0.0842 -0.1696
 8319SOL    HW236417   0.469   0.822   3.204  1.4648 -1.4032  0.9557
 8320SOL     OW36418   1.520   0.986   2.259 -0.5448 -0.0761 -0.3765
 8320SOL    HW136419   1.551   1.019   2.344 -1.3340 -1.4157  0.4391
 8320SOL    HW236420   1.562   1.047   2.199 -0.6562 -0.9677 -1.3463
 8321SOL     OW36421   2.407   1.832   5.037 -0.5262 -0.3222  0.0308
 8321SOL    HW136422   2.337   1.819   4.974  0.0021  1.8581 -0.9938
 8321SOL    HW236423   2.413   1.927   5.026  0.8078 -0.3192  0.6868
 8322SOL     OW36424   4.687   2.405  12.126  0.7727  0.1049 -0.5121
 8322SOL    HW136425   0.015   2.357  12.191  0.0890  0.0182 -0.0458
 8322SOL    HW236426   4.607   2.353  12.132  0.9736 -0.4901 -2.7058
 8323SOL     OW36427   3.513   0.523   9.220  0.4853  0.4000 -0.1369
 8323SOL    HW136428   3.419   0.514   9.238  0.5001 -1.0505 -0.8674
 8323SOL    HW236429   3.514   0.619   9.230  0.9765  0.3117  0.6837
 8324SOL     OW36430   2.790   0.641   6.919  0.1569  0.2638  0.0549
 8324SOL    HW136431   2.749   0.728   6.920 -2.1595 -0.8509  1.3536
 8324SOL    HW236432   2.828   0.634   7.006  2.5953  0.3296 -0.9916
 8325SOL     OW36433   3.576   3.522   5.458 -0.1544 -0.5456 -0.2811
 8325SOL    HW136434   3.616   3.575   5.527 -0.6723  0.7126 -0.9618
 8325SOL    HW236435   3.530   3.585   5.402 -0.5224 -0.5353  0.0277
 8326SOL     OW36436   0.768   2.667   5.393 -0.0280 -0.6434 -0.1788
 8326SOL    HW136437   0.803   2.735   5.335 -2.2237  1.6211  1.1743
 8326SOL    HW236438   0.811   2.707   5.468  1.6399 -1.5180 -0.6622
 8327SOL     OW36439   1.064   1.090  15.997  0.2238  0.1702  0.3701
 8327SOL    HW136440   1.042   1.000  16.022  1.9029 -0.2003  0.5065
 8327SOL    HW236441   0.981   1.111  15.953 -0.0531  1.2527  1.4151
 8328SOL     OW36442   1.048   4.043  16.311 -0.3374  0.0284 -0.0629
 8328SOL    HW136443   1.023   4.050  16.218  1.4752 -0.9918 -0.6154
 8328SOL    HW236444   0.973   4.007  16.358 -0.2430  2.7817  2.1835
 8329SOL     OW36445   3.953   2.591   1.513 -0.5866 -0.3522 -0.5375
 8329SOL    HW136446   3.861   2.616   1.509 -0.6267 -0.3259  0.6077
 8329SOL    HW236447   3.987   2.619   1.428 -2.0726  0.2283 -0.9391
 8330SOL     OW36448   3.934   4.475   6.531 -0.2187  0.1245  0.4662
 8330SOL    HW136449   3.846   4.509   6.548  0.0804  0.8749  0.5270
 8330SOL    HW236450   3.947   4.533   6.455  0.9372 -2.1146 -1.0584
 8331SOL     OW36451   3.989   3.305   8.262 -0.0256  0.6097 -0.3269
 8331SOL    HW136452   4.013   3.251   8.337  0.8994 -1.0824 -1.8512
 8331SOL    HW236453   4.023   3.388   8.295  1.9257  0.4397 -1.9563
 8332SOL     OW36454   1.401   3.657   1.882 -0.7809 -0.1728 -0.2980
 8332SOL    HW136455   1.478   3.634   1.933 -1.4744  2.6554  2.0115
 8332SOL    HW236456   1.412   3.591   1.813 -3.5338 -0.1110 -0.8132
 8333SOL     OW36457   3.211   2.098   4.123 -0.5388 -0.5600  0.3405
 8333SOL    HW136458   3.121   2.127   4.103 -0.6308  0.4417  2.2273
 8333SOL    HW236459   3.230   2.079   4.031  1.4038 -1.0734  0.8563
 8334SOL     OW36460   2.570   0.144   2.312 -0.1424  0.3480  0.1407
 8334SOL    HW136461   2.641   0.102   2.361  2.2475  2.5095 -1.4738
 8334SOL    HW236462   2.560   0.228   2.356 -3.8384  0.1350 -0.3616
 8335SOL     OW36463   1.226   1.384  11.473 -0.4840 -0.1804  0.1623
 8335SOL    HW136464   1.254   1.473  11.451  2.4262 -0.6509  2.0267
 8335SOL    HW236465   1.278   1.331  11.412 -0.1111  0.4085 -0.0281
 8336SOL     OW36466   2.202   4.501   8.567 -0.4068  0.1041 -0.1160
 8336SOL    HW136467   2.223   4.576   8.623  1.1033 -1.6434  1.6736
 8336SOL    HW236468   2.110   4.492   8.594  0.0102 -1.5817  0.7171
 8337SOL     OW36469   2.637   0.149   6.338 -0.4748  0.4123  0.3179
 8337SOL    HW136470   2.681   0.165   6.422  1.9530 -1.4951 -0.5572
 8337SOL    HW236471   2.558   0.104   6.369  0.0457  0.3736  1.5918
 8338SOL     OW36472   4.387   0.652   4.689  0.2836 -0.6334 -0.3201
 8338SOL    HW136473   4.316   0.644   4.625  0.1405  0.3959 -0.2861
 8338SOL    HW236474   4.461   0.691   4.642 -0.4983 -0.1967 -1.1801
 8339SOL     OW36475   3.253   2.573  11.034  0.4772  0.0180 -0.8613
 8339SOL    HW136476   3.342   2.564  11.000 -0.0979 -1.1346 -2.0566
 8339SOL    HW236477   3.204   2.582  10.953 -0.7094  0.2729 -0.1089
 8340SOL     OW36478   4.246   0.757   7.388  0.5098  0.2880 -0.4181
 8340SOL    HW136479   4.335   0.733   7.414  0.8429  0.0585 -1.7873
 8340SOL    HW236480   4.207   0.742   7.474  1.5227  0.4430  0.0816
 8341SOL     OW36481   4.337   2.902  10.005 -0.5991  0.0783  0.1642
 8341SOL    HW136482   4.430   2.884   9.989 -1.1466 -3.0868  0.5516
 8341SOL    HW236483   4.335   2.996   9.990 -0.3859  0.2036  0.9291
 8342SOL     OW36484   2.821   4.400   9.863  0.4956 -0.5593  0.3526
 8342SOL    HW136485   2.913   4.419   9.882 -0.3414  3.7738  0.1039
 8342SOL    HW236486   2.828   4.315   9.819  3.3816 -1.0131  1.6737
 8343SOL     OW36487   0.560   3.966   3.765 -0.6545  0.1923 -0.2083
 8343SOL    HW136488   0.516   3.898   3.815 -0.9269 -0.5382 -1.4305
 8343SOL    HW236489   0.606   3.909   3.703  0.9030 -1.0615  2.1276
 8344SOL     OW36490   1.654   2.910  15.045  0.2465  0.2814 -0.4957
 8344SOL    HW136491   1.583   2.973  15.045  1.1013  1.2376 -0.9365
 8344SOL    HW236492   1.700   2.937  14.966  0.4970 -0.5549 -0.6425
 8345SOL     OW36493   3.041   4.706   3.135  0.4802 -0.7473 -0.6276
 8345SOL    HW136494   3.114   4.717   3.073 -0.6765  1.2950 -1.6077
 8345SOL    HW236495   3.000   4.635   3.085 -2.3820  0.2367  0.3615
 8346SOL     OW36496   1.847   2.848   8.680  0.2819  0.1424  0.1581
 8346SOL    HW136497   1.888   2.916   8.626 -0.6233 -0.0153 -0.7238
 8346SOL    HW236498   1.874   2.768   8.636 -0.5637 -0.3621  0.5739
 8347SOL     OW36499   0.629   1.886  11.153 -1.0939 -0.2353 -0.4743
 8347SOL    HW136500   0.655   1.969  11.113 -1.6586 -0.7185 -1.8741
 8347SOL    HW236501   0.582   1.925  11.226 -1.7794 -1.9885  0.0267
 8348SOL     OW36502   3.297   3.836   8.868  0.2771 -0.0485 -0.5767
 8348SOL    HW136503   3.298   3.928   8.896  0.3558 -0.9155  2.2938
 8348SOL    HW236504   3.279   3.845   8.775  1.7882  3.7824 -0.5008
 8349SOL     OW36505   1.067   4.235   5.374 -0.3600  0.5363  0.4138
 8349SOL    HW136506   1.143   4.219   5.318 -1.3187 -1.6552 -0.2617
 8349SOL    HW236507   1.036   4.149   5.403  2.0360 -1.1080 -1.9098
 8350SOL     OW36508   0.628   3.165   4.203 -0.0049  0.4260  0.4715
 8350SOL    HW136509   0.563   3.234   4.188  1.2869  1.2720 -1.1483
 8350SOL    HW236510   0.570   3.099   4.242 -0.6450 -0.3030 -1.7096
 8351SOL     OW36511   3.373   2.800   5.413 -0.4825  0.1086 -0.8619
 8351SOL    HW136512   3.296   2.785   5.358 -1.6087 -0.1129  0.7737
 8351SOL    HW236513   3.424   2.862   5.361 -0.2088  0.0512 -0.6640
 8352SOL     OW36514   3.438   1.545  15.478  0.1050  0.3914 -0.1641
 8352SOL    HW136515   3.359   1.599  15.471 -1.3664 -1.4191  2.3652
 8352SOL    HW236516   3.492   1.593  15.415  1.2503 -0.0418  0.4897
 8353SOL     OW36517   2.616   3.062   1.722 -0.1809  0.1375  0.3424
 8353SOL    HW136518   2.682   3.086   1.657 -1.4751 -0.4107 -1.1601
 8353SOL    HW236519   2.572   2.986   1.685  0.8151  0.0918 -0.7554
 8354SOL     OW36520   3.182   3.840   2.840 -0.1458 -0.4036  0.1018
 8354SOL    HW136521   3.266   3.835   2.886 -1.7979  0.5444  3.2450
 8354SOL    HW236522   3.129   3.851   2.919  0.5046  0.6862  0.3802
 8355SOL     OW36523   2.876   2.448  11.685  0.0189 -0.5963 -0.0806
 8355SOL    HW136524   2.964   2.410  11.687  0.3291  0.0831 -1.0428
 8355SOL    HW236525   2.868   2.476  11.776 -0.2312 -0.0938 -0.2587
 8356SOL     OW36526   4.162   1.720  15.372 -0.4476  0.2054 -0.2161
 8356SOL    HW136527   4.234   1.770  15.332  0.2989  0.6121  1.6649
 8356SOL    HW236528   4.108   1.710  15.294 -1.3673 -2.0665  0.7443
 8357SOL     OW36529   3.054   4.194   5.144 -0.4155 -0.2467 -0.2154
 8357SOL    HW136530   3.007   4.222   5.065 -0.1921 -0.3172 -0.3756
 8357SOL    HW236531   3.121   4.140   5.102  0.4995 -0.0753  1.0272
 8358SOL     OW36532   2.349   2.905   3.642  0.2435 -0.2941 -0.3363
 8358SOL    HW136533   2.415   2.881   3.707 -0.9114 -1.6261  0.3488
 8358SOL    HW236534   2.365   2.829   3.585 -0.4078 -0.4338 -0.3304
 8359SOL     OW36535   4.114   3.829   6.646  0.0522  0.2394  0.3611
 8359SOL    HW136536   4.071   3.751   6.613  0.4111  0.0967  0.2355
 8359SOL    HW236537   4.048   3.856   6.710 -0.0288 -1.1010  0.8511
 8360SOL     OW36538   2.277   0.156   8.070  0.1436  0.2142 -0.0261
 8360SOL    HW136539   2.197   0.104   8.068 -0.7254  1.6092 -1.6301
 8360SOL    HW236540   2.262   0.223   8.004  1.0953 -0.0827 -0.5524
 8361SOL     OW36541   0.031   3.417   0.494 -0.1811 -0.7170 -0.1350
 8361SOL    HW136542   4.700   3.373   0.560 -0.3767 -1.5513 -0.8488
 8361SOL    HW236543   0.027   3.506   0.529 -0.0351 -0.8906  0.3240
 8362SOL     OW36544   0.943   1.439   8.999  0.5475 -0.7777  0.1643
 8362SOL    HW136545   1.036   1.423   8.981  1.1758  0.9100  1.9194
 8362SOL    HW236546   0.933   1.533   8.983  1.0659 -0.6641  0.4904
 8363SOL     OW36547   2.704   0.747   0.714  0.0323 -0.0119 -0.0358
 8363SOL    HW136548   2.704   0.817   0.648 -0.8552  0.8539  0.8948
 8363SOL    HW236549   2.784   0.763   0.764  0.8558  0.0313 -1.3410
 8364SOL     OW36550   3.880   0.249   4.567 -0.2810 -0.1339 -0.4450
 8364SOL    HW136551   3.846   0.224   4.482  1.2694 -2.3870 -0.4206
 8364SOL    HW236552   3.959   0.293   4.535 -1.3916  1.0161 -1.5784
 8365SOL     OW36553   2.792   1.761   2.087 -0.0612 -0.2411 -0.4481
 8365SOL    HW136554   2.855   1.786   2.019  2.1991 -2.3147  0.8948
 8365SOL    HW236555   2.779   1.845   2.130  0.3157 -1.0177  1.1811
 8366SOL     OW36556   4.453   3.705   6.888  0.1081  0.0092  0.4311
 8366SOL    HW136557   4.424   3.761   6.960  1.7840  0.2268  0.9237
 8366SOL    HW236558   4.410   3.624   6.916  1.1388 -0.8791 -0.5681
 8367SOL     OW36559   4.503   1.143  14.803  0.2487 -0.1188  0.0487
 8367SOL    HW136560   4.526   1.200  14.877  1.1135 -0.0796 -0.2509
 8367SOL    HW236561   4.433   1.196  14.765 -1.0472 -0.9223  1.3299
 8368SOL     OW36562   0.375   3.187   8.350  0.1640  0.3318 -0.1610
 8368SOL    HW136563   0.307   3.125   8.325 -1.3242  1.5012  0.9787
 8368SOL    HW236564   0.430   3.116   8.383  0.1965  0.7741  0.7580
 8369SOL     OW36565   4.358   2.177   5.911 -0.1058 -0.4362  0.2781
 8369SOL    HW136566   4.278   2.189   5.859 -0.9602 -3.6996  0.8194
 8369SOL    HW236567   4.327   2.105   5.967 -0.6761 -0.0989  0.3931
 8370SOL     OW36568   4.200   2.884  10.720 -0.2824  0.4428  0.8292
 8370SOL    HW136569   4.181   2.791  10.735  1.2438 -0.3043 -1.8535
 8370SOL    HW236570   4.134   2.925  10.774 -1.2137  1.5068 -1.1114
 8371SOL     OW36571   2.276   0.946  15.233  0.5051  0.1812 -0.5175
 8371SOL    HW136572   2.301   0.969  15.144 -2.4520 -0.2267 -1.4509
 8371SOL    HW236573   2.350   0.910  15.282 -0.9548 -2.2134 -0.0710
 8372SOL     OW36574   2.443   3.321   8.859  0.2498 -0.3857  0.0533
 8372SOL    HW136575   2.502   3.391   8.889  0.6608 -0.8956  0.4423
 8372SOL    HW236576   2.379   3.303   8.928 -0.6706 -0.0318 -0.7070
 8373SOL     OW36577   3.098   1.215   5.800  0.2604 -0.0931  0.0341
 8373SOL    HW136578   3.041   1.152   5.846  0.4889 -0.0591  0.3626
 8373SOL    HW236579   3.093   1.176   5.713 -1.3451 -4.9081  2.2609
 8374SOL     OW36580   0.455   3.113  17.073 -0.0957 -0.0060 -0.6325
 8374SOL    HW136581   0.487   3.198  17.044  0.9694 -1.1155 -2.6963
 8374SOL    HW236582   0.504   3.119  17.155 -0.6711 -1.1562 -0.1935
 8375SOL     OW36583   0.288   3.708  13.005  0.4310 -0.5370 -0.3274
 8375SOL    HW136584   0.303   3.695  13.099 -2.0896  0.5199  0.2154
 8375SOL    HW236585   0.374   3.745  12.984  0.5260 -1.1124 -0.9401
 8376SOL     OW36586   0.307   1.591   7.802 -0.1375  0.3230  0.6993
 8376SOL    HW136587   0.243   1.529   7.837 -1.9242  0.8299 -1.6414
 8376SOL    HW236588   0.381   1.569   7.859  0.6438  2.6004  0.5653
 8377SOL     OW36589   3.772   0.846   6.487 -0.8448 -0.4750 -0.2767
 8377SOL    HW136590   3.740   0.903   6.417 -0.6660  2.0235  1.6541
 8377SOL    HW236591   3.692   0.809   6.524 -1.4119  0.8318 -0.1807
 8378SOL     OW36592   2.875   3.958   0.329  0.0275  0.6970  0.9682
 8378SOL    HW136593   2.951   3.977   0.384  1.2868 -0.6149 -0.3382
 8378SOL    HW236594   2.814   4.024   0.362 -0.2141  1.4030 -0.8835
 8379SOL     OW36595   2.855   0.989   9.308 -0.1776  0.4134  0.2970
 8379SOL    HW136596   2.768   1.024   9.290  0.0125  0.0080 -1.4518
 8379SOL    HW236597   2.830   0.904   9.344 -1.0119  0.4473 -0.2184
 8380SOL     OW36598   2.863   1.214   8.703  0.7150  0.0125  0.0444
 8380SOL    HW136599   2.856   1.290   8.761 -0.6581 -1.5905  1.9599
 8380SOL    HW236600   2.861   1.257   8.617 -0.6085 -0.9840 -0.4212
 8381SOL     OW36601   1.904   3.968  15.782 -0.0183 -0.3132 -1.2924
 8381SOL    HW136602   1.821   3.956  15.737 -0.5882 -1.0518 -0.0425
 8381SOL    HW236603   1.945   3.914  15.714 -0.0688 -1.7311 -0.2242
 8382SOL     OW36604   1.047   3.146  15.173  0.2479  0.1568 -0.0596
 8382SOL    HW136605   0.991   3.195  15.113  1.2618  0.8456 -0.4459
 8382SOL    HW236606   1.040   3.205  15.248  4.0840  1.2735 -0.6218
 8383SOL     OW36607   4.335   2.089   8.458 -0.3748 -0.1023  0.5150
 8383SOL    HW136608   4.280   2.109   8.383  1.8596  0.8621 -0.8915
 8383SOL    HW236609   4.274   2.053   8.522 -2.3856  0.7990 -0.9164
 8384SOL     OW36610   1.852   3.965   3.905 -0.1234  0.1590 -0.0546
 8384SOL    HW136611   1.832   3.880   3.944 -2.1236  0.5280 -0.3107
 8384SOL    HW236612   1.779   3.985   3.847  0.4532  0.4271 -0.6938
 8385SOL     OW36613   1.162   2.857   9.199 -0.0444 -0.6968 -0.0213
 8385SOL    HW136614   1.166   2.825   9.109 -0.0707 -2.6173  0.6511
 8385SOL    HW236615   1.257   2.863   9.213  0.0856 -3.1188  0.0464
 8386SOL     OW36616   4.628   4.288   5.977 -0.3722  0.0212  0.5082
 8386SOL    HW136617   4.709   4.340   5.978 -0.3900  0.0438  0.7772
 8386SOL    HW236618   4.566   4.354   6.009  0.4366 -0.4836  3.1954
 8387SOL     OW36619   1.281   3.135   1.116  0.2027  0.5534 -0.0080
 8387SOL    HW136620   1.327   3.215   1.090  1.4818 -0.0091  0.5224
 8387SOL    HW236621   1.356   3.079   1.135 -2.0142 -2.3724  0.0403
 8388SOL     OW36622   0.538   2.579  11.344  0.3319  0.1178  0.0673
 8388SOL    HW136623   0.527   2.585  11.249  0.3106 -1.7650 -0.0466
 8388SOL    HW236624   0.450   2.604  11.371  0.2991 -0.2112  0.2587
 8389SOL     OW36625   1.410   0.968   4.926  0.0601 -0.5159 -0.3870
 8389SOL    HW136626   1.499   0.966   4.960 -0.6089 -0.9275  1.3351
 8389SOL    HW236627   1.409   0.877   4.897  0.3118 -0.3531 -0.9039
 8390SOL     OW36628   4.372   1.232   3.908 -0.3598 -0.2014  0.2450
 8390SOL    HW136629   4.411   1.277   3.834  0.5964 -0.7774  0.3914
 8390SOL    HW236630   4.343   1.306   3.962  0.1071  1.1460 -1.3678
 8391SOL     OW36631   0.181   2.786   2.049 -0.3560  0.0355  0.3264
 8391SOL    HW136632   0.240   2.856   2.078  0.2785 -0.3186 -0.1094
 8391SOL    HW236633   0.143   2.821   1.968 -2.1019 -1.5347  0.4698
 8392SOL     OW36634   1.358   2.456   4.882 -0.0083  0.5218 -0.0030
 8392SOL    HW136635   1.348   2.519   4.811 -0.7946 -0.1163 -0.4729
 8392SOL    HW236636   1.362   2.379   4.825  0.5529  1.2579 -0.9576
 8393SOL     OW36637   1.865   2.794   0.754 -0.0487 -0.0205  0.4708
 8393SOL    HW136638   1.822   2.814   0.671  0.5596 -1.6669 -0.2461
 8393SOL    HW236639   1.949   2.837   0.737  0.1778 -0.0231  1.5781
 8394SOL     OW36640   4.543   3.884  17.054  0.2919  0.3235 -0.4895
 8394SOL    HW136641   4.550   3.965  17.105 -0.0137 -0.7043  1.1600
 8394SOL    HW236642   4.632   3.848  17.054  0.1770  0.0168 -1.8668
 8395SOL     OW36643   2.657   0.133  17.603 -0.0623  0.3087 -0.3617
 8395SOL    HW136644   2.708   0.196  17.655 -0.1237  0.4448 -0.4649
 8395SOL    HW236645   2.728   0.072  17.583  0.2877  0.5071  0.2785
 8396SOL     OW36646   2.439   4.422   3.987 -0.1894 -0.3862  0.1472
 8396SOL    HW136647   2.406   4.446   4.073 -2.9286  2.0149 -1.5812
 8396SOL    HW236648   2.377   4.354   3.963  2.0949 -2.7332  0.8545
 8397SOL     OW36649   2.128   4.525   1.096 -0.6133 -0.2308  0.0558
 8397SOL    HW136650   2.191   4.455   1.079  0.0190  0.5369 -0.7064
 8397SOL    HW236651   2.046   4.477   1.108 -0.2581 -0.3063  2.2046
 8398SOL     OW36652   4.549   4.721  11.672 -0.4317 -0.3779 -0.2305
 8398SOL    HW136653   4.563   4.632  11.704 -3.1419 -1.3028 -1.5750
 8398SOL    HW236654   4.631   0.017  11.628 -0.6385  1.0283 -0.0185
 8399SOL     OW36655   3.475   1.078   2.306 -1.1165  0.7535 -0.3109
 8399SOL    HW136656   3.410   1.134   2.265 -1.3215  0.8425  0.1371
 8399SOL    HW236657   3.534   1.131   2.358  0.9584 -1.3428 -0.5291
 8400SOL     OW36658   3.694   0.698  10.688  0.0582  0.4189  0.1036
 8400SOL    HW136659   3.626   0.745  10.640 -1.2468  1.0665  2.5987
 8400SOL    HW236660   3.704   0.619  10.634 -0.8071  1.7391 -1.9874
 8401SOL     OW36661   4.310   2.695  15.368 -0.0319 -0.3808  0.5647
 8401SOL    HW136662   4.242   2.674  15.432  0.7817 -0.8329  1.2634
 8401SOL    HW236663   4.253   2.710  15.292 -1.8512 -2.4273  1.5005
 8402SOL     OW36664   3.995   1.025  12.151  0.7511 -0.0037  0.3447
 8402SOL    HW136665   3.905   1.050  12.173  0.1393 -2.1641  0.2545
 8402SOL    HW236666   3.981   0.948  12.097  1.6823 -0.6416  1.0200
 8403SOL     OW36667   4.536   1.632  12.576 -0.0959 -0.6326  0.2900
 8403SOL    HW136668   4.548   1.678  12.659  0.4576 -0.9770  0.3984
 8403SOL    HW236669   4.441   1.640  12.565 -0.0347  1.7437  1.4451
 8404SOL     OW36670   3.552   3.893   5.142 -0.4642  0.2267  0.6044
 8404SOL    HW136671   3.566   3.887   5.048 -1.5177  1.3207  0.3772
 8404SOL    HW236672   3.576   3.806   5.173  0.5485 -0.5529 -2.4545
 8405SOL     OW36673   0.943   2.573   7.871 -0.4108  0.2148  0.2008
 8405SOL    HW136674   0.880   2.622   7.924 -0.8075  0.2983 -0.3569
 8405SOL    HW236675   0.881   2.517   7.824 -1.8335  1.7473  0.2667
 8406SOL     OW36676   4.533   0.478   3.570 -0.3123 -0.0507  0.6384
 8406SOL    HW136677   4.618   0.482   3.528  0.3562  0.3076  2.0291
 8406SOL    HW236678   4.526   0.384   3.591 -1.0328  0.3319  2.0941
 8407SOL     OW36679   2.240   1.202   8.912  0.6541  0.5745 -0.2167
 8407SOL    HW136680   2.300   1.137   8.874  0.5455  0.4662 -0.2045
 8407SOL    HW236681   2.238   1.268   8.843 -1.3394  1.7095  0.9343
 8408SOL     OW36682   2.959   3.403   7.499  0.6782 -0.6649  0.2195
 8408SOL    HW136683   2.907   3.370   7.426  0.6417 -0.3116  0.0862
 8408SOL    HW236684   3.043   3.431   7.463  0.9968 -0.3469  1.2276
 8409SOL     OW36685   0.836   0.848   7.430  0.1049  0.5227 -0.0729
 8409SOL    HW136686   0.910   0.840   7.491 -0.8811  1.7944  1.3039
 8409SOL    HW236687   0.764   0.861   7.491 -1.1856  0.8402 -1.6615
 8410SOL     OW36688   3.061   4.658   9.591  0.0116  0.6061 -0.2473
 8410SOL    HW136689   3.043   4.621   9.505 -0.9951  4.2498 -1.6045
 8410SOL    HW236690   3.141   4.709   9.577 -0.2477  1.0546 -0.0882
 8411SOL     OW36691   1.056   2.752   4.126 -0.2955 -0.1866 -0.0371
 8411SOL    HW136692   0.961   2.748   4.113 -0.2996  0.0598 -0.0882
 8411SOL    HW236693   1.060   2.658   4.145  1.4371 -0.3384 -1.1260
 8412SOL     OW36694   1.909   4.228   4.553  0.2163 -0.3768 -0.2546
 8412SOL    HW136695   1.935   4.208   4.463  2.8943  0.0347  0.4464
 8412SOL    HW236696   1.985   4.262   4.600 -1.7125  0.8493  1.9494
 8413SOL     OW36697   1.224   1.415  17.354  0.0345 -0.2806  0.0220
 8413SOL    HW136698   1.257   1.374  17.275  3.3353  3.0376 -0.3268
 8413SOL    HW236699   1.260   1.349  17.413  2.1710  1.4261  0.6303
 8414SOL     OW36700   2.218   3.211   4.625 -0.4859  0.3236  0.4770
 8414SOL    HW136701   2.194   3.177   4.711  0.7959 -1.4903  0.1363
 8414SOL    HW236702   2.210   3.134   4.568  0.4194  0.2647  0.4273
 8415SOL     OW36703   4.575   3.323   2.627 -0.6165 -0.6266 -0.6733
 8415SOL    HW136704   4.538   3.404   2.591  0.0848 -0.0429 -0.0650
 8415SOL    HW236705   4.499   3.304   2.682 -0.3804  1.8268  0.4575
 8416SOL     OW36706   0.421   3.577  11.193 -0.3821 -0.0541 -0.3921
 8416SOL    HW136707   0.453   3.548  11.278 -0.1292  1.1989 -0.0693
 8416SOL    HW236708   0.475   3.518  11.141 -0.2826 -1.9444  1.8781
 8417SOL     OW36709   3.047   3.916  10.857 -0.5790  0.1560  0.2741
 8417SOL    HW136710   3.041   3.957  10.770  1.5466 -0.0159  0.0467
 8417SOL    HW236711   3.037   3.822  10.841  1.9145 -0.5279  2.7695
 8418SOL     OW36712   1.358   4.220  15.017  0.4007 -0.1742  0.1477
 8418SOL    HW136713   1.373   4.282  14.945 -0.9022  3.0373  2.6192
 8418SOL    HW236714   1.402   4.260  15.092 -0.1714 -0.2581  0.5277
 8419SOL     OW36715   4.156   3.948  16.745 -0.7238  0.4281 -0.2264
 8419SOL    HW136716   4.202   3.964  16.663  0.2563  1.1362  0.4702
 8419SOL    HW236717   4.165   4.036  16.781  0.7834 -0.7910  2.3193
 8420SOL     OW36718   0.164   0.198  13.924 -0.0280 -0.0748 -0.0292
 8420SOL    HW136719   0.197   0.126  13.977  0.8283 -0.2579 -0.8073
 8420SOL    HW236720   0.135   0.260  13.991  0.8096  0.6144 -0.3026
 8421SOL     OW36721   4.171   0.415  14.852 -0.1563 -0.0057 -0.1790
 8421SOL    HW136722   4.253   0.401  14.898 -0.5852 -0.1610  0.5289
 8421SOL    HW236723   4.212   0.448  14.772  2.3454 -0.5970  0.8897
 8422SOL     OW36724   1.207   2.197   5.751  0.7821  0.0857  0.6250
 8422SOL    HW136725   1.209   2.270   5.813 -0.4137  0.2878  0.4214
 8422SOL    HW236726   1.183   2.236   5.667 -1.0618  1.4071  1.7502
 8423SOL     OW36727   2.284   2.517   7.112 -0.0487 -0.3374 -0.0326
 8423SOL    HW136728   2.258   2.425   7.103  0.5102 -0.5638  0.7145
 8423SOL    HW236729   2.330   2.514   7.195 -0.1142  3.0657  0.0917
 8424SOL     OW36730   0.561   0.500   5.035  0.1796 -0.0224 -0.0235
 8424SOL    HW136731   0.625   0.546   4.981 -0.7108  0.8290 -0.3498
 8424SOL    HW236732   0.544   0.419   4.986  0.0778 -0.7841  1.2696
 8425SOL     OW36733   0.985   3.195   8.758  0.2412 -0.5854 -0.0726
 8425SOL    HW136734   1.005   3.110   8.721 -1.9566 -1.1637  0.0584
 8425SOL    HW236735   1.041   3.251   8.704  0.4458 -1.5701 -0.8734
 8426SOL     OW36736   2.906   2.828   8.804  0.3489  0.1746 -0.0494
 8426SOL    HW136737   2.943   2.757   8.857  0.9113 -0.2552 -1.0193
 8426SOL    HW236738   2.983   2.882   8.789 -1.6472  3.5290  1.9455
 8427SOL     OW36739   4.415   3.798  12.410 -0.5283  0.0289  0.2934
 8427SOL    HW136740   4.417   3.816  12.503  1.8869  0.9734  0.0450
 8427SOL    HW236741   4.447   3.708  12.398 -0.4470 -0.0440  1.1077
 8428SOL     OW36742   2.651   1.821   5.477 -0.0864  0.2006  0.0691
 8428SOL    HW136743   2.667   1.768   5.399  2.5954  1.7664 -0.4597
 8428SOL    HW236744   2.590   1.884   5.441  1.0273  0.4563 -1.3479
 8429SOL     OW36745   1.200   0.599   7.579 -0.6191 -0.0688  0.1226
 8429SOL    HW136746   1.192   0.629   7.488  0.2761 -0.3491 -0.0470
 8429SOL    HW236747   1.293   0.577   7.580 -0.5786  0.0547 -1.2597
 8430SOL     OW36748   3.352   0.181   1.027 -0.3489  0.1202  0.1883
 8430SOL    HW136749   3.439   0.144   1.043  0.6079  2.8398  1.3106
 8430SOL    HW236750   3.352   0.242   1.101  1.0063 -1.1351  1.2318
 8431SOL     OW36751   1.946   0.840  16.299 -0.4561 -0.0972 -0.0906
 8431SOL    HW136752   1.859   0.843  16.339 -0.2868  1.9417  0.1614
 8431SOL    HW236753   1.945   0.915  16.240 -2.5923 -0.3479 -0.3805
 8432SOL     OW36754   2.886   1.647   7.739 -0.3356 -0.8064  0.5927
 8432SOL    HW136755   2.843   1.592   7.804 -2.9509 -0.3536 -0.7572
 8432SOL    HW236756   2.824   1.628   7.668  1.6522 -0.1420 -1.3330
 8433SOL     OW36757   2.002   0.882   9.235 -0.9506  0.0691 -0.4310
 8433SOL    HW136758   2.021   0.802   9.284 -1.6192  0.0210 -0.2586
 8433SOL    HW236759   2.039   0.951   9.289 -0.5384  1.1693 -2.1183
 8434SOL     OW36760   0.543   1.387  16.589  0.0996 -0.1068 -0.5340
 8434SOL    HW136761   0.457   1.379  16.550 -1.5493 -0.2864  3.1360
 8434SOL    HW236762   0.526   1.413  16.680 -0.1063  1.7567 -1.1110
 8435SOL     OW36763   4.170   1.610  13.305 -0.7929 -0.2056 -0.3812
 8435SOL    HW136764   4.085   1.567  13.296 -1.0804  0.2011  0.3625
 8435SOL    HW236765   4.234   1.566  13.249 -1.5508  0.4637 -1.7813
 8436SOL     OW36766   4.600   1.423   1.882 -0.0650 -0.2662 -0.1202
 8436SOL    HW136767   4.603   1.515   1.859 -2.3498 -0.1955 -0.1103
 8436SOL    HW236768   4.659   1.426   1.958 -0.5053  0.0419  0.2020
 8437SOL     OW36769   2.780   0.293   7.392  0.7206 -0.0159  0.0675
 8437SOL    HW136770   2.761   0.233   7.320  1.8037 -1.4221  0.9476
 8437SOL    HW236771   2.868   0.259   7.406  0.8367 -0.0861 -0.8398
 8438SOL     OW36772   4.140   0.818   1.600  0.3652 -0.3109 -0.5199
 8438SOL    HW136773   4.187   0.899   1.619  2.9387 -1.8264 -0.5243
 8438SOL    HW236774   4.097   0.800   1.683  1.7296 -0.7722  0.0792
 8439SOL     OW36775   4.601   0.619   8.013 -0.2554 -0.3048 -0.5319
 8439SOL    HW136776   4.691   0.606   8.042  0.0842 -0.8726 -1.8585
 8439SOL    HW236777   4.558   0.618   8.099  0.7513 -2.1061 -0.0554
 8440SOL     OW36778   3.369   0.778  14.982 -0.2191  0.0840 -0.2915
 8440SOL    HW136779   3.416   0.791  15.064 -1.4061 -0.2803  0.4325
 8440SOL    HW236780   3.425   0.821  14.917  4.4853 -0.6065  3.2989
 8441SOL     OW36781   4.108   2.511  13.079  0.0880  0.1070  0.4188
 8441SOL    HW136782   4.031   2.462  13.052  0.9466  0.3880 -2.5664
 8441SOL    HW236783   4.126   2.482  13.169  2.0447  0.8646  0.2906
 8442SOL     OW36784   4.183   0.047   7.597 -0.8292 -0.5834  0.1790
 8442SOL    HW136785   4.197   0.118   7.534 -0.0524 -0.4391  0.5182
 8442SOL    HW236786   4.220   4.706   7.536  0.5581  1.2180 -0.8685
 8443SOL     OW36787   1.743   2.495  11.881 -0.0638 -0.5605 -0.6407
 8443SOL    HW136788   1.762   2.403  11.862  1.6445 -0.0737 -1.2288
 8443SOL    HW236789   1.649   2.501  11.861 -0.1036  0.5086 -0.1399
 8444SOL     OW36790   4.218   4.289   7.391 -0.1190 -0.1379 -0.0204
 8444SOL    HW136791   4.154   4.313   7.324 -0.7235 -0.1175  0.5567
 8444SOL    HW236792   4.209   4.194   7.391 -1.6675  0.0083 -0.0888
 8445SOL     OW36793   4.394   3.223   7.599  0.2747  0.0259  0.0231
 8445SOL    HW136794   4.464   3.190   7.656 -0.9278  0.0422  1.5151
 8445SOL    HW236795   4.351   3.281   7.662 -2.0361 -0.0531 -1.4875
 8446SOL     OW36796   1.595   1.175  12.164  0.0361 -0.1604  0.0509
 8446SOL    HW136797   1.613   1.198  12.256 -0.8518  3.2202 -0.5937
 8446SOL    HW236798   1.677   1.129  12.149  0.6880  0.3723  1.8574
 8447SOL     OW36799   1.410   3.538  12.847 -0.5535  0.2541  0.7426
 8447SOL    HW136800   1.404   3.547  12.942 -1.6422 -1.0401  0.7899
 8447SOL    HW236801   1.383   3.446  12.838  1.3301 -0.1998 -0.3105
 8448SOL     OW36802   4.634   3.601   5.245  0.0851  0.3984  0.3626
 8448SOL    HW136803   4.702   3.638   5.190 -0.0456  2.4509  1.5659
 8448SOL    HW236804   4.587   3.677   5.280  1.7074  2.6785 -2.4177
 8449SOL     OW36805   1.198   2.269  17.662  0.1413  0.0073 -0.1326
 8449SOL    HW136806   1.189   2.176  17.681 -0.6363  0.6957  2.9407
 8449SOL    HW236807   1.138   2.290  17.590  2.0237  2.4085 -1.0107
 8450SOL     OW36808   4.074   0.973   8.402 -0.0363 -0.3459 -0.3951
 8450SOL    HW136809   3.984   0.943   8.414 -0.1052 -0.5146 -1.3308
 8450SOL    HW236810   4.117   0.902   8.355  2.0731  0.5488  0.1634
 8451SOL     OW36811   1.857   0.371   6.606  0.0373  0.5370 -0.2374
 8451SOL    HW136812   1.894   0.400   6.523  1.4905 -2.2158 -0.5709
 8451SOL    HW236813   1.849   0.276   6.592 -0.9567  0.6219 -0.2849
 8452SOL     OW36814   1.151   1.787  13.462 -0.1898  0.4243  0.3200
 8452SOL    HW136815   1.228   1.750  13.506  0.1594 -0.4320 -1.0057
 8452SOL    HW236816   1.162   1.876  13.496  0.7210  0.2104  0.5953
 8453SOL     OW36817   0.504   2.592   7.542  0.0891  0.3101  0.1437
 8453SOL    HW136818   0.480   2.681   7.516  1.7748  0.8401  0.4337
 8453SOL    HW236819   0.598   2.609   7.543  0.3566 -1.1693  0.4992
 8454SOL     OW36820   2.494   3.810   3.731 -0.2286 -0.0455  1.0325
 8454SOL    HW136821   2.577   3.852   3.753  0.1692 -0.4853  0.3530
 8454SOL    HW236822   2.496   3.722   3.767  0.5158 -0.3320  0.2870
 8455SOL     OW36823   3.994   4.203   1.863  0.0353 -0.4948 -0.0557
 8455SOL    HW136824   4.044   4.177   1.786  1.8529 -0.2855  1.0633
 8455SOL    HW236825   3.991   4.116   1.903 -0.9493 -0.0018  0.9456
 8456SOL     OW36826   1.141   2.897  15.258  0.2261  0.2704 -0.6810
 8456SOL    HW136827   1.088   2.976  15.269 -1.1133 -0.6906 -0.1873
 8456SOL    HW236828   1.080   2.826  15.279  1.0574  0.0268  0.9198
 8457SOL     OW36829   3.565   2.566   6.841  1.0789  0.4724  0.3748
 8457SOL    HW136830   3.628   2.630   6.873 -0.1427  0.5600  2.6326
 8457SOL    HW236831   3.609   2.513   6.775 -1.3139 -1.6246  0.4259
 8458SOL     OW36832   0.205   0.101  11.018 -0.0589 -0.3031  0.5894
 8458SOL    HW136833   0.185   0.025  11.072 -3.9238 -1.9826 -3.1980
 8458SOL    HW236834   0.125   0.151  11.032 -1.0154 -1.1700 -1.8220
 8459SOL     OW36835   3.645   2.013   4.467  0.2845  0.2488 -0.2383
 8459SOL    HW136836   3.598   2.074   4.523 -3.5981 -1.1465 -1.9134
 8459SOL    HW236837   3.698   2.079   4.423  2.9584 -1.7572 -0.0118
 8460SOL     OW36838   1.249   2.687   1.586 -0.4993  0.0795 -0.0202
 8460SOL    HW136839   1.257   2.693   1.681  0.3105  0.8928 -0.1507
 8460SOL    HW236840   1.215   2.773   1.564  1.8416  0.7589 -0.9964
 8461SOL     OW36841   4.409   2.946   7.329  0.5365 -0.1315 -0.7031
 8461SOL    HW136842   4.391   3.025   7.278 -1.6629 -0.9723 -1.2453
 8461SOL    HW236843   4.450   2.893   7.260 -0.2181 -0.6367 -0.7611
 8462SOL     OW36844   2.507   2.135   1.038 -0.3411  0.2222  0.0067
 8462SOL    HW136845   2.566   2.193   0.990  1.4244 -0.3628  1.4687
 8462SOL    HW236846   2.450   2.111   0.965 -2.4349 -0.4046  1.8331
 8463SOL     OW36847   2.422   1.536   8.238 -0.3700 -0.1608  0.2722
 8463SOL    HW136848   2.495   1.499   8.188  1.1201  0.3719  2.0320
 8463SOL    HW236849   2.468   1.572   8.314 -3.1986  2.8353  0.5724
 8464SOL     OW36850   3.120   4.280   2.782  0.2422 -0.2193 -0.6172
 8464SOL    HW136851   3.121   4.363   2.735  4.3213 -1.3354 -2.5296
 8464SOL    HW236852   3.209   4.291   2.816  0.2004  1.6479 -1.1549
 8465SOL     OW36853   4.259   0.425   5.773  0.2500  0.2000  0.3389
 8465SOL    HW136854   4.215   0.495   5.821 -1.4107  1.4257 -2.9654
 8465SOL    HW236855   4.242   0.458   5.685  0.2451 -2.0794 -0.5318
 8466SOL     OW36856   0.612   0.177   2.477  0.1091  0.0804  0.7244
 8466SOL    HW136857   0.530   0.170   2.525  0.7169 -1.3840  1.5444
 8466SOL    HW236858   0.637   0.261   2.516 -0.2555  1.2971 -1.6171
 8467SOL     OW36859   2.565   2.409   9.430  0.3002  0.3336 -0.0286
 8467SOL    HW136860   2.603   2.495   9.448 -2.0070  1.3105  0.2688
 8467SOL    HW236861   2.497   2.431   9.366 -0.2974  0.7290  0.7286
 8468SOL     OW36862   0.254   1.350   7.492  0.0208 -0.2437 -0.2284
 8468SOL    HW136863   0.198   1.339   7.569  0.2215  0.2273 -0.0159
 8468SOL    HW236864   0.202   1.422   7.458  0.3562 -0.7953 -1.8969
 8469SOL     OW36865   3.245   0.503  11.398  0.0881 -0.0858  0.2853
 8469SOL    HW136866   3.177   0.499  11.331  0.0214 -1.4697  0.4363
 8469SOL    HW236867   3.233   0.595  11.421  3.1706  0.2957  0.3477
 8470SOL     OW36868   4.104   0.400   7.694 -0.1729  0.0447 -0.3795
 8470SOL    HW136869   4.027   0.457   7.700 -0.9753 -1.1139  0.2611
 8470SOL    HW236870   4.150   0.418   7.776 -1.5808 -1.3007  0.6918
 8471SOL     OW36871   3.712   1.516   8.412 -0.0534  0.3385 -0.1403
 8471SOL    HW136872   3.693   1.567   8.491  0.4106 -1.1568  0.9331
 8471SOL    HW236873   3.802   1.543   8.397 -0.0491 -0.2943 -1.2716
 8472SOL     OW36874   1.216   3.295   2.412  0.2426 -0.3952  0.5798
 8472SOL    HW136875   1.229   3.205   2.384 -0.5119 -0.5007  0.5677
 8472SOL    HW236876   1.302   3.321   2.443 -0.5182 -1.2802  3.4295
 8473SOL     OW36877   3.239   1.896   3.046 -0.0151 -0.8275  0.0177
 8473SOL    HW136878   3.296   1.861   3.115  1.3035  0.9317 -0.1685
 8473SOL    HW236879   3.265   1.837   2.976  3.0117 -0.2520  0.6512
 8474SOL     OW36880   4.674   2.460   8.141 -0.0591 -0.3091  0.1779
 8474SOL    HW136881   4.618   2.408   8.199 -0.3512 -1.2396 -0.9264
 8474SOL    HW236882   4.637   2.546   8.159 -0.9361 -1.0983  2.1573
 8475SOL     OW36883   0.119   0.275  11.639  0.4568 -0.3719  0.0908
 8475SOL    HW136884   0.091   0.185  11.623  1.0845 -0.7222  0.9407
 8475SOL    HW236885   0.088   0.279  11.730  0.3010 -1.2417  0.0692
 8476SOL     OW36886   3.801   1.037   3.078  0.3686  0.2548 -0.4060
 8476SOL    HW136887   3.853   1.033   2.997  0.5649 -0.4450 -0.2525
 8476SOL    HW236888   3.713   1.007   3.055  0.6842  0.0236 -1.3229
 8477SOL     OW36889   1.744   4.545  12.113  0.4653  0.3067  1.0444
 8477SOL    HW136890   1.718   4.483  12.180 -0.5091 -0.7037 -0.2573
 8477SOL    HW236891   1.774   4.497  12.036 -1.0777 -1.2841  1.4428
 8478SOL     OW36892   2.284   1.700   5.265 -0.3116 -0.3133  0.2934
 8478SOL    HW136893   2.264   1.752   5.343 -1.0007 -0.8059  0.4391
 8478SOL    HW236894   2.333   1.755   5.203 -0.5061  0.3282  0.7053
 8479SOL     OW36895   2.328   2.155   6.942 -0.1835 -0.3435 -0.5704
 8479SOL    HW136896   2.345   2.097   7.015  0.6178  0.6615  0.0537
 8479SOL    HW236897   2.273   2.109   6.879 -0.6787 -0.5665  0.0390
 8480SOL     OW36898   3.094   0.107   8.282 -0.2503 -0.3164 -0.4622
 8480SOL    HW136899   3.114   0.122   8.374  0.5123 -1.0083 -0.5196
 8480SOL    HW236900   3.059   0.189   8.247 -3.9233 -1.8969 -0.5307
 8481SOL     OW36901   4.020   3.838   3.515 -0.0585  0.2034 -0.4580
 8481SOL    HW136902   3.960   3.767   3.535 -1.6171  1.7299  0.3027
 8481SOL    HW236903   4.041   3.828   3.422  1.0428  2.0309 -0.4275
 8482SOL     OW36904   2.253   0.637  10.964 -0.0543 -0.0297 -0.3782
 8482SOL    HW136905   2.202   0.570  11.010 -0.6169  0.1895 -0.6917
 8482SOL    HW236906   2.279   0.703  11.029 -0.8761  2.9917 -3.1365
 8483SOL     OW36907   1.356   4.698   5.788  0.0048 -0.2808  0.2069
 8483SOL    HW136908   1.293   4.635   5.822 -0.7506  0.5124  0.2497
 8483SOL    HW236909   1.360   4.680   5.694  0.3381 -3.1465  0.7617
 8484SOL     OW36910   3.883   3.447   4.296  0.2519  0.2608  0.8257
 8484SOL    HW136911   3.904   3.401   4.215  1.9162 -0.3974  1.6167
 8484SOL    HW236912   3.876   3.536   4.262 -0.6925  0.7499  2.2987
 8485SOL     OW36913   4.352   4.251  15.673 -0.5260 -0.4402  0.6167
 8485SOL    HW136914   4.327   4.176  15.619  1.6161 -0.8223  0.1622
 8485SOL    HW236915   4.319   4.328  15.627 -1.6079  0.6657  3.2498
 8486SOL     OW36916   0.155   0.395   8.149 -0.1159  0.2021  0.1395
 8486SOL    HW136917   0.072   0.368   8.187 -0.7434  2.4900  0.3877
 8486SOL    HW236918   0.181   0.463   8.212 -0.2717  1.5934 -1.2959
 8487SOL     OW36919   2.636   4.033   7.316 -0.0098 -0.3263  0.6526
 8487SOL    HW136920   2.555   3.988   7.343 -1.8698  1.3412 -2.1988
 8487SOL    HW236921   2.655   3.996   7.230 -0.4007  1.1143 -0.0493
 8488SOL     OW36922   1.067   1.809   5.403 -0.2288 -0.2545  0.4142
 8488SOL    HW136923   1.012   1.730   5.397  0.2306 -0.7247  2.3704
 8488SOL    HW236924   1.150   1.775   5.436 -0.2678 -1.0398 -0.2758
 8489SOL     OW36925   4.365   4.655  16.972  0.6993  0.3184 -0.0751
 8489SOL    HW136926   4.330   0.006  16.921  0.6836  0.9601  0.8646
 8489SOL    HW236927   4.395   4.701  17.050 -0.5630 -2.3168  1.9736
 8490SOL     OW36928   3.842   1.544  12.690 -0.3176  0.0657 -0.5241
 8490SOL    HW136929   3.812   1.487  12.619  0.4300 -1.4497  0.3958
 8490SOL    HW236930   3.937   1.537  12.680 -0.1628 -0.8655  1.7225
 8491SOL     OW36931   0.898   4.517   2.274 -0.3024  1.1475 -0.0168
 8491SOL    HW136932   0.854   4.516   2.359 -1.6892 -0.5582 -0.7663
 8491SOL    HW236933   0.840   4.454   2.233 -0.6463  2.8241 -2.1048
 8492SOL     OW36934   2.369   3.924   7.077  0.6894 -0.3383  0.0230
 8492SOL    HW136935   2.373   4.012   7.114  0.4590 -0.5927  0.6598
 8492SOL    HW236936   2.439   3.929   7.012  2.5007 -1.1548  1.9149
 8493SOL     OW36937   4.496   0.980   5.247 -0.2747 -0.3508  0.0232
 8493SOL    HW136938   4.482   0.885   5.249  1.4082 -0.5629  2.0763
 8493SOL    HW236939   4.529   0.987   5.158  0.4702  2.8216  0.5659
 8494SOL     OW36940   3.979   2.823   8.380  0.4543 -0.7660  0.2397
 8494SOL    HW136941   4.012   2.818   8.291  2.4324 -2.0002  1.0243
 8494SOL    HW236942   4.001   2.909   8.416  0.6591 -0.2188 -1.1920
 8495SOL     OW36943   1.854   3.701   6.950 -0.1816 -0.1067 -0.5064
 8495SOL    HW136944   1.916   3.761   6.993 -0.6843 -1.6436  2.3161
 8495SOL    HW236945   1.799   3.679   7.025 -1.1783  1.3560 -0.7996
 8496SOL     OW36946   2.145   4.174   7.552  0.0457 -0.5035 -0.1717
 8496SOL    HW136947   2.126   4.095   7.501 -0.6301 -0.1679 -0.4349
 8496SOL    HW236948   2.085   4.151   7.623  0.5153  1.2577  0.8037
 8497SOL     OW36949   1.331   3.536  12.310  0.1084  0.4807 -0.5353
 8497SOL    HW136950   1.361   3.564  12.396 -2.4112 -1.3383  0.9152
 8497SOL    HW236951   1.295   3.623  12.288 -0.6011  0.5219  0.8270
 8498SOL     OW36952   3.795   0.900   0.197 -0.1287  0.0430  0.0931
 8498SOL    HW136953   3.819   0.809   0.215 -1.0998 -0.1692  0.3474
 8498SOL    HW236954   3.704   0.898   0.228 -0.1490  1.1135  0.0873
 8499SOL     OW36955   1.412   3.238  16.107  0.1705 -0.0287 -0.0379
 8499SOL    HW136956   1.316   3.234  16.107  0.2716 -2.1612 -0.1547
 8499SOL    HW236957   1.435   3.162  16.054  0.0815 -0.1890  0.1521
 8500SOL     OW36958   2.870   3.236   2.715  0.3892 -0.4770 -0.2536
 8500SOL    HW136959   2.890   3.267   2.803 -1.7778 -0.6793  0.3213
 8500SOL    HW236960   2.868   3.320   2.670  0.5146 -0.4271 -0.1631
 8501SOL     OW36961   1.004   0.358  13.089 -0.0524  0.6627  0.2530
 8501SOL    HW136962   0.950   0.419  13.140 -0.4227  2.9594 -2.9006
 8501SOL    HW236963   1.029   0.408  13.011 -0.2575  1.8798  0.9569
 8502SOL     OW36964   1.992   3.419   2.489  0.2508  0.0172 -0.3709
 8502SOL    HW136965   2.072   3.448   2.532  0.1248  3.3652 -2.4299
 8502SOL    HW236966   2.030   3.351   2.432  0.0532 -0.0886 -0.3764
 8503SOL     OW36967   1.602   1.792   1.544 -0.0765 -0.1362 -0.2691
 8503SOL    HW136968   1.551   1.857   1.495 -0.6303 -0.0306  0.4448
 8503SOL    HW236969   1.634   1.831   1.624  0.5099  0.4505 -0.7976
 8504SOL     OW36970   2.533   0.068   3.727  0.0850  0.1536  0.4616
 8504SOL    HW136971   2.586   0.086   3.649 -0.5068 -0.5820 -0.1052
 8504SOL    HW236972   2.602   0.089   3.789  0.8277 -1.3459  0.1351
 8505SOL     OW36973   2.265   2.066   7.499  0.1011  0.2919 -0.0577
 8505SOL    HW136974   2.189   2.086   7.553  0.5477  1.3362  0.1978
 8505SOL    HW236975   2.284   1.980   7.536 -0.0178  0.6752  0.8941
 8506SOL     OW36976   1.496   1.211   5.336 -0.4043  0.6024 -0.1524
 8506SOL    HW136977   1.404   1.237   5.344 -0.7345  0.1598 -2.3269
 8506SOL    HW236978   1.489   1.122   5.303  0.9205  0.0644  1.0458
 8507SOL     OW36979   4.169   3.835   3.235 -0.1069  0.0884 -0.2020
 8507SOL    HW136980   4.104   3.772   3.203 -1.4661  0.8565  1.0441
 8507SOL    HW236981   4.151   3.905   3.173 -0.1274  0.2193 -0.0467
 8508SOL     OW36982   1.295   0.249   8.810 -0.5913 -0.4277 -0.1114
 8508SOL    HW136983   1.203   0.257   8.786 -0.2381  0.4980 -1.1512
 8508SOL    HW236984   1.331   0.185   8.749  2.0836  0.0971  0.9209
 8509SOL     OW36985   2.309   0.925   5.687 -0.5059 -0.2588  0.8639
 8509SOL    HW136986   2.365   0.862   5.642 -3.2769 -1.7124 -0.5139
 8509SOL    HW236987   2.347   1.012   5.679 -0.0494 -0.6212 -0.9243
 8510SOL     OW36988   1.046   1.936   5.170  0.3666 -0.0409  0.0984
 8510SOL    HW136989   1.012   1.859   5.125 -0.1779 -0.3512  1.0424
 8510SOL    HW236990   1.064   1.904   5.258 -2.8442  1.0926  1.1812
 8511SOL     OW36991   2.950   3.164  15.967 -0.0407 -0.2821 -1.4159
 8511SOL    HW136992   2.877   3.226  15.963  0.5175  0.4157 -0.9027
 8511SOL    HW236993   2.970   3.151  15.874 -1.5237  1.6248 -2.0033
 8512SOL     OW36994   0.137   0.274   7.916 -0.4646  0.3084  0.1444
 8512SOL    HW136995   0.179   0.323   7.987 -0.2294 -1.0117  0.9103
 8512SOL    HW236996   0.087   0.205   7.959  0.4453 -0.5115 -0.1152
 8513SOL     OW36997   2.647   1.252  14.109  0.0207 -0.0370  0.6619
 8513SOL    HW136998   2.737   1.236  14.135  0.5685  1.8984  0.0074
 8513SOL    HW236999   2.644   1.336  14.063 -1.8367 -0.8594 -0.7608
 8514SOL     OW37000   1.908   0.096   6.960  0.0091 -0.3737 -0.0068
 8514SOL    HW137001   1.974   0.027   6.970 -0.5805 -0.9299  0.0235
 8514SOL    HW237002   1.956   0.163   6.912 -0.1300 -0.8310 -0.7985
 8515SOL     OW37003   3.832   4.087   5.934  0.0943 -0.0839 -0.4277
 8515SOL    HW137004   3.796   4.085   6.022  0.0775 -2.3193 -0.4940
 8515SOL    HW237005   3.763   4.051   5.878  1.5443  2.3133 -3.7895
 8516SOL     OW37006   1.935   4.531   4.587 -0.0945  0.0709 -0.3031
 8516SOL    HW137007   2.007   4.477   4.619 -2.0387 -1.8171  0.8633
 8516SOL    HW237008   1.897   4.470   4.523  1.5834 -0.7827 -0.4866
 8517SOL     OW37009   3.495   3.009   7.775 -0.3881  0.6952  0.5130
 8517SOL    HW137010   3.522   2.930   7.823 -0.9266  0.5416  0.5643
 8517SOL    HW237011   3.526   3.073   7.838 -0.7688  0.6275  0.7713
 8518SOL     OW37012   2.630   1.188  10.382  0.5440 -0.7867 -0.1965
 8518SOL    HW137013   2.700   1.254  10.386  0.6699 -0.8227 -1.8481
 8518SOL    HW237014   2.631   1.141  10.299  1.5305 -0.9769 -0.0737
 8519SOL     OW37015   4.084   4.394   8.315 -0.1070 -0.2244  0.0514
 8519SOL    HW137016   4.105   4.343   8.394 -0.4202  1.1176  0.9915
 8519SOL    HW237017   4.062   4.479   8.352 -0.6125 -0.6164  0.6573
 8520SOL     OW37018   0.133   3.943   6.714 -0.1340  0.3683  0.0215
 8520SOL    HW137019   0.076   3.960   6.789 -1.2630 -1.8356 -0.3312
 8520SOL    HW237020   0.200   4.010   6.724  1.3620 -1.4156  1.7518
 8521SOL     OW37021   1.343   2.161  17.019  0.1390  0.8258  0.8784
 8521SOL    HW137022   1.307   2.172  17.107  1.9134  0.2581  1.6810
 8521SOL    HW237023   1.425   2.112  17.025 -0.4234  0.0448  2.1622
 8522SOL     OW37024   2.367   1.664   7.218 -0.0809  0.3187 -0.2435
 8522SOL    HW137025   2.420   1.590   7.190 -1.8536 -0.5925 -1.1912
 8522SOL    HW237026   2.395   1.669   7.310 -0.5067 -0.1998 -0.0811
 8523SOL     OW37027   4.134   1.801  17.264 -0.4993  0.1140 -0.4061
 8523SOL    HW137028   4.077   1.870  17.230  2.1781  0.9024 -3.3053
 8523SOL    HW237029   4.179   1.772  17.185 -0.4246 -0.4200 -0.1670
 8524SOL     OW37030   2.514   0.232   6.112 -0.2572 -0.1992 -0.4401
 8524SOL    HW137031   2.562   0.312   6.087 -1.0104 -0.3415 -2.3809
 8524SOL    HW237032   2.553   0.220   6.198  0.8596 -0.2444 -0.9486
 8525SOL     OW37033   3.351   2.474   3.446  0.5031 -0.2214 -0.3955
 8525SOL    HW137034   3.370   2.555   3.492 -0.6096  0.7543 -1.6568
 8525SOL    HW237035   3.386   2.412   3.510  0.1422 -0.1470 -0.1313
 8526SOL     OW37036   2.043   1.421   6.426 -0.5368 -0.6362  0.0085
 8526SOL    HW137037   2.128   1.376   6.422  0.5267  1.2902  0.8560
 8526SOL    HW237038   2.000   1.382   6.350  0.5465 -0.1040 -0.8640
 8527SOL     OW37039   1.994   1.287   1.189  0.4148 -0.5091 -0.5196
 8527SOL    HW137040   1.987   1.312   1.097 -0.6440 -0.0382 -0.3081
 8527SOL    HW237041   2.085   1.257   1.189  0.8863  0.9450  2.0691
 8528SOL     OW37042   0.745   1.522   5.051 -0.6690 -0.4905 -0.2716
 8528SOL    HW137043   0.722   1.488   4.965  0.2198  1.2194 -1.1891
 8528SOL    HW237044   0.716   1.463   5.120 -2.9041  0.6770 -0.2016
 8529SOL     OW37045   3.599   2.886  16.157  0.0621  0.0969  0.3725
 8529SOL    HW137046   3.595   2.856  16.066 -1.2026  2.9776 -0.5339
 8529SOL    HW237047   3.580   2.806  16.205 -1.1611  0.9496  1.3177
 8530SOL     OW37048   3.890   0.908  16.848 -0.0592 -0.3997  0.3453
 8530SOL    HW137049   3.903   0.817  16.824 -1.6289 -0.8551  1.1800
 8530SOL    HW237050   3.940   0.950  16.778  1.4002 -1.0711  1.0015
 8531SOL     OW37051   0.406   3.791   8.974  0.2905 -1.1473  0.0585
 8531SOL    HW137052   0.434   3.881   8.990 -0.5479 -1.1726  1.7258
 8531SOL    HW237053   0.350   3.779   9.051  0.7679  0.9711  0.7264
 8532SOL     OW37054   0.906   3.876   3.138  0.1911  0.5909  0.5691
 8532SOL    HW137055   0.853   3.934   3.084 -1.9010 -2.4099 -0.5339
 8532SOL    HW237056   0.925   3.812   3.069 -0.9763 -0.7269  1.4830
 8533SOL     OW37057   1.420   0.668   8.648 -0.1977 -0.4789 -0.5269
 8533SOL    HW137058   1.479   0.614   8.701 -0.1092  0.8009  0.6786
 8533SOL    HW237059   1.344   0.610   8.644  0.1141 -0.9911  0.8749
 8534SOL     OW37060   0.558   4.236   3.852  0.4061 -0.0894  0.3902
 8534SOL    HW137061   0.573   4.143   3.836 -0.8625 -0.3345  0.6181
 8534SOL    HW237062   0.642   4.280   3.843  1.5796 -2.2543  0.8790
 8535SOL     OW37063   0.889   1.946  11.690  0.5025  0.4676 -0.0783
 8535SOL    HW137064   0.955   2.004  11.652 -0.7454  0.1848 -2.7225
 8535SOL    HW237065   0.829   1.951  11.615 -0.6793  3.2083  1.0642
 8536SOL     OW37066   0.612   2.574   4.271 -0.1893 -0.6138  0.4020
 8536SOL    HW137067   0.613   2.503   4.336  0.2421  0.8791  2.0155
 8536SOL    HW237068   0.532   2.544   4.228  0.1842 -0.0497 -0.6791
 8537SOL     OW37069   4.511   3.680  10.467  0.7116 -0.0498 -0.0448
 8537SOL    HW137070   4.440   3.741  10.449  0.7151  0.1221  0.5175
 8537SOL    HW237071   4.454   3.603  10.477 -0.7467  1.0985  0.5642
 8538SOL     OW37072   3.148   2.398  12.230 -0.5083 -0.3380 -0.0666
 8538SOL    HW137073   3.194   2.334  12.177  0.5712  0.2855  0.1078
 8538SOL    HW237074   3.216   2.465  12.219  0.9208 -1.9047 -0.6999
 8539SOL     OW37075   0.006   1.938   4.660 -0.2445 -0.0880  0.2648
 8539SOL    HW137076   4.641   1.914   4.690 -1.4834  2.6435 -1.1569
 8539SOL    HW237077   0.051   1.855   4.646 -1.9490 -1.1739  1.2554
 8540SOL     OW37078   0.556   1.936  16.970 -0.1609 -0.2151  0.5902
 8540SOL    HW137079   0.503   1.855  16.966  1.8235 -1.5752  1.9339
 8540SOL    HW237080   0.514   1.973  17.048  0.3383 -0.4044  0.9454
 8541SOL     OW37081   1.294   3.183   5.953 -0.5371  0.1037 -0.0398
 8541SOL    HW137082   1.356   3.155   6.020 -1.9285  2.0294  2.0439
 8541SOL    HW237083   1.273   3.100   5.911 -2.1421  0.8591 -0.7284
 8542SOL     OW37084   3.495   1.185   8.198 -0.5301  0.0652 -0.0378
 8542SOL    HW137085   3.505   1.091   8.213 -1.9713 -0.2078 -0.7793
 8542SOL    HW237086   3.499   1.183   8.103  2.0410  1.3433  0.0294
 8543SOL     OW37087   2.665   3.515   5.548 -0.0269  0.5585 -0.1572
 8543SOL    HW137088   2.658   3.586   5.612 -0.2828  0.5188 -0.1430
 8543SOL    HW237089   2.593   3.459   5.575 -0.5504 -0.0210 -2.7342
 8544SOL     OW37090   2.285   1.900   9.836  0.5145 -0.0379 -0.2413
 8544SOL    HW137091   2.203   1.918   9.790 -0.8457 -1.1895  1.7770
 8544SOL    HW237092   2.299   1.981   9.884  1.1001 -0.5672  0.4810
 8545SOL     OW37093   0.690   2.617  15.681 -0.1921  0.7361  0.3431
 8545SOL    HW137094   0.656   2.593  15.766  4.2398 -1.1048  1.6223
 8545SOL    HW237095   0.774   2.570  15.684  0.7318  2.5560  3.0460
 8546SOL     OW37096   4.350   4.028   1.085  0.5664 -0.7506 -0.2491
 8546SOL    HW137097   4.434   4.074   1.083  0.1951 -0.1783 -2.1057
 8546SOL    HW237098   4.368   3.959   1.148  0.4639  1.2813  2.0252
 8547SOL     OW37099   1.643   2.576   5.703  0.5911  0.5422 -0.2901
 8547SOL    HW137100   1.733   2.551   5.686  0.4667  0.3692 -0.6842
 8547SOL    HW237101   1.647   2.653   5.759 -1.1221 -0.1880  0.8601
 8548SOL     OW37102   1.144   2.479   6.288  0.0737 -0.0618  0.1442
 8548SOL    HW137103   1.077   2.522   6.341 -1.3133 -2.5779  0.4605
 8548SOL    HW237104   1.205   2.551   6.272  1.1147 -0.6194  1.5898
 8549SOL     OW37105   0.231   1.339  10.304  0.6212  0.2278 -0.1017
 8549SOL    HW137106   0.298   1.322  10.237  0.9563  2.6994 -0.3667
 8549SOL    HW237107   0.153   1.302  10.262  0.8771  0.0463 -0.4208
 8550SOL     OW37108   0.869   3.397   6.321 -0.7078  0.5427  0.3135
 8550SOL    HW137109   0.938   3.430   6.263  0.2853  0.2558  1.3221
 8550SOL    HW237110   0.797   3.425   6.265 -1.8609 -1.7890  0.6139
 8551SOL     OW37111   2.276   2.908   1.734 -0.1282 -0.8279 -0.5884
 8551SOL    HW137112   2.323   2.825   1.731 -0.8205 -1.1733 -1.9396
 8551SOL    HW237113   2.306   2.936   1.820  2.1458 -2.0918 -0.9629
 8552SOL     OW37114   2.724   1.077   0.851 -0.0524 -0.6415  0.0635
 8552SOL    HW137115   2.680   1.160   0.867  1.3145  0.6925 -3.0004
 8552SOL    HW237116   2.651   1.019   0.874  0.4210 -0.7165  1.3774
 8553SOL     OW37117   1.124   4.609  13.306  0.8170 -0.2495 -0.2631
 8553SOL    HW137118   1.148   4.698  13.282  1.4677  0.0905  1.6741
 8553SOL    HW237119   1.172   4.564  13.236  2.3375  0.8801  0.0491
 8554SOL     OW37120   1.884   3.669   7.551  0.3993  0.5024 -0.1139
 8554SOL    HW137121   1.870   3.720   7.631  2.8456 -0.6445  1.0341
 8554SOL    HW237122   1.904   3.583   7.587  0.2342  0.5215  0.0267
 8555SOL     OW37123   2.553   4.703   1.543  0.1368  0.5207 -0.1474
 8555SOL    HW137124   2.579   0.031   1.620 -0.7964  1.2564 -0.3250
 8555SOL    HW237125   2.637   4.658   1.531  0.7600  1.6007  0.1103
 8556SOL     OW37126   1.236   2.323  15.370 -0.4535  0.0162  0.1941
 8556SOL    HW137127   1.299   2.301  15.438 -1.3231  0.3222  1.0965
 8556SOL    HW237128   1.162   2.267  15.392 -0.3465 -0.0737  0.3229
 8557SOL     OW37129   4.195   2.306   2.359 -0.1705  0.5005 -0.3281
 8557SOL    HW137130   4.213   2.355   2.279 -0.9909 -0.3180 -1.0160
 8557SOL    HW237131   4.281   2.280   2.391  0.6680  0.1129 -2.9102
 8558SOL     OW37132   3.931   2.111   3.663 -0.3497 -0.2627  0.4465
 8558SOL    HW137133   3.939   2.056   3.741  1.2808 -0.6714 -0.0001
 8558SOL    HW237134   3.902   2.047   3.598  2.5280 -0.4579 -0.6485
 8559SOL     OW37135   3.744   3.262   3.874 -0.4094  0.6021  0.0309
 8559SOL    HW137136   3.731   3.196   3.806 -1.2898  0.0258  0.7493
 8559SOL    HW237137   3.830   3.296   3.851 -0.0402  0.7316  1.5790
 8560SOL     OW37138   0.533   3.231   3.090  0.1558 -0.2586  0.3872
 8560SOL    HW137139   0.610   3.288   3.087  0.1615 -0.5863 -4.9927
 8560SOL    HW237140   0.510   3.224   2.998  3.7420  0.5002 -0.5676
 8561SOL     OW37141   3.435   1.783   5.616  0.2976 -0.2583  0.6258
 8561SOL    HW137142   3.373   1.851   5.589 -0.8025 -1.2470  0.6497
 8561SOL    HW237143   3.414   1.785   5.709  1.0519  3.2486  0.6974
 8562SOL     OW37144   0.832   1.878   2.981  0.1557 -0.2162  0.6709
 8562SOL    HW137145   0.913   1.909   3.021  0.8472 -1.5195  0.2679
 8562SOL    HW237146   0.799   1.807   3.035  0.4244  1.0066  2.4640
 8563SOL     OW37147   3.267   2.565   9.035 -0.3866 -0.1429 -0.1248
 8563SOL    HW137148   3.339   2.561   9.099 -0.1835  1.3789 -0.2580
 8563SOL    HW237149   3.201   2.613   9.086  1.2745 -0.0930  1.9892
 8564SOL     OW37150   2.269   4.604   3.508 -0.4084 -0.3561 -0.2696
 8564SOL    HW137151   2.220   4.680   3.539 -0.4142  0.4439 -2.1949
 8564SOL    HW237152   2.316   4.574   3.586 -1.3730 -1.2659 -0.0449
 8565SOL     OW37153   1.911   1.884   9.469 -0.1284  0.5087  0.0278
 8565SOL    HW137154   1.866   1.834   9.537  1.2470 -0.0435  0.5298
 8565SOL    HW237155   1.964   1.942   9.523  1.2314 -1.0379  0.3598
 8566SOL     OW37156   1.248   3.942  11.538  0.5714  0.0130 -0.0448
 8566SOL    HW137157   1.191   3.999  11.589  1.7628  2.3077 -1.2338
 8566SOL    HW237158   1.276   3.998  11.465  1.4908 -1.1248 -0.5821
 8567SOL     OW37159   4.215   3.173   5.976 -0.0573 -0.1527  0.0207
 8567SOL    HW137160   4.281   3.177   5.907  0.8964  0.8582  0.9987
 8567SOL    HW237161   4.198   3.079   5.979  1.6815 -0.4800 -0.3757
 8568SOL     OW37162   1.026   4.020   1.318  0.0333 -0.5460  0.0512
 8568SOL    HW137163   0.955   3.965   1.285 -0.3126 -0.7443  1.1224
 8568SOL    HW237164   1.067   4.059   1.241 -0.6358  2.2578  1.1033
 8569SOL     OW37165   1.519   0.461   5.415  0.1199  0.0533  0.4815
 8569SOL    HW137166   1.533   0.367   5.416 -0.7067 -0.1054 -2.1083
 8569SOL    HW237167   1.474   0.459   5.330  0.1916  2.7015  0.3754
 8570SOL     OW37168   0.020   1.642   6.678  0.2279 -0.3885  0.4411
 8570SOL    HW137169   0.047   1.706   6.744 -0.2890  0.5998 -0.3073
 8570SOL    HW237170   0.079   1.651   6.602 -0.8027 -1.8188 -0.5232
 8571SOL     OW37171   2.908   4.683   6.958  0.1152  0.0505 -0.0872
 8571SOL    HW137172   2.904   4.631   7.038 -1.8459  3.3174  1.9580
 8571SOL    HW237173   2.827   0.013   6.958 -0.0437 -0.2366  4.0593
 8572SOL     OW37174   3.499   1.028   4.590  0.0747  0.6532  0.5031
 8572SOL    HW137175   3.490   0.942   4.631  2.6571  0.0886 -0.0952
 8572SOL    HW237176   3.594   1.037   4.590  0.2939 -1.6338 -1.2241
 8573SOL     OW37177   3.141   2.843  12.412  0.2722 -0.3482 -0.1295
 8573SOL    HW137178   3.147   2.922  12.466 -0.0059 -0.6130  0.2932
 8573SOL    HW237179   3.235   2.833  12.400  0.0837  0.9120 -2.4934
 8574SOL     OW37180   0.097   4.243   1.762 -0.2288  0.0716  0.5575
 8574SOL    HW137181   0.045   4.302   1.708 -1.7413 -2.3416 -0.6075
 8574SOL    HW237182   0.147   4.304   1.817  2.4208 -1.2237 -0.4188
 8575SOL     OW37183   2.116   0.688   2.059 -0.3293  0.0155  0.4714
 8575SOL    HW137184   2.100   0.638   1.979 -0.7192  0.9641 -0.0298
 8575SOL    HW237185   2.083   0.628   2.126  0.0855 -0.3319  0.3697
 8576SOL     OW37186   4.117   0.372   3.057 -0.1337 -0.5495 -0.2856
 8576SOL    HW137187   4.173   0.299   3.031 -0.3536 -0.3131 -1.4320
 8576SOL    HW237188   4.170   0.445   3.025  1.5592 -0.3201  3.1451
 8577SOL     OW37189   0.050   1.541  16.688  0.6644  0.2936  0.1442
 8577SOL    HW137190   0.008   1.583  16.762 -1.0996  0.3437 -0.8948
 8577SOL    HW237191   4.706   1.478  16.660  1.0110 -0.3809  0.8013
 8578SOL     OW37192   3.620   0.692   3.536 -0.3749  0.0179  0.7907
 8578SOL    HW137193   3.651   0.778   3.506  0.6348 -0.4460  0.5235
 8578SOL    HW237194   3.692   0.634   3.514 -1.8464 -1.3317 -0.4515
 8579SOL     OW37195   1.605   2.391   8.917  0.4747 -0.1260 -0.1349
 8579SOL    HW137196   1.549   2.419   8.845  0.1439 -0.5904 -0.0615
 8579SOL    HW237197   1.598   2.295   8.915 -0.7203 -0.0375 -0.3705
 8580SOL     OW37198   4.104   0.103   1.339 -0.4020  0.0373  0.4658
 8580SOL    HW137199   4.055   0.133   1.262  0.0895 -1.4138 -0.4155
 8580SOL    HW237200   4.142   0.185   1.373  1.6769 -1.0173  0.7031
 8581SOL     OW37201   0.600   2.950  10.730 -0.4424 -0.0220 -0.0822
 8581SOL    HW137202   0.532   3.014  10.708 -1.7812 -0.9596  1.2754
 8581SOL    HW237203   0.667   3.014  10.754 -1.0540  0.4060  0.4709
 8582SOL     OW37204   1.905   1.084   2.635  0.2187 -1.0247  0.2193
 8582SOL    HW137205   1.984   1.030   2.637  0.0619 -1.2893 -0.7870
 8582SOL    HW237206   1.865   1.037   2.562  1.5767 -2.5387  0.4464
 8583SOL     OW37207   2.522   1.889   4.218  0.3067 -0.5442 -0.4519
 8583SOL    HW137208   2.531   1.795   4.229  1.6988 -0.1712  1.5103
 8583SOL    HW237209   2.470   1.889   4.138 -1.8746 -0.3456  0.9540
 8584SOL     OW37210   2.039   1.641   2.565 -0.5096 -0.2521 -0.1163
 8584SOL    HW137211   1.996   1.640   2.479 -2.2721 -0.7375  0.7766
 8584SOL    HW237212   2.106   1.574   2.545 -0.1004  0.1248 -0.0090
 8585SOL     OW37213   2.593   3.116   2.251 -0.0442 -0.4200  0.2609
 8585SOL    HW137214   2.670   3.159   2.289 -0.4823 -0.8173  1.6104
 8585SOL    HW237215   2.616   3.119   2.158 -2.2433  0.2662 -0.2564
 8586SOL     OW37216   2.674   0.650   5.681  0.0762 -0.5934 -0.3426
 8586SOL    HW137217   2.674   0.555   5.679 -0.3611 -0.6585  3.1848
 8586SOL    HW237218   2.606   0.663   5.747  0.4940  0.4393 -0.1109
 8587SOL     OW37219   3.108   1.110  16.241 -0.0006 -0.0811  0.0793
 8587SOL    HW137220   3.149   1.188  16.203  0.7201 -0.3982  0.2017
 8587SOL    HW237221   3.173   1.058  16.289  0.2557 -0.4498 -0.6627
 8588SOL     OW37222   2.918   4.175   4.901 -0.5222 -0.1975  0.0824
 8588SOL    HW137223   2.966   4.247   4.861 -1.1611 -0.1686 -0.6350
 8588SOL    HW237224   2.839   4.180   4.848 -0.9508  0.8970  0.8111
 8589SOL     OW37225   4.311   2.508   5.558 -0.8594  0.0743 -0.1333
 8589SOL    HW137226   4.314   2.604   5.555  1.4414  0.0023  0.0443
 8589SOL    HW237227   4.222   2.497   5.590  0.0367 -2.4713  1.4597
 8590SOL     OW37228   3.018   0.521   2.887  0.1734 -0.0292 -0.0338
 8590SOL    HW137229   3.084   0.558   2.829 -0.2496  0.2586 -0.3382
 8590SOL    HW237230   3.031   0.569   2.968 -0.5226  1.2311 -0.6687
 8591SOL     OW37231   3.235   1.791   3.355 -0.6204  0.0369 -0.0804
 8591SOL    HW137232   3.326   1.818   3.369 -0.0676 -0.9826 -1.7077
 8591SOL    HW237233   3.188   1.870   3.382 -0.2558  0.2917 -0.1823
 8592SOL     OW37234   1.996   0.316  14.621  0.2941 -0.3259  0.1168
 8592SOL    HW137235   1.986   0.239  14.565  1.6392 -0.5777  0.2310
 8592SOL    HW237236   2.062   0.366  14.572  2.1484 -2.5201  0.3727
 8593SOL     OW37237   1.420   0.671   5.571 -0.6731  0.6053  0.2431
 8593SOL    HW137238   1.441   0.643   5.660  0.5042 -1.5446 -0.7174
 8593SOL    HW237239   1.456   0.600   5.519 -2.6765  0.5485 -1.0606
 8594SOL     OW37240   2.068   2.545   1.441  0.1146 -0.5709  0.2529
 8594SOL    HW137241   2.124   2.623   1.446 -0.3592 -0.2670  0.8693
 8594SOL    HW237242   2.129   2.478   1.410  0.2041 -0.9917  1.3340
 8595SOL     OW37243   3.315   3.745   3.716 -0.2167  0.7494 -0.1382
 8595SOL    HW137244   3.396   3.796   3.721  0.9593 -1.5032  4.1811
 8595SOL    HW237245   3.292   3.760   3.625 -1.2899  2.5942  0.4330
 8596SOL     OW37246   0.980   4.059  15.591  0.4759  0.1776 -0.7462
 8596SOL    HW137247   1.070   4.072  15.621  0.1223 -1.2796  0.9913
 8596SOL    HW237248   0.952   4.140  15.548  0.1540  0.0756 -0.7286
 8597SOL     OW37249   3.253   1.020   6.426 -0.0160  0.0229 -0.0978
 8597SOL    HW137250   3.160   0.999   6.436 -0.1789  0.1327 -1.4230
 8597SOL    HW237251   3.243   1.074   6.348 -1.8633 -0.9798 -0.5575
 8598SOL     OW37252   4.197   1.673  16.227  0.1424 -0.0308  0.1324
 8598SOL    HW137253   4.257   1.725  16.281  0.4129 -0.1702 -0.0366
 8598SOL    HW237254   4.208   1.687  16.133 -0.5219 -0.0042  0.0548
 8599SOL     OW37255   2.289   1.356  14.409 -0.1480  0.1866  0.3826
 8599SOL    HW137256   2.361   1.302  14.378 -1.5996 -2.3698  1.4592
 8599SOL    HW237257   2.295   1.429  14.348 -0.2158  0.7083  0.9953
 8600SOL     OW37258   2.915   1.317  11.476  0.2269 -0.0742  0.2415
 8600SOL    HW137259   2.937   1.379  11.407  1.4155  1.2572  1.7985
 8600SOL    HW237260   2.858   1.370  11.533 -0.7124 -0.6469 -0.1725
 8601SOL     OW37261   3.613   2.954   0.551  0.1321  0.0245  0.3425
 8601SOL    HW137262   3.608   2.949   0.646  0.8544  0.0293  0.3774
 8601SOL    HW237263   3.620   3.049   0.549 -1.1528  0.0968 -1.3281
 8602SOL     OW37264   2.023   2.725  14.807  0.8601 -0.1691  0.3017
 8602SOL    HW137265   1.935   2.718  14.769  0.9303  2.4799 -0.3138
 8602SOL    HW237266   2.079   2.726  14.728  1.0018  2.3328  0.4384
 8603SOL     OW37267   1.807   0.501   5.065  0.3494  0.2657  0.7779
 8603SOL    HW137268   1.783   0.520   5.156  1.3394 -2.4547  1.6074
 8603SOL    HW237269   1.853   0.583   5.047  0.2947 -0.2049 -1.4751
 8604SOL     OW37270   1.148   2.171   4.340 -0.2101  0.1666 -0.0858
 8604SOL    HW137271   1.117   2.081   4.326  0.0017  0.1491 -0.4327
 8604SOL    HW237272   1.066   2.216   4.318 -0.3834 -0.8221 -1.4825
 8605SOL     OW37273   1.344   3.303   7.234 -1.1160  0.0345  0.3170
 8605SOL    HW137274   1.340   3.213   7.267 -2.6505 -0.8292 -2.2087
 8605SOL    HW237275   1.381   3.351   7.307 -0.5635  0.3532 -0.1713
 8606SOL     OW37276   1.799   2.954   3.563  0.0035 -0.5659 -0.3097
 8606SOL    HW137277   1.797   2.945   3.658  0.3023 -0.4232 -0.2889
 8606SOL    HW237278   1.724   2.899   3.541 -0.7433 -0.1420  1.1895
 8607SOL     OW37279   0.397   4.576   0.259  0.0916 -0.4742 -0.0657
 8607SOL    HW137280   0.480   4.611   0.293  0.0689 -0.9849  0.5269
 8607SOL    HW237281   0.421   4.508   0.195  0.6138 -0.1247 -0.2404
 8608SOL     OW37282   4.220   1.264  15.682 -0.4182 -0.3072 -1.1718
 8608SOL    HW137283   4.277   1.341  15.680  1.0938 -1.3294  1.8127
 8608SOL    HW237284   4.291   1.201  15.673  1.1868  1.4012 -0.5707
 8609SOL     OW37285   2.960   2.785   3.664 -0.2817  0.3595 -0.3237
 8609SOL    HW137286   2.961   2.690   3.664  2.5308  0.3889 -0.3775
 8609SOL    HW237287   2.884   2.810   3.612 -1.6839  0.5715  1.8010
 8610SOL     OW37288   1.460   1.535   0.451  1.1645  0.6245  0.5618
 8610SOL    HW137289   1.470   1.600   0.521 -1.4872  0.1473  1.3683
 8610SOL    HW237290   1.546   1.525   0.410 -0.1652 -2.2463 -1.5079
 8611SOL     OW37291   0.328   2.947  11.849  0.6725  0.2600  0.3549
 8611SOL    HW137292   0.307   3.026  11.898  2.3958 -0.4985  2.3070
 8611SOL    HW237293   0.251   2.904  11.812 -0.8741  2.0398  1.5493
 8612SOL     OW37294   4.087   2.544   3.885 -0.0510 -0.2133 -0.5364
 8612SOL    HW137295   4.007   2.589   3.859  1.5047  2.1311 -1.2690
 8612SOL    HW237296   4.077   2.461   3.838 -0.4948 -0.0507 -0.7348
 8613SOL     OW37297   0.422   0.370   8.459  0.2445  0.5688  0.0596
 8613SOL    HW137298   0.344   0.319   8.478 -0.1072  1.1064  0.0677
 8613SOL    HW237299   0.399   0.463   8.465 -0.1714  0.4110  0.8776
 8614SOL     OW37300   0.337   2.272  14.430 -0.0408 -0.4037 -0.1310
 8614SOL    HW137301   0.375   2.358  14.450 -0.0829 -0.3724 -0.1884
 8614SOL    HW237302   0.250   2.293  14.464  0.1935  2.6673 -1.3604
 8615SOL     OW37303   0.425   4.315  15.810 -1.0407 -0.0798 -0.2484
 8615SOL    HW137304   0.368   4.246  15.777  1.5268 -2.4293  0.1881
 8615SOL    HW237305   0.460   4.355  15.731  1.5081 -1.5172  0.1579
 8616SOL     OW37306   4.681   3.785   3.520 -0.6586  0.1562 -0.1806
 8616SOL    HW137307   4.623   3.851   3.482 -0.7112 -1.2553 -2.4865
 8616SOL    HW237308   0.005   3.753   3.443  1.4724  0.2192  1.0914
 8617SOL     OW37309   1.351   3.986   2.536 -0.1011 -0.1735  0.2411
 8617SOL    HW137310   1.375   4.078   2.524  0.1239 -0.2072  0.4226
 8617SOL    HW237311   1.347   3.978   2.631 -0.5393 -1.6555  0.0979
 8618SOL     OW37312   3.047   3.966   7.460 -0.0175  0.3032 -0.2665
 8618SOL    HW137313   3.115   3.928   7.515  0.9771 -1.2966 -2.5846
 8618SOL    HW237314   3.018   3.892   7.408  1.0272  1.2272 -2.1832
 8619SOL     OW37315   4.269   4.606   1.685 -0.8459 -0.0493 -0.1907
 8619SOL    HW137316   4.187   4.622   1.637 -0.2784 -0.4525 -1.3086
 8619SOL    HW237317   4.292   4.524   1.640 -1.8628 -0.6354  0.3586
 8620SOL     OW37318   0.974   1.209   8.391  0.1113  0.2906  0.1185
 8620SOL    HW137319   0.956   1.193   8.484  1.6063 -2.1186 -0.0105
 8620SOL    HW237320   1.024   1.130   8.371 -1.2207 -1.0851  2.1047
 8621SOL     OW37321   3.387   0.813   2.415  0.0221  0.3965  0.3143
 8621SOL    HW137322   3.440   0.876   2.368  0.4374 -0.2354 -0.0560
 8621SOL    HW237323   3.323   0.872   2.457  1.2069  2.0512 -0.2272
 8622SOL     OW37324   3.743   3.430   0.987  0.1505 -0.0121  0.4524
 8622SOL    HW137325   3.690   3.490   0.935  1.2044 -0.1068 -0.7076
 8622SOL    HW237326   3.670   3.371   1.008  1.1166 -0.9758  1.1134
 8623SOL     OW37327   3.534   2.621  16.142 -0.1278 -0.2085  0.3922
 8623SOL    HW137328   3.439   2.629  16.140  0.0230  1.0616 -1.1407
 8623SOL    HW237329   3.549   2.545  16.086  0.3529 -1.4569  2.2035
 8624SOL     OW37330   1.761   3.018   5.667  0.2965 -0.5775 -0.1604
 8624SOL    HW137331   1.695   2.948   5.669 -0.4759  0.2161  1.9837
 8624SOL    HW237332   1.740   3.055   5.581 -0.6844 -1.1780 -0.1844
 8625SOL     OW37333   1.466   1.884   3.611 -0.0107  0.4276 -0.3190
 8625SOL    HW137334   1.445   1.977   3.606  1.3883  0.7932  0.6183
 8625SOL    HW237335   1.385   1.859   3.656  1.3218  1.3292  2.5808
 8626SOL     OW37336   0.027   0.183  13.384  0.0757  0.1293 -0.4417
 8626SOL    HW137337   4.665   0.140  13.401  0.4077 -0.1007  0.6354
 8626SOL    HW237338   0.067   0.174  13.471 -1.1112  0.2859  0.1304
 8627SOL     OW37339   3.167   0.525   8.353  0.1930  0.1106 -0.3679
 8627SOL    HW137340   3.235   0.503   8.418  1.8653 -0.9052 -2.4707
 8627SOL    HW237341   3.203   0.609   8.325  0.1472  0.5299  0.8272
 8628SOL     OW37342   0.902   0.785   1.533 -0.6066  0.4080 -0.7191
 8628SOL    HW137343   0.862   0.861   1.575  0.2669  0.7775 -0.5600
 8628SOL    HW237344   0.940   0.829   1.457 -0.6848 -2.8918 -2.7051
 8629SOL     OW37345   2.454   3.887   6.336  0.0089  0.1055 -0.0958
 8629SOL    HW137346   2.439   3.793   6.341 -0.9801  0.2788  0.2632
 8629SOL    HW237347   2.501   3.898   6.419  1.0079 -1.2189 -0.4919
 8630SOL     OW37348   3.479   3.244  17.410 -0.4706  0.0866 -0.2594
 8630SOL    HW137349   3.458   3.315  17.471  1.5807  0.6373 -0.1795
 8630SOL    HW237350   3.403   3.237  17.352 -1.0428 -0.1773  0.5326
 8631SOL     OW37351   1.319   0.150  10.515 -0.1098  0.3346  0.1515
 8631SOL    HW137352   1.343   0.137  10.607  3.0994  3.1958 -0.2739
 8631SOL    HW237353   1.240   0.201  10.534  0.2802 -0.0301  2.7410
 8632SOL     OW37354   0.296   4.336  10.723  0.1390 -0.0286 -0.5836
 8632SOL    HW137355   0.225   4.320  10.660 -0.0738 -0.3228 -0.2679
 8632SOL    HW237356   0.326   4.411  10.672  1.8535 -0.3120  0.0098
 8633SOL     OW37357   3.772   1.461   4.418 -0.2813 -0.1121 -0.1265
 8633SOL    HW137358   3.825   1.447   4.496 -0.3229  1.2620  0.1460
 8633SOL    HW237359   3.699   1.405   4.444 -0.8392  0.7317  0.1215
 8634SOL     OW37360   3.866   2.501   7.492 -0.4512  0.1439 -0.2931
 8634SOL    HW137361   3.940   2.462   7.537 -0.5617 -0.7597 -0.8963
 8634SOL    HW237362   3.849   2.427   7.433 -0.8097 -0.1923  0.2364
 8635SOL     OW37363   3.942   2.117   2.838 -0.5516 -0.4063  0.3897
 8635SOL    HW137364   3.994   2.052   2.789 -2.4751 -0.6718 -1.3429
 8635SOL    HW237365   3.865   2.128   2.782 -0.7363  1.7422  1.0941
 8636SOL     OW37366   1.050   1.029  15.099 -0.0948  0.4128  0.3095
 8636SOL    HW137367   1.038   0.959  15.035 -0.5368  0.9367 -0.1843
 8636SOL    HW237368   0.981   1.091  15.075 -0.9809 -1.2409 -1.3945
 8637SOL     OW37369   0.711   4.233   2.385  0.0254 -0.5406 -0.3196
 8637SOL    HW137370   0.715   4.309   2.327  2.1065 -0.9203 -0.6523
 8637SOL    HW237371   0.629   4.193   2.357 -0.0334 -0.2133 -0.6183
 8638SOL     OW37372   0.313   4.464   2.839 -0.1970  0.1806  0.3411
 8638SOL    HW137373   0.396   4.437   2.878  0.6375 -0.6223 -1.9929
 8638SOL    HW237374   0.326   4.555   2.813 -0.4314 -0.4562 -2.0304
 8639SOL     OW37375   3.842   2.970   1.004 -0.1803  0.2610 -0.2277
 8639SOL    HW137376   3.821   2.929   1.088  0.4199  1.0793  0.3244
 8639SOL    HW237377   3.878   2.895   0.956  1.0568 -0.2311  1.4376
 8640SOL     OW37378   0.877   1.506   3.330 -0.0951 -0.4874 -0.3665
 8640SOL    HW137379   0.794   1.458   3.326 -0.8279  0.7623 -0.1887
 8640SOL    HW237380   0.934   1.449   3.381  0.5021 -1.6347 -2.3218
 8641SOL     OW37381   4.713   1.604   2.599  0.0737 -0.0502 -0.2524
 8641SOL    HW137382   4.621   1.629   2.610  0.3304  0.8765 -0.2092
 8641SOL    HW237383   0.013   1.654   2.521 -0.5840  0.3338 -0.2043
 8642SOL     OW37384   0.676   3.186  15.378 -0.1712  0.2689 -0.1360
 8642SOL    HW137385   0.717   3.228  15.454 -0.9561 -0.2369  0.5742
 8642SOL    HW237386   0.587   3.221  15.382 -0.7622 -1.4583  2.1303
 8643SOL     OW37387   3.959   2.963   6.402  0.0119  0.2028 -0.1090
 8643SOL    HW137388   4.053   2.951   6.390 -0.2525  1.8191 -3.8475
 8643SOL    HW237389   3.954   2.951   6.497  1.6622  1.1131  0.0925
 8644SOL     OW37390   1.890   1.119  16.883  0.0448  0.0621 -0.3754
 8644SOL    HW137391   1.894   1.191  16.946  1.6924 -1.4190  1.2202
 8644SOL    HW237392   1.985   1.112  16.871 -0.2226  1.6979 -3.4752
 8645SOL     OW37393   2.943   1.382  16.321  0.2672  0.3592  0.2629
 8645SOL    HW137394   2.950   1.396  16.227  0.4204 -2.0749 -0.0718
 8645SOL    HW237395   3.008   1.312  16.325 -0.0666  0.0058 -0.5732
 8646SOL     OW37396   1.048   1.676   7.282  0.1868  0.4876  0.5934
 8646SOL    HW137397   0.979   1.638   7.227 -0.2906  1.8421  0.2527
 8646SOL    HW237398   1.039   1.771   7.277  1.0744  0.4443 -1.6756
 8647SOL     OW37399   2.628   3.567   8.377  0.5222  0.2186  0.5064
 8647SOL    HW137400   2.569   3.638   8.351  0.3756  0.4479  1.4658
 8647SOL    HW237401   2.688   3.605   8.441 -1.3936  1.6426  1.4444
 8648SOL     OW37402   2.646   3.714   7.223 -0.0253  0.3588  0.3868
 8648SOL    HW137403   2.686   3.785   7.173  0.3693 -1.1538 -1.4706
 8648SOL    HW237404   2.552   3.714   7.208 -0.1258 -1.4040  0.9538
 8649SOL     OW37405   4.488   2.979   6.717 -0.4359  0.0371 -0.0589
 8649SOL    HW137406   4.558   3.044   6.732 -0.5632  0.2773 -0.5064
 8649SOL    HW237407   4.433   2.993   6.794  1.0725 -0.2997  1.0817
 8650SOL     OW37408   2.222   0.845   0.865  0.1995  0.6394 -0.1457
 8650SOL    HW137409   2.202   0.860   0.773 -1.7023 -0.5651  0.0831
 8650SOL    HW237410   2.139   0.865   0.908 -0.3798 -1.2782 -0.3615
 8651SOL     OW37411   0.749   2.192  16.915  0.0030  0.1209  0.1747
 8651SOL    HW137412   0.766   2.114  16.862  1.8265  0.8355 -0.2899
 8651SOL    HW237413   0.796   2.253  16.859 -1.5820  1.0537 -0.1299
 8652SOL     OW37414   0.764   2.553   7.513 -0.4796  0.1689 -0.4134
 8652SOL    HW137415   0.856   2.546   7.490  0.0499  1.6565  1.2240
 8652SOL    HW237416   0.750   2.485   7.579  3.5412  0.3174  0.5459
 8653SOL     OW37417   2.288   1.107  12.715 -0.0694  0.5619  0.4215
 8653SOL    HW137418   2.254   1.162  12.785  1.8345  2.3530 -0.0639
 8653SOL    HW237419   2.294   1.165  12.639 -1.7794 -0.3643 -0.4144
 8654SOL     OW37420   3.409   0.547   3.613 -0.4008 -0.0008 -0.5569
 8654SOL    HW137421   3.416   0.467   3.561  2.4021 -0.1726  0.0885
 8654SOL    HW237422   3.486   0.588   3.574 -0.1365  0.6042  0.5946
 8655SOL     OW37423   1.151   4.489   7.421 -0.2413  0.5029  0.4147
 8655SOL    HW137424   1.177   4.576   7.391 -2.0685  0.4200 -1.3579
 8655SOL    HW237425   1.057   4.490   7.436 -0.2418 -1.9781  0.5516
 8656SOL     OW37426   2.662   2.557   0.143  0.2191 -0.5371  0.1545
 8656SOL    HW137427   2.675   2.543   0.049 -0.6080 -2.2834  0.3043
 8656SOL    HW237428   2.567   2.554   0.146  0.1719  0.9398  0.0056
 8657SOL     OW37429   2.403   3.507  13.127 -0.0749 -0.1161 -0.2534
 8657SOL    HW137430   2.477   3.566  13.119  1.8740 -2.8722 -2.5267
 8657SOL    HW237431   2.337   3.557  13.176  0.2455 -0.3134  0.3770
 8658SOL     OW37432   3.230   4.388   6.953 -0.1797 -0.6124 -0.3861
 8658SOL    HW137433   3.318   4.412   6.981 -0.6513  0.4395  0.2062
 8658SOL    HW237434   3.235   4.417   6.862  1.7128  1.7132  0.4761
 8659SOL     OW37435   3.732   1.151  16.166 -0.3641 -0.5410 -0.1128
 8659SOL    HW137436   3.799   1.181  16.105 -1.4807  0.5979 -0.7793
 8659SOL    HW237437   3.655   1.185  16.121 -0.1934 -0.3928 -0.2890
 8660SOL     OW37438   0.432   4.491   4.469 -0.3154  0.4965 -0.1719
 8660SOL    HW137439   0.374   4.479   4.544 -1.2028 -0.4238 -0.9970
 8660SOL    HW237440   0.450   4.584   4.483  1.2686  0.1321  0.2762
 8661SOL     OW37441   2.512   1.523   7.748 -0.1957  0.8565  0.2444
 8661SOL    HW137442   2.426   1.490   7.774  0.4013 -1.6257 -0.9429
 8661SOL    HW237443   2.553   1.444   7.713  0.9553  0.6179  2.1192
 8662SOL     OW37444   4.518   1.912  17.465  0.3971  0.3773  0.2169
 8662SOL    HW137445   4.587   1.971  17.434  0.1436  1.2684  1.3276
 8662SOL    HW237446   4.570   1.835  17.489 -0.2747  0.3053  1.4765
 8663SOL     OW37447   1.435   1.576  11.914 -0.1435 -0.8559  0.0416
 8663SOL    HW137448   1.507   1.627  11.952  0.4079 -1.5766 -0.0338
 8663SOL    HW237449   1.426   1.515  11.987 -0.3379 -0.7583  0.0990
 8664SOL     OW37450   1.571   1.062  16.974 -0.2762  0.1989 -0.3416
 8664SOL    HW137451   1.622   1.107  17.041 -1.9165  1.0617  0.3132
 8664SOL    HW237452   1.486   1.103  16.990  0.1010  1.0162 -0.4108
 8665SOL     OW37453   0.185   2.078   4.462  0.0650 -0.1992 -0.1916
 8665SOL    HW137454   0.244   2.015   4.503  0.8409 -0.5923 -1.8902
 8665SOL    HW237455   0.097   2.039   4.466  0.0812 -0.3814 -1.4142
 8666SOL     OW37456   2.584   4.104   3.459  0.0136  0.2523 -0.3282
 8666SOL    HW137457   2.524   4.165   3.502 -1.2316 -0.2674 -1.3394
 8666SOL    HW237458   2.530   4.033   3.424  0.1644 -1.1196  2.2214
 8667SOL     OW37459   3.375   2.334   7.750  0.0114 -0.0921 -0.0829
 8667SOL    HW137460   3.435   2.259   7.749  0.5706  0.3216  3.3306
 8667SOL    HW237461   3.411   2.379   7.826 -1.4556  0.7839  0.0736
 8668SOL     OW37462   4.474   1.837   5.244  0.0045  0.0323 -0.0853
 8668SOL    HW137463   4.446   1.807   5.330 -2.6746 -1.5307 -1.5386
 8668SOL    HW237464   4.527   1.759   5.227  0.1343  0.1277 -0.1190
 8669SOL     OW37465   3.513   2.847   9.620 -0.4659 -0.3400 -0.6969
 8669SOL    HW137466   3.596   2.822   9.661  0.0305  2.8793  0.2885
 8669SOL    HW237467   3.468   2.887   9.695 -2.1912  0.0573 -1.9344
 8670SOL     OW37468   2.404   1.796  14.054  0.2719  0.0940  0.2994
 8670SOL    HW137469   2.389   1.784  13.960 -1.9313 -1.2967  0.8503
 8670SOL    HW237470   2.372   1.885  14.065  3.0102  1.1233  0.0365
 8671SOL     OW37471   3.788   1.848  12.675 -0.3544 -0.1594 -0.9263
 8671SOL    HW137472   3.819   1.757  12.682  4.1544  1.4746  0.7524
 8671SOL    HW237473   3.801   1.876  12.766 -2.7492  0.6392 -0.8473
 8672SOL     OW37474   2.800   1.916   2.835  0.1399  0.0555 -0.1019
 8672SOL    HW137475   2.760   1.835   2.803  1.3182 -0.8307  0.6889
 8672SOL    HW237476   2.821   1.960   2.752 -2.6928 -0.6275 -1.1915
 8673SOL     OW37477   3.562   3.650   6.937  0.1978  0.1613 -0.5286
 8673SOL    HW137478   3.519   3.609   7.012 -2.0924  0.2025 -1.8045
 8673SOL    HW237479   3.594   3.727   6.984 -0.2030 -0.8375  1.3845
 8674SOL     OW37480   1.565   1.098   7.331 -0.0574  0.4902 -0.2603
 8674SOL    HW137481   1.614   1.152   7.269  0.2102  0.3875 -0.1396
 8674SOL    HW237482   1.483   1.088   7.283  0.9257 -0.1199 -1.8179
 8675SOL     OW37483   0.141   1.143   2.707 -0.3325  0.0430  0.0609
 8675SOL    HW137484   0.216   1.187   2.748 -1.9130  1.6132  1.2779
 8675SOL    HW237485   0.149   1.071   2.770  0.0101  0.1741  0.1729
 8676SOL     OW37486   0.533   0.026   4.797 -0.2867 -0.1534  0.0101
 8676SOL    HW137487   0.492   4.713   4.876 -0.5166 -0.6395 -0.3277
 8676SOL    HW237488   0.613   4.698   4.787 -0.3636 -0.6013  1.6845
 8677SOL     OW37489   0.257   3.342   4.300 -0.6759 -0.1485 -0.6865
 8677SOL    HW137490   0.254   3.401   4.375  1.7833  0.6850 -1.2464
 8677SOL    HW237491   0.219   3.272   4.354 -2.2619  1.7490  0.6471
 8678SOL     OW37492   1.403   2.249  14.384  0.1028  0.1875 -0.0358
 8678SOL    HW137493   1.341   2.190  14.342 -0.4011  0.3635  0.4586
 8678SOL    HW237494   1.480   2.232  14.330  0.6625 -0.3226  0.9276
 8679SOL     OW37495   0.744   4.564  12.176 -0.0300  0.3640 -0.2721
 8679SOL    HW137496   0.826   4.554  12.128 -0.2953  0.5447 -0.7522
 8679SOL    HW237497   0.735   4.658  12.192 -0.8611  0.1558  0.5062
 8680SOL     OW37498   1.767   1.340   3.825 -0.3412 -0.4170  0.1019
 8680SOL    HW137499   1.699   1.391   3.870 -0.1186 -0.0548  0.0289
 8680SOL    HW237500   1.755   1.378   3.737  1.7575 -1.7169 -0.7334
 8681SOL     OW37501   1.456   2.370  14.916  0.3997 -0.0043  0.4031
 8681SOL    HW137502   1.514   2.429  14.964 -2.6723  1.9875  1.5850
 8681SOL    HW237503   1.461   2.397  14.824  0.2094 -0.8704  0.1348
 8682SOL     OW37504   2.960   2.498   3.950  0.0654  0.0093  0.0843
 8682SOL    HW137505   2.928   2.409   3.965 -1.5376  0.4264 -0.7592
 8682SOL    HW237506   3.034   2.488   3.890 -1.3808  1.7005 -2.0087
 8683SOL     OW37507   0.487   2.804   0.910 -0.5316 -0.3260 -0.1894
 8683SOL    HW137508   0.470   2.719   0.950 -1.5368  0.1970  0.5149
 8683SOL    HW237509   0.429   2.808   0.834 -1.3423 -1.0097  0.3861
 8684SOL     OW37510   3.173   3.387   5.249 -0.9231 -0.1862 -0.4082
 8684SOL    HW137511   3.266   3.406   5.240 -0.7022 -0.0645  1.9782
 8684SOL    HW237512   3.149   3.370   5.158 -1.3000  0.8259 -0.4902
 8685SOL     OW37513   1.988   3.641  15.912 -0.2818  0.2350  0.2186
 8685SOL    HW137514   2.074   3.682  15.912 -0.6684  1.0259 -2.3888
 8685SOL    HW237515   2.006   3.583  15.838  0.3978 -1.0844  1.4073
 8686SOL     OW37516   0.198   3.567   4.079 -0.7113  0.2068  0.2872
 8686SOL    HW137517   0.184   3.521   3.996  1.3954 -1.3738  0.8104
 8686SOL    HW237518   0.154   3.500   4.131 -0.8515 -0.1447 -0.2830
 8687SOL     OW37519   2.998   1.114   1.216 -0.4313 -0.3537  0.0882
 8687SOL    HW137520   2.995   1.164   1.134  1.1078 -0.8209 -0.2443
 8687SOL    HW237521   2.959   1.176   1.278 -0.4087 -0.2947  0.0444
 8688SOL     OW37522   2.979   3.006  16.394 -0.0772 -0.4333 -0.2468
 8688SOL    HW137523   2.911   2.948  16.427  0.3795 -2.2144 -2.4137
 8688SOL    HW237524   2.974   2.980  16.302  0.9691 -2.8728  0.3909
 8689SOL     OW37525   4.506   1.750   8.686 -0.5010  0.6463 -0.1916
 8689SOL    HW137526   4.473   1.836   8.658  0.2682  0.9090 -0.2909
 8689SOL    HW237527   4.532   1.706   8.605 -0.3773  0.0867  0.1557
 8690SOL     OW37528   3.982   0.122   8.344 -0.1948 -0.4812 -0.2189
 8690SOL    HW137529   3.931   0.201   8.326  0.8436  0.5471  1.3739
 8690SOL    HW237530   4.044   0.158   8.408  0.5996  2.6548 -2.7816
 8691SOL     OW37531   4.257   2.894   1.304 -0.2159  0.3887 -0.2180
 8691SOL    HW137532   4.319   2.910   1.375 -0.0513 -0.7815 -0.1006
 8691SOL    HW237533   4.235   2.986   1.290 -2.8981 -0.1035  0.6922
 8692SOL     OW37534   0.872   3.048   1.006  0.3146 -0.4568 -0.7441
 8692SOL    HW137535   0.896   3.001   0.926 -0.6676 -0.3382 -1.1143
 8692SOL    HW237536   0.790   3.094   0.986  1.1677  0.5210 -2.0530
 8693SOL     OW37537   0.506   3.984  16.501  0.0100 -0.2870  0.3374
 8693SOL    HW137538   0.465   3.901  16.528 -1.2848  0.2381 -0.0327
 8693SOL    HW237539   0.535   4.015  16.587  0.6583 -0.4544  0.1759
 8694SOL     OW37540   2.739   2.879  16.468 -0.1443  0.2082 -0.1556
 8694SOL    HW137541   2.659   2.931  16.479  1.4704  1.8435  3.9524
 8694SOL    HW237542   2.703   2.811  16.412 -1.0604  1.1706 -0.7483
 8695SOL     OW37543   3.131   0.191   7.823 -0.0217  0.0867 -0.5529
 8695SOL    HW137544   3.188   0.242   7.765  1.0646 -0.3852  0.1074
 8695SOL    HW237545   3.191   0.153   7.887 -1.4518 -0.8249  0.2254
 8696SOL     OW37546   0.037   3.866   3.805 -0.5088 -0.6248 -0.0250
 8696SOL    HW137547   0.040   3.803   3.733  0.0202 -0.0790 -0.4888
 8696SOL    HW237548   0.106   3.921   3.768 -1.5761  1.6375  1.3726
 8697SOL     OW37549   1.655   4.328   2.359  0.2262 -1.2236 -0.1218
 8697SOL    HW137550   1.662   4.253   2.418 -0.6629  0.8502  2.6160
 8697SOL    HW237551   1.584   4.290   2.307 -0.0351 -0.5086 -0.2788
 8698SOL     OW37552   0.980   2.634   6.447  0.6363 -0.0744 -0.0124
 8698SOL    HW137553   0.934   2.709   6.409 -1.8553 -1.7605 -0.3975
 8698SOL    HW237554   0.933   2.607   6.526  1.9056  0.0278  0.7631
 8699SOL     OW37555   0.805   0.243   1.966  0.2648  0.4754  0.2213
 8699SOL    HW137556   0.824   0.301   2.040 -0.6185 -0.5231  1.2482
 8699SOL    HW237557   0.830   0.158   2.002 -0.4556 -0.5998 -1.8361
 8700SOL     OW37558   2.644   2.280   5.039 -0.2943 -0.0379  0.5608
 8700SOL    HW137559   2.684   2.222   5.104 -2.1470 -1.1704  0.6814
 8700SOL    HW237560   2.643   2.363   5.087  0.4816  0.9799 -1.1898
 8701SOL     OW37561   3.243   3.323   8.635 -0.1946 -0.2035 -0.0570
 8701SOL    HW137562   3.218   3.411   8.609  1.1718  0.1970  0.0299
 8701SOL    HW237563   3.310   3.338   8.701 -0.4249  0.3064  0.0608
 8702SOL     OW37564   0.769   2.968  15.296 -0.4492  0.2351  0.8977
 8702SOL    HW137565   0.823   3.034  15.254 -0.2292  0.4134  1.4546
 8702SOL    HW237566   0.717   3.026  15.352  1.8088  2.8348  0.2806
 8703SOL     OW37567   1.285   0.491   5.918  0.4929 -0.0463  1.0755
 8703SOL    HW137568   1.282   0.397   5.899 -2.7211 -0.4690  3.7709
 8703SOL    HW237569   1.359   0.514   5.862 -0.5201  1.5531  0.4128
 8704SOL     OW37570   1.200   0.949   7.387 -0.4790 -0.1137  0.3304
 8704SOL    HW137571   1.217   1.040   7.408  1.0410 -0.8217  2.2038
 8704SOL    HW237572   1.139   0.929   7.458 -2.0002  0.0695 -0.9127
 8705SOL     OW37573   1.608   3.965   8.113 -0.1776  0.4666  0.4491
 8705SOL    HW137574   1.586   4.053   8.143  0.5172  0.4050  1.1529
 8705SOL    HW237575   1.538   3.918   8.160 -0.4592  1.4515  1.0309
 8706SOL     OW37576   3.277   2.352   1.427  0.1606 -0.7131  0.0092
 8706SOL    HW137577   3.367   2.328   1.406 -0.1909  0.2884 -2.5649
 8706SOL    HW237578   3.242   2.263   1.436  0.8829 -1.1763 -1.8901
 8707SOL     OW37579   3.871   3.660   4.131 -0.5996 -0.1407 -0.0573
 8707SOL    HW137580   3.924   3.739   4.115 -0.1046 -0.0934  1.8606
 8707SOL    HW237581   3.821   3.642   4.051  2.3505 -0.9259 -1.7345
 8708SOL     OW37582   1.456   2.893   9.162  0.2224 -0.5430  0.0546
 8708SOL    HW137583   1.457   2.828   9.092 -0.0511 -0.3324 -0.1429
 8708SOL    HW237584   1.548   2.888   9.189  0.7364 -0.4208 -1.6766
 8709SOL     OW37585   0.201   2.981   8.304 -0.5423  0.1236 -0.0538
 8709SOL    HW137586   0.225   2.913   8.367  0.5085  0.4396 -0.1293
 8709SOL    HW237587   0.167   2.933   8.228  1.6831  0.3887 -1.2253
 8710SOL     OW37588   4.373   1.079  10.828 -0.6398 -0.0308  0.0656
 8710SOL    HW137589   4.311   1.017  10.868 -0.8664 -0.9926 -1.7995
 8710SOL    HW237590   4.335   1.155  10.872 -0.5192  1.3487 -2.2443
 8711SOL     OW37591   3.585   0.011   0.983 -0.0353  0.4127  0.3496
 8711SOL    HW137592   3.654   0.040   0.923 -2.0936 -0.0477 -2.2536
 8711SOL    HW237593   3.612   4.642   0.989 -0.0503  0.4580  1.1129
 8712SOL     OW37594   4.140   4.488   4.500 -0.6948  0.0081  0.3966
 8712SOL    HW137595   4.214   4.479   4.439 -3.9006  1.1815 -3.6690
 8712SOL    HW237596   4.076   4.541   4.452  1.1597  1.7224 -0.2313
 8713SOL     OW37597   0.448   4.216   5.981  0.3802  0.0161 -0.0761
 8713SOL    HW137598   0.462   4.306   6.010  2.6196 -0.3079 -0.1467
 8713SOL    HW237599   0.520   4.208   5.918 -0.7565  0.9851 -1.4915
 8714SOL     OW37600   1.135   0.282   2.049  0.0177 -0.4214 -0.0257
 8714SOL    HW137601   1.131   0.324   1.963  2.0757  0.6481  0.4129
 8714SOL    HW237602   1.062   0.219   2.051  0.8439 -1.4332 -1.3721
 8715SOL     OW37603   0.041   2.473   7.506 -0.4310 -0.0053  0.3318
 8715SOL    HW137604   4.683   2.450   7.459  1.5256 -0.8871 -2.6226
 8715SOL    HW237605   0.085   2.389   7.505 -0.0136  0.2141  0.2400
 8716SOL     OW37606   2.968   3.789   5.773  0.1435  0.4292  0.2889
 8716SOL    HW137607   2.928   3.755   5.693 -1.0293  0.6304  0.7860
 8716SOL    HW237608   2.912   3.866   5.785 -0.3438  0.0486  0.4398
 8717SOL     OW37609   1.811   2.714   6.718 -0.1116 -0.3396 -0.0968
 8717SOL    HW137610   1.875   2.645   6.704  0.1489  0.0421 -0.7640
 8717SOL    HW237611   1.821   2.736   6.811  1.5343 -1.4199 -0.0317
 8718SOL     OW37612   0.471   3.446  10.636  0.4516 -0.0986 -0.4715
 8718SOL    HW137613   0.514   3.394  10.568 -1.1540 -1.8996 -0.0968
 8718SOL    HW237614   0.402   3.481  10.580  0.3105 -1.4496 -1.1616
 8719SOL     OW37615   3.351   2.578   5.864  0.1327 -0.0132 -0.5541
 8719SOL    HW137616   3.260   2.596   5.838 -0.1282  1.1999  1.2333
 8719SOL    HW237617   3.394   2.641   5.806 -1.5048  0.6967 -1.0173
 8720SOL     OW37618   3.012   0.597   7.915 -0.0896 -0.1771  0.3594
 8720SOL    HW137619   3.016   0.662   7.845  0.4033 -0.6565 -0.0659
 8720SOL    HW237620   3.094   0.547   7.911 -0.7698 -1.1288 -1.5787
 8721SOL     OW37621   2.113   2.488  14.868  0.2698 -0.1038 -0.3290
 8721SOL    HW137622   2.069   2.571  14.845  1.0004  0.2101 -0.5930
 8721SOL    HW237623   2.044   2.445  14.917 -1.6081  1.2768 -1.7265
 8722SOL     OW37624   1.325   0.213   4.891 -0.2461 -0.3284 -0.1887
 8722SOL    HW137625   1.238   0.181   4.867  0.1609 -1.0866 -0.6618
 8722SOL    HW237626   1.387   0.144   4.867  0.6311  0.3382  0.1456
 8723SOL     OW37627   1.059   4.470   8.405 -0.1924 -0.1731  0.2885
 8723SOL    HW137628   0.998   4.406   8.369 -0.7068 -0.8252  2.3028
 8723SOL    HW237629   1.046   4.439   8.495 -1.3265  0.6385  0.4151
 8724SOL     OW37630   4.038   3.472   9.628 -0.7971  0.7235 -0.2640
 8724SOL    HW137631   4.037   3.556   9.673 -3.1328 -0.3765  1.7292
 8724SOL    HW237632   3.990   3.410   9.683  0.8575 -0.3811 -0.0567
 8725SOL     OW37633   0.346   4.720   2.741  0.0898 -0.1482 -0.0561
 8725SOL    HW137634   0.334   0.035   2.653  0.2482  0.3880  0.1501
 8725SOL    HW237635   0.438   0.022   2.754  0.1828 -1.3479  1.4748
 8726SOL     OW37636   2.042   2.934   3.162 -0.5045  0.2492 -0.0571
 8726SOL    HW137637   2.057   2.937   3.256  1.6603  1.4847 -0.4415
 8726SOL    HW237638   1.955   2.896   3.154 -0.8478  1.4885 -2.3959
 8727SOL     OW37639   0.112   3.943   4.801 -0.2104 -0.1431 -0.1620
 8727SOL    HW137640   0.021   3.973   4.801 -0.0582  0.3156  0.9792
 8727SOL    HW237641   0.102   3.859   4.756 -0.6358 -1.7187  2.8326
 8728SOL     OW37642   1.113   3.771  14.940  0.4270  0.0931 -0.0379
 8728SOL    HW137643   1.123   3.859  14.903 -1.3182  0.5404  0.5360
 8728SOL    HW237644   1.050   3.741  14.874  1.3274 -0.2221 -0.7577
 8729SOL     OW37645   2.477   3.864   0.063 -0.2314  0.5871 -0.4032
 8729SOL    HW137646   2.572   3.875   0.054 -0.0503 -0.2372  0.5794
 8729SOL    HW237647   2.469   3.785   0.115  0.3545 -0.2948 -1.6496
 8730SOL     OW37648   0.695   1.104   4.449 -0.1551  0.5080 -0.4009
 8730SOL    HW137649   0.783   1.121   4.413 -0.0690  0.3001 -0.2907
 8730SOL    HW237650   0.681   1.010   4.437 -2.2339  0.6696  0.8179
 8731SOL     OW37651   2.430   2.334   4.102  0.0534 -0.3058 -0.1634
 8731SOL    HW137652   2.442   2.348   4.196 -0.0797  0.1828 -0.2163
 8731SOL    HW237653   2.436   2.426   4.076 -0.2503 -0.1737  0.2273
 8732SOL     OW37654   3.867   1.652  10.088 -0.0115 -0.1324 -0.5544
 8732SOL    HW137655   3.916   1.570  10.082 -1.7928 -1.2063 -0.4428
 8732SOL    HW237656   3.915   1.697  10.157 -1.6922  0.7935  0.0136
 8733SOL     OW37657   0.579   2.695  16.421  0.4741  0.2959 -0.2941
 8733SOL    HW137658   0.634   2.622  16.448 -3.2616 -1.5991  2.2484
 8733SOL    HW237659   0.579   2.684  16.326 -2.7870  3.3640 -0.6599
 8734SOL     OW37660   0.472   1.393   3.568 -0.6549 -0.1662  0.0636
 8734SOL    HW137661   0.501   1.443   3.491 -0.9789  1.2791  0.8915
 8734SOL    HW237662   0.521   1.311   3.561 -2.5569 -1.2242 -0.7002
 8735SOL     OW37663   2.465   0.905   4.499  0.7961 -0.1010 -0.2426
 8735SOL    HW137664   2.555   0.926   4.476  0.6180  0.1624 -0.7113
 8735SOL    HW237665   2.429   0.878   4.414  2.2156 -0.6270 -0.6664
 8736SOL     OW37666   4.329   1.481   3.140  0.1863 -0.2914  0.3613
 8736SOL    HW137667   4.275   1.449   3.068  1.1906 -1.4301  0.1244
 8736SOL    HW237668   4.274   1.458   3.214 -0.2244 -0.9053 -0.1449
 8737SOL     OW37669   2.204   0.962  13.608 -0.8592 -0.3425  0.2305
 8737SOL    HW137670   2.257   0.888  13.580 -2.2415 -1.7865  1.4249
 8737SOL    HW237671   2.117   0.923  13.606 -0.8829 -0.1306 -2.0302
 8738SOL     OW37672   3.975   0.068   3.276 -0.0181 -0.3672  0.2431
 8738SOL    HW137673   3.987   0.123   3.353  1.6518 -2.5179  1.5206
 8738SOL    HW237674   3.905   0.010   3.307 -0.1916 -0.2952 -0.0119
 8739SOL     OW37675   1.539   1.545   3.020  0.0427  0.3739 -0.1677
 8739SOL    HW137676   1.601   1.601   2.973 -0.4779  0.0087 -1.2865
 8739SOL    HW237677   1.577   1.533   3.107 -0.6543 -1.6464 -0.1366
 8740SOL     OW37678   2.997   3.969   6.149 -0.3911  0.3448  0.7391
 8740SOL    HW137679   2.907   3.974   6.116  0.5652  1.2700 -1.6832
 8740SOL    HW237680   3.014   3.884   6.108 -2.3621  0.2621  0.0638
 8741SOL     OW37681   1.519   3.697   3.722  0.3371  0.0323  0.1428
 8741SOL    HW137682   1.535   3.734   3.809 -0.8697 -2.8628  1.6179
 8741SOL    HW237683   1.423   3.696   3.721  0.3033 -0.1256  2.2755
 8742SOL     OW37684   2.978   3.518   5.606  0.0027  0.1165  0.6016
 8742SOL    HW137685   3.017   3.459   5.542 -1.6048 -2.1148  1.7092
 8742SOL    HW237686   2.890   3.510   5.571  0.6204 -0.1327 -0.8616
 8743SOL     OW37687   3.295   2.442   0.840 -0.4095  0.3008 -0.2804
 8743SOL    HW137688   3.313   2.379   0.909  0.4802 -0.0541 -0.8357
 8743SOL    HW237689   3.228   2.500   0.877 -1.6417 -1.6892  0.5552
 8744SOL     OW37690   4.194   3.165  10.051 -0.6917 -0.2110 -0.5802
 8744SOL    HW137691   4.228   3.210  10.128 -3.1329 -0.3283  0.5828
 8744SOL    HW237692   4.188   3.242   9.995 -0.4377  0.8088  0.7975
 8745SOL     OW37693   1.678   2.844   0.961  0.4603 -0.1504  0.0717
 8745SOL    HW137694   1.729   2.871   0.885  0.3989  1.2034  0.5274
 8745SOL    HW237695   1.612   2.781   0.929 -0.6825  0.3411  1.4633
 8746SOL     OW37696   1.974   1.354   6.915  0.3468  0.4345 -0.5436
 8746SOL    HW137697   2.009   1.421   6.974  1.3498 -0.2667 -0.3441
 8746SOL    HW237698   1.889   1.334   6.955  1.1785 -0.0477  0.9951
 8747SOL     OW37699   3.330   2.541   7.156 -0.1963  0.5053 -0.0652
 8747SOL    HW137700   3.298   2.610   7.213 -1.4379 -0.8895  0.9392
 8747SOL    HW237701   3.334   2.467   7.216 -0.3894  0.1945 -0.4301
 8748SOL     OW37702   4.368   2.790   5.237  0.5910 -0.5118  0.1953
 8748SOL    HW137703   4.280   2.795   5.274 -0.0759  1.8284 -1.6907
 8748SOL    HW237704   4.415   2.827   5.312  0.5358 -1.2559  0.5938
 8749SOL     OW37705   2.551   1.781   9.416  0.2258  0.4998 -0.1156
 8749SOL    HW137706   2.490   1.854   9.409  1.1109  1.2593  0.1376
 8749SOL    HW237707   2.635   1.824   9.430  2.0859 -3.2968  0.5964
 8750SOL     OW37708   2.465   0.449  16.404 -0.3184 -0.5664  0.6523
 8750SOL    HW137709   2.501   0.395  16.475 -2.3180 -0.3542  1.8292
 8750SOL    HW237710   2.435   0.525  16.454 -1.1720  0.2611 -1.1252
 8751SOL     OW37711   0.264   2.102   8.840 -0.3736 -0.0972  0.0912
 8751SOL    HW137712   0.204   2.052   8.785 -0.4250 -0.1715  0.2140
 8751SOL    HW237713   0.227   2.103   8.928 -0.8943 -2.2783 -0.0905
 8752SOL     OW37714   3.696   1.121   0.990 -0.4172  0.3168 -0.7627
 8752SOL    HW137715   3.602   1.129   0.978 -0.3882  1.0044 -0.5190
 8752SOL    HW237716   3.701   1.152   1.081  0.3516  1.5714 -1.2338
 8753SOL     OW37717   1.050   2.952  13.880 -0.3376  0.6578 -0.8275
 8753SOL    HW137718   1.089   2.930  13.795  1.9520  0.9038  0.1574
 8753SOL    HW237719   1.123   2.919  13.932 -0.6838 -2.6937 -2.5060
 8754SOL     OW37720   4.317   0.462   6.110  0.2548  0.1744 -0.8832
 8754SOL    HW137721   4.406   0.442   6.081 -0.4612 -2.2047 -1.4312
 8754SOL    HW237722   4.298   0.551   6.081 -0.8088  0.2443  0.0134
 8755SOL     OW37723   2.171   2.880   6.218 -1.0325 -0.0296  0.0161
 8755SOL    HW137724   2.161   2.961   6.167  0.6431 -0.2771 -0.7005
 8755SOL    HW237725   2.192   2.900   6.309 -2.5390  0.1752  0.3178
 8756SOL     OW37726   3.627   2.357   4.856 -0.4647 -0.2508  0.1637
 8756SOL    HW137727   3.540   2.325   4.882 -1.3954  2.5332  0.4584
 8756SOL    HW237728   3.604   2.424   4.791 -1.5501 -0.1868  0.6119
 8757SOL     OW37729   3.115   1.785  11.979 -0.1909  0.1472 -0.4371
 8757SOL    HW137730   3.057   1.784  11.903  1.2577 -2.4390 -1.5368
 8757SOL    HW237731   3.096   1.869  12.020  0.4258  0.3244 -0.5142
 8758SOL     OW37732   4.175   2.620  10.971 -0.1014  0.2297  1.2863
 8758SOL    HW137733   4.270   2.627  10.973 -0.1298  1.1698 -0.5782
 8758SOL    HW237734   4.146   2.703  10.934  1.9036 -0.0462 -0.9103
 8759SOL     OW37735   1.115   3.144   9.287  0.1785  0.1745 -0.3845
 8759SOL    HW137736   1.139   3.059   9.250  0.1461 -0.3622  0.8212
 8759SOL    HW237737   1.085   3.184   9.205 -0.3216 -0.0203 -0.2990
 8760SOL     OW37738   0.813   3.484   0.325  0.0367 -0.3321  0.1005
 8760SOL    HW137739   0.850   3.449   0.405  0.7930  0.5055  0.1150
 8760SOL    HW237740   0.762   3.559   0.355  4.2205  2.2707  0.6115
 8761SOL     OW37741   1.833   2.593   0.911  0.2329 -0.2325  0.1587
 8761SOL    HW137742   1.786   2.646   0.976 -0.1951 -3.2353  2.2979
 8761SOL    HW237743   1.852   2.668   0.855  0.4886  1.5350  2.6363
 8762SOL     OW37744   1.789   3.171   3.019 -0.1934 -0.2588 -0.2182
 8762SOL    HW137745   1.856   3.159   2.953  0.9994 -0.4279  1.0335
 8762SOL    HW237746   1.712   3.164   2.962  0.6921  1.1913 -1.5780
 8763SOL     OW37747   3.370   1.944   1.963 -0.1699  0.4052 -0.6787
 8763SOL    HW137748   3.307   1.968   1.896 -2.2491  0.5974  1.3492
 8763SOL    HW237749   3.451   1.989   1.940  0.5775 -0.7835 -0.3602
 8764SOL     OW37750   3.281   1.496   0.030  0.3058  0.2386 -0.4686
 8764SOL    HW137751   3.255   1.541  17.641 -0.4489 -1.8040 -1.3698
 8764SOL    HW237752   3.320   1.566   0.082 -0.4527 -1.1095  1.8828
 8765SOL     OW37753   0.572   0.255   9.102 -0.0553  0.5295 -0.4969
 8765SOL    HW137754   0.658   0.296   9.095  1.0601 -1.1939  3.0765
 8765SOL    HW237755   0.513   0.284   9.033 -2.0534 -0.7139  0.6731
 8766SOL     OW37756   4.306   1.982  15.394 -0.4409  0.0760  0.0932
 8766SOL    HW137757   4.212   2.001  15.387 -0.1629  1.3877  0.0699
 8766SOL    HW237758   4.349   2.036  15.327 -0.1732 -1.4270 -0.9525
 8767SOL     OW37759   3.018   3.066   7.821  0.2740  0.0652  0.0281
 8767SOL    HW137760   3.103   3.110   7.817  1.2573 -2.0043 -1.7763
 8767SOL    HW237761   2.975   3.075   7.736 -1.2385 -0.1121  0.7711
 8768SOL     OW37762   0.540   2.887   2.497 -0.5243  0.1494  0.2107
 8768SOL    HW137763   0.613   2.847   2.450 -2.1145 -0.3677 -1.8133
 8768SOL    HW237764   0.511   2.819   2.558 -0.2288 -0.4729 -0.3417
 8769SOL     OW37765   1.043   4.273  14.733 -0.2026  0.2388 -0.0451
 8769SOL    HW137766   1.010   4.326  14.805 -0.3730  0.7598 -0.5062
 8769SOL    HW237767   0.977   4.204  14.725  0.3792  0.0098 -2.9060
 8770SOL     OW37768   1.138   3.384   6.042  0.1158  0.3226  0.3047
 8770SOL    HW137769   1.197   3.337   5.982  0.2894  1.5892 -0.5040
 8770SOL    HW237770   1.063   3.386   5.983  0.0726 -0.2804  0.3384
 8771SOL     OW37771   2.837   2.705  12.118 -0.1160 -0.2127  0.1145
 8771SOL    HW137772   2.791   2.718  12.035 -0.7612  3.4274  1.0168
 8771SOL    HW237773   2.771   2.729  12.183  1.8367  1.0781  1.5966
 8772SOL     OW37774   1.656   3.562  15.670 -0.3078  0.0260 -0.1654
 8772SOL    HW137775   1.743   3.589  15.641 -0.5106 -1.6474 -2.3169
 8772SOL    HW237776   1.641   3.490  15.609 -0.3772  0.7351 -0.9794
 8773SOL     OW37777   2.253   3.050   8.209  0.1266 -0.3496 -0.6945
 8773SOL    HW137778   2.312   3.027   8.280  0.1972  2.3709  0.1452
 8773SOL    HW237779   2.311   3.062   8.133  0.3432 -0.3314 -0.5250
 8774SOL     OW37780   0.360   0.448   6.219  0.1071  0.0639  0.1446
 8774SOL    HW137781   0.281   0.395   6.236  1.9075 -1.9112  2.4160
 8774SOL    HW237782   0.425   0.379   6.231  1.3828  1.3231  0.4543
 8775SOL     OW37783   0.204   0.488  12.180 -0.1972 -0.3678 -0.1182
 8775SOL    HW137784   0.283   0.542  12.178 -0.1813 -0.3302  1.1417
 8775SOL    HW237785   0.146   0.543  12.128 -2.0574 -2.2792 -0.0597
 8776SOL     OW37786   1.545   2.125  10.144 -0.2526  0.0614  0.1707
 8776SOL    HW137787   1.584   2.202  10.103  0.9651  0.2236  1.6465
 8776SOL    HW237788   1.619   2.098  10.199 -1.9624  0.8399  2.8636
 8777SOL     OW37789   3.065   1.534   7.582  0.1405 -0.5354 -0.1363
 8777SOL    HW137790   3.087   1.611   7.530 -0.0138 -0.9319 -0.7936
 8777SOL    HW237791   3.014   1.573   7.653 -0.5434 -0.7931 -0.4826
 8778SOL     OW37792   1.520   2.719   2.548 -0.0678 -0.1878  0.0822
 8778SOL    HW137793   1.460   2.739   2.476  1.2286  1.8940 -0.4001
 8778SOL    HW237794   1.490   2.631   2.572 -1.8766  0.6097  0.7911
 8779SOL     OW37795   0.264   3.859   9.907 -0.0595 -0.4809 -0.3113
 8779SOL    HW137796   0.182   3.818   9.937  0.2309 -1.2324 -0.5518
 8779SOL    HW237797   0.321   3.784   9.891  0.8389 -0.0420  0.8244
 8780SOL     OW37798   2.804   1.889   4.565  0.6694 -0.5549 -0.2710
 8780SOL    HW137799   2.792   1.861   4.656 -3.0007  0.6763 -0.3868
 8780SOL    HW237800   2.728   1.853   4.519  0.1899  1.5988 -1.1453
 8781SOL     OW37801   3.065   0.152   1.852 -0.0443 -0.7705 -0.4939
 8781SOL    HW137802   3.144   0.191   1.816 -0.3922  0.5426  0.1606
 8781SOL    HW237803   3.105   0.083   1.905 -0.4756 -1.4522 -1.0522
 8782SOL     OW37804   0.094   2.650   9.108  0.5399 -0.1349 -0.2230
 8782SOL    HW137805   0.045   2.723   9.070  1.5101  0.8515  0.4253
 8782SOL    HW237806   0.156   2.690   9.169  0.1844 -1.2376  0.8541
 8783SOL     OW37807   4.032   3.548  10.691  0.5876 -0.4740 -0.0366
 8783SOL    HW137808   4.025   3.552  10.787 -2.5957  1.6370 -0.3455
 8783SOL    HW237809   4.074   3.631  10.671  0.5094  0.0601  2.0240
 8784SOL     OW37810   2.686   4.643   1.965  0.6211 -0.0530 -0.6606
 8784SOL    HW137811   2.669   4.719   1.910 -2.7153 -0.0330  0.3729
 8784SOL    HW237812   2.597   4.608   1.975  1.5108 -1.8446  0.9947
 8785SOL     OW37813   2.463   4.719   0.419 -0.2071 -0.1204 -0.1712
 8785SOL    HW137814   2.532   4.684   0.475 -2.0813 -0.3728  1.9534
 8785SOL    HW237815   2.497   4.697   0.332 -1.1881 -0.0682 -0.5694
 8786SOL     OW37816   1.977   3.087   2.270 -0.1354  0.2611 -0.3148
 8786SOL    HW137817   2.030   3.025   2.319  1.3499  0.9608 -1.0273
 8786SOL    HW237818   2.033   3.164   2.284  0.6453 -0.5616  1.1002
 8787SOL     OW37819   3.694   4.054   3.564 -0.3913  0.6948 -0.0690
 8787SOL    HW137820   3.781   4.083   3.590  0.0913 -0.9025  0.0395
 8787SOL    HW237821   3.707   4.083   3.473 -0.7427  0.6739 -0.1271
 8788SOL     OW37822   4.701   1.899   9.767 -0.4796 -0.1248 -0.4060
 8788SOL    HW137823   4.692   1.820   9.713  1.0257 -1.7294  1.7287
 8788SOL    HW237824   4.635   1.949   9.717  0.1411 -1.9153 -3.0159
 8789SOL     OW37825   0.051   1.345   6.173  0.0709  0.6232  0.8305
 8789SOL    HW137826   0.002   1.268   6.144  1.2874  0.5487 -1.0564
 8789SOL    HW237827   4.707   1.403   6.209  1.5528  1.2441  2.5903
 8790SOL     OW37828   2.613   3.591   7.580  0.2871 -0.2999  0.1242
 8790SOL    HW137829   2.665   3.555   7.652 -1.1425  1.3696  1.9795
 8790SOL    HW237830   2.628   3.685   7.591 -1.2645 -0.2299  1.5940
 8791SOL     OW37831   4.082   4.004   4.654  0.2516  0.6280 -0.7746
 8791SOL    HW137832   4.110   4.095   4.662  2.4003 -0.1389  0.2949
 8791SOL    HW237833   4.001   4.020   4.605 -0.2453 -2.0566 -0.8083
 8792SOL     OW37834   3.215   1.889   6.917 -1.0218  0.3042  0.3587
 8792SOL    HW137835   3.133   1.913   6.874 -0.6131  0.1997 -0.4826
 8792SOL    HW237836   3.277   1.958   6.894 -2.7745  0.8786 -2.6882
 8793SOL     OW37837   2.648   0.625  15.705 -0.1409  0.4355  0.1929
 8793SOL    HW137838   2.612   0.713  15.695  1.9764  1.2591 -0.2307
 8793SOL    HW237839   2.721   0.631  15.644 -0.8611 -1.7606 -0.8781
 8794SOL     OW37840   2.049   1.179   7.315  0.3531 -0.0363 -0.4588
 8794SOL    HW137841   2.075   1.090   7.339 -1.6187 -0.8852 -1.5578
 8794SOL    HW237842   1.984   1.159   7.248 -0.1260  0.4572 -0.1392
 8795SOL     OW37843   2.777   1.269   5.017 -0.4493 -0.3102 -0.3167
 8795SOL    HW137844   2.844   1.334   5.040  0.2796 -1.9374  2.2025
 8795SOL    HW237845   2.744   1.298   4.932  0.2618  2.1364  0.2382
 8796SOL     OW37846   1.044   0.397   8.036 -0.1109  0.0586 -0.3342
 8796SOL    HW137847   1.001   0.477   8.064 -1.2242 -1.3624  2.0065
 8796SOL    HW237848   1.034   0.397   7.941 -0.2840  0.8827 -0.3139
 8797SOL     OW37849   4.516   3.106   9.657  0.7526  0.3169  0.1987
 8797SOL    HW137850   4.609   3.082   9.654  0.3422 -1.3803  0.7111
 8797SOL    HW237851   4.474   3.027   9.691 -1.4533  1.0797 -0.7481
 8798SOL     OW37852   2.592   1.142   8.975 -0.3829 -0.3543  0.2770
 8798SOL    HW137853   2.574   1.235   8.963  0.4840 -0.3392 -0.9142
 8798SOL    HW237854   2.681   1.149   9.011 -0.3344  1.4209 -0.1804
 8799SOL     OW37855   2.242   3.271   7.607 -0.0713  0.7659 -0.0904
 8799SOL    HW137856   2.313   3.219   7.645 -0.0046 -0.3625 -1.7483
 8799SOL    HW237857   2.291   3.353   7.618 -1.4814  1.3880  1.5213
 8800SOL     OW37858   0.511   2.804   5.282 -0.0121  0.1711 -0.6559
 8800SOL    HW137859   0.591   2.854   5.299  0.1006 -1.2460  2.9397
 8800SOL    HW237860   0.524   2.718   5.321 -2.5525 -0.3087 -0.8316
 8801SOL     OW37861   4.538   1.063   6.531 -0.2975 -0.9290 -0.0431
 8801SOL    HW137862   4.458   1.011   6.534  0.2831 -1.8063  0.1278
 8801SOL    HW237863   4.576   1.041   6.445 -0.1287 -0.2156 -0.1515
 8802SOL     OW37864   1.579   0.673   3.841  0.0262 -0.1333  0.4524
 8802SOL    HW137865   1.584   0.738   3.771 -1.0347 -0.7788 -0.2257
 8802SOL    HW237866   1.669   0.640   3.836 -0.1959 -0.2808 -2.7759
 8803SOL     OW37867   3.157   0.062   3.377 -0.5380 -0.1381 -0.3705
 8803SOL    HW137868   3.250   0.060   3.354 -1.6530 -1.1235 -4.8938
 8803SOL    HW237869   3.132   0.030   3.290 -1.2229 -3.5225  1.0662
 8804SOL     OW37870   0.299   2.789   6.538  0.3984  0.2821 -0.1872
 8804SOL    HW137871   0.209   2.811   6.561  0.7529  1.5972 -0.0493
 8804SOL    HW237872   0.340   2.745   6.612  0.2898  0.2372 -0.1531
 8805SOL     OW37873   3.310   4.438   8.502 -0.4397 -0.0969 -0.0365
 8805SOL    HW137874   3.287   4.369   8.440  1.8825 -1.1561  0.2826
 8805SOL    HW237875   3.222   4.450   8.538 -0.7274 -1.1107 -0.3833
 8806SOL     OW37876   1.222   3.584   4.465  0.1139 -0.0399  0.3813
 8806SOL    HW137877   1.153   3.557   4.526 -0.6189 -2.4545 -1.5407
 8806SOL    HW237878   1.261   3.665   4.499  0.1434  1.0918 -2.3599
 8807SOL     OW37879   1.756   2.958   8.940  0.2667 -0.3022  0.1980
 8807SOL    HW137880   1.800   2.926   8.861 -1.6802  1.4764 -1.6227
 8807SOL    HW237881   1.760   2.882   8.997  1.6594 -0.6845 -0.4008
 8808SOL     OW37882   4.286   1.163   1.462  0.4281 -0.4676  0.4180
 8808SOL    HW137883   4.353   1.206   1.515  0.9650  0.2767 -0.8625
 8808SOL    HW237884   4.320   1.073   1.463 -0.7731 -0.8994  2.6147
 8809SOL     OW37885   3.472   3.588   9.725 -0.6947  0.8712 -0.3950
 8809SOL    HW137886   3.567   3.594   9.718 -0.9056  2.7949 -1.6621
 8809SOL    HW237887   3.455   3.643   9.801  0.9773 -2.6851  2.5471
 8810SOL     OW37888   3.830   0.960   7.489 -0.4421 -0.5552 -0.2785
 8810SOL    HW137889   3.914   0.985   7.449 -1.1658 -1.4025 -2.3255
 8810SOL    HW237890   3.780   1.034   7.456  0.7956 -0.1247 -1.2173
 8811SOL     OW37891   4.077   2.778   2.312  0.4560  0.0448  0.0099
 8811SOL    HW137892   4.093   2.771   2.218  0.6673  0.7149 -0.0040
 8811SOL    HW237893   4.101   2.870   2.325 -0.2328 -0.1098  2.2824
 8812SOL     OW37894   1.731   4.543   4.830  0.6492  0.3910  0.1103
 8812SOL    HW137895   1.757   4.508   4.915  2.4344  2.3316  0.3636
 8812SOL    HW237896   1.809   4.531   4.776 -1.0423  1.0059 -2.4409
 8813SOL     OW37897   0.535   3.874   4.541  0.1222  0.2094  0.4451
 8813SOL    HW137898   0.572   3.799   4.587  1.2453  0.8886  0.6356
 8813SOL    HW237899   0.608   3.907   4.490 -0.4173  2.8290  1.3888
 8814SOL     OW37900   2.193   0.574  10.182  0.0424 -0.1459  0.3938
 8814SOL    HW137901   2.285   0.550  10.192  0.4693  0.3396 -2.4087
 8814SOL    HW237902   2.153   0.507  10.237 -1.6546  0.7244  0.2130
 8815SOL     OW37903   1.112   2.054  13.339 -0.3317  0.5431 -0.2051
 8815SOL    HW137904   1.058   2.085  13.412 -1.6363 -1.0575 -0.5052
 8815SOL    HW237905   1.202   2.044  13.371  0.0672  1.7857 -0.9458
 8816SOL     OW37906   2.316   1.745   7.976  0.3912  0.0343 -0.1084
 8816SOL    HW137907   2.401   1.740   8.020  0.9356  3.9085 -0.7391
 8816SOL    HW237908   2.318   1.652   7.952 -1.2464  0.2217 -0.9856
 8817SOL     OW37909   0.054   0.095   6.426  0.7353  0.1458 -0.2029
 8817SOL    HW137910   4.704   0.133   6.377  1.9011  1.1555 -1.1501
 8817SOL    HW237911   0.027   0.004   6.436  1.3452 -0.1022 -0.7937
 8818SOL     OW37912   1.870   3.258   2.734 -0.3374 -0.8421 -0.1512
 8818SOL    HW137913   1.924   3.183   2.761  0.4789 -0.3328 -0.3641
 8818SOL    HW237914   1.910   3.272   2.648 -0.5939 -2.1504 -0.4943
 8819SOL     OW37915   2.212   0.414  16.285 -0.0867 -0.1411 -0.2167
 8819SOL    HW137916   2.299   0.416  16.325 -0.8962  0.7771  1.5011
 8819SOL    HW237917   2.189   0.506  16.294  2.0772  0.3440  0.2840
 8820SOL     OW37918   4.608   3.993   7.272  0.0175  0.4593  0.0771
 8820SOL    HW137919   4.673   4.043   7.223  0.5580  1.3876  1.7635
 8820SOL    HW237920   4.661   3.966   7.347  1.1737 -1.8850 -1.5593
 8821SOL     OW37921   1.336   2.938   7.918 -0.0633 -0.2768 -0.2851
 8821SOL    HW137922   1.341   3.029   7.890  0.7352 -0.3726 -0.4529
 8821SOL    HW237923   1.268   2.952   7.984  2.4560  2.1189  1.8129
 8822SOL     OW37924   2.765   1.243   7.119 -0.3934 -0.2584 -0.2452
 8822SOL    HW137925   2.795   1.162   7.078  1.1229 -1.1526  2.6785
 8822SOL    HW237926   2.686   1.217   7.167  0.1505 -0.1972  0.6817
 8823SOL     OW37927   1.538   2.505   6.045  0.0699  0.1974  0.0144
 8823SOL    HW137928   1.621   2.527   6.088 -0.1559  0.9616  0.0576
 8823SOL    HW237929   1.571   2.540   5.963 -1.0311  0.3165 -0.3709
 8824SOL     OW37930   4.173   1.056   8.882  0.1695 -0.4986  0.1259
 8824SOL    HW137931   4.197   1.143   8.851 -2.6799  0.1551 -0.3058
 8824SOL    HW237932   4.096   1.076   8.935  0.4380  0.3856  0.1749
 8825SOL     OW37933   0.411   1.845   7.855 -0.5413  0.3579 -0.1035
 8825SOL    HW137934   0.390   1.777   7.791 -0.0497 -1.7644  1.9930
 8825SOL    HW237935   0.506   1.835   7.861 -0.3728  0.3401 -2.8337
 8826SOL     OW37936   1.028   3.973   4.936  0.1451 -0.1156 -0.1912
 8826SOL    HW137937   1.082   3.896   4.920  0.6565  0.6056 -2.0111
 8826SOL    HW237938   1.092   4.044   4.922 -1.9929  1.6099 -1.3230
 8827SOL     OW37939   1.381   3.042  17.674  0.3972  0.2440 -0.0932
 8827SOL    HW137940   1.421   3.069   0.064  2.6364 -2.9226 -0.1825
 8827SOL    HW237941   1.293   3.079  17.689  0.7104  1.5219 -1.3293
 8828SOL     OW37942   3.809   2.103   8.826 -0.2623  0.4923  0.1078
 8828SOL    HW137943   3.749   2.167   8.787  0.0491 -0.1226 -1.4016
 8828SOL    HW237944   3.749   2.058   8.885  2.0229 -1.1698  1.1670
 8829SOL     OW37945   1.965   0.889  15.396  0.1386  0.0072 -0.2496
 8829SOL    HW137946   1.980   0.794  15.401 -0.5741  0.0724  3.2930
 8829SOL    HW237947   1.875   0.908  15.424 -0.0864  0.0187 -0.9767
 8830SOL     OW37948   4.055   0.666   3.486  0.4478  0.3645  0.0043
 8830SOL    HW137949   4.150   0.668   3.477  0.4511  1.8346  0.4281
 8830SOL    HW237950   4.047   0.712   3.569 -2.7142 -0.3975  0.1036
 8831SOL     OW37951   1.612   1.565  10.094 -0.2615  0.1588  0.2740
 8831SOL    HW137952   1.526   1.580  10.134 -2.0035 -1.2759 -2.8963
 8831SOL    HW237953   1.661   1.548  10.175  0.6640  0.7300 -0.1792
 8832SOL     OW37954   3.299   2.075  15.063  0.3388 -0.7428  0.4455
 8832SOL    HW137955   3.338   2.126  14.993 -0.6230  0.6437  0.9147
 8832SOL    HW237956   3.357   2.084  15.139  0.4800 -3.5936  0.7026
 8833SOL     OW37957   0.404   1.448   0.931  0.2591  0.3837  0.0555
 8833SOL    HW137958   0.441   1.448   1.019  1.9492  2.5362 -0.6668
 8833SOL    HW237959   0.483   1.435   0.877 -0.0164  0.2716 -0.3242
 8834SOL     OW37960   0.571   1.025   5.203 -0.3117 -0.1549  0.2610
 8834SOL    HW137961   0.520   0.974   5.141 -0.3398 -0.3784  0.4685
 8834SOL    HW237962   0.514   1.029   5.280 -0.2689  1.2887  0.2290
 8835SOL     OW37963   0.152   4.608  13.852  0.6652  0.1663  0.9029
 8835SOL    HW137964   0.069   4.591  13.896  0.4735  0.5038  0.6788
 8835SOL    HW237965   0.166   4.522  13.813 -1.3333  0.8821 -1.4131
 8836SOL     OW37966   0.675   2.383   6.352 -0.3225 -0.1034 -0.0363
 8836SOL    HW137967   0.704   2.363   6.263  1.6597  0.0245  0.5808
 8836SOL    HW237968   0.725   2.464   6.367  0.6897 -0.9081  0.9139
 8837SOL     OW37969   0.904   3.222   7.988 -0.0943  0.1789  0.6301
 8837SOL    HW137970   0.866   3.237   8.074 -2.7663  0.0034 -0.5287
 8837SOL    HW237971   0.968   3.293   7.983  1.3502 -1.0011  1.9795
 8838SOL     OW37972   1.624   4.616   3.537 -0.5239  0.4174  0.4340
 8838SOL    HW137973   1.700   4.557   3.537  0.3230  1.5454 -2.8311
 8838SOL    HW237974   1.557   4.564   3.581 -0.2833 -0.9796 -0.8539
 8839SOL     OW37975   0.804   2.568   8.672  0.0653  0.0796  0.1918
 8839SOL    HW137976   0.832   2.484   8.635 -1.5159  0.0626 -0.9692
 8839SOL    HW237977   0.722   2.577   8.624 -0.0310  1.3295  0.5974
 8840SOL     OW37978   0.753   0.975   1.628 -0.0698  0.5694 -0.7748
 8840SOL    HW137979   0.745   1.070   1.632 -0.3023  0.5580 -0.9756
 8840SOL    HW237980   0.659   0.956   1.626  0.4286 -1.8638 -1.2476
 8841SOL     OW37981   2.866   1.183   2.263  0.1020 -0.6708 -0.4730
 8841SOL    HW137982   2.788   1.215   2.217  1.1641  0.7675 -1.2438
 8841SOL    HW237983   2.926   1.256   2.251 -0.6453  0.2483  1.3204
 8842SOL     OW37984   0.610   2.947   4.545  0.2123  0.5668  0.0801
 8842SOL    HW137985   0.581   2.875   4.601  1.3071  1.2277  1.4759
 8842SOL    HW237986   0.676   2.905   4.489 -1.0179  0.9549 -1.6501
 8843SOL     OW37987   3.460   1.292  10.159  0.2091 -0.0629 -0.4433
 8843SOL    HW137988   3.442   1.236  10.084  2.7525  0.6499 -1.5815
 8843SOL    HW237989   3.375   1.298  10.203  0.1298  1.4971 -0.8293
 8844SOL     OW37990   0.872   1.774   4.121  0.0590 -0.2723 -0.3835
 8844SOL    HW137991   0.816   1.788   4.045 -1.8905 -1.5517  0.8034
 8844SOL    HW237992   0.811   1.718   4.170  0.4812 -0.6966 -0.3437
 8845SOL     OW37993   3.137   1.081  10.457 -0.0721  0.2838  0.3970
 8845SOL    HW137994   3.058   1.051  10.412  0.0882  0.3742  0.0539
 8845SOL    HW237995   3.163   1.002  10.504 -0.4649  0.9589  1.7369
 8846SOL     OW37996   2.432   3.364   6.217 -0.1195  0.5587 -0.2752
 8846SOL    HW137997   2.441   3.452   6.253  0.3683 -0.8202  2.9867
 8846SOL    HW237998   2.340   3.349   6.240  0.1236  0.6533  0.7573
 8847SOL     OW37999   3.168   1.594   4.933  0.0731 -0.1170  0.1245
 8847SOL    HW138000   3.151   1.625   5.022  0.4346  1.6618 -0.4229
 8847SOL    HW238001   3.257   1.628   4.921  0.2263 -1.0947 -1.5812
 8848SOL     OW38002   0.878   2.869   6.352 -0.2883  0.3356  0.0795
 8848SOL    HW138003   0.895   2.844   6.261  0.8475  2.5374 -0.3291
 8848SOL    HW238004   0.801   2.924   6.343 -0.3909 -0.1121 -1.7666
 8849SOL     OW38005   0.593   2.016   3.667  0.3985  0.4525  0.3203
 8849SOL    HW138006   0.640   2.073   3.728 -0.7447  0.7249  0.9478
 8849SOL    HW238007   0.504   2.001   3.697  0.0794  0.5402 -0.5718
 8850SOL     OW38008   3.240   4.172   0.386  0.3261  0.1915  0.3905
 8850SOL    HW138009   3.210   4.092   0.429  0.3172 -0.0242 -0.0191
 8850SOL    HW238010   3.176   4.173   0.315 -0.5122  0.2733  1.1451
 8851SOL     OW38011   1.886   0.701  14.106 -0.2292 -0.3178 -0.1378
 8851SOL    HW138012   1.839   0.731  14.028  1.9424  2.8879 -0.1744
 8851SOL    HW238013   1.882   0.774  14.167 -1.2679 -0.7612  0.3196
 8852SOL     OW38014   1.400   3.042   6.374 -0.2920 -0.9852 -0.3998
 8852SOL    HW138015   1.407   3.137   6.383  2.0782 -1.2812  0.7728
 8852SOL    HW238016   1.308   3.032   6.397 -0.0726  0.6743  1.1989
 8853SOL     OW38017   3.773   2.240  16.071 -0.0045  0.6990 -0.3325
 8853SOL    HW138018   3.743   2.152  16.045  1.2489  0.7405 -1.8920
 8853SOL    HW238019   3.780   2.233  16.166 -2.5248 -2.6949 -0.3674
 8854SOL     OW38020   3.431   3.125   8.075 -0.2880 -0.4648 -0.5278
 8854SOL    HW138021   3.343   3.160   8.089  0.0720 -0.8544  2.7292
 8854SOL    HW238022   3.420   3.041   8.120 -0.8467 -1.0121 -1.6710
 8855SOL     OW38023   0.394   3.802   0.918  0.2603 -0.4027  0.4837
 8855SOL    HW138024   0.414   3.744   0.845 -1.6640 -0.9478  0.3811
 8855SOL    HW238025   0.317   3.757   0.954 -1.0882  2.0519  0.6347
 8856SOL     OW38026   4.690   1.860   6.990  0.4543 -0.2830 -0.2011
 8856SOL    HW138027   4.717   1.943   7.030  0.8443 -0.6347  0.2802
 8856SOL    HW238028   0.032   1.848   6.920  0.1495 -0.2460 -0.4879
 8857SOL     OW38029   0.316   0.379   5.186  0.1162 -0.7656  0.6777
 8857SOL    HW138030   0.363   0.411   5.108 -1.4999  3.0253  1.2469
 8857SOL    HW238031   0.271   0.306   5.144 -0.0745  0.2423 -0.8837
 8858SOL     OW38032   4.502   4.414   8.069  0.5344  0.6716 -0.0210
 8858SOL    HW138033   4.433   4.457   8.018 -0.5783 -0.1937  0.7518
 8858SOL    HW238034   4.442   4.372   8.131 -2.4055  1.9063 -2.0537
 8859SOL     OW38035   0.475   4.528  12.209 -0.6372 -0.1877 -0.3820
 8859SOL    HW138036   0.499   4.440  12.238  0.5079 -0.3554 -1.8155
 8859SOL    HW238037   0.564   4.563  12.212 -0.4227 -0.5302 -2.3384
 8860SOL     OW38038   0.957   2.503   5.490 -0.3171  0.4518 -0.6514
 8860SOL    HW138039   1.026   2.569   5.483 -0.7054  1.1266  1.8064
 8860SOL    HW238040   0.889   2.563   5.458 -1.3034  0.1672  0.9037
 8861SOL     OW38041   2.374   3.497   5.552  0.2673  0.5902 -0.3509
 8861SOL    HW138042   2.290   3.489   5.506  1.2679 -0.0846 -2.0380
 8861SOL    HW238043   2.405   3.579   5.514 -1.4693  1.6445  0.4588
 8862SOL     OW38044   4.235   1.510   4.206 -0.5894 -0.3092  0.0266
 8862SOL    HW138045   4.142   1.530   4.209 -0.7713 -1.3536  1.6990
 8862SOL    HW238046   4.248   1.512   4.111 -2.8317 -4.2446 -0.3639
 8863SOL     OW38047   4.594   0.157   1.933 -0.2805 -0.1141 -0.4223
 8863SOL    HW138048   4.538   0.235   1.925 -0.1609  0.1463  1.3714
 8863SOL    HW238049   4.574   0.106   1.855  0.7622 -0.2530 -0.6069
 8864SOL     OW38050   3.371   4.314   4.392  0.4763 -0.5803  0.4090
 8864SOL    HW138051   3.324   4.271   4.463  0.6143  0.0145  0.8634
 8864SOL    HW238052   3.340   4.275   4.310  0.4793 -0.5794  0.4075
 8865SOL     OW38053   1.186   0.173   6.668  0.2665  0.3488 -0.1841
 8865SOL    HW138054   1.249   0.196   6.599 -1.7272  2.2569 -1.3765
 8865SOL    HW238055   1.243   0.194   6.742  1.4629 -1.8454 -0.4906
 8866SOL     OW38056   2.100   2.168  15.116  0.2953  0.1388  0.0754
 8866SOL    HW138057   2.165   2.128  15.174 -1.2440 -0.6048  1.2767
 8866SOL    HW238058   2.040   2.101  15.083 -1.5390  2.1512 -0.6979
 8867SOL     OW38059   3.050   2.212   3.867  0.3831 -0.3219  0.2318
 8867SOL    HW138060   3.064   2.118   3.857 -1.2266 -0.9646  3.7872
 8867SOL    HW238061   3.012   2.210   3.955 -0.6224 -0.6815 -0.2090
 8868SOL     OW38062   3.266   3.997  13.871  0.9460  0.2357  0.1015
 8868SOL    HW138063   3.172   3.991  13.855  1.1700  2.6837 -2.1438
 8868SOL    HW238064   3.299   3.986  13.782 -0.9058  0.1406 -0.5899
 8869SOL     OW38065   0.530   2.817   9.934 -0.8594  0.6511 -0.1626
 8869SOL    HW138066   0.524   2.831  10.029  0.4757 -0.3743  0.0828
 8869SOL    HW238067   0.510   2.723   9.928 -0.2747  0.5455 -0.5452
 8870SOL     OW38068   4.150   1.355   5.138  0.2921 -0.1656  0.4487
 8870SOL    HW138069   4.113   1.267   5.131 -1.4121  0.5017  1.0911
 8870SOL    HW238070   4.100   1.400   5.070 -0.6131 -2.6447 -0.4996
 8871SOL     OW38071   0.590   2.189  13.742  0.5121  0.0372 -0.2259
 8871SOL    HW138072   0.608   2.203  13.649  2.3337 -1.3477 -0.0892
 8871SOL    HW238073   0.676   2.148  13.755  0.3715  0.0115  0.5996
 8872SOL     OW38074   4.144   2.435   3.358 -0.5217  0.2378 -0.1287
 8872SOL    HW138075   4.067   2.480   3.323 -0.0444  1.3628  0.2743
 8872SOL    HW238076   4.202   2.444   3.282  0.0605 -0.0316  0.2886
 8873SOL     OW38077   0.222   3.814  10.340  0.2048  0.2264 -0.1149
 8873SOL    HW138078   0.273   3.887  10.304 -0.1604  0.4676 -0.1405
 8873SOL    HW238079   0.135   3.854  10.340 -0.1710 -0.5600 -3.0730
 8874SOL     OW38080   2.653   3.885  14.206 -0.2229  0.3090  0.4580
 8874SOL    HW138081   2.559   3.899  14.193 -0.3883 -0.5785  0.7240
 8874SOL    HW238082   2.677   3.825  14.136  0.4345 -1.5491  2.3129
 8875SOL     OW38083   2.293   3.884  16.311  0.2966 -0.1075  0.0812
 8875SOL    HW138084   2.256   3.943  16.245 -2.1070 -0.7853  0.8143
 8875SOL    HW238085   2.369   3.936  16.335  0.1466 -1.0602  2.5948
 8876SOL     OW38086   3.943   4.578   6.018 -0.1898  0.3450  0.3303
 8876SOL    HW138087   3.944   4.482   6.015  1.6953  0.3912 -0.3821
 8876SOL    HW238088   3.900   4.593   5.934  0.3523  2.0742  0.3779
 8877SOL     OW38089   1.619   4.314   5.716  0.1731  0.2061 -0.0046
 8877SOL    HW138090   1.635   4.408   5.715  1.3477  0.0174  1.0844
 8877SOL    HW238091   1.654   4.290   5.630 -1.4219 -1.1788 -0.2875
 8878SOL     OW38092   1.503   3.488   7.450 -0.2612 -0.8654  0.0955
 8878SOL    HW138093   1.477   3.565   7.500  1.1701 -0.8717  0.8475
 8878SOL    HW238094   1.568   3.519   7.387  0.4364 -0.8622  0.8106
 8879SOL     OW38095   4.274   1.780   7.484  0.4480  0.4997  0.2527
 8879SOL    HW138096   4.251   1.831   7.406  0.7497 -0.3444 -0.3877
 8879SOL    HW238097   4.228   1.697   7.473  0.4605  0.6169 -0.7191
 8880SOL     OW38098   4.201   0.222  17.120  0.6283  0.1671 -0.3449
 8880SOL    HW138099   4.248   0.143  17.148 -2.9408 -1.6945  0.3964
 8880SOL    HW238100   4.199   0.212  17.025  4.0700  1.7794 -0.5949
 8881SOL     OW38101   4.050   1.900   4.871  0.2003 -0.4130 -0.0389
 8881SOL    HW138102   4.073   1.970   4.809 -0.6158 -1.0130 -1.0296
 8881SOL    HW238103   4.137   1.886   4.908  0.6785  0.5460 -0.7851
 8882SOL     OW38104   3.748   4.083  17.625  0.4587  0.0007  0.4751
 8882SOL    HW138105   3.787   4.158  17.581  0.6531 -0.2001  0.3055
 8882SOL    HW238106   3.691   4.126  17.689  2.0339  2.0998  0.4618
 8883SOL     OW38107   2.428   2.338   2.210  0.0746 -0.1314 -0.3608
 8883SOL    HW138108   2.404   2.385   2.290 -0.3536 -0.0322 -0.5520
 8883SOL    HW238109   2.357   2.274   2.205 -0.0932 -0.2265  3.0716
 8884SOL     OW38110   1.023   0.876   5.781 -0.0587  0.7185  0.5381
 8884SOL    HW138111   1.110   0.838   5.790 -0.4741 -0.5537 -0.7297
 8884SOL    HW238112   0.983   0.801   5.736  0.2282  0.9267 -0.0535
 8885SOL     OW38113   2.216   3.030   4.220 -0.2184 -0.1714 -0.3084
 8885SOL    HW138114   2.256   2.985   4.295 -0.8439 -0.6027 -0.2342
 8885SOL    HW238115   2.256   2.977   4.151  2.8812  1.6434  0.0960
 8886SOL     OW38116   3.245   2.029   3.656  0.0818 -0.2791  0.1251
 8886SOL    HW138117   3.163   2.021   3.608  1.3021  2.1124 -2.3606
 8886SOL    HW238118   3.289   1.949   3.627  0.2851 -0.2598  0.3759
 8887SOL     OW38119   1.738   1.146   8.963  0.1808  0.0271  0.2858
 8887SOL    HW138120   1.830   1.170   8.977  0.0697 -0.7695  2.4105
 8887SOL    HW238121   1.736   1.051   8.968 -0.9416  0.0887  0.9868
 8888SOL     OW38122   1.447   3.470   4.318 -0.6435 -0.4589 -0.2547
 8888SOL    HW138123   1.390   3.400   4.286 -5.1656  1.9431  2.5661
 8888SOL    HW238124   1.386   3.510   4.380  1.0829 -1.7617  2.2933
 8889SOL     OW38125   4.589   0.094   5.179 -0.3256  0.1889 -0.2144
 8889SOL    HW138126   4.502   0.063   5.203  1.2351 -3.4070  0.8207
 8889SOL    HW238127   4.649   0.033   5.221 -0.4726  0.8782  0.9912
 8890SOL     OW38128   0.321   2.887   1.452  0.5228  0.0144 -0.3641
 8890SOL    HW138129   0.401   2.936   1.466  1.7638 -1.3053 -2.9562
 8890SOL    HW238130   0.318   2.902   1.358 -0.6185 -0.9135 -0.4882
 8891SOL     OW38131   2.346   4.282   8.465  0.9518 -0.4074  0.0414
 8891SOL    HW138132   2.304   4.253   8.384 -0.8599  1.7638  0.2367
 8891SOL    HW238133   2.293   4.346   8.512  1.2576 -0.5348  0.5665
 8892SOL     OW38134   3.839   0.296  15.721  0.2727  0.0171 -0.2840
 8892SOL    HW138135   3.908   0.251  15.672  2.1738  1.1242  1.3458
 8892SOL    HW238136   3.848   0.385  15.687 -4.1310  0.8098  0.6833
 8893SOL     OW38137   2.710   2.705   1.834  0.7071  0.3009  0.2031
 8893SOL    HW138138   2.751   2.746   1.910  1.1125  3.7261 -1.8633
 8893SOL    HW238139   2.746   2.619   1.857  0.6037 -0.5431 -2.7331
 8894SOL     OW38140   2.967   3.559   4.847  0.1818 -0.2567 -0.4507
 8894SOL    HW138141   2.929   3.500   4.911  1.4573 -1.6920 -1.0179
 8894SOL    HW238142   3.058   3.543   4.873  0.0386 -0.6476 -0.1902
 8895SOL     OW38143   3.162   4.496   1.266  0.0230 -0.5037  0.2746
 8895SOL    HW138144   3.185   4.478   1.357  0.3240  0.4878  0.4011
 8895SOL    HW238145   3.073   4.467   1.283  0.5769 -0.9405  2.4375
 8896SOL     OW38146   2.049   3.300   8.163  0.4620  0.1976  0.0648
 8896SOL    HW138147   2.048   3.279   8.070 -0.6364  0.2374  0.0670
 8896SOL    HW238148   2.118   3.239   8.189 -0.4055 -0.3456  1.0642
 8897SOL     OW38149   3.030   1.880   7.790 -0.1112  0.4993 -0.0595
 8897SOL    HW138150   2.964   1.811   7.799 -0.5162  0.9376  0.3630
 8897SOL    HW238151   3.052   1.856   7.700 -1.2786 -0.8921  0.0283
 8898SOL     OW38152   3.062   1.095   5.555 -0.7725  0.0723 -0.2770
 8898SOL    HW138153   2.986   1.037   5.560 -1.1121  0.6967  1.9609
 8898SOL    HW238154   3.035   1.158   5.488 -2.1357  0.7822  0.9410
 8899SOL     OW38155   4.572   3.323   9.439 -0.5599 -0.1458  0.0130
 8899SOL    HW138156   4.579   3.249   9.499 -0.4518 -1.3018 -1.4170
 8899SOL    HW238157   4.480   3.344   9.455 -1.5309 -2.9306 -2.0058
 8900SOL     OW38158   3.883   4.452  11.880  0.1636 -0.3466  0.1237
 8900SOL    HW138159   3.960   4.507  11.866  1.2422 -1.7287  0.6689
 8900SOL    HW238160   3.846   4.456  11.791 -0.1088 -0.6326  0.2263
 8901SOL     OW38161   1.646   1.805  10.756  0.2449 -0.7642 -0.4023
 8901SOL    HW138162   1.731   1.819  10.797  1.5380 -0.0227 -3.3272
 8901SOL    HW238163   1.649   1.711  10.737 -5.2122 -1.2480  1.2208
 8902SOL     OW38164   0.006   4.128   8.076 -0.1493 -0.5132  0.2204
 8902SOL    HW138165   0.053   4.211   8.083  1.5683 -1.7535  3.2947
 8902SOL    HW238166   4.641   4.151   8.046  0.7504  0.7637 -1.4134
 8903SOL     OW38167   1.317   1.567  10.175 -0.5688  0.2305 -0.3448
 8903SOL    HW138168   1.320   1.476  10.147  0.6974 -0.0588  0.7078
 8903SOL    HW238169   1.302   1.540  10.266 -0.9314  2.7384  0.3388
 8904SOL     OW38170   4.312   1.534  15.669 -0.3977  0.2837  0.1196
 8904SOL    HW138171   4.268   1.617  15.687  0.4591  0.6059  0.7517
 8904SOL    HW238172   4.384   1.529  15.733 -1.0071 -2.0040  0.5977
 8905SOL     OW38173   0.066   0.345  16.257  0.4575 -0.1441 -0.6415
 8905SOL    HW138174   0.114   0.273  16.298 -0.3381 -0.9318 -1.0923
 8905SOL    HW238175   0.142   0.401  16.247 -0.6686  1.4932 -0.0430
 8906SOL     OW38176   3.019   0.807   7.746  0.1268 -0.2021  0.4766
 8906SOL    HW138177   3.095   0.854   7.780  1.9869 -2.0883 -1.0711
 8906SOL    HW238178   2.964   0.880   7.717  0.1886 -0.3801 -0.0978
 8907SOL     OW38179   4.317   2.500   1.477  0.1622 -0.6085 -0.0481
 8907SOL    HW138180   4.285   2.419   1.517  0.8607 -0.2998  1.1374
 8907SOL    HW238181   4.407   2.497   1.510  0.1920  0.6269 -0.0097
 8908SOL     OW38182   0.667   1.965  15.820 -0.5357 -0.0307  0.1900
 8908SOL    HW138183   0.584   2.009  15.838 -0.5042 -0.2656  0.9087
 8908SOL    HW238184   0.721   2.035  15.782  1.3521 -0.2844  2.3986
 8909SOL     OW38185   2.260   0.958   3.064  0.6481 -0.0942  0.4769
 8909SOL    HW138186   2.303   0.947   2.979 -1.5934 -0.8465 -0.5473
 8909SOL    HW238187   2.317   0.907   3.122 -0.5765 -1.8985  0.1093
 8910SOL     OW38188   1.635   3.103  10.059 -0.4000  0.3734  0.2029
 8910SOL    HW138189   1.586   3.178  10.090 -0.3440  0.8434 -0.8631
 8910SOL    HW238190   1.594   3.027  10.101  1.0123  0.7294  2.2159
 8911SOL     OW38191   0.871   1.966  17.493 -0.1203 -0.5308 -0.4764
 8911SOL    HW138192   0.791   1.915  17.485 -0.5889  0.3602 -1.5434
 8911SOL    HW238193   0.871   1.982  17.587  0.1426 -0.0175 -0.5650
 8912SOL     OW38194   2.360   3.113  12.462 -0.0052 -0.6007  0.1582
 8912SOL    HW138195   2.369   3.136  12.555  2.5168 -1.7915  0.1917
 8912SOL    HW238196   2.412   3.185  12.427 -1.3509  0.6991  0.8519
 8913SOL     OW38197   2.710   4.225   6.961 -0.4240 -0.8250 -0.1609
 8913SOL    HW138198   2.792   4.182   6.984  0.0862  1.2367  1.9241
 8913SOL    HW238199   2.727   4.310   7.001 -0.6694 -0.0425 -1.7063
 8914SOL     OW38200   3.806   2.137  12.414  0.0768 -0.3385  0.9289
 8914SOL    HW138201   3.837   2.146  12.503  0.0214  1.0872  0.7977
 8914SOL    HW238202   3.755   2.216  12.397  0.9031  0.4763  2.2593
 8915SOL     OW38203   3.552   0.168   3.992 -0.3327 -0.4528  0.0687
 8915SOL    HW138204   3.533   0.165   3.898 -0.4414  2.6898 -0.0009
 8915SOL    HW238205   3.496   0.096   4.022 -1.4297  0.7485  0.9138
 8916SOL     OW38206   1.267   0.187   9.560  0.2131 -0.0883 -0.1139
 8916SOL    HW138207   1.239   0.120   9.622  0.4164 -0.4925 -0.4656
 8916SOL    HW238208   1.256   0.147   9.475  2.2117  2.0947 -1.4081
 8917SOL     OW38209   0.810   4.490   9.116 -0.1653  0.9246 -0.0693
 8917SOL    HW138210   0.895   4.473   9.156  0.4338  2.4905 -0.6985
 8917SOL    HW238211   0.800   4.585   9.116 -1.3905  0.8043  0.8007
 8918SOL     OW38212   4.442   2.112   6.261  0.0235  0.7437  0.3737
 8918SOL    HW138213   4.403   2.054   6.326 -0.1799 -1.0528 -1.3223
 8918SOL    HW238214   4.513   2.055   6.232  0.0750 -0.6004  3.1892
 8919SOL     OW38215   2.113   3.531  15.333  0.7164  0.1595 -0.2897
 8919SOL    HW138216   2.160   3.609  15.361  2.5227 -0.9635 -0.1716
 8919SOL    HW238217   2.128   3.522  15.238  1.8285  1.9770 -0.2819
 8920SOL     OW38218   4.108   3.981   9.004 -0.1443  0.3423 -0.7839
 8920SOL    HW138219   4.194   3.950   9.032 -1.6335 -2.5699  0.5940
 8920SOL    HW238220   4.070   3.926   8.935  0.4224 -2.2459  0.9560
 8921SOL     OW38221   2.043   0.716   7.183 -0.6906  0.1168  0.7060
 8921SOL    HW138222   1.975   0.667   7.137 -0.2112 -0.8032  0.9700
 8921SOL    HW238223   1.993   0.770   7.244 -0.9438 -0.6860  1.2007
 8922SOL     OW38224   0.098   0.248   6.031 -0.1959  0.0675 -0.3482
 8922SOL    HW138225   0.045   0.182   6.076 -0.9405  0.4209 -0.7094
 8922SOL    HW238226   0.087   0.214   5.943  2.1994  1.3307 -1.1421
 8923SOL     OW38227   0.210   3.934   8.243 -0.0649  0.4123 -1.0880
 8923SOL    HW138228   0.196   4.025   8.217  1.8337  1.1980  0.6635
 8923SOL    HW238229   0.176   3.929   8.333 -0.3132  0.4477 -1.1788
 8924SOL     OW38230   3.864   2.451   6.840 -0.0824 -0.3646  0.2188
 8924SOL    HW138231   3.831   2.535   6.873 -2.3470 -0.7960 -0.8835
 8924SOL    HW238232   3.952   2.483   6.821  0.1130 -2.1588 -1.8861
 8925SOL     OW38233   1.475   1.188   2.702  0.1882 -0.0225  0.6041
 8925SOL    HW138234   1.432   1.104   2.715  1.4119 -0.2396  3.2062
 8925SOL    HW238235   1.427   1.239   2.767 -3.0391 -2.6172  0.2575
 8926SOL     OW38236   2.291   3.727  15.337 -0.1733  0.0519  0.1211
 8926SOL    HW138237   2.287   3.781  15.258 -0.3730  1.9426  1.4390
 8926SOL    HW238238   2.296   3.789  15.410  0.0074  2.7113 -2.1608
 8927SOL     OW38239   1.988   2.826   5.668  0.6539  0.2551 -0.5320
 8927SOL    HW138240   1.966   2.790   5.754  1.1711 -0.2097 -0.5895
 8927SOL    HW238241   1.902   2.865   5.655 -0.0638 -0.8142  1.0414
 8928SOL     OW38242   2.943   2.494   4.532 -0.5401 -0.1260 -0.3010
 8928SOL    HW138243   2.858   2.522   4.500 -0.4686 -0.5709 -0.8775
 8928SOL    HW238244   2.918   2.466   4.620 -0.0044  0.3605  0.0106
 8929SOL     OW38245   3.371   0.018   3.219 -0.1789 -0.8385  1.2710
 8929SOL    HW138246   3.458   0.029   3.181  0.1024  0.5318  2.3160
 8929SOL    HW238247   3.313   0.015   3.143 -1.6310 -0.0011  2.3335
 8930SOL     OW38248   1.879   0.560   2.751 -0.4282  0.0647  0.3996
 8930SOL    HW138249   1.798   0.509   2.740 -0.8686  0.5449  1.4560
 8930SOL    HW238250   1.872   0.632   2.688  2.3101  2.3032  2.6863
 8931SOL     OW38251   1.289   4.591   8.163  0.0461 -0.1034 -0.0483
 8931SOL    HW138252   1.376   4.552   8.168  0.6924  0.8872 -3.4525
 8931SOL    HW238253   1.278   4.626   8.252  0.2723  0.1947 -0.1394
 8932SOL     OW38254   4.267   3.700  14.803  0.1281 -0.5959 -0.1104
 8932SOL    HW138255   4.362   3.710  14.797  0.0677 -0.9277 -1.6569
 8932SOL    HW238256   4.257   3.707  14.898  0.0118  2.5172 -0.3319
 8933SOL     OW38257   3.332   3.936   6.774 -0.0104 -0.2848  0.1937
 8933SOL    HW138258   3.427   3.925   6.779 -0.1182 -1.8849 -1.2191
 8933SOL    HW238259   3.303   3.847   6.758  1.3170 -0.5017 -0.9949
 8934SOL     OW38260   2.840   1.026  11.507 -0.1590 -0.1901 -0.5757
 8934SOL    HW138261   2.815   1.106  11.554 -0.5309  0.7612 -2.4130
 8934SOL    HW238262   2.865   1.060  11.422  0.2775  1.2966  0.1373
 8935SOL     OW38263   3.916   4.403   3.000  0.4002  0.0406  0.2994
 8935SOL    HW138264   3.922   4.495   2.973 -1.1727  0.3076  0.8373
 8935SOL    HW238265   3.972   4.399   3.078  0.6074 -0.0240  0.1476
 8936SOL     OW38266   1.420   1.389  16.623 -0.4279 -0.0313 -0.0264
 8936SOL    HW138267   1.380   1.342  16.550  0.2210 -2.4597  1.1435
 8936SOL    HW238268   1.339   1.420  16.664 -1.4247 -2.0236 -0.4528
 8937SOL     OW38269   3.543   0.380   6.013  0.4013  0.5013  0.5449
 8937SOL    HW138270   3.475   0.395   6.080  1.0989 -0.2930  1.4323
 8937SOL    HW238271   3.559   0.472   5.991  1.9372  0.1740  0.3173
 8938SOL     OW38272   2.460   2.455  16.879 -0.1333 -0.1536 -0.0870
 8938SOL    HW138273   2.393   2.396  16.913 -0.4831  0.7279  0.7555
 8938SOL    HW238274   2.468   2.429  16.787  2.6014  2.0038 -0.4519
 8939SOL     OW38275   3.114   1.427  17.271 -1.0379 -0.0251 -0.3092
 8939SOL    HW138276   3.132   1.430  17.365  0.6134 -0.0313 -0.6349
 8939SOL    HW238277   3.041   1.488  17.268 -2.2318 -1.4120  0.4569
 8940SOL     OW38278   3.519   1.612   8.019  0.8433 -0.0062 -0.0339
 8940SOL    HW138279   3.568   1.538   8.057  0.5974  1.0410  2.3413
 8940SOL    HW238280   3.532   1.674   8.091 -2.2216 -1.3336  1.6543
 8941SOL     OW38281   4.390   0.099  15.998 -0.3604 -0.1292  0.1305
 8941SOL    HW138282   4.305   0.083  15.957 -0.7685  1.4393  0.3420
 8941SOL    HW238283   4.436   0.075  15.918 -0.6482 -0.2698  0.0097
 8942SOL     OW38284   4.055   1.204  15.032  0.3144 -0.2952  0.9046
 8942SOL    HW138285   4.109   1.260  15.089 -0.1972  1.5722 -0.4310
 8942SOL    HW238286   4.075   1.120  15.072 -2.2087 -1.8087 -1.0461
 8943SOL     OW38287   3.848   0.306   1.734 -0.2104  0.5595 -0.6416
 8943SOL    HW138288   3.795   0.380   1.705  2.2723  2.7369  0.3520
 8943SOL    HW238289   3.788   0.235   1.711  1.9272 -1.2373 -0.6496
 8944SOL     OW38290   3.664   0.186   8.684  0.3666 -0.3076 -0.6647
 8944SOL    HW138291   3.614   0.260   8.719 -0.3908 -0.7669 -0.7832
 8944SOL    HW238292   3.598   0.121   8.707 -0.5706 -0.2049 -3.0730
 8945SOL     OW38293   0.087   3.462  14.350 -0.0877 -0.3943  0.5926
 8945SOL    HW138294   0.165   3.428  14.394  2.3592  1.9481 -1.9579
 8945SOL    HW238295   0.016   3.402  14.371 -0.6860  0.3616  0.7473
 8946SOL     OW38296   2.831   1.818  17.457 -0.1160  0.1168  0.5145
 8946SOL    HW138297   2.784   1.735  17.457 -0.8301  0.5223 -0.1053
 8946SOL    HW238298   2.780   1.863  17.390 -0.1237 -0.5425  0.0776
 8947SOL     OW38299   3.166   0.543   4.271  0.4616  0.8284  0.7207
 8947SOL    HW138300   3.126   0.594   4.200  1.2754  0.8917  0.3094
 8947SOL    HW238301   3.221   0.474   4.234  1.4525  1.2909  1.3208
 8948SOL     OW38302   4.287   0.155   5.806 -0.3171 -0.2311 -0.8827
 8948SOL    HW138303   4.284   0.240   5.762 -1.7637  0.2401  0.1481
 8948SOL    HW238304   4.248   0.163   5.892  1.9742 -2.2248  0.3471
 8949SOL     OW38305   2.776   1.019   4.141 -0.2320  0.1863  0.0018
 8949SOL    HW138306   2.782   0.928   4.171  0.6214  0.4571  0.6383
 8949SOL    HW238307   2.766   1.059   4.227 -1.4576 -0.2905  0.0835
 8950SOL     OW38308   2.413   3.071   6.705  0.2725 -0.1193 -0.4420
 8950SOL    HW138309   2.421   3.124   6.784 -0.1013  0.4951 -0.8160
 8950SOL    HW238310   2.378   3.134   6.641 -1.2344  1.9515  2.4103
 8951SOL     OW38311   0.512   4.218   4.457 -0.2996 -0.1235 -0.3093
 8951SOL    HW138312   0.497   4.309   4.432  0.2401  0.1870  0.5260
 8951SOL    HW238313   0.496   4.171   4.375 -1.4037 -1.4787  0.6761
 8952SOL     OW38314   2.459   2.289  10.963 -0.4176  0.1006 -0.4789
 8952SOL    HW138315   2.370   2.264  10.938  0.0502 -0.9971 -1.0528
 8952SOL    HW238316   2.506   2.212  10.932 -0.9891 -0.0232 -1.0271
 8953SOL     OW38317   4.356   0.427  16.369  0.3521  0.3178 -0.0796
 8953SOL    HW138318   4.423   0.459  16.309  0.3614  0.6487  0.1031
 8953SOL    HW238319   4.307   0.372  16.309 -1.4398 -0.0244  1.6894
 8954SOL     OW38320   0.124   1.915  17.356 -0.4838  0.4964  0.5753
 8954SOL    HW138321   0.112   1.856  17.430 -0.4881  0.7956  0.8127
 8954SOL    HW238322   0.205   1.958  17.384  0.6529 -0.2674 -1.5722
 8955SOL     OW38323   2.837   2.603   1.504  0.0260  0.5257 -0.0192
 8955SOL    HW138324   2.914   2.603   1.562 -1.6684 -0.4840  2.2029
 8955SOL    HW238325   2.832   2.510   1.482  4.3432 -0.3536  2.5312
 8956SOL     OW38326   3.718   4.045   3.915  0.6180 -0.4552  0.1114
 8956SOL    HW138327   3.637   4.073   3.959  0.9779  1.9950 -0.8011
 8956SOL    HW238328   3.758   4.130   3.897 -1.8701  0.5804 -0.6203
 8957SOL     OW38329   2.023   3.473   5.769  0.3336  0.1342  0.5691
 8957SOL    HW138330   2.065   3.549   5.729  0.3224  0.4826  1.2152
 8957SOL    HW238331   2.072   3.470   5.852  1.4122 -0.4283 -0.0899
 8958SOL     OW38332   0.723   4.151  16.888 -0.2294 -0.1433  0.3599
 8958SOL    HW138333   0.661   4.097  16.839 -3.1268  3.5876 -0.0190
 8958SOL    HW238334   0.659   4.203  16.936 -1.4325 -0.9604 -0.3659
 8959SOL     OW38335   2.261   1.587   5.602 -0.2840 -0.3463 -0.7835
 8959SOL    HW138336   2.243   1.680   5.585 -2.7549 -0.7616 -0.4691
 8959SOL    HW238337   2.225   1.551   5.522 -0.6310 -1.0350 -0.3102
 8960SOL     OW38338   3.906   0.541   5.669  0.5731  0.1497 -0.1743
 8960SOL    HW138339   3.876   0.620   5.625  1.8846  0.7071 -0.0561
 8960SOL    HW238340   3.969   0.510   5.604  1.1121  0.6065  0.1364
 8961SOL     OW38341   0.698   1.342   8.001  0.3917  0.1319  0.1515
 8961SOL    HW138342   0.741   1.407   8.057  1.6138  0.1425 -0.7872
 8961SOL    HW238343   0.778   1.308   7.960  1.5286  1.1438  1.5440
 8962SOL     OW38344   3.358   0.781   6.460 -0.2818 -0.2244  0.3280
 8962SOL    HW138345   3.289   0.748   6.518 -0.7058  0.0666 -0.0056
 8962SOL    HW238346   3.326   0.872   6.454  0.1143  0.0996  3.2205
 8963SOL     OW38347   3.516   1.950   7.980 -0.4847 -0.4444  0.1684
 8963SOL    HW138348   3.543   1.878   8.038  0.9852  1.0949  1.3869
 8963SOL    HW238349   3.585   2.016   7.977 -1.4717  0.5667 -0.3481
 8964SOL     OW38350   3.758   3.172   8.887 -0.0091 -1.0037 -0.6715
 8964SOL    HW138351   3.676   3.127   8.909  0.2290 -0.9185  0.3912
 8964SOL    HW238352   3.782   3.211   8.971 -3.0785 -0.8276  0.1302
 8965SOL     OW38353   0.420   2.557   1.293  0.1073 -0.3183 -0.5642
 8965SOL    HW138354   0.426   2.576   1.199  0.5304  0.2051 -0.4295
 8965SOL    HW238355   0.403   2.465   1.275  0.4384 -0.6594  0.8627
 8966SOL     OW38356   0.770   1.302  14.813 -0.3508  0.2830  0.0233
 8966SOL    HW138357   0.741   1.387  14.780  0.5189  0.6170  0.1183
 8966SOL    HW238358   0.750   1.241  14.743 -0.1623  0.0180  0.1989
 8967SOL     OW38359   0.958   0.217   3.235  0.1138 -0.0027 -0.0257
 8967SOL    HW138360   0.980   0.150   3.170 -3.0345 -1.1339  0.0541
 8967SOL    HW238361   1.001   0.176   3.310 -3.5533  0.5995  2.3872
 8968SOL     OW38362   0.797   3.330   3.093 -0.0121 -0.6490  0.1790
 8968SOL    HW138363   0.871   3.273   3.117  0.3162 -0.2101  0.2043
 8968SOL    HW238364   0.798   3.403   3.154  1.8691  1.7269 -2.6657
 8969SOL     OW38365   1.916   4.442  11.890  0.0076 -0.4656 -0.4093
 8969SOL    HW138366   1.958   4.528  11.888  0.6563 -0.6725  3.5479
 8969SOL    HW238367   1.991   4.394  11.924 -0.4971  1.0533  2.8453
 8970SOL     OW38368   0.707   1.076   7.804 -0.2617 -0.1838  0.5768
 8970SOL    HW138369   0.679   1.164   7.833 -1.1827 -0.1922 -0.2842
 8970SOL    HW238370   0.671   1.082   7.716 -0.3391 -1.9758  0.4885
 8971SOL     OW38371   3.662   3.262   0.061  0.2994 -0.6422  0.3004
 8971SOL    HW138372   3.721   3.245   0.134  1.7093 -1.8383 -1.1119
 8971SOL    HW238373   3.579   3.236   0.099  0.1550  1.5020  1.4253
 8972SOL     OW38374   2.910   2.136   2.927  0.3791  0.5369 -0.2343
 8972SOL    HW138375   2.872   2.049   2.915 -1.9836  1.0881  3.4483
 8972SOL    HW238376   2.944   2.137   3.016 -0.2834 -0.3130  0.0279
 8973SOL     OW38377   4.277   2.386  12.889 -0.5746 -0.1911  0.1508
 8973SOL    HW138378   4.233   2.466  12.919  1.6379  0.2046  2.3853
 8973SOL    HW238379   4.301   2.348  12.974 -0.0271  0.3672  0.2532
 8974SOL     OW38380   3.882   3.826  17.571 -0.1595 -0.0198  0.0325
 8974SOL    HW138381   3.795   3.857  17.597 -0.4710  0.4854 -1.6185
 8974SOL    HW238382   3.867   3.788  17.484 -1.0534  0.8494 -0.1949
 8975SOL     OW38383   2.125   0.003   2.362  0.3041 -0.5348 -0.3164
 8975SOL    HW138384   2.116   4.632   2.344  1.1206 -0.5039 -0.9211
 8975SOL    HW238385   2.220   0.015   2.371  0.0992  1.1804 -0.5337
 8976SOL     OW38386   3.645   3.905   4.300 -0.0000 -0.7607 -0.2355
 8976SOL    HW138387   3.613   3.838   4.360  0.9893 -0.2416  0.8474
 8976SOL    HW238388   3.584   3.899   4.226 -1.6403  0.5629  1.0227
 8977SOL     OW38389   4.192   2.667   4.405  0.0315  0.0128  0.1973
 8977SOL    HW138390   4.142   2.598   4.363  0.0967  0.0468  0.0625
 8977SOL    HW238391   4.244   2.615   4.466 -1.2460  0.4911  1.6748
 8978SOL     OW38392   4.200   0.120  15.791  0.8697 -0.2005  0.2388
 8978SOL    HW138393   4.141   0.175  15.739  1.0847  1.6322  1.9450
 8978SOL    HW238394   4.264   0.088  15.727 -0.3136 -0.1483 -0.9548
 8979SOL     OW38395   2.315   3.572   3.617  0.1895 -0.3689 -0.2679
 8979SOL    HW138396   2.386   3.574   3.553  0.6568  0.1297  0.2533
 8979SOL    HW238397   2.353   3.622   3.689 -3.5394  0.2604  1.2648
 8980SOL     OW38398   3.531   3.212   8.636  0.2272  0.2641 -0.1470
 8980SOL    HW138399   3.539   3.273   8.709 -0.4966 -0.5187  0.5948
 8980SOL    HW238400   3.471   3.254   8.575 -0.5462 -0.3791  0.1741
 8981SOL     OW38401   1.365   4.014   6.897 -0.1612  0.8733 -0.1721
 8981SOL    HW138402   1.360   3.977   6.985  1.2802  3.1104  0.8798
 8981SOL    HW238403   1.452   4.055   6.895  0.0033  0.5181 -0.2150
 8982SOL     OW38404   1.763   2.617   6.456 -0.2200  0.3180 -0.0612
 8982SOL    HW138405   1.846   2.576   6.481 -1.2868 -2.4028 -0.9313
 8982SOL    HW238406   1.729   2.657   6.536  0.7179 -0.3144  0.6555
 8983SOL     OW38407   0.106   3.182   2.615  0.0929 -0.2532  0.1468
 8983SOL    HW138408   0.140   3.192   2.704  2.1127  2.4440 -0.9373
 8983SOL    HW238409   0.017   3.212   2.634  0.9362  0.8937  2.1920
 8984SOL     OW38410   1.537   0.332  12.430  0.6775 -0.2711 -0.2155
 8984SOL    HW138411   1.513   0.376  12.348 -0.5970  0.2111  0.4090
 8984SOL    HW238412   1.460   0.347  12.485 -0.1384  1.7749 -1.9114
 8985SOL     OW38413   0.330   0.490   0.547 -0.1805 -0.4048 -0.3724
 8985SOL    HW138414   0.299   0.511   0.635 -1.3115  1.8867 -1.3056
 8985SOL    HW238415   0.379   0.568   0.521 -0.8683 -0.0379 -0.5913
 8986SOL     OW38416   0.810   4.036   6.579 -0.5752  0.2516  0.0830
 8986SOL    HW138417   0.889   4.081   6.548 -2.1777  0.4923 -3.6522
 8986SOL    HW238418   0.849   3.949   6.567  1.7753  1.4971 -1.3539
 8987SOL     OW38419   1.141   1.482  15.488  0.2965 -0.1152  0.3553
 8987SOL    HW138420   1.215   1.542  15.504  1.6278 -0.9498 -2.5817
 8987SOL    HW238421   1.179   1.431  15.416  0.8894 -0.6754  1.0729
 8988SOL     OW38422   3.842   4.306   4.726  0.0347  0.1665  0.3979
 8988SOL    HW138423   3.892   4.318   4.645 -0.3058  0.0769  0.1721
 8988SOL    HW238424   3.913   4.300   4.789  0.5610  1.7737 -0.0513
 8989SOL     OW38425   4.548   4.050  11.666  0.1630  0.4214  0.0881
 8989SOL    HW138426   4.532   4.035  11.760 -1.3355  0.6361 -0.1318
 8989SOL    HW238427   4.487   4.117  11.636  0.8191  1.8240  1.8586
 8990SOL     OW38428   1.008   0.454  12.820  0.1647 -0.0705  0.1593
 8990SOL    HW138429   0.944   0.494  12.761 -0.1600  1.0204  1.2634
 8990SOL    HW238430   1.045   0.535  12.854 -0.5522  0.8659 -1.3096
 8991SOL     OW38431   0.698   2.877  14.011  0.1170  0.3719  0.0418
 8991SOL    HW138432   0.656   2.797  13.982  0.9354  0.9538 -2.8031
 8991SOL    HW238433   0.729   2.909  13.926 -1.5168  1.2330 -0.2190
 8992SOL     OW38434   1.786   2.242   5.556  0.4827 -0.9877 -0.1001
 8992SOL    HW138435   1.718   2.220   5.491 -1.8182  2.2985  1.2129
 8992SOL    HW238436   1.819   2.323   5.518 -0.8483  0.4012  1.7021
 8993SOL     OW38437   3.693   2.636   1.007  0.0372  0.2414 -0.3907
 8993SOL    HW138438   3.770   2.665   0.959 -0.3400  1.2613 -0.3796
 8993SOL    HW238439   3.629   2.642   0.936  0.6177 -0.1701 -0.9363
 8994SOL     OW38440   0.267   4.193  11.081  0.3433  0.6479 -0.0020
 8994SOL    HW138441   0.219   4.199  11.164 -0.1109 -3.5653  0.0155
 8994SOL    HW238442   0.316   4.111  11.087  1.2739  1.0464 -2.5132
 8995SOL     OW38443   1.619   0.073   5.224  0.4909 -0.0745  0.1548
 8995SOL    HW138444   1.686   0.112   5.169 -0.0163  0.6571  0.0533
 8995SOL    HW238445   1.612   4.712   5.178 -0.5540 -0.4074  0.8893
 8996SOL     OW38446   2.734   4.254   3.740  0.1270 -0.0300  0.3248
 8996SOL    HW138447   2.722   4.327   3.801 -2.7329  0.9635 -1.4118
 8996SOL    HW238448   2.664   4.200   3.775 -2.2871  2.1478 -1.0971
 8997SOL     OW38449   2.907   2.797   1.321 -0.0812 -0.1907  0.6215
 8997SOL    HW138450   2.875   2.721   1.371 -0.4765  0.5587  1.5174
 8997SOL    HW238451   2.896   2.774   1.229 -0.8942 -1.0011  0.9095
 8998SOL     OW38452   1.875   1.248  15.173 -0.3334 -0.6098 -0.0317
 8998SOL    HW138453   1.907   1.158  15.182  1.4014  0.0749  0.7065
 8998SOL    HW238454   1.824   1.237  15.092 -4.0348  0.9615  2.1232
 8999SOL     OW38455   4.131   4.265   4.696  0.3194 -0.0901  0.0026
 8999SOL    HW138456   4.187   4.300   4.765 -0.0021  2.5478 -1.0566
 8999SOL    HW238457   4.121   4.335   4.631  0.2342 -1.3258 -1.3158
 9000SOL     OW38458   0.963   0.138  16.875 -0.0588 -0.1588  0.5356
 9000SOL    HW138459   1.038   0.124  16.816 -1.0587  0.9300 -1.0032
 9000SOL    HW238460   0.982   0.098  16.959  1.4444  0.8535  0.6769
 9001SOL     OW38461   4.219   2.817   7.460  0.0565  0.3402  0.4650
 9001SOL    HW138462   4.136   2.816   7.412 -0.6967  3.3419  1.6626
 9001SOL    HW238463   4.277   2.873   7.408  1.2767 -1.9371 -0.6320
 9002SOL     OW38464   2.769   4.556   0.444  0.1046  0.2774  0.0893
 9002SOL    HW138465   2.853   4.545   0.487  1.0795  0.3028 -1.7913
 9002SOL    HW238466   2.799   4.545   0.354  0.7027  2.6589  0.0015
 9003SOL     OW38467   4.541   4.063   8.443  0.1435  0.0000  0.3899
 9003SOL    HW138468   4.583   4.139   8.401  0.9618 -0.5243  0.2521
 9003SOL    HW238469   4.496   4.107   8.515 -0.4038 -0.8927  0.5818
 9004SOL     OW38470   2.422   3.893   7.401  0.3684 -0.4906 -0.5013
 9004SOL    HW138471   2.422   3.968   7.460  0.6538 -0.7816 -0.1295
 9004SOL    HW238472   2.429   3.822   7.466  1.3319 -0.7626 -0.9069
 9005SOL     OW38473   3.303   1.582   7.346  0.1426  0.4957 -0.5588
 9005SOL    HW138474   3.274   1.633   7.271  0.8468  1.8752  0.0955
 9005SOL    HW238475   3.390   1.614   7.372  0.5208 -2.1795  1.5693
 9006SOL     OW38476   2.154   1.721  15.592 -0.1882 -0.2459  0.2178
 9006SOL    HW138477   2.061   1.715  15.568  0.1179 -1.8534 -0.6071
 9006SOL    HW238478   2.156   1.641  15.645 -1.5791 -0.8720 -0.6525
 9007SOL     OW38479   1.032   0.516   5.745 -0.2995 -0.2341 -0.0265
 9007SOL    HW138480   1.125   0.505   5.763  0.1205  2.0208 -0.7734
 9007SOL    HW238481   1.042   0.562   5.661  0.0221  1.4815  0.9468
 9008SOL     OW38482   2.483   3.221   5.476 -0.3818  0.0357 -0.2373
 9008SOL    HW138483   2.409   3.171   5.442  0.0878 -1.2985  0.7112
 9008SOL    HW238484   2.451   3.308   5.450 -0.9070  0.0404  0.4456
 9009SOL     OW38485   1.154   4.340   7.095  0.0475 -0.0594  0.0484
 9009SOL    HW138486   1.072   4.372   7.132 -0.2417 -0.2119 -0.4568
 9009SOL    HW238487   1.214   4.363   7.166  1.4193  0.6676 -1.3530
 9010SOL     OW38488   2.558   2.908  13.753  0.1552  0.1335 -0.0113
 9010SOL    HW138489   2.623   2.918  13.823 -1.6881  3.0864  1.3149
 9010SOL    HW238490   2.619   2.902  13.680 -1.1478  2.7211 -1.3074
 9011SOL     OW38491   2.824   3.971  12.150 -0.1122 -0.6511  0.0916
 9011SOL    HW138492   2.838   3.878  12.131  0.9512 -0.3937 -0.3745
 9011SOL    HW238493   2.783   4.002  12.069 -0.4701 -1.7794 -0.1603
 9012SOL     OW38494   4.221   0.986   9.881  0.1712  0.2551 -0.4953
 9012SOL    HW138495   4.162   1.022   9.815 -0.2046 -0.4339 -0.5365
 9012SOL    HW238496   4.258   1.058   9.932 -1.8934 -1.2319  3.0672
 9013SOL     OW38497   2.162   4.238  10.489  0.0559  0.3703  0.2286
 9013SOL    HW138498   2.112   4.171  10.442  0.6767 -0.4690  0.7723
 9013SOL    HW238499   2.201   4.284  10.414  1.3195  0.9828  1.2581
 9014SOL     OW38500   2.842   0.503   6.687  0.7721  0.3735  0.3368
 9014SOL    HW138501   2.934   0.482   6.670  0.8789  0.1976  1.0982
 9014SOL    HW238502   2.851   0.550   6.771  0.0116  1.0261  0.0523
 9015SOL     OW38503   2.289   4.346  10.250  0.3307 -0.0967  0.3299
 9015SOL    HW138504   2.304   4.291  10.172  0.3270  0.7308 -0.2498
 9015SOL    HW238505   2.360   4.405  10.225 -2.0865  2.5123 -0.3255
 9016SOL     OW38506   1.115   1.909   5.728 -0.3874 -0.7221 -0.0949
 9016SOL    HW138507   1.132   2.003   5.735 -0.3178 -0.7879  0.5455
 9016SOL    HW238508   1.172   1.883   5.655  0.2405  1.1465 -0.2694
 9017SOL     OW38509   0.018   3.265  11.371 -0.1242  0.5427  0.2057
 9017SOL    HW138510   4.670   3.300  11.317 -0.9417 -0.6639  0.4996
 9017SOL    HW238511   0.041   3.344  11.420  1.3020 -0.5318  1.2439
 9018SOL     OW38512   4.445   0.201   3.124  0.6821  0.2441 -0.1735
 9018SOL    HW138513   4.361   0.170   3.158 -0.1432  0.3480 -2.1109
 9018SOL    HW238514   4.470   0.120   3.080  1.9416  1.0065 -0.8589
 9019SOL     OW38515   0.122   0.563   7.363 -0.2480 -0.2200 -0.4260
 9019SOL    HW138516   0.041   0.517   7.340 -0.8434  0.0701  1.0928
 9019SOL    HW238517   0.094   0.628   7.427  2.9606 -0.4649  1.2314
 9020SOL     OW38518   2.705   0.885   3.476 -0.3492  0.3718  0.4025
 9020SOL    HW138519   2.728   0.971   3.440 -3.6074  1.0595 -0.0220
 9020SOL    HW238520   2.658   0.906   3.557  0.3998  1.6475  0.5118
 9021SOL     OW38521   3.978   1.289   2.718  0.1155 -0.6047  0.4260
 9021SOL    HW138522   3.902   1.341   2.744  1.7059  1.6928  0.4721
 9021SOL    HW238523   3.966   1.203   2.757  1.2485 -0.4023  1.2223
 9022SOL     OW38524   2.828   2.677   7.210  0.1131  0.2785  0.0227
 9022SOL    HW138525   2.766   2.736   7.252 -2.2888 -2.0717 -0.1957
 9022SOL    HW238526   2.907   2.730   7.203  0.6898 -0.5853 -0.0007
 9023SOL     OW38527   2.366   0.544  15.540  0.2892 -0.2783 -0.3977
 9023SOL    HW138528   2.433   0.483  15.508 -1.7284 -1.3439 -2.5591
 9023SOL    HW238529   2.321   0.561  15.457 -0.6726 -0.2445  0.1368
 9024SOL     OW38530   0.915   4.287  15.480 -0.6931 -0.4755 -0.2118
 9024SOL    HW138531   0.851   4.319  15.415  0.5554 -0.1427 -1.2751
 9024SOL    HW238532   0.957   4.371  15.496 -1.8561  0.4336 -1.9141
 9025SOL     OW38533   4.178   1.853   6.852  0.0641  0.0935  0.2134
 9025SOL    HW138534   4.171   1.818   6.763  0.3902  0.4901  0.0333
 9025SOL    HW238535   4.268   1.886   6.853  0.7515 -1.7899  1.6728
 9026SOL     OW38536   0.922   2.099   9.282 -0.0528  0.0635  1.0212
 9026SOL    HW138537   0.863   2.173   9.281 -0.5607 -0.3369  1.3287
 9026SOL    HW238538   0.891   2.055   9.361 -0.8085  0.3742  0.8897
 9027SOL     OW38539   4.038   0.746   6.162 -0.0860  0.6471  0.7788
 9027SOL    HW138540   4.060   0.703   6.079 -1.5078  1.6722 -0.1235
 9027SOL    HW238541   3.946   0.717   6.167 -0.4134  1.1711 -2.0087
 9028SOL     OW38542   1.749   3.422   5.747  0.1029 -0.1558  0.0650
 9028SOL    HW138543   1.840   3.393   5.749  0.4022  0.7673 -0.4088
 9028SOL    HW238544   1.718   3.377   5.826 -1.2974 -0.8526 -0.8577
 9029SOL     OW38545   2.865   0.004  14.556  0.5946 -0.6099  0.0270
 9029SOL    HW138546   2.880   0.099  14.555  0.5398 -0.6062 -0.9014
 9029SOL    HW238547   2.956   4.702  14.541  0.8032 -0.5457  1.2340
 9030SOL     OW38548   3.618   1.149  12.692  0.0661  0.1575 -0.0502
 9030SOL    HW138549   3.692   1.115  12.641  2.4374  0.9807  2.8111
 9030SOL    HW238550   3.667   1.171  12.771  2.4040 -0.6382 -1.2602
 9031SOL     OW38551   1.361   3.278   6.948  0.0509  0.1189  0.6123
 9031SOL    HW138552   1.331   3.277   7.039  1.5992  2.2282  1.1299
 9031SOL    HW238553   1.444   3.323   6.960 -0.6386  1.2883  0.9659
 9032SOL     OW38554   1.095   4.626   0.177 -0.9044 -0.0219  0.3816
 9032SOL    HW138555   1.144   4.691   0.127  2.7119 -2.1270  1.1413
 9032SOL    HW238556   1.160   4.563   0.210  1.5077  2.1606 -0.2164
 9033SOL     OW38557   1.645   2.044   1.485  0.3442 -0.0129 -0.3826
 9033SOL    HW138558   1.643   2.098   1.564  0.4462 -0.0236 -0.3725
 9033SOL    HW238559   1.664   2.110   1.419  0.3310  1.4811  1.0928
 9034SOL     OW38560   3.272   2.000   2.258 -0.1895  0.0764  0.3670
 9034SOL    HW138561   3.322   2.056   2.198  1.7004 -0.7040  1.2077
 9034SOL    HW238562   3.328   2.008   2.336 -0.3994  0.4970  0.4773
 9035SOL     OW38563   2.636   3.425   2.093  0.1844  0.5223  1.1287
 9035SOL    HW138564   2.596   3.386   2.015 -1.6894  2.2227  1.2454
 9035SOL    HW238565   2.617   3.517   2.075  2.1744  0.8643  0.6686
 9036SOL     OW38566   2.416   1.125   9.949  0.6881 -0.1600 -0.4509
 9036SOL    HW138567   2.508   1.107   9.928  1.3078  1.3325  0.9899
 9036SOL    HW238568   2.406   1.132  10.044  0.7232 -0.2818 -0.4382
 9037SOL     OW38569   3.789   2.793  16.505  0.0140 -0.6692  0.0879
 9037SOL    HW138570   3.720   2.776  16.570  2.2678  2.3071  3.2845
 9037SOL    HW238571   3.803   2.886  16.520  1.5349 -0.3551 -3.3234
 9038SOL     OW38572   4.345   2.247   4.063  0.1181  0.1066  0.1976
 9038SOL    HW138573   4.403   2.264   3.989 -0.5328 -1.1482 -0.6128
 9038SOL    HW238574   4.264   2.235   4.013 -0.6602 -1.4183  1.8054
 9039SOL     OW38575   2.418   2.128   4.990 -0.2981 -0.4539  0.7969
 9039SOL    HW138576   2.354   2.197   5.003  1.9536  1.6206  0.9171
 9039SOL    HW238577   2.492   2.185   4.968  0.4756 -1.2716  1.2730
 9040SOL     OW38578   0.384   3.582   8.799  0.5532  0.5214  0.3951
 9040SOL    HW138579   0.458   3.590   8.738  0.2882 -0.1446 -0.0213
 9040SOL    HW238580   0.389   3.670   8.835  0.8982  0.8882 -0.5469
 9041SOL     OW38581   2.969   3.013   4.674 -0.2308  0.3204 -0.4142
 9041SOL    HW138582   3.005   2.987   4.758 -0.5344 -0.8320 -0.6366
 9041SOL    HW238583   3.000   3.103   4.671  0.3135  0.1589  0.2985
 9042SOL     OW38584   3.113   0.334  15.467 -0.6399  0.1763  0.2583
 9042SOL    HW138585   3.200   0.374  15.455 -1.1030  0.5271 -1.8167
 9042SOL    HW238586   3.134   0.242  15.482  1.8859 -0.1653 -5.4902
 9043SOL     OW38587   2.415   1.816   2.747  0.0110  0.6403  0.4795
 9043SOL    HW138588   2.374   1.807   2.661  1.7961 -1.1392 -0.1770
 9043SOL    HW238589   2.501   1.781   2.724 -1.0063 -1.1532 -0.6076
 9044SOL     OW38590   0.772   2.513   4.525  0.1958 -0.6810 -0.4099
 9044SOL    HW138591   0.725   2.433   4.502  0.9295 -0.9517 -0.9843
 9044SOL    HW238592   0.751   2.518   4.618 -1.7005  0.3495 -0.8999
 9045SOL     OW38593   3.990   2.119  16.293 -0.1653  0.1820  0.0253
 9045SOL    HW138594   3.994   2.214  16.310 -1.3829 -0.1717  2.3058
 9045SOL    HW238595   4.084   2.101  16.304 -0.1142  0.2483 -0.3097
 9046SOL     OW38596   0.153   0.961   2.903 -0.2176 -0.5222 -0.2267
 9046SOL    HW138597   0.109   0.937   2.985  1.2514  2.2151  1.3650
 9046SOL    HW238598   0.234   0.999   2.938  0.3231 -0.5089 -1.5006
 9047SOL     OW38599   0.345   2.741  13.268  0.8305 -0.3489 -0.2035
 9047SOL    HW138600   0.343   2.673  13.201  3.4501  0.1517 -0.8233
 9047SOL    HW238601   0.356   2.699  13.353 -0.6818 -1.0904 -0.3782
 9048SOL     OW38602   0.802   2.414  11.242  0.3840 -0.0222  0.1802
 9048SOL    HW138603   0.870   2.365  11.195  0.0543 -1.4853  1.2363
 9048SOL    HW238604   0.826   2.503  11.214 -1.6494  0.7185  0.7504
 9049SOL     OW38605   1.496   4.574  11.958  0.3487 -0.2434  0.4339
 9049SOL    HW138606   1.561   4.641  11.977 -0.1558  0.6052 -0.9145
 9049SOL    HW238607   1.534   4.495  11.998 -0.2626 -1.0240 -0.5318
 9050SOL     OW38608   3.854   3.473  13.242  0.1518  0.6525  0.4513
 9050SOL    HW138609   3.816   3.545  13.191  0.4867  0.4093 -0.1350
 9050SOL    HW238610   3.785   3.408  13.237 -1.4488  2.4446 -0.8940
 9051SOL     OW38611   2.212   3.245   3.172  0.2365 -0.1270 -0.2023
 9051SOL    HW138612   2.164   3.284   3.099  1.5569  2.2421  0.1961
 9051SOL    HW238613   2.245   3.328   3.207  0.8612  0.4193 -2.0937
 9052SOL     OW38614   2.841   1.004   7.632  0.5477 -0.1094  0.4618
 9052SOL    HW138615   2.778   1.018   7.561  1.6615 -2.2894 -0.9676
 9052SOL    HW238616   2.788   0.936   7.675  2.5918  0.1343  3.3506
 9053SOL     OW38617   0.287   1.663   8.117  0.1111  0.1516  0.3693
 9053SOL    HW138618   0.382   1.675   8.121  0.3065 -1.7001  1.6712
 9053SOL    HW238619   0.261   1.694   8.031  0.5903 -0.9644 -0.1844
 9054SOL     OW38620   1.904   0.933   2.377 -0.0166  0.0525 -0.5797
 9054SOL    HW138621   1.920   0.946   2.284  0.5968 -0.1633 -0.5021
 9054SOL    HW238622   1.824   0.985   2.385 -0.3998 -0.5077 -0.8287
 9055SOL     OW38623   3.698   4.543   0.714  0.1501 -0.1985 -0.1888
 9055SOL    HW138624   3.607   4.540   0.684 -0.9269 -0.8794  3.1311
 9055SOL    HW238625   3.705   4.637   0.733  0.6600 -0.0685 -1.0273
 9056SOL     OW38626   1.265   0.562   4.465  0.4651 -0.8011  0.0003
 9056SOL    HW138627   1.267   0.566   4.369 -0.3208  0.2758  0.0317
 9056SOL    HW238628   1.207   0.486   4.468 -0.9082  0.2126 -0.6614
 9057SOL     OW38629   3.550   4.557  12.789  0.0144  0.0311  0.4466
 9057SOL    HW138630   3.544   4.480  12.733  1.4255 -2.1812  3.3321
 9057SOL    HW238631   3.459   4.565  12.819 -0.3971 -0.0274 -0.7846
 9058SOL     OW38632   2.551   0.003   0.161  0.2849  0.3002  0.2802
 9058SOL    HW138633   2.537   0.096   0.179  1.6577  0.5981 -0.2156
 9058SOL    HW238634   2.607   0.026   0.087  0.8983  2.0599  1.3032
 9059SOL     OW38635   1.076   4.543   2.619 -0.0954 -0.0593  0.3401
 9059SOL    HW138636   1.101   4.454   2.644 -0.5605 -0.6117 -1.1860
 9059SOL    HW238637   0.984   4.524   2.600 -0.0215 -0.2991  0.2145
 9060SOL     OW38638   0.584   4.264  14.825  0.3229 -0.1353  0.5470
 9060SOL    HW138639   0.532   4.187  14.802  2.0746 -1.2275  0.2418
 9060SOL    HW238640   0.671   4.224  14.824  0.5422  0.4129 -2.1920
 9061SOL     OW38641   2.060   2.892   8.071  0.0900  0.2134 -0.2566
 9061SOL    HW138642   2.088   2.978   8.104 -0.5699  0.9357 -1.5687
 9061SOL    HW238643   2.139   2.853   8.032  0.5651  1.2096 -0.3114
 9062SOL     OW38644   0.407   3.934   1.780 -0.1000 -0.9712  0.7148
 9062SOL    HW138645   0.453   3.986   1.846 -2.9151  0.8092  1.2735
 9062SOL    HW238646   0.467   3.954   1.708  0.2035 -0.7228  1.0386
 9063SOL     OW38647   0.439   3.243   0.034 -0.1616 -0.2272  0.2220
 9063SOL    HW138648   0.440   3.193   0.115 -3.1528  2.1347  1.7255
 9063SOL    HW238649   0.493   3.315   0.067  0.3021 -0.4213 -0.1209
 9064SOL     OW38650   1.011   2.414   2.941 -0.3572 -0.4381  0.0211
 9064SOL    HW138651   0.977   2.503   2.952  1.1098  0.2019 -0.6354
 9064SOL    HW238652   1.104   2.438   2.942 -0.6448  0.7711 -1.3623
 9065SOL     OW38653   3.594   1.231   3.176  0.0821 -0.4598  0.5150
 9065SOL    HW138654   3.625   1.253   3.263  0.3405  0.0038  0.3078
 9065SOL    HW238655   3.650   1.155   3.161  1.4810  0.9931 -1.7611
 9066SOL     OW38656   1.309   1.146  12.152  0.8654 -0.1290  0.1209
 9066SOL    HW138657   1.400   1.121  12.167  1.4120  2.4557  1.1300
 9066SOL    HW238658   1.280   1.072  12.099  1.9164 -0.4806  0.0462
 9067SOL     OW38659   0.321   3.573   1.548 -0.5593  0.2457 -0.2964
 9067SOL    HW138660   0.252   3.619   1.501 -2.2317  0.3878  2.3203
 9067SOL    HW238661   0.290   3.483   1.559  2.7687 -0.9089 -0.0554
 9068SOL     OW38662   3.778   3.083   6.909  0.1111 -0.1236  0.0108
 9068SOL    HW138663   3.756   3.047   6.823  1.5173  0.8254 -0.7372
 9068SOL    HW238664   3.818   3.010   6.955 -2.8873  0.0605  2.9407
 9069SOL     OW38665   4.542   2.645   3.259  0.4823 -0.8213 -0.0209
 9069SOL    HW138666   4.599   2.588   3.311 -1.0329 -1.2325  1.1777
 9069SOL    HW238667   4.504   2.697   3.330  2.4304  2.1450 -1.1560
 9070SOL     OW38668   1.151   2.471   3.850 -0.1197  0.0450 -0.0099
 9070SOL    HW138669   1.098   2.531   3.904 -1.8742 -1.3909 -0.1398
 9070SOL    HW238670   1.239   2.508   3.856  0.6699 -1.9356  0.3297
 9071SOL     OW38671   4.494   3.344  15.799  0.7275 -0.3412 -0.3275
 9071SOL    HW138672   4.426   3.402  15.765  2.2774  0.4416 -2.0427
 9071SOL    HW238673   4.554   3.407  15.839 -1.4332  0.7611  1.1820
 9072SOL     OW38674   4.625   2.003   4.039  0.2043  0.0479  0.1870
 9072SOL    HW138675   4.558   2.032   3.978  0.4086  3.3214  1.5053
 9072SOL    HW238676   4.583   1.925   4.075 -1.5409  0.7505 -0.3148
 9073SOL     OW38677   2.424   2.394   4.653 -0.1756  0.3799  0.2192
 9073SOL    HW138678   2.379   2.310   4.664 -0.2525  0.4272  0.2695
 9073SOL    HW238679   2.516   2.369   4.650 -1.1790 -3.2598  0.0888
 9074SOL     OW38680   1.405   2.589   0.088  0.0533 -0.2732  0.1053
 9074SOL    HW138681   1.447   2.544   0.016  0.0883  1.0115 -0.6786
 9074SOL    HW238682   1.355   2.528   0.142  0.0333 -2.2008 -2.1431
 9075SOL     OW38683   0.807   0.623   7.266  0.3584  0.4972  0.1677
 9075SOL    HW138684   0.855   0.544   7.294 -0.5028  0.0988  0.5175
 9075SOL    HW238685   0.836   0.691   7.328 -0.9949  0.7035  0.5713
 9076SOL     OW38686   4.018   2.999   1.905 -0.4423  0.5796 -0.0977
 9076SOL    HW138687   3.955   3.017   1.835 -2.3322 -1.3283  1.1045
 9076SOL    HW238688   3.997   2.907   1.924  0.7887  0.2297 -0.3939
 9077SOL     OW38689   1.133   2.370   8.880 -0.5795 -0.1496 -0.6208
 9077SOL    HW138690   1.137   2.428   8.804  0.3471  2.8613  1.7437
 9077SOL    HW238691   1.135   2.280   8.846 -0.4296 -0.2015 -0.4750
 9078SOL     OW38692   3.797   4.496   0.979 -0.5302 -0.1254 -0.2550
 9078SOL    HW138693   3.890   4.484   0.963 -0.5135 -1.6405  1.0330
 9078SOL    HW238694   3.763   4.484   0.890  1.7075  0.1621 -1.1478
 9079SOL     OW38695   1.786   3.675   8.150  0.4629  0.1991  0.0203
 9079SOL    HW138696   1.700   3.707   8.176  0.0356  0.4154 -1.6670
 9079SOL    HW238697   1.767   3.622   8.073 -0.4382  3.5771 -2.0902
 9080SOL     OW38698   1.973   3.338  10.156  0.4909 -0.6095 -0.2540
 9080SOL    HW138699   2.052   3.367  10.110 -1.0997  0.8954 -2.0364
 9080SOL    HW238700   1.948   3.281  10.084 -1.8482  1.5340 -1.1419
 9081SOL     OW38701   1.232   3.408   5.106  0.4949 -0.4282 -0.0633
 9081SOL    HW138702   1.143   3.423   5.074  1.1017  0.8779 -1.1304
 9081SOL    HW238703   1.227   3.450   5.192  2.5721  0.5540 -0.4459
 9082SOL     OW38704   4.016   1.113   9.697  0.3768  0.1621  0.2086
 9082SOL    HW138705   3.989   1.036   9.646 -0.5408 -0.0557  1.0363
 9082SOL    HW238706   3.942   1.164   9.728 -1.2526 -0.8848 -1.9421
 9083SOL     OW38707   1.820   3.217   3.491  0.0187 -0.3315 -0.1613
 9083SOL    HW138708   1.858   3.231   3.405  0.2198 -0.6606 -0.1272
 9083SOL    HW238709   1.811   3.122   3.495 -0.6687 -0.2636 -0.1780
 9084SOL     OW38710   1.582   0.564   9.612 -0.5131  0.7135 -0.2992
 9084SOL    HW138711   1.544   0.507   9.679  0.9254 -1.2882 -1.1866
 9084SOL    HW238712   1.656   0.603   9.659 -0.1325 -3.0760  2.1837
 9085SOL     OW38713   2.081   4.281  15.222 -0.7003  0.5476 -0.0432
 9085SOL    HW138714   2.025   4.331  15.281 -1.6478 -0.0111 -0.4660
 9085SOL    HW238715   2.075   4.321  15.136  0.7920 -0.2456 -0.5154
 9086SOL     OW38716   2.615   0.629   3.771 -0.8744  0.3842  0.8179
 9086SOL    HW138717   2.585   0.598   3.856 -2.5551 -2.4322 -0.7630
 9086SOL    HW238718   2.671   0.700   3.800 -0.3129 -0.9003  2.8211
 9087SOL     OW38719   0.832   4.301  16.693  0.0517 -0.0150 -0.4450
 9087SOL    HW138720   0.795   4.247  16.763  1.6339 -1.0385 -0.3870
 9087SOL    HW238721   0.925   4.299  16.716 -0.3710 -0.5985  1.2170
 9088SOL     OW38722   4.133   2.402   2.684 -0.1267  0.4475 -0.7948
 9088SOL    HW138723   4.113   2.496   2.686  2.0365  0.9112 -0.0663
 9088SOL    HW238724   4.134   2.387   2.590  0.8266 -1.5196 -0.4651
 9089SOL     OW38725   4.221   2.391   7.350 -0.4992 -0.1419  0.6120
 9089SOL    HW138726   4.162   2.363   7.280 -0.5990  0.1021  0.6005
 9089SOL    HW238727   4.237   2.309   7.397  0.4367  0.8573  2.0446
 9090SOL     OW38728   1.071   3.936   8.393 -0.3576 -0.2362 -0.0974
 9090SOL    HW138729   1.012   3.958   8.465 -0.1364 -1.4081  0.4399
 9090SOL    HW238730   1.113   3.860   8.432  1.1615  1.2414  1.1232
 9091SOL     OW38731   0.453   3.392   2.425  0.0903 -0.8505 -0.6349
 9091SOL    HW138732   0.532   3.422   2.379  1.6419 -2.0300  1.2437
 9091SOL    HW238733   0.489   3.374   2.512 -2.1163 -0.8573  0.2742
 9092SOL     OW38734   4.549   2.459   4.241 -0.3134  0.0358  0.7207
 9092SOL    HW138735   4.604   2.392   4.201  0.7147  2.2853 -1.6111
 9092SOL    HW238736   4.519   2.418   4.322 -0.6097  0.6325  0.9139
 9093SOL     OW38737   0.849   0.008  14.242 -0.7231 -0.2659  0.5091
 9093SOL    HW138738   0.924   4.673  14.224 -0.4206 -0.1722  1.4370
 9093SOL    HW238739   0.772   4.675  14.255  0.1901 -1.1921  2.0707
 9094SOL     OW38740   3.003   2.582   5.228  0.9668  0.1317 -0.1335
 9094SOL    HW138741   2.976   2.494   5.204  1.0852  0.4790 -1.5138
 9094SOL    HW238742   3.028   2.611   5.141 -1.1813 -0.4853 -0.9517
 9095SOL     OW38743   2.883   1.867  13.770 -0.3329 -0.1348  0.1809
 9095SOL    HW138744   2.933   1.785  13.770 -0.0165  0.0594 -0.8039
 9095SOL    HW238745   2.934   1.928  13.822 -1.1120  0.2589  0.4790
 9096SOL     OW38746   2.713   3.253   4.552 -0.4025  0.0226  0.7314
 9096SOL    HW138747   2.786   3.196   4.527 -0.6533  0.0233  0.0029
 9096SOL    HW238748   2.759   3.337   4.549  1.5425 -1.1849 -2.8997
 9097SOL     OW38749   4.102   1.409   7.574  0.3154 -0.5180  0.1865
 9097SOL    HW138750   4.110   1.414   7.670 -2.4862  2.2942  0.2496
 9097SOL    HW238751   4.181   1.359   7.553 -0.7740 -1.4583 -1.6565
 9098SOL     OW38752   0.899   2.250  17.623 -0.2505  0.3946  0.3294
 9098SOL    HW138753   0.922   2.257  17.530  0.0488  0.0886  0.3778
 9098SOL    HW238754   0.923   2.166  17.661  2.7745  0.1708 -2.0210
 9099SOL     OW38755   4.692   3.995   3.233 -0.2193 -0.1906  0.5750
 9099SOL    HW138756   4.620   3.982   3.295  0.2263  0.5468  1.2371
 9099SOL    HW238757   4.675   4.084   3.202  3.3015 -0.9859 -3.5456
 9100SOL     OW38758   0.532   3.681   1.455  0.3319  0.3801 -0.1193
 9100SOL    HW138759   0.459   3.627   1.487  0.8169 -0.3891 -0.3169
 9100SOL    HW238760   0.483   3.761   1.474  0.8971  0.6117  0.3390
 9101SOL     OW38761   2.534   3.531   5.000  0.4902 -0.4640  0.3080
 9101SOL    HW138762   2.571   3.474   4.933 -0.7973 -1.6968  0.6465
 9101SOL    HW238763   2.613   3.578   5.027  0.8289 -0.8211 -0.0703
 9102SOL     OW38764   0.993   4.333   3.514  0.7599 -0.6812 -0.3245
 9102SOL    HW138765   0.944   4.256   3.484  2.0959 -1.0264 -1.6397
 9102SOL    HW238766   1.018   4.379   3.434  1.3858 -2.9174 -1.4162
 9103SOL     OW38767   2.812   4.074   7.921  0.2699  0.7612 -0.0903
 9103SOL    HW138768   2.862   4.047   7.998 -0.9208  1.6234  1.0004
 9103SOL    HW238769   2.886   4.067   7.862 -0.3649  4.2140 -1.3463
 9104SOL     OW38770   0.520   3.944   7.613  0.4589  0.2204 -0.0298
 9104SOL    HW138771   0.561   4.023   7.647 -1.2161  0.4596  1.4437
 9104SOL    HW238772   0.596   3.899   7.576  0.5636  0.5455 -0.2149
 9105SOL     OW38773   0.967   1.953   7.247  0.5450  0.1847 -0.1341
 9105SOL    HW138774   0.997   1.965   7.156  0.9850 -0.9944 -0.1411
 9105SOL    HW238775   1.027   2.011   7.294 -0.8868  1.1419  0.5457
 9106SOL     OW38776   2.956   1.259   2.590 -0.1917 -0.2636 -0.8496
 9106SOL    HW138777   2.964   1.201   2.666  2.3384 -0.0952 -0.9833
 9106SOL    HW238778   3.046   1.265   2.559 -0.8382 -1.7114 -3.0672
 9107SOL     OW38779   3.910   0.896   5.253  0.4602  0.6133 -0.5899
 9107SOL    HW138780   3.933   0.804   5.264  1.6603  1.2090  1.9870
 9107SOL    HW238781   3.974   0.940   5.308  1.7670  0.0869 -1.7000
 9108SOL     OW38782   1.974   0.375   3.849  0.6757 -0.8644  0.2592
 9108SOL    HW138783   2.069   0.386   3.842  0.7344 -0.0111  2.4213
 9108SOL    HW238784   1.973   0.303   3.912 -1.1909 -0.0681  1.1350
 9109SOL     OW38785   3.906   3.782   7.683  0.0985  0.0046 -0.7941
 9109SOL    HW138786   3.965   3.765   7.757 -0.3201 -1.1182 -0.7165
 9109SOL    HW238787   3.949   3.750   7.604  1.6888  1.0236 -0.3262
 9110SOL     OW38788   3.915   3.041   4.334  0.9097  0.6335  0.5981
 9110SOL    HW138789   4.004   3.074   4.331  1.8486 -1.8613  0.7579
 9110SOL    HW238790   3.921   2.966   4.274  1.7111  0.9560  0.2825
 9111SOL     OW38791   4.465   4.320   7.522 -0.2355  0.3669 -0.3103
 9111SOL    HW138792   4.530   4.347   7.458 -0.7083 -0.3410 -1.0941
 9111SOL    HW238793   4.385   4.300   7.473  0.1837  0.0829 -0.8674
 9112SOL     OW38794   3.502   1.685  12.536  0.1616 -0.3329 -0.2165
 9112SOL    HW138795   3.513   1.679  12.441 -1.3356  1.5440 -0.5194
 9112SOL    HW238796   3.550   1.768  12.538  0.1680 -0.3940  3.0045
 9113SOL     OW38797   3.669   0.329  11.095 -0.0594 -0.4561  0.2347
 9113SOL    HW138798   3.670   0.282  11.012  0.8162  0.5990 -0.3585
 9113SOL    HW238799   3.756   0.368  11.089 -0.1891 -0.2092 -0.0869
 9114SOL     OW38800   3.011   3.320  11.829 -0.0476 -0.4988 -0.4880
 9114SOL    HW138801   2.941   3.274  11.782  0.5060 -1.7328 -0.1117
 9114SOL    HW238802   3.013   3.413  11.806 -2.2278 -0.6278 -1.2762
 9115SOL     OW38803   0.326   2.963   3.614 -0.2746  0.0404 -0.2788
 9115SOL    HW138804   0.326   2.907   3.536  0.8831 -1.0629  0.5267
 9115SOL    HW238805   0.250   3.020   3.598 -0.4450 -1.2106 -3.8668
 9116SOL     OW38806   2.894   2.501   2.571  0.4618  0.2826 -0.3709
 9116SOL    HW138807   2.909   2.445   2.647 -2.6318 -0.7397 -0.5384
 9116SOL    HW238808   2.884   2.583   2.619  1.2970  0.2717 -0.1833
 9117SOL     OW38809   2.608   1.849   9.837 -0.1779  0.5742 -0.6128
 9117SOL    HW138810   2.591   1.766   9.883  1.0175 -0.0284 -1.2652
 9117SOL    HW238811   2.519   1.852   9.803  0.6965 -1.2559 -3.0353
 9118SOL     OW38812   1.604   2.989  15.423 -0.1739  0.6618  0.8211
 9118SOL    HW138813   1.655   2.935  15.484 -2.8894 -1.6017  1.0741
 9118SOL    HW238814   1.536   2.926  15.399  1.3371 -1.2919  1.6153
 9119SOL     OW38815   1.694   1.851   7.575  0.1625  0.0643  0.1922
 9119SOL    HW138816   1.740   1.775   7.542 -0.2991 -1.0736  2.1854
 9119SOL    HW238817   1.652   1.867   7.490 -0.6508  0.3227  0.6412
 9120SOL     OW38818   1.291   4.404  15.405  0.5031 -0.0149  0.0911
 9120SOL    HW138819   1.349   4.410  15.329 -0.9922  1.7831 -0.9089
 9120SOL    HW238820   1.204   4.418  15.367 -0.5323 -1.3891  1.9511
 9121SOL     OW38821   0.809   1.241   4.674  0.0093 -0.1558 -0.1071
 9121SOL    HW138822   0.890   1.203   4.708  0.4870  0.0207 -1.0451
 9121SOL    HW238823   0.797   1.183   4.599  2.5106 -2.3553  1.1969
 9122SOL     OW38824   2.975   4.517   4.573  0.0169  0.1370  0.4738
 9122SOL    HW138825   3.044   4.575   4.542  1.1982 -2.0120 -0.8823
 9122SOL    HW238826   2.898   4.569   4.547  1.4670  2.4962  0.8837
 9123SOL     OW38827   0.204   3.927   3.364 -0.9614  0.0703  0.1104
 9123SOL    HW138828   0.230   4.012   3.399 -1.5618  0.7199 -1.0432
 9123SOL    HW238829   0.128   3.958   3.315 -0.1274  3.1362  0.7857
 9124SOL     OW38830   1.842   0.658   7.762 -0.2175  0.5741 -0.0901
 9124SOL    HW138831   1.808   0.599   7.829  0.9408 -0.0155 -0.0086
 9124SOL    HW238832   1.798   0.742   7.777  0.3292  0.9471 -0.5635
 9125SOL     OW38833   3.424   0.203   7.773  0.1176 -0.5970  0.0923
 9125SOL    HW138834   3.426   0.113   7.805  0.9588 -0.7669 -0.4259
 9125SOL    HW238835   3.496   0.235   7.827  0.1203  1.0657 -0.8713
 9126SOL     OW38836   0.460   3.428  15.441 -0.5585  0.0507 -0.2551
 9126SOL    HW138837   0.459   3.380  15.524 -2.5482  1.4068  0.5026
 9126SOL    HW238838   0.511   3.503  15.471 -0.7248 -1.0661  2.8207
 9127SOL     OW38839   1.082   0.291   9.096  0.6451  0.7151 -0.6088
 9127SOL    HW138840   1.110   0.320   9.183 -1.7795  1.7098 -0.1598
 9127SOL    HW238841   1.166   0.286   9.050  1.0465  1.5957  0.0330
 9128SOL     OW38842   2.505   2.827   5.748  0.6875 -0.3123  0.7256
 9128SOL    HW138843   2.418   2.800   5.717  0.7836 -2.3078  2.1485
 9128SOL    HW238844   2.479   2.861   5.833  0.1152  1.5964 -0.2157
 9129SOL     OW38845   2.678   1.270   6.171 -0.4365 -0.5237  0.4668
 9129SOL    HW138846   2.721   1.354   6.187 -1.4387  0.3443 -1.4124
 9129SOL    HW238847   2.670   1.275   6.076 -0.3962 -0.9421  0.4446
 9130SOL     OW38848   1.208   1.824  13.135 -0.1330  0.0718 -0.3361
 9130SOL    HW138849   1.223   1.918  13.122 -1.6945  0.1081 -1.7615
 9130SOL    HW238850   1.299   1.794  13.139  0.0445  0.6300 -0.0675
 9131SOL     OW38851   3.696   1.855   7.588 -0.0673  0.1442 -0.5412
 9131SOL    HW138852   3.738   1.806   7.518 -2.6062 -3.3210  0.3409
 9131SOL    HW238853   3.642   1.796   7.641  0.4471  2.2226  2.2806
 9132SOL     OW38854   0.621   3.411  17.509 -0.2667 -0.0711  0.7511
 9132SOL    HW138855   0.647   3.459  17.587  1.1844 -1.5995  1.2238
 9132SOL    HW238856   0.673   3.331  17.519 -0.1629  0.1052  1.6099
 9133SOL     OW38857   2.656   3.596  14.683  0.0616  0.0577  0.1683
 9133SOL    HW138858   2.740   3.636  14.663  0.8853 -1.8498 -0.1570
 9133SOL    HW238859   2.660   3.552  14.768  1.0510  2.1697  1.2038
 9134SOL     OW38860   4.160   1.554   7.351  0.0716  0.3046  0.0657
 9134SOL    HW138861   4.200   1.472   7.322 -2.5566 -0.2194 -2.0648
 9134SOL    HW238862   4.135   1.525   7.438  1.5805 -0.8665  0.1122
 9135SOL     OW38863   2.966   0.435   0.157  0.0071  0.1218  0.4578
 9135SOL    HW138864   3.053   0.403   0.134 -0.1253  0.9946 -1.2498
 9135SOL    HW238865   2.970   0.527   0.133  2.4626 -1.1689 -4.0814
 9136SOL     OW38866   1.045   3.124  11.852 -0.4177 -0.0576  0.4576
 9136SOL    HW138867   1.066   3.192  11.788 -1.4120 -0.4063 -0.2486
 9136SOL    HW238868   0.962   3.102  11.810  1.3216 -3.5860 -1.1362
 9137SOL     OW38869   0.720   1.346  15.948 -0.1442 -0.0957  0.0990
 9137SOL    HW138870   0.625   1.335  15.956 -0.4413  1.6266 -0.9049
 9137SOL    HW238871   0.752   1.257  15.957  1.1764  0.2775 -0.8602
 9138SOL     OW38872   0.654   4.397   7.466 -0.7455  0.4315 -0.4048
 9138SOL    HW138873   0.606   4.415   7.385  1.1170 -0.7808 -1.7753
 9138SOL    HW238874   0.592   4.438   7.527  0.0906  0.8985  0.1334
 9139SOL     OW38875   3.826   2.457  15.170 -0.4260 -0.8015  0.0303
 9139SOL    HW138876   3.805   2.538  15.216 -2.6205 -0.7338 -1.0853
 9139SOL    HW238877   3.808   2.484  15.080  4.7759 -0.6932 -1.0052
 9140SOL     OW38878   1.824   3.811   4.230  0.4176 -0.2675  0.0320
 9140SOL    HW138879   1.777   3.733   4.199  1.8225 -0.5968 -1.2480
 9140SOL    HW238880   1.780   3.875   4.173  0.2738  0.0163  0.4594
 9141SOL     OW38881   3.385   3.832   1.838 -0.2460 -0.0360  0.6678
 9141SOL    HW138882   3.331   3.890   1.891  0.4521  0.9757  0.2776
 9141SOL    HW238883   3.436   3.902   1.796  0.5676 -1.3636 -0.5860
 9142SOL     OW38884   2.688   3.601   6.340  1.0964 -0.2806 -0.3882
 9142SOL    HW138885   2.642   3.538   6.396  0.7416 -1.1983 -1.7010
 9142SOL    HW238886   2.652   3.683   6.372  1.9684  0.3100 -0.9087
 9143SOL     OW38887   3.896   0.888   2.579  0.1912  0.3451 -0.0754
 9143SOL    HW138888   3.839   0.821   2.619 -0.0397 -1.3029 -3.1563
 9143SOL    HW238889   3.958   0.835   2.528  0.3517  1.2443 -0.8188
 9144SOL     OW38890   0.253   0.845   5.137 -0.1560 -0.5980 -0.1744
 9144SOL    HW138891   0.288   0.854   5.048 -2.6974 -1.0137 -1.2043
 9144SOL    HW238892   0.326   0.788   5.165 -0.0477 -0.7987 -0.8609
 9145SOL     OW38893   3.208   1.570   1.700 -0.5089 -0.1981 -0.5445
 9145SOL    HW138894   3.293   1.593   1.738 -0.5463 -0.0275 -0.5639
 9145SOL    HW238895   3.232   1.550   1.609  1.1436  3.8587 -1.0345
 9146SOL     OW38896   0.336   3.181   2.292  0.1283  0.3726 -0.8725
 9146SOL    HW138897   0.396   3.237   2.341  0.2926 -0.8675  0.3642
 9146SOL    HW238898   0.342   3.218   2.204  0.0009  0.4496 -0.8485
 9147SOL     OW38899   3.994   1.091   3.265 -0.6476 -0.3299 -0.0022
 9147SOL    HW138900   4.004   1.014   3.321 -1.1327 -0.3128  0.1159
 9147SOL    HW238901   3.933   1.056   3.200  1.6255 -2.0680 -1.1840
 9148SOL     OW38902   1.205   3.794   5.213 -0.3960  0.1864 -0.4544
 9148SOL    HW138903   1.188   3.703   5.240 -0.5909 -0.0782 -1.4669
 9148SOL    HW238904   1.161   3.799   5.128  0.0703 -1.6882 -0.8228
 9149SOL     OW38905   2.898   0.182   3.380  0.3872 -0.4144  0.3584
 9149SOL    HW138906   2.993   0.174   3.370  0.2660 -3.0884  1.3696
 9149SOL    HW238907   2.878   0.093   3.409  1.2086 -1.2715 -1.7458
 9150SOL     OW38908   4.233   1.400  15.124 -0.4645 -0.4980  0.2676
 9150SOL    HW138909   4.240   1.424  15.216 -0.7002 -1.3943  0.5198
 9150SOL    HW238910   4.214   1.488  15.092  0.4322 -0.0119  1.0683
 9151SOL     OW38911   2.328   2.766   5.010  0.4414  0.2635  0.5044
 9151SOL    HW138912   2.367   2.680   5.027  2.7796  1.2374  0.1605
 9151SOL    HW238913   2.304   2.750   4.919  0.6759  0.5796  0.3877
 9152SOL     OW38914   2.072   2.010   3.654  0.0983 -0.1699 -0.5422
 9152SOL    HW138915   2.110   2.002   3.567  0.1606 -0.1507 -0.5169
 9152SOL    HW238916   1.999   2.067   3.630  0.5160  0.3083 -0.6734
 9153SOL     OW38917   4.686   0.253   4.918 -0.1869  0.3078 -0.2019
 9153SOL    HW138918   4.627   0.303   4.861 -0.7653  0.2592  0.3590
 9153SOL    HW238919   4.636   0.194   4.973  2.6513 -0.4763  1.5449
 9154SOL     OW38920   0.829   1.607  11.853  0.2291  0.2579 -0.0967
 9154SOL    HW138921   0.756   1.655  11.892  1.7917  2.5039  0.1199
 9154SOL    HW238922   0.858   1.559  11.931  0.4856  0.5278 -0.0256
 9155SOL     OW38923   1.396   0.386   3.804  0.2730  0.1364  0.1124
 9155SOL    HW138924   1.426   0.475   3.787 -0.3783  0.5000  0.8248
 9155SOL    HW238925   1.466   0.326   3.780  0.0114  0.5774 -1.7479
 9156SOL     OW38926   3.430   2.374   7.363  0.4992 -0.1130  0.6380
 9156SOL    HW138927   3.472   2.310   7.307 -0.8976  2.1878 -3.0868
 9156SOL    HW238928   3.415   2.320   7.440  0.8921 -1.8918 -0.5257
 9157SOL     OW38929   2.481   3.829   0.395  0.2716 -0.1156  0.0552
 9157SOL    HW138930   2.427   3.889   0.344 -0.7546 -1.3579 -0.3310
 9157SOL    HW238931   2.565   3.874   0.399  0.4989 -0.3821 -1.7409
 9158SOL     OW38932   2.673   3.171  16.134 -0.1023 -0.5958  0.4205
 9158SOL    HW138933   2.704   3.229  16.064  1.3297 -2.7707 -0.7830
 9158SOL    HW238934   2.683   3.236  16.203  2.1267 -0.1356 -0.3133
 9159SOL     OW38935   0.118   0.565   4.535  0.4209 -0.0856  0.0193
 9159SOL    HW138936   0.159   0.570   4.448 -0.2307  2.5841 -0.1505
 9159SOL    HW238937   0.174   0.494   4.564  0.5987 -1.0517 -2.6376
 9160SOL     OW38938   1.541   3.436   9.852  0.5954 -0.3628  0.2182
 9160SOL    HW138939   1.623   3.484   9.860  0.6396 -0.4388  0.2257
 9160SOL    HW238940   1.482   3.491   9.801  0.6135  0.4259  1.0611
 9161SOL     OW38941   2.959   1.366  16.056 -0.1070  0.0392  0.7427
 9161SOL    HW138942   2.919   1.294  16.008  0.2306  1.9363 -2.3863
 9161SOL    HW238943   3.039   1.391  16.012  1.1206  0.0568  2.9703
 9162SOL     OW38944   3.392   0.003  12.305  0.1607  0.4942 -0.5448
 9162SOL    HW138945   3.379   4.661  12.236 -1.8558 -1.1843  1.4340
 9162SOL    HW238946   3.327   0.071  12.288 -1.6406 -1.1175 -0.0230
 9163SOL     OW38947   4.114   1.416   9.761 -0.4158  0.2844  0.8079
 9163SOL    HW138948   4.049   1.350   9.737  1.3975 -1.1165 -0.3100
 9163SOL    HW238949   4.160   1.367   9.830  0.2317 -0.6438 -0.2658
 9164SOL     OW38950   0.693   3.972   4.087  0.1602  0.2985 -0.5782
 9164SOL    HW138951   0.735   3.892   4.056 -1.1009 -0.2365 -0.9368
 9164SOL    HW238952   0.761   4.037   4.073  0.1714  0.2507 -0.7416
 9165SOL     OW38953   0.801   4.376   1.113 -0.1277  0.0964  0.0062
 9165SOL    HW138954   0.785   4.403   1.023  0.6175 -1.4610 -0.5810
 9165SOL    HW238955   0.782   4.282   1.107 -0.3516  0.1711 -0.4499
 9166SOL     OW38956   2.244   3.453   2.091 -0.3258  0.8533 -0.0640
 9166SOL    HW138957   2.292   3.447   2.173 -1.3844  2.9540  0.7220
 9166SOL    HW238958   2.317   3.453   2.029  0.5051  1.0543  0.9239
 9167SOL     OW38959   4.703   1.566   3.651 -0.4644 -0.1395 -0.0548
 9167SOL    HW138960   4.663   1.650   3.673  2.8543  1.1302  1.0728
 9167SOL    HW238961   0.054   1.602   3.601 -0.0902  0.5164  0.9560
 9168SOL     OW38962   0.097   4.232   7.669  0.1856  0.2148  0.8078
 9168SOL    HW138963   0.094   4.262   7.760 -0.4207 -1.9748  1.5059
 9168SOL    HW238964   0.167   4.281   7.627  0.1310 -0.3430  0.0518
 9169SOL     OW38965   3.952   4.141   5.637 -0.1445 -0.0076 -0.7528
 9169SOL    HW138966   3.904   4.113   5.716 -0.0537  0.2996 -0.5901
 9169SOL    HW238967   3.898   4.123   5.560  0.8874  1.7039 -1.8762
 9170SOL     OW38968   2.113   3.152   6.022 -0.0928 -0.0138 -0.3221
 9170SOL    HW138969   2.045   3.136   5.958 -1.1724 -1.6899  1.2612
 9170SOL    HW238970   2.183   3.105   5.977  0.4204 -1.0110  1.5106
 9171SOL     OW38971   2.913   0.855  12.779  0.1193 -0.2812 -0.1444
 9171SOL    HW138972   3.001   0.877  12.748  0.2118  0.6144  0.7466
 9171SOL    HW238973   2.928   0.816  12.865 -1.5223 -1.0249 -0.1943
 9172SOL     OW38974   3.979   0.114   2.114 -0.6598  0.6839  0.0636
 9172SOL    HW138975   4.040   0.156   2.175  3.1078 -1.2045 -2.3971
 9172SOL    HW238976   4.000   0.162   2.034 -1.7015 -0.0520 -0.6386
 9173SOL     OW38977   4.353   0.963   3.122 -0.3396  0.2549 -0.2448
 9173SOL    HW138978   4.415   0.929   3.057 -1.7881  0.2009 -1.5840
 9173SOL    HW238979   4.276   0.979   3.067 -1.4073 -1.0065  0.8892
 9174SOL     OW38980   2.257   0.583   7.029 -0.2623  0.2664  0.2171
 9174SOL    HW138981   2.199   0.618   7.097  1.1014  1.5561  0.7314
 9174SOL    HW238982   2.259   0.653   6.964 -1.3328  1.6730  1.6962
 9175SOL     OW38983   3.239   2.682  16.063 -0.4096  0.0267  0.1729
 9175SOL    HW138984   3.183   2.640  15.997 -0.4932  0.5076 -0.0589
 9175SOL    HW238985   3.169   2.698  16.126  0.1589 -2.5963  1.4697
 9176SOL     OW38986   1.224   0.777   8.486 -0.1530 -0.6852  0.3447
 9176SOL    HW138987   1.292   0.811   8.545 -0.6828 -0.4467  0.8212
 9176SOL    HW238988   1.241   0.683   8.485 -0.3845 -0.7085 -0.8978
 9177SOL     OW38989   3.951   2.983  14.259 -0.6175 -0.4718  0.5979
 9177SOL    HW138990   3.943   3.016  14.170  1.5062 -0.2226  0.5156
 9177SOL    HW238991   4.023   3.034  14.296 -1.3979  1.0735  0.0241
 9178SOL     OW38992   1.467   2.914   0.360 -0.4186  0.4578  0.4843
 9178SOL    HW138993   1.498   2.972   0.290 -0.5972  3.0332  2.5643
 9178SOL    HW238994   1.377   2.944   0.354 -0.2072  0.7494 -1.3271
 9179SOL     OW38995   1.800   1.536   3.632 -0.0842  0.3485  0.2560
 9179SOL    HW138996   1.849   1.505   3.555  0.5625  0.7447  0.5068
 9179SOL    HW238997   1.772   1.620   3.596  1.6639  0.4424 -0.9224
 9180SOL     OW38998   0.851   3.774   8.092  0.6455 -0.0317  0.4901
 9180SOL    HW138999   0.823   3.739   8.177 -0.0575  0.3929  0.4297
 9180SOL    HW239000   0.796   3.722   8.034 -0.1761  0.4393  0.8408
 9181SOL     OW39001   3.072   4.395   4.020  0.2695  0.2916  0.1893
 9181SOL    HW139002   3.156   4.403   3.975  0.5461  0.3830  0.7331
 9181SOL    HW239003   3.061   4.483   4.056  0.0074  0.1413  0.4820
 9182SOL     OW39004   4.236   3.753   2.823 -0.3685  0.2197  0.0029
 9182SOL    HW139005   4.210   3.661   2.815  1.5649 -0.3164 -0.2241
 9182SOL    HW239006   4.149   3.794   2.824  0.4711  1.9573  1.6907
 9183SOL     OW39007   0.896   0.276  14.382  0.3038  0.3107  0.2735
 9183SOL    HW139008   0.969   0.253  14.439 -1.6601 -1.3746  2.1214
 9183SOL    HW239009   0.882   0.190  14.341  0.7395  0.0160  0.7404
 9184SOL     OW39010   2.799   3.187  17.068 -0.1714  0.3117 -0.0444
 9184SOL    HW139011   2.743   3.110  17.056 -1.2949  0.9311  1.2372
 9184SOL    HW239012   2.735   3.257  17.078  1.3220  1.4786  1.1442
 9185SOL     OW39013   4.498   0.889   5.794  0.0026  0.1752 -0.0646
 9185SOL    HW139014   4.458   0.903   5.708  0.1716 -1.8438 -0.4851
 9185SOL    HW239015   4.489   0.982   5.814 -0.3245  0.1803 -0.2272
 9186SOL     OW39016   3.421   2.716   2.768  0.0793 -0.0535 -0.1164
 9186SOL    HW139017   3.345   2.765   2.798  0.5527  0.3755  0.3788
 9186SOL    HW239018   3.389   2.697   2.680  2.1537  2.4937 -1.4351
 9187SOL     OW39019   1.771   2.817   0.487  0.4247 -0.0068  0.6676
 9187SOL    HW139020   1.836   2.782   0.427 -0.5995 -0.9190  0.1015
 9187SOL    HW239021   1.695   2.769   0.454 -0.8438  2.4114  0.0399
 9188SOL     OW39022   2.030   1.908   9.735 -0.3743  0.4441  0.9324
 9188SOL    HW139023   1.992   1.936   9.819 -1.3875 -0.9803  0.9566
 9188SOL    HW239024   1.966   1.838   9.720  0.0128 -0.0962  1.7666
 9189SOL     OW39025   1.539   0.303   3.297  0.5618 -0.4912  0.6477
 9189SOL    HW139026   1.631   0.324   3.308  0.3921 -0.0833  1.2965
 9189SOL    HW239027   1.521   0.292   3.204 -0.6985  0.0736  0.8232
 9190SOL     OW39028   2.696   2.584   5.456 -0.3826  0.6462 -0.2214
 9190SOL    HW139029   2.747   2.523   5.509 -0.2844 -1.9259 -3.2896
 9190SOL    HW239030   2.607   2.567   5.487 -0.7062  2.7300 -0.0195
 9191SOL     OW39031   1.493   1.781   7.952 -0.4246  0.2286 -0.1115
 9191SOL    HW139032   1.472   1.691   7.927  0.7480 -0.2892  0.7133
 9191SOL    HW239033   1.444   1.798   8.032 -1.8693  1.6114 -1.2985
 9192SOL     OW39034   3.308   2.328  15.340  0.3121 -0.4769 -0.5491
 9192SOL    HW139035   3.265   2.355  15.259 -0.5881  2.7709  1.0225
 9192SOL    HW239036   3.353   2.247  15.316  1.6141 -0.5600  2.1226
 9193SOL     OW39037   1.808   3.349   1.841 -0.5648 -0.4179 -0.5202
 9193SOL    HW139038   1.863   3.271   1.852 -0.6197 -0.2369  0.9206
 9193SOL    HW239039   1.878   3.413   1.857 -1.5886  0.7764 -0.8513
 9194SOL     OW39040   0.606   0.146   4.211  0.9000 -0.5217  0.1800
 9194SOL    HW139041   0.682   0.201   4.228  0.6275 -0.0876 -0.0113
 9194SOL    HW239042   0.615   0.079   4.279  1.5941  0.2275  0.8195
 9195SOL     OW39043   0.350   0.147   5.461 -0.7340 -0.3124 -0.4293
 9195SOL    HW139044   0.378   0.239   5.461 -0.2689 -0.4582 -0.8144
 9195SOL    HW239045   0.394   0.117   5.541  1.1738  4.3261  0.2472
 9196SOL     OW39046   1.671   1.529  10.737  0.4387 -0.2409 -0.2496
 9196SOL    HW139047   1.637   1.471  10.669 -0.4120  2.0171 -1.7305
 9196SOL    HW239048   1.704   1.467  10.802  0.2206 -0.1571 -0.0578
 9197SOL     OW39049   4.456   0.214  11.939  0.3726 -0.0736  1.2114
 9197SOL    HW139050   4.441   0.250  11.852  1.4526  1.3039  1.5935
 9197SOL    HW239051   4.381   0.156  11.956 -0.0237 -0.2550 -1.1514
 9198SOL     OW39052   3.992   3.194   7.000 -0.4237  0.7169  0.3889
 9198SOL    HW139053   3.917   3.148   6.965  0.8559  0.6711 -2.3179
 9198SOL    HW239054   3.981   3.272   6.945  1.9688  0.2176 -0.7921
 9199SOL     OW39055   1.689   1.436  14.779  0.1487 -0.9293  0.1523
 9199SOL    HW139056   1.743   1.498  14.828 -1.8010  0.7899  0.1290
 9199SOL    HW239057   1.740   1.355  14.771  1.5405 -0.1195  0.7016
 9200SOL     OW39058   4.672   4.588  17.592  0.2138 -0.2878  0.0603
 9200SOL    HW139059   0.009   4.548  17.529  1.2990  0.9957  0.2671
 9200SOL    HW239060   0.009   4.638  17.648  1.6937 -0.7211 -1.1120
 9201SOL     OW39061   1.047   1.700   2.461  0.6930 -0.5345  0.3370
 9201SOL    HW139062   0.992   1.729   2.534 -2.0332 -1.1055 -1.4524
 9201SOL    HW239063   1.120   1.761   2.461 -0.8602  1.3375  2.3756
 9202SOL     OW39064   1.900   1.374   5.053 -0.4727 -0.3104  0.0753
 9202SOL    HW139065   1.864   1.407   4.970 -0.7271  1.6561  0.9905
 9202SOL    HW239066   1.835   1.305   5.066  1.5367 -2.2655 -0.2440
 9203SOL     OW39067   3.270   0.669   8.822  0.0544  0.1724  0.1604
 9203SOL    HW139068   3.304   0.736   8.881  0.1149 -0.2326  0.5822
 9203SOL    HW239069   3.327   0.675   8.745  1.1655 -1.2940  0.8590
 9204SOL     OW39070   2.941   0.494   3.451 -0.1546  0.4518  0.1618
 9204SOL    HW139071   3.034   0.516   3.442 -0.1664 -0.2014 -1.5721
 9204SOL    HW239072   2.919   0.425   3.388  0.0660  0.3908  0.1512
 9205SOL     OW39073   4.332   4.379   4.311 -0.8137  0.0074 -0.1401
 9205SOL    HW139074   4.389   4.353   4.239  0.1021  2.3708 -0.2701
 9205SOL    HW239075   4.255   4.330   4.281  0.6085 -0.7309 -2.6194
 9206SOL     OW39076   0.254   2.694   8.481  0.3275 -0.3050  0.4439
 9206SOL    HW139077   0.194   2.725   8.549  1.4445 -2.6848  2.5325
 9206SOL    HW239078   0.208   2.616   8.450 -2.4127  0.9312  1.4182
 9207SOL     OW39079   3.285   2.201  11.593  0.0777  0.6191 -0.6163
 9207SOL    HW139080   3.229   2.154  11.531  0.3575  0.0664 -0.4499
 9207SOL    HW239081   3.366   2.150  11.592  0.4309  1.1220  2.4571
 9208SOL     OW39082   4.451   2.567  13.876 -0.0281  0.4765  0.0344
 9208SOL    HW139083   4.386   2.586  13.809  0.0459  1.3009  0.1914
 9208SOL    HW239084   4.417   2.610  13.955  0.5726  0.6549  0.1976
 9209SOL     OW39085   1.574   2.504   8.458  0.0087  0.2922  0.0907
 9209SOL    HW139086   1.577   2.524   8.364 -0.3111 -0.6119 -0.1190
 9209SOL    HW239087   1.603   2.592   8.482  1.7571 -0.3815  0.4018
 9210SOL     OW39088   0.645   1.891   5.823 -0.5644  0.6781 -0.2839
 9210SOL    HW139089   0.724   1.920   5.777 -0.3201 -0.7409 -0.7512
 9210SOL    HW239090   0.675   1.800   5.830 -1.4836  0.3069 -1.1530
 9211SOL     OW39091   4.223   2.723   4.764 -0.0348  0.4168  0.5550
 9211SOL    HW139092   4.177   2.739   4.682 -1.4897 -0.2442  1.2432
 9211SOL    HW239093   4.233   2.816   4.786 -1.0264  0.6520 -0.0028
 9212SOL     OW39094   2.081   3.192  11.288 -0.2957  0.7798  0.0197
 9212SOL    HW139095   1.997   3.199  11.244 -0.1339 -0.0916 -0.4206
 9212SOL    HW239096   2.086   3.109  11.336  0.8901  1.0162  0.3053
 9213SOL     OW39097   3.644   0.696   8.820 -0.0306  0.0934 -0.3041
 9213SOL    HW139098   3.602   0.630   8.875  1.0073  1.0224  1.5969
 9213SOL    HW239099   3.706   0.733   8.884 -1.7809  4.0724 -0.9208
 9214SOL     OW39100   1.825   4.410   8.412 -0.2012 -0.5799  0.2055
 9214SOL    HW139101   1.745   4.373   8.450  0.2122 -1.1719  0.4972
 9214SOL    HW239102   1.864   4.443   8.493 -3.5453 -0.7922  1.9090
 9215SOL     OW39103   1.201   2.606   7.954 -0.0905  0.2569 -0.0894
 9215SOL    HW139104   1.183   2.669   8.023  0.4170  1.6375 -1.2270
 9215SOL    HW239105   1.109   2.594   7.931 -0.6131  2.5523  0.8494
 9216SOL     OW39106   3.842   1.275   5.419  0.4538 -0.4507 -0.5566
 9216SOL    HW139107   3.787   1.267   5.341 -0.5867  2.3124 -0.1001
 9216SOL    HW239108   3.847   1.369   5.437  0.1253 -0.4523 -0.4507
 9217SOL     OW39109   3.705   3.701   9.094 -0.2794  0.2604 -1.1130
 9217SOL    HW139110   3.777   3.711   9.157 -1.0181  2.4752 -0.6197
 9217SOL    HW239111   3.669   3.788   9.110 -0.7037 -0.1810  0.3631
 9218SOL     OW39112   3.898   2.887   9.402  0.0446  0.0845  0.0333
 9218SOL    HW139113   3.805   2.882   9.423  0.0862 -1.0139 -0.0542
 9218SOL    HW239114   3.904   2.847   9.315  0.3641 -1.7903  0.9284
 9219SOL     OW39115   2.958   1.641  17.227  0.1100  0.3633  0.0237
 9219SOL    HW139116   2.869   1.628  17.259  0.9847 -1.1228  1.8497
 9219SOL    HW239117   2.968   1.736  17.235  0.8831  0.4513 -1.8992
 9220SOL     OW39118   3.808   2.528   5.024 -0.2132  0.8124  0.0510
 9220SOL    HW139119   3.723   2.561   5.052 -0.6776  0.5586 -1.0745
 9220SOL    HW239120   3.778   2.439   5.002  0.4987  0.9675 -1.5604
 9221SOL     OW39121   1.399   2.853  15.348  0.3085  0.0307  0.0212
 9221SOL    HW139122   1.317   2.878  15.307  1.5900  1.6674 -1.4984
 9221SOL    HW239123   1.400   2.757  15.344 -1.8067  0.1314 -2.3823
 9222SOL     OW39124   4.236   1.161   9.199  0.9167  0.3683 -0.2571
 9222SOL    HW139125   4.309   1.208   9.239  0.9085  1.2630 -1.3230
 9222SOL    HW239126   4.285   1.105   9.138  1.5184  1.9900 -1.2384
 9223SOL     OW39127   1.060   1.926   3.483 -0.5968  0.1284  0.5793
 9223SOL    HW139128   1.071   1.957   3.573  1.4377  0.9474  0.0446
 9223SOL    HW239129   1.020   2.000   3.437  0.1559 -0.8194 -1.5888
 9224SOL     OW39130   1.394   3.075   8.865 -0.2545  0.6525 -0.2394
 9224SOL    HW139131   1.464   3.068   8.800  0.6886  1.3402  0.7083
 9224SOL    HW239132   1.365   2.987   8.887  1.2364  0.0022 -0.8686
 9225SOL     OW39133   3.710   0.864   7.879 -0.1759 -0.4695 -0.1929
 9225SOL    HW139134   3.726   0.937   7.819  0.4998 -2.2084 -2.1201
 9225SOL    HW239135   3.719   0.912   7.962 -1.0700  1.3731 -1.1694
 9226SOL     OW39136   2.698   0.282  15.684 -0.2528  0.1890  0.4276
 9226SOL    HW139137   2.680   0.240  15.600  0.2979  0.0163  0.3965
 9226SOL    HW239138   2.649   0.364  15.677  1.2556  1.1371  1.0760
 9227SOL     OW39139   2.723   2.382   7.645 -0.3395  0.3218 -0.0003
 9227SOL    HW139140   2.629   2.380   7.627 -0.6801  6.3351  1.1629
 9227SOL    HW239141   2.716   2.409   7.737 -0.2109  0.2965  0.0163
 9228SOL     OW39142   1.751   1.182   5.158 -0.1682 -0.3616  0.3126
 9228SOL    HW139143   1.755   1.163   5.251  0.9378  0.4098  0.4288
 9228SOL    HW239144   1.769   1.095   5.123  0.8466  0.3447 -0.9203
 9229SOL     OW39145   4.342   4.242   1.312 -0.4273 -0.0424  0.4521
 9229SOL    HW139146   4.343   4.150   1.289  0.2490 -0.5186  2.3542
 9229SOL    HW239147   4.285   4.286   1.250 -2.7901  0.0492  2.6922
 9230SOL     OW39148   1.847   2.389   6.824  0.3978 -0.4391 -0.1907
 9230SOL    HW139149   1.917   2.420   6.767  0.1959  2.0924  0.9271
 9230SOL    HW239150   1.902   2.341   6.886 -0.3670 -1.0679 -0.0002
 9231SOL     OW39151   1.697   0.858   8.090 -0.1385 -1.0011 -1.0452
 9231SOL    HW139152   1.624   0.877   8.150  0.7686 -3.5648  0.8845
 9231SOL    HW239153   1.661   0.906   8.016  0.0045  1.6589  0.5894
 9232SOL     OW39154   1.219   1.818  14.782 -0.0294 -0.5981  0.1370
 9232SOL    HW139155   1.214   1.755  14.710  0.4464 -1.4616  0.8584
 9232SOL    HW239156   1.162   1.775  14.845 -1.1461  2.0657  0.9581
 9233SOL     OW39157   2.491   2.008   1.970 -0.0565 -0.0637  0.0842
 9233SOL    HW139158   2.568   2.005   2.026 -2.6650  2.8087  3.7557
 9233SOL    HW239159   2.424   2.034   2.033  0.8403  0.1816  0.9268
 9234SOL     OW39160   1.772   4.426   3.902  0.0995  0.3158  0.1381
 9234SOL    HW139161   1.741   4.505   3.945 -0.7059  0.6182 -0.9886
 9234SOL    HW239162   1.866   4.443   3.900  0.0853  0.2783 -1.3652
 9235SOL     OW39163   2.822   3.768   0.642  0.1695 -0.1939 -0.3841
 9235SOL    HW139164   2.800   3.841   0.701 -1.3377  1.5744 -3.1014
 9235SOL    HW239165   2.893   3.719   0.684  1.0701  0.0503 -1.6020
 9236SOL     OW39166   1.601   0.241   8.725  0.2063 -0.3978 -0.0721
 9236SOL    HW139167   1.621   0.209   8.637 -2.2634  1.2333 -1.2301
 9236SOL    HW239168   1.532   0.183   8.757  0.3548  0.9892  2.8319
 9237SOL     OW39169   0.050   3.054   9.596  0.2976  0.0348 -0.0220
 9237SOL    HW139170   0.055   3.026   9.504  1.0708 -0.2411  0.1050
 9237SOL    HW239171   0.122   3.116   9.600  0.3717 -0.1182  0.8315
 9238SOL     OW39172   3.788   0.869   5.884  0.0192  0.0860 -0.0022
 9238SOL    HW139173   3.818   0.802   5.822 -2.1914  1.0978 -2.1837
 9238SOL    HW239174   3.769   0.811   5.958  0.3177 -1.4482 -1.1309
 9239SOL     OW39175   2.373   4.385   1.068  0.3300  0.4068  0.3406
 9239SOL    HW139176   2.442   4.392   1.135  0.4942 -0.2647  0.2373
 9239SOL    HW239177   2.410   4.434   0.994  1.7344 -2.3667 -0.8201
 9240SOL     OW39178   0.625   0.918   5.593 -0.0998  0.1197 -0.7511
 9240SOL    HW139179   0.623   0.988   5.659 -1.0104  1.6331 -2.3635
 9240SOL    HW239180   0.702   0.946   5.544 -0.9072  3.3506 -0.2201
 9241SOL     OW39181   1.116   0.649  15.921  0.1286 -0.1118  0.1323
 9241SOL    HW139182   1.183   0.715  15.937 -0.7215  0.5945  0.8283
 9241SOL    HW239183   1.108   0.654  15.826  1.6761  1.5226  0.0865
 9242SOL     OW39184   3.856   2.212   6.513  0.0948  0.3178 -0.8623
 9242SOL    HW139185   3.804   2.212   6.433 -1.6015  0.2059  0.2403
 9242SOL    HW239186   3.867   2.119   6.532 -2.3317 -0.0374 -1.2937
 9243SOL     OW39187   3.018   1.829  15.447  0.1448 -0.2180 -0.1800
 9243SOL    HW139188   3.062   1.746  15.464  1.0720  0.3669  0.3366
 9243SOL    HW239189   3.053   1.840  15.358 -0.5565 -0.1479 -0.4444
 9244SOL     OW39190   0.603   3.125  17.290  0.6695 -0.1877  0.3886
 9244SOL    HW139191   0.682   3.157  17.333  0.1342  0.1511  1.1322
 9244SOL    HW239192   0.540   3.130  17.362 -0.9921 -2.9322 -0.8777
 9245SOL     OW39193   1.803   4.085   8.591  0.3906  1.3700  0.0327
 9245SOL    HW139194   1.856   4.025   8.643 -1.6266  0.8671  1.4648
 9245SOL    HW239195   1.818   4.049   8.504  2.9782  0.2205  0.9525
 9246SOL     OW39196   0.425   1.544   2.745 -0.0230  0.6253  0.0974
 9246SOL    HW139197   0.418   1.455   2.778 -0.2884  0.0316 -1.6090
 9246SOL    HW239198   0.400   1.534   2.654 -0.9964  0.2626  0.4056
 9247SOL     OW39199   2.383   1.255   2.927 -0.0713  0.0078  0.1121
 9247SOL    HW139200   2.310   1.275   2.985 -1.6054  0.0610 -1.8313
 9247SOL    HW239201   2.366   1.314   2.853 -1.2397 -0.5749 -0.0849
 9248SOL     OW39202   0.868   2.157   4.785 -0.0903  0.2039  0.0478
 9248SOL    HW139203   0.816   2.178   4.863 -0.5854  1.0857 -0.5260
 9248SOL    HW239204   0.949   2.201   4.812 -1.5921  2.6359  0.6019
 9249SOL     OW39205   3.175   3.765   4.983  0.3020 -0.4767 -0.5983
 9249SOL    HW139206   3.206   3.676   4.968  0.6206 -0.5119  0.3120
 9249SOL    HW239207   3.125   3.767   5.065  0.2226 -0.0864 -0.6527
 9250SOL     OW39208   0.829   0.940   5.419  1.1051  0.0991  0.1095
 9250SOL    HW139209   0.921   0.941   5.445  1.0007 -1.7423  0.5508
 9250SOL    HW239210   0.825   0.862   5.365 -1.1599 -0.6157  1.2998
 9251SOL     OW39211   3.410   3.211   5.689  0.0003 -0.6329 -0.7491
 9251SOL    HW139212   3.326   3.198   5.733 -0.8330 -0.9412 -2.4066
 9251SOL    HW239213   3.469   3.175   5.755 -1.7381  0.1567  1.2472
 9252SOL     OW39214   3.555   4.628   6.834 -0.1658  0.0549  0.8269
 9252SOL    HW139215   3.506   4.705   6.804 -0.5079 -0.2007  0.7192
 9252SOL    HW239216   3.647   4.651   6.842 -0.2810  1.0428 -0.6466
 9253SOL     OW39217   1.850   1.390   6.100 -0.3584  0.6168  0.4061
 9253SOL    HW139218   1.833   1.313   6.156 -2.0876  0.5245 -0.2694
 9253SOL    HW239219   1.946   1.393   6.103 -0.3700  1.2533  0.0136
 9254SOL     OW39220   1.216   0.502   8.557  0.3157 -0.0320  0.0460
 9254SOL    HW139221   1.236   0.418   8.516 -0.9318  0.1027 -0.8384
 9254SOL    HW239222   1.128   0.481   8.588  0.3943  1.1611  1.0886
 9255SOL     OW39223   4.171   3.163  14.319  0.4987 -0.7326  0.0760
 9255SOL    HW139224   4.260   3.194  14.337 -0.5872  0.8909  2.5479
 9255SOL    HW239225   4.151   3.251  14.286  1.4928 -1.8480 -3.5495
 9256SOL     OW39226   3.655   1.187   4.169  0.2241  0.2536  0.0789
 9256SOL    HW139227   3.727   1.180   4.106 -0.4219  1.3428 -0.7750
 9256SOL    HW239228   3.652   1.283   4.162  3.9159  0.0437 -4.8185
 9257SOL     OW39229   4.396   1.396  12.697  0.0327 -0.5164  1.0901
 9257SOL    HW139230   4.366   1.482  12.670 -2.6119 -1.2208  1.7830
 9257SOL    HW239231   4.461   1.423  12.762  0.8228  0.5052 -0.1209
 9258SOL     OW39232   0.133   2.200   6.599  0.1671 -0.2893  0.4453
 9258SOL    HW139233   0.148   2.172   6.509  0.4463 -0.6227  0.5920
 9258SOL    HW239234   0.058   2.259   6.594  2.2217  2.2617 -0.1545
 9259SOL     OW39235   1.367   2.152   6.632 -0.2621  0.4759  0.3952
 9259SOL    HW139236   1.296   2.116   6.685 -0.5390  0.8662  0.2877
 9259SOL    HW239237   1.342   2.245   6.628 -0.4688  0.4778  1.5066
 9260SOL     OW39238   1.206   3.779   5.867 -0.1446 -0.1142  0.3967
 9260SOL    HW139239   1.204   3.761   5.961  0.2147 -0.3785  0.3529
 9260SOL    HW239240   1.286   3.828   5.847  1.7545 -4.4074 -2.3136
 9261SOL     OW39241   1.362   2.387   8.197  0.6500 -0.2962 -0.1544
 9261SOL    HW139242   1.357   2.374   8.102  1.3331  1.2918 -0.4159
 9261SOL    HW239243   1.429   2.456   8.198 -1.8638  2.1189  0.7327
 9262SOL     OW39244   3.600   0.143  10.876 -0.0505  0.0007  0.5079
 9262SOL    HW139245   3.575   0.057  10.909  0.8091  0.2952  1.9306
 9262SOL    HW239246   3.513   0.180  10.857  0.2641 -0.2259 -1.3744
 9263SOL     OW39247   4.222   0.338   1.408 -0.0030  0.2295  0.1865
 9263SOL    HW139248   4.228   0.385   1.491  0.4625  0.5112 -0.0078
 9263SOL    HW239249   4.244   0.409   1.347  2.0125  1.0604  1.8892
 9264SOL     OW39250   4.261   3.841  15.435 -0.1375 -0.1292  0.5423
 9264SOL    HW139251   4.321   3.767  15.424 -1.7857 -1.5791  1.2619
 9264SOL    HW239252   4.193   3.821  15.370 -2.0837  4.1388  1.2926
 9265SOL     OW39253   0.653   0.686   1.481 -0.0569 -0.2141  0.2924
 9265SOL    HW139254   0.631   0.685   1.574 -2.0500  0.0622 -0.1764
 9265SOL    HW239255   0.739   0.728   1.485 -0.4070  0.2589  3.0590
 9266SOL     OW39256   3.067   4.684   6.131  0.3577  0.0777  0.3714
 9266SOL    HW139257   3.060   4.589   6.131  0.5027  0.0667  0.6036
 9266SOL    HW239258   2.978   4.708   6.106 -0.0764 -2.8265 -0.8248
 9267SOL     OW39259   2.209   1.208   3.178  0.3161 -0.2243 -0.3084
 9267SOL    HW139260   2.252   1.125   3.157 -0.3664 -0.5088 -0.5783
 9267SOL    HW239261   2.115   1.208   3.160  0.2423  0.9442  0.0495
 9268SOL     OW39262   1.499   0.877   8.803 -0.0051  0.0241 -1.0061
 9268SOL    HW139263   1.573   0.886   8.742  1.9857  0.6476  1.4844
 9268SOL    HW239264   1.444   0.808   8.766 -2.0489 -0.6114  3.2196
 9269SOL     OW39265   1.492   3.510   6.577 -0.1225  0.5252 -0.5036
 9269SOL    HW139266   1.456   3.596   6.600  1.3432  1.1362 -0.5033
 9269SOL    HW239267   1.522   3.477   6.662 -0.3000 -1.0646 -1.0520
 9270SOL     OW39268   2.018   3.464  13.643 -0.0790 -0.4708  0.2333
 9270SOL    HW139269   1.948   3.406  13.613  1.0799 -1.5185 -0.4243
 9270SOL    HW239270   2.017   3.523  13.568 -1.4314 -1.5095 -0.5660
 9271SOL     OW39271   4.148   2.601   8.630  0.1391 -0.2671 -0.5027
 9271SOL    HW139272   4.137   2.613   8.724 -3.8746  3.9333 -1.5198
 9271SOL    HW239273   4.061   2.577   8.599  1.0476  0.9105 -3.9411
 9272SOL     OW39274   4.713   2.802  15.259 -0.7144  0.0051  0.0092
 9272SOL    HW139275   4.680   2.744  15.328 -1.7801  0.0227 -0.4804
 9272SOL    HW239276   4.714   2.887  15.302 -1.3182 -0.6081  1.2308
 9273SOL     OW39277   1.116   0.145  13.251 -0.3703  0.2495 -0.1377
 9273SOL    HW139278   1.172   0.137  13.174  1.4923  2.6401  0.9607
 9273SOL    HW239279   1.088   0.235  13.235  1.7693  1.0996  0.9276
 9274SOL     OW39280   3.874   0.351   6.868 -0.1791 -0.6953  0.0564
 9274SOL    HW139281   3.822   0.394   6.935 -0.6291  0.3779 -0.9691
 9274SOL    HW239282   3.854   0.406   6.791  2.4356 -0.7122 -0.6318
 9275SOL     OW39283   4.495   3.807  16.536  0.0407 -0.1118 -0.2080
 9275SOL    HW139284   4.486   3.847  16.622 -2.4366 -1.1740  0.0344
 9275SOL    HW239285   4.424   3.855  16.493 -0.9746 -0.8804  0.6055
 9276SOL     OW39286   2.150   1.447   6.110  0.5105 -0.1649  0.4332
 9276SOL    HW139287   2.188   1.492   6.034 -1.6354  0.1040 -0.4849
 9276SOL    HW239288   2.203   1.367   6.116  0.8814 -0.1632 -2.5381
 9277SOL     OW39289   1.794   2.171  11.731 -0.9771  0.7992  0.1399
 9277SOL    HW139290   1.804   2.195  11.823  0.8464 -0.1461  0.1904
 9277SOL    HW239291   1.792   2.256  11.686  0.9713 -0.5277 -2.4683
 9278SOL     OW39292   0.919   4.132   4.342 -0.3546  0.4061  0.5470
 9278SOL    HW139293   0.857   4.202   4.319 -0.1234  0.3127 -0.3679
 9278SOL    HW239294   0.991   4.168   4.289  0.6497 -1.6140  0.5439
 9279SOL     OW39295   3.434   4.669   5.944 -0.3094  0.6938 -0.2842
 9279SOL    HW139296   3.419   4.645   6.036 -0.9642  2.0143 -0.0427
 9279SOL    HW239297   3.503   0.012   5.956  0.7772 -0.2643 -1.4223
 9280SOL     OW39298   3.092   4.086   2.601 -0.5729  0.4584  0.0873
 9280SOL    HW139299   3.115   4.164   2.651 -0.4342  1.6611 -1.8366
 9280SOL    HW239300   3.134   4.014   2.648  0.7783  0.6550 -0.8089
 9281SOL     OW39301   0.932   2.290   5.332 -0.3821 -0.7250 -0.2641
 9281SOL    HW139302   0.978   2.238   5.398 -1.8547 -2.1377 -0.3413
 9281SOL    HW239303   0.944   2.375   5.373  1.1052 -1.7090  1.3559
 9282SOL     OW39304   1.050   0.891   9.487 -0.0957 -0.2460 -0.5151
 9282SOL    HW139305   0.999   0.889   9.406 -0.6174  0.6061 -0.2058
 9282SOL    HW239306   0.991   0.914   9.559 -0.0743  1.4733 -1.0532
 9283SOL     OW39307   2.153   0.179   2.109  0.0471 -0.1344  0.0876
 9283SOL    HW139308   2.248   0.180   2.105 -0.0145 -1.4029 -1.5342
 9283SOL    HW239309   2.133   0.147   2.197  1.1016 -1.0646 -0.0056
 9284SOL     OW39310   3.116   0.528   5.591 -0.5814  0.1381 -0.0687
 9284SOL    HW139311   3.209   0.507   5.602 -0.2511  1.0531 -1.0964
 9284SOL    HW239312   3.090   0.461   5.654  0.9337 -0.7649 -0.4171
 9285SOL     OW39313   1.609   3.357   4.013  0.2888  0.3676 -0.2985
 9285SOL    HW139314   1.636   3.382   3.924  0.9119 -0.7817 -0.4272
 9285SOL    HW239315   1.648   3.271   4.030 -1.1452 -0.5842 -1.7099
 9286SOL     OW39316   1.894   2.543   2.894  0.3626 -0.4515  0.1394
 9286SOL    HW139317   1.901   2.550   2.989  2.4793  1.9062 -0.1924
 9286SOL    HW239318   1.946   2.466   2.871  0.3027  0.0837 -1.7942
 9287SOL     OW39319   4.678   0.769   2.725  0.1591  0.1635  0.1516
 9287SOL    HW139320   0.048   0.749   2.733 -0.4277 -1.5502  2.8417
 9287SOL    HW239321   4.687   0.828   2.650 -0.6576 -0.4974 -0.4670
 9288SOL     OW39322   3.717   4.277   7.113  0.3929 -0.3515  0.1694
 9288SOL    HW139323   3.663   4.347   7.151 -2.0001 -3.1878  1.9888
 9288SOL    HW239324   3.757   4.252   7.197 -1.5778  1.0026  1.5099
 9289SOL     OW39325   2.376   1.939   9.041 -0.5682  0.0509 -0.0237
 9289SOL    HW139326   2.302   1.999   9.034 -0.6662  0.0778  1.2948
 9289SOL    HW239327   2.363   1.909   9.131 -2.1792 -0.6371 -0.4869
 9290SOL     OW39328   0.705   3.510   1.610  0.6428 -0.8286 -0.6059
 9290SOL    HW139329   0.750   3.469   1.536  0.4028 -0.5218 -0.9259
 9290SOL    HW239330   0.662   3.583   1.565  2.4867  0.8013  0.3072
 9291SOL     OW39331   4.614   0.943   2.325 -0.0585  0.5910  0.2243
 9291SOL    HW139332   4.681   0.923   2.390  1.4488 -0.7613 -1.7206
 9291SOL    HW239333   4.667   0.989   2.260 -1.1760  2.9205  0.9509
 9292SOL     OW39334   1.632   0.310   2.443 -0.1219 -0.0857 -0.0056
 9292SOL    HW139335   1.716   0.274   2.414 -0.2489  1.1209 -1.9088
 9292SOL    HW239336   1.581   0.320   2.362 -0.3255  0.4999  0.1952
 9293SOL     OW39337   3.623   4.478   1.864 -0.1235  0.2549  0.3116
 9293SOL    HW139338   3.652   4.388   1.846 -2.9727 -0.7396  0.6372
 9293SOL    HW239339   3.658   4.482   1.954 -2.8792 -0.3125  1.4089
 9294SOL     OW39340   0.586   3.168   2.623  0.0532  0.2565  0.6791
 9294SOL    HW139341   0.576   3.077   2.594  0.2700  0.2180  0.7299
 9294SOL    HW239342   0.677   3.195   2.616  0.1823 -0.3893 -0.2494
 9295SOL     OW39343   3.630   1.210  10.956 -0.1408 -0.4886  0.0680
 9295SOL    HW139344   3.580   1.237  11.033  0.5715 -0.9470  0.6982
 9295SOL    HW239345   3.570   1.144  10.920 -1.6369  1.4573 -0.9552
 9296SOL     OW39346   1.106   2.878   3.865 -0.0772  0.2239 -0.3200
 9296SOL    HW139347   1.112   2.970   3.893 -0.8909  0.5075 -1.0464
 9296SOL    HW239348   1.112   2.836   3.951 -1.9834 -0.3156 -0.4388
 9297SOL     OW39349   2.408   4.452  14.109  0.3822 -0.2493 -0.0633
 9297SOL    HW139350   2.497   4.418  14.112  0.9912  1.5078  1.6802
 9297SOL    HW239351   2.358   4.371  14.106  1.7100 -1.0449 -0.8961
 9298SOL     OW39352   1.283   3.756   6.177  0.2163 -0.2544  0.6643
 9298SOL    HW139353   1.369   3.795   6.194  0.0611  0.2755  0.2095
 9298SOL    HW239354   1.227   3.824   6.215 -0.7088 -1.5655  1.6963
 9299SOL     OW39355   0.315   2.840   8.734 -0.2414  0.9640 -0.0062
 9299SOL    HW139356   0.307   2.792   8.816 -2.6667 -0.8261 -1.2729
 9299SOL    HW239357   0.227   2.820   8.702 -1.3240  0.6524  3.2373
 9300SOL     OW39358   2.324   3.235  14.918  0.0763 -0.2079 -0.2771
 9300SOL    HW139359   2.251   3.295  14.926  1.3410  1.1903  0.6757
 9300SOL    HW239360   2.275   3.167  14.872 -0.9117  0.2701  0.0800
 9301SOL     OW39361   3.491   1.598  12.801 -0.8213  0.6110  0.1248
 9301SOL    HW139362   3.447   1.676  12.835  0.3275  0.6902  1.4043
 9301SOL    HW239363   3.494   1.617  12.707 -0.2473 -1.2868 -0.2317
 9302SOL     OW39364   2.534   2.761  13.191 -0.4556  0.1231 -0.2112
 9302SOL    HW139365   2.615   2.781  13.144 -0.5753  1.0258 -0.0378
 9302SOL    HW239366   2.468   2.818  13.151 -1.0625  1.3083  2.4987
 9303SOL     OW39367   4.525   3.327  17.127  0.1530  0.0080  0.3674
 9303SOL    HW139368   4.616   3.341  17.101  0.4111  0.0999  1.3292
 9303SOL    HW239369   4.510   3.413  17.165  0.6138 -0.1844  0.9779
 9304SOL     OW39370   3.996   0.601   4.079  0.7075  0.2068 -0.5838
 9304SOL    HW139371   4.005   0.692   4.108 -1.4859 -0.2662  1.5632
 9304SOL    HW239372   3.974   0.549   4.156 -1.3919  0.5930 -0.9057
 9305SOL     OW39373   3.585   4.679   2.326 -0.0035 -0.0036  0.7522
 9305SOL    HW139374   3.681   4.684   2.326  0.0011 -0.0417  1.7214
 9305SOL    HW239375   3.563   0.043   2.361 -2.8303 -1.0650  1.6322
 9306SOL     OW39376   3.900   1.198  17.142  0.0926  0.1807  0.1029
 9306SOL    HW139377   3.916   1.135  17.213 -0.7660 -0.7766 -0.5525
 9306SOL    HW239378   3.921   1.282  17.182  0.7179  0.3880 -0.6666
 9307SOL     OW39379   0.169   0.309  13.173  0.5427  0.4600  0.0642
 9307SOL    HW139380   0.116   0.272  13.244 -2.2435  1.1399 -1.6700
 9307SOL    HW239381   0.219   0.231  13.146 -1.0869  0.1646 -2.0424
 9308SOL     OW39382   0.726   2.768   2.089  0.8942 -0.2348 -0.6395
 9308SOL    HW139383   0.682   2.842   2.047  1.1139 -0.5765 -1.4841
 9308SOL    HW239384   0.659   2.705   2.116  0.7500 -0.6598 -1.9569
 9309SOL     OW39385   3.791   2.000  12.900 -0.0993  0.3419  0.2956
 9309SOL    HW139386   3.836   2.082  12.922 -1.8636  1.0550  1.2182
 9309SOL    HW239387   3.783   1.954  12.983 -3.1519 -0.4260 -0.4088
 9310SOL     OW39388   3.089   3.978   3.474  0.0655 -0.2788 -0.2260
 9310SOL    HW139389   2.999   4.006   3.491 -0.1520 -1.7332  1.0065
 9310SOL    HW239390   3.138   4.013   3.548 -1.6545  0.0940  0.7388
 9311SOL     OW39391   0.185   1.565  11.235  0.0819  0.1400  0.1340
 9311SOL    HW139392   0.176   1.653  11.199  0.0900  0.8060  1.7765
 9311SOL    HW239393   0.238   1.581  11.313 -1.0248  1.6518  0.5737
 9312SOL     OW39394   3.603   4.709   3.046  0.2237  0.1398  0.0860
 9312SOL    HW139395   3.697   0.004   3.038  0.1090  0.9846  0.5444
 9312SOL    HW239396   3.584   4.648   2.975 -0.2145  0.0498  0.2826
 9313SOL     OW39397   1.383   2.775   8.257  0.2078  0.1810  0.3721
 9313SOL    HW139398   1.305   2.752   8.208 -0.6429 -0.6784  2.1452
 9313SOL    HW239399   1.422   2.688   8.268  1.7719  0.6468 -1.3405
 9314SOL     OW39400   4.378   1.030  11.570  0.1293 -0.2534  0.3279
 9314SOL    HW139401   4.302   1.021  11.627  0.3724  1.7737  0.9730
 9314SOL    HW239402   4.379   1.125  11.559  0.7020 -0.0344  2.1087
 9315SOL     OW39403   4.117   1.077  10.976  0.2367  0.1404 -0.0758
 9315SOL    HW139404   4.027   1.098  11.002  0.9872  3.0179  0.1848
 9315SOL    HW239405   4.138   1.004  11.034  0.0047  0.2936  0.1985
 9316SOL     OW39406   2.717   3.410   8.029  0.0042 -0.4988  0.1769
 9316SOL    HW139407   2.788   3.382   7.972  0.9547  1.3030  0.4811
 9316SOL    HW239408   2.718   3.338   8.093 -0.1657 -0.4711  0.2108
 9317SOL     OW39409   0.734   1.243   5.638 -0.1603  0.3130  0.1657
 9317SOL    HW139410   0.820   1.211   5.665  0.0959 -0.8627 -2.0622
 9317SOL    HW239411   0.672   1.181   5.677  0.3761 -1.8945 -2.5335
 9318SOL     OW39412   0.308   4.473   1.838 -0.2166  0.0546 -0.0407
 9318SOL    HW139413   0.280   4.554   1.796  1.3380  0.7224  0.2059
 9318SOL    HW239414   0.229   4.461   1.890 -1.2418  2.3756 -1.0555
 9319SOL     OW39415   2.777   0.105   3.893  0.1945 -0.2021 -0.1495
 9319SOL    HW139416   2.819   0.033   3.846  0.1712  0.7497 -1.6258
 9319SOL    HW239417   2.747   0.064   3.974 -2.7146  0.9699 -0.6672
 9320SOL     OW39418   4.187   0.782   1.336  0.1331  0.8096 -0.5608
 9320SOL    HW139419   4.156   0.794   1.425 -0.2406  0.4222 -0.6366
 9320SOL    HW239420   4.258   0.845   1.343  0.6773  0.2166 -0.6724
 9321SOL     OW39421   0.934   0.574   8.609  0.5248  0.0005  1.1726
 9321SOL    HW139422   0.887   0.587   8.691 -1.1403  1.3709 -0.0001
 9321SOL    HW239423   0.881   0.503   8.572  1.0812  0.7680 -1.1174
 9322SOL     OW39424   3.503   3.162   7.499  0.1582  0.1894  0.0551
 9322SOL    HW139425   3.597   3.166   7.482  0.3382 -2.7622  0.4292
 9322SOL    HW239426   3.497   3.102   7.573 -0.4433  2.4039  1.7917
 9323SOL     OW39427   2.084   1.776   7.215 -0.1159  0.5003  0.0440
 9323SOL    HW139428   2.176   1.793   7.235 -0.3065  1.8203 -0.1527
 9323SOL    HW239429   2.044   1.804   7.297 -0.1748 -0.5106  0.3480
 9324SOL     OW39430   3.734   3.250   7.720 -0.1859 -0.0209  0.2151
 9324SOL    HW139431   3.822   3.213   7.719 -0.2805 -0.3002  1.9501
 9324SOL    HW239432   3.729   3.316   7.652 -2.3371  0.9146  1.2651
 9325SOL     OW39433   3.698   4.551   9.653 -0.4791  0.1025  0.3925
 9325SOL    HW139434   3.667   4.624   9.600  1.5378  0.4811 -0.2553
 9325SOL    HW239435   3.635   4.484   9.629  1.0124 -1.3656  0.5482
 9326SOL     OW39436   3.143   2.487   3.015 -0.2914  0.1449 -0.0190
 9326SOL    HW139437   3.232   2.518   3.030 -0.0081 -1.2787  1.2371
 9326SOL    HW239438   3.109   2.571   2.983 -2.4230  0.1461  2.2266
 9327SOL     OW39439   0.784   3.520   2.854  0.1166  0.3371  0.6432
 9327SOL    HW139440   0.811   3.437   2.895  1.7865  1.3843  1.6708
 9327SOL    HW239441   0.855   3.576   2.885  0.4994 -0.4013  1.1216
 9328SOL     OW39442   4.538   1.271   9.296 -0.2064 -0.2967 -0.1880
 9328SOL    HW139443   4.599   1.214   9.344  1.4316  0.1429 -1.7244
 9328SOL    HW239444   4.586   1.279   9.213  0.4052 -0.0987  0.1866
 9329SOL     OW39445   0.602   3.583   7.983 -0.2516  0.0468  0.0715
 9329SOL    HW139446   0.568   3.535   7.908 -0.5651  1.5724 -0.7642
 9329SOL    HW239447   0.600   3.514   8.049 -1.5737 -1.4411 -1.5320
 9330SOL     OW39448   2.989   1.380   4.079 -0.9409  0.2457  0.0173
 9330SOL    HW139449   3.020   1.327   4.153 -1.0037  0.9107  0.5193
 9330SOL    HW239450   3.053   1.370   4.009 -1.6561 -2.5170 -0.2326
 9331SOL     OW39451   4.085   2.657   8.881  0.0969 -0.4351  0.6462
 9331SOL    HW139452   4.072   2.568   8.913  0.0013 -1.2806 -1.7249
 9331SOL    HW239453   4.010   2.699   8.922 -0.9516 -1.6194 -0.0536
 9332SOL     OW39454   0.167   4.136   1.257 -0.4802 -0.4024  0.4265
 9332SOL    HW139455   0.085   4.170   1.294 -1.0969 -0.1871 -1.1626
 9332SOL    HW239456   0.132   4.063   1.207 -0.5084  0.1285 -0.3281
 9333SOL     OW39457   0.507   0.490   2.671 -0.6974  0.1518  0.1239
 9333SOL    HW139458   0.587   0.475   2.620 -1.9761  0.4915 -1.9674
 9333SOL    HW239459   0.436   0.488   2.607  0.3170  1.3132 -1.0282
 9334SOL     OW39460   2.827   1.326  10.739  0.0006  0.1511  0.0788
 9334SOL    HW139461   2.881   1.404  10.752  1.2494 -0.2641 -2.5278
 9334SOL    HW239462   2.898   1.264  10.721  0.1669 -0.6006  3.3091
 9335SOL     OW39463   1.882   1.069   2.920  0.1544 -0.0480  0.0452
 9335SOL    HW139464   1.814   1.003   2.906 -0.6359  1.1627 -1.8745
 9335SOL    HW239465   1.918   1.087   2.833  1.3109 -0.2911  0.4690
 9336SOL     OW39466   1.059   3.343  17.532  0.4941 -0.1363  0.1233
 9336SOL    HW139467   1.090   3.431  17.511  0.1864 -0.3979 -1.3868
 9336SOL    HW239468   1.126   3.292  17.487 -0.6653 -2.0896  0.6041
 9337SOL     OW39469   3.840   3.422   7.548 -0.1318  0.2901  0.0865
 9337SOL    HW139470   3.878   3.448   7.632  1.4393 -2.0349  0.1082
 9337SOL    HW239471   3.818   3.502   7.500  0.9548  0.6066  0.1202
 9338SOL     OW39472   3.184   0.133  16.923  0.2781  0.1888 -0.0968
 9338SOL    HW139473   3.172   0.117  17.016 -0.7916  0.3373 -0.2087
 9338SOL    HW239474   3.214   0.047  16.893  4.5892  1.7827 -0.4022
 9339SOL     OW39475   2.181   3.431  11.287 -0.0681 -0.1352 -0.1886
 9339SOL    HW139476   2.219   3.403  11.203 -0.9410 -0.4665 -0.4733
 9339SOL    HW239477   2.134   3.350  11.307 -0.3753 -0.2589 -1.3536
 9340SOL     OW39478   0.420   4.487  11.949 -0.1128  0.6235  0.3485
 9340SOL    HW139479   0.431   4.501  12.043  2.3181 -1.1554  0.3351
 9340SOL    HW239480   0.512   4.474  11.925 -0.7999  0.0162 -1.9745
 9341SOL     OW39481   2.461   0.149   6.980  0.1775  0.3337  0.1767
 9341SOL    HW139482   2.416   0.185   7.056 -1.0104  0.7313 -0.7028
 9341SOL    HW239483   2.429   0.059   6.976  1.6206 -0.1831  0.3412
 9342SOL     OW39484   0.526   4.344   1.942  0.5086 -0.4973 -0.2166
 9342SOL    HW139485   0.593   4.390   1.891 -0.6152  0.1909 -1.0706
 9342SOL    HW239486   0.448   4.376   1.896  0.0697 -0.7795  0.3331
 9343SOL     OW39487   2.714   0.096   5.793  0.1135  0.8371  0.3471
 9343SOL    HW139488   2.624   0.112   5.764  0.6065  2.1380 -0.4813
 9343SOL    HW239489   2.722   0.003   5.771 -0.1468  1.1841 -1.2286
 9344SOL     OW39490   2.701   3.684  13.425 -0.0461 -0.7636 -0.3230
 9344SOL    HW139491   2.778   3.645  13.467 -0.8860  0.4804  2.3518
 9344SOL    HW239492   2.640   3.677  13.498 -1.9839 -0.9164 -1.9580
 9345SOL     OW39493   4.706   1.227  10.968  0.0789  0.3309 -0.5707
 9345SOL    HW139494   4.653   1.305  10.984 -0.1374  0.3175 -1.2246
 9345SOL    HW239495   0.018   1.204  11.055 -1.4387  3.8670  0.9741
 9346SOL     OW39496   0.249   2.596   6.363  0.2126 -0.4310  0.0235
 9346SOL    HW139497   0.159   2.582   6.391  1.0448 -2.4526  1.7180
 9346SOL    HW239498   0.278   2.656   6.432  1.2270 -0.3730 -0.4574
 9347SOL     OW39499   4.412   3.613  15.685 -0.7452  0.3475 -0.3548
 9347SOL    HW139500   4.411   3.595  15.591  0.2974 -0.6184 -0.1825
 9347SOL    HW239501   4.386   3.705  15.682  1.0435  0.8018 -2.0019
 9348SOL     OW39502   2.633   3.362   3.129  0.1280 -0.0699 -0.3425
 9348SOL    HW139503   2.637   3.326   3.218  1.9207  1.2356  0.1112
 9348SOL    HW239504   2.541   3.380   3.113 -0.4416 -2.7610 -0.0869
 9349SOL     OW39505   0.758   3.538   2.226 -0.8533  0.4394 -0.1632
 9349SOL    HW139506   0.845   3.565   2.198 -1.4063  0.7601 -1.5644
 9349SOL    HW239507   0.772   3.547   2.320  1.1127 -0.3170 -0.3670
 9350SOL     OW39508   1.217   1.745   6.704  0.1382 -0.8765 -0.2115
 9350SOL    HW139509   1.201   1.755   6.611 -0.1763  1.6619  0.1141
 9350SOL    HW239510   1.313   1.749   6.705  0.0358  1.9528 -1.8658
 9351SOL     OW39511   4.454   2.720  10.984 -0.0738 -0.3973  0.2574
 9351SOL    HW139512   4.400   2.779  11.037  0.1577 -0.8075  0.9515
 9351SOL    HW239513   4.533   2.715  11.038  0.1825  1.9385  0.1145
 9352SOL     OW39514   2.856   0.075  16.464 -0.1596 -0.2205  0.4128
 9352SOL    HW139515   2.938   0.107  16.501  0.3936 -0.5191 -0.5753
 9352SOL    HW239516   2.885   4.722  16.413 -1.6411 -0.6922  0.2688
 9353SOL     OW39517   3.054   2.669   7.522  0.0386  0.1134 -0.5759
 9353SOL    HW139518   2.986   2.736   7.536  0.0913 -0.1606  1.0294
 9353SOL    HW239519   3.025   2.633   7.438 -1.2843 -2.3797  0.9653
 9354SOL     OW39520   4.254   3.342   7.344  0.4242 -0.8765  0.5962
 9354SOL    HW139521   4.274   3.322   7.435 -0.1909 -1.0915  0.6874
 9354SOL    HW239522   4.203   3.422   7.358  0.6417 -0.0416 -3.1289
 9355SOL     OW39523   0.642   4.115  15.823 -0.1310  0.3414 -0.4749
 9355SOL    HW139524   0.649   4.101  15.917  0.9422  0.9999 -0.4522
 9355SOL    HW239525   0.565   4.170  15.814  0.4020  1.2819  0.6459
 9356SOL     OW39526   0.436   2.077   8.287 -0.1353 -0.1544  0.5057
 9356SOL    HW139527   0.445   2.030   8.371  0.1462  0.7684  0.9919
 9356SOL    HW239528   0.519   2.049   8.247 -0.2340  0.0771  0.1437
 9357SOL     OW39529   3.720   4.158   2.141 -0.1153 -0.9830  0.1574
 9357SOL    HW139530   3.737   4.089   2.204  1.5895 -1.4438 -0.8227
 9357SOL    HW239531   3.747   4.228   2.200  0.7370  0.6891 -2.2192
 9358SOL     OW39532   4.674   0.271  15.907  0.4400  0.2434  0.1648
 9358SOL    HW139533   4.657   0.284  15.814  0.3761 -1.4741 -0.0749
 9358SOL    HW239534   4.654   0.177  15.912  0.3372  0.2560 -0.0496
 9359SOL     OW39535   2.660   4.259  10.923  0.5972 -0.6157  0.1768
 9359SOL    HW139536   2.755   4.256  10.916  0.5812 -1.4214  0.3039
 9359SOL    HW239537   2.657   4.192  10.991 -0.0557 -0.4589  0.3077
 9360SOL     OW39538   1.632   1.606   7.739 -0.8035 -0.6922  0.0212
 9360SOL    HW139539   1.603   1.690   7.703 -2.5817 -0.4840  1.9365
 9360SOL    HW239540   1.710   1.594   7.685 -1.1806  0.0478 -0.6881
 9361SOL     OW39541   1.424   2.116  14.933  0.1879 -0.3876 -0.4867
 9361SOL    HW139542   1.444   2.210  14.935  0.4052 -0.4714  1.0728
 9361SOL    HW239543   1.332   2.125  14.958  0.2274  2.2165 -1.3386
 9362SOL     OW39544   0.912   2.771  11.967 -0.0821  0.6921  0.2560
 9362SOL    HW139545   0.916   2.677  11.987  1.0125  0.4552 -1.0088
 9362SOL    HW239546   0.921   2.800  12.057  2.0756  1.1536 -0.1061
 9363SOL     OW39547   3.809   0.836   8.387 -0.5186  0.1690  0.8166
 9363SOL    HW139548   3.758   0.880   8.455 -0.4448 -0.8896  1.5532
 9363SOL    HW239549   3.767   0.751   8.388 -0.5553  0.1662 -1.0818
 9364SOL     OW39550   0.694   0.020  11.861  0.3301 -0.0305  0.2783
 9364SOL    HW139551   0.690   4.648  11.845  1.4889 -0.2050  0.9897
 9364SOL    HW239552   0.653   0.025  11.948 -0.9456 -0.5238 -0.2931
 9365SOL     OW39553   0.396   1.000   5.450  0.1600 -0.0738 -0.5324
 9365SOL    HW139554   0.472   0.960   5.492 -1.7987 -1.9983  1.1763
 9365SOL    HW239555   0.327   0.976   5.511  1.5265 -0.5722  0.8105
 9366SOL     OW39556   3.444   2.874   6.863 -0.0883  0.0626  0.6898
 9366SOL    HW139557   3.424   2.962   6.831  0.2673  0.3727  1.3221
 9366SOL    HW239558   3.401   2.813   6.803  1.9223  0.0476 -0.7442
 9367SOL     OW39559   3.174   4.067   7.243  0.2194  0.0854  0.2086
 9367SOL    HW139560   3.146   4.056   7.334 -1.7157 -1.3374 -0.5563
 9367SOL    HW239561   3.247   4.128   7.247  0.6219 -0.2485 -2.5744
 9368SOL     OW39562   4.704   0.232   8.275  0.4637 -0.5883  0.2291
 9368SOL    HW139563   0.015   0.164   8.217 -0.4633 -2.8752  2.3766
 9368SOL    HW239564   4.618   0.204   8.306  0.0307  1.6484  1.1184
 9369SOL     OW39565   0.255   4.345   5.735 -0.0622  0.0469 -0.2499
 9369SOL    HW139566   0.174   4.299   5.713 -0.1322 -1.2226  2.6526
 9369SOL    HW239567   0.312   4.273   5.761 -1.0083 -1.0405 -1.1916
 9370SOL     OW39568   3.863   0.855   6.780  0.2729  0.3096  0.5891
 9370SOL    HW139569   3.782   0.875   6.734  0.7254  0.1336 -0.3057
 9370SOL    HW239570   3.896   0.782   6.727 -1.2885 -0.0704  0.1474
 9371SOL     OW39571   0.700   2.116  12.970 -0.5397 -0.1590 -0.0293
 9371SOL    HW139572   0.708   2.067  12.888  1.5573  1.2807 -0.6708
 9371SOL    HW239573   0.614   2.088  13.001 -1.5997 -1.5873 -4.1904
 9372SOL     OW39574   3.801   4.552   4.420 -0.8407 -0.5404 -0.1499
 9372SOL    HW139575   3.793   4.598   4.503 -0.8052  0.0259 -0.4602
 9372SOL    HW239576   3.845   4.617   4.365  1.8865 -1.3314  1.0796
 9373SOL     OW39577   2.232   3.038   2.971  0.1138  0.5168 -0.2810
 9373SOL    HW139578   2.326   3.037   2.991  0.3927  0.8916 -1.5487
 9373SOL    HW239579   2.190   3.019   3.055 -0.3866 -0.1428 -0.6795
 9374SOL     OW39580   3.788   0.696   2.722  0.2051 -0.0328  0.7129
 9374SOL    HW139581   3.867   0.644   2.725  1.9947  2.4414 -2.7219
 9374SOL    HW239582   3.726   0.644   2.773 -0.8570  0.5647  0.0376
 9375SOL     OW39583   2.967   2.499  15.438  0.9095 -0.3560  0.0964
 9375SOL    HW139584   2.935   2.422  15.392  0.4968 -0.9838  1.4336
 9375SOL    HW239585   2.910   2.570  15.408 -2.5602 -2.7197  1.0716
 9376SOL     OW39586   2.839   4.657   8.396 -0.0344  0.1486 -0.1029
 9376SOL    HW139587   2.753   4.615   8.393 -0.6388  1.3718 -0.3675
 9376SOL    HW239588   2.823   0.024   8.367  1.2076 -0.5493 -2.8896
 9377SOL     OW39589   2.162   3.803  11.994 -0.2031  0.4024  0.1281
 9377SOL    HW139590   2.186   3.734  11.931 -0.7301  0.3444 -0.0063
 9377SOL    HW239591   2.163   3.754  12.076 -1.4666  0.6087  0.2601
 9378SOL     OW39592   3.936   0.452  17.252  0.0596  0.5086  0.3325
 9378SOL    HW139593   4.026   0.474  17.229 -0.5240  2.6551  0.1232
 9378SOL    HW239594   3.917   0.388  17.184  0.3500  1.5030 -0.6863
 9379SOL     OW39595   2.679   1.785  10.213  0.1414  0.0861 -0.5466
 9379SOL    HW139596   2.675   1.747  10.125  1.2204 -0.0494 -0.5327
 9379SOL    HW239597   2.601   1.744  10.250  0.3730  0.6483  0.5500
 9380SOL     OW39598   4.184   1.601   9.377 -0.4578  0.2894  0.1168
 9380SOL    HW139599   4.198   1.631   9.288  0.6463  0.3588  0.3139
 9380SOL    HW239600   4.267   1.622   9.419  0.7462 -2.2391 -1.0007
 9381SOL     OW39601   4.565   3.379   7.403 -0.3814 -1.1878 -0.5118
 9381SOL    HW139602   4.514   3.329   7.467  1.2434 -2.6257 -0.3492
 9381SOL    HW239603   4.630   3.410   7.466 -1.0761 -0.7454 -0.0044
 9382SOL     OW39604   1.024   4.256   6.299 -0.7238 -0.1354  0.7786
 9382SOL    HW139605   0.931   4.239   6.290 -0.8344 -0.1546  1.9356
 9382SOL    HW239606   1.051   4.207   6.377  0.0828  0.6907  1.0169
 9383SOL     OW39607   1.300   4.466  10.363  0.2996  0.1231  0.0771
 9383SOL    HW139608   1.359   4.527  10.409 -0.9441  1.5055 -0.1626
 9383SOL    HW239609   1.239   4.453  10.436  1.0490 -3.0555  0.1104
 9384SOL     OW39610   2.044   0.878   5.545 -0.7578 -0.0880 -0.2329
 9384SOL    HW139611   1.993   0.942   5.594 -0.5104 -0.4596  0.5111
 9384SOL    HW239612   2.128   0.903   5.583 -0.4553 -0.4641 -0.6481
 9385SOL     OW39613   2.110   2.648   8.246  0.0398  0.4312 -0.3693
 9385SOL    HW139614   2.058   2.596   8.185  1.0863  0.1121 -0.9911
 9385SOL    HW239615   2.113   2.734   8.205  1.1750 -0.2910 -1.8142
 9386SOL     OW39616   4.421   2.255   1.575 -0.2605  0.7601 -0.3973
 9386SOL    HW139617   4.416   2.162   1.598 -0.5535  1.1625  1.1856
 9386SOL    HW239618   4.503   2.281   1.616  0.9567  1.2563 -3.1277
 9387SOL     OW39619   2.945   2.216   4.133  0.3323  0.1179  0.3296
 9387SOL    HW139620   2.974   2.272   4.205 -1.6762  1.5570  0.0211
 9387SOL    HW239621   2.886   2.151   4.171  0.4788 -0.5250 -0.5282
 9388SOL     OW39622   1.730   3.549   2.504  0.2608 -0.0646 -0.0313
 9388SOL    HW139623   1.761   3.623   2.556 -0.1057 -0.5189  0.8402
 9388SOL    HW239624   1.807   3.493   2.506 -1.9483 -3.0541  1.9799
 9389SOL     OW39625   3.578   3.309  15.083  0.2798 -0.3235 -0.1531
 9389SOL    HW139626   3.671   3.334  15.085  0.9576 -2.7556 -0.5993
 9389SOL    HW239627   3.562   3.312  14.988 -0.2392 -0.3632 -0.0666
 9390SOL     OW39628   1.868   2.787   6.987 -0.3571  0.7035 -0.3664
 9390SOL    HW139629   1.959   2.757   6.986  0.2574  2.5656 -1.3901
 9390SOL    HW239630   1.852   2.770   7.079 -0.6971 -1.2794 -0.7950
 9391SOL     OW39631   3.061   1.805   7.527 -0.1419  0.2012  0.1734
 9391SOL    HW139632   3.071   1.798   7.432 -0.6413 -1.8697  0.2571
 9391SOL    HW239633   2.966   1.810   7.539 -0.2215  0.4036 -0.5364
 9392SOL     OW39634   3.382   1.450   7.688  0.3727  0.0507 -0.3827
 9392SOL    HW139635   3.287   1.439   7.679  0.2823 -0.0505  0.6291
 9392SOL    HW239636   3.404   1.393   7.762  1.0739 -1.8031 -2.0285
 9393SOL     OW39637   0.474   0.407   5.487  0.2980 -0.0949  0.1170
 9393SOL    HW139638   0.397   0.418   5.543 -0.3704 -1.0110 -0.6314
 9393SOL    HW239639   0.490   0.501   5.474  1.2634 -0.2128  0.4781
 9394SOL     OW39640   4.494   3.100   3.930 -0.0302 -0.8175 -0.3463
 9394SOL    HW139641   4.520   3.145   3.849 -1.4026  1.6114  0.5660
 9394SOL    HW239642   4.572   3.049   3.950 -0.7381  0.0094  4.6119
 9395SOL     OW39643   3.114   3.965  10.424  0.2180 -0.2633  0.6670
 9395SOL    HW139644   3.202   4.001  10.432  0.8844 -2.3088  2.5233
 9395SOL    HW239645   3.072   4.050  10.438  2.6659  1.0936 -0.2236
 9396SOL     OW39646   4.231   1.846   1.419  0.5120  0.4214 -0.4716
 9396SOL    HW139647   4.275   1.811   1.496 -0.5986  0.5497  0.2163
 9396SOL    HW239648   4.196   1.932   1.440  1.5330  0.4403  1.1183
 9397SOL     OW39649   0.047   1.685   9.008 -0.2674  0.0190 -0.6064
 9397SOL    HW139650   0.003   1.735   9.077 -2.7653  0.1728 -2.3132
 9397SOL    HW239651   0.135   1.714   9.028  0.0562 -0.8774 -0.7296
 9398SOL     OW39652   0.669   3.352   1.139 -0.2204  0.0157 -0.2167
 9398SOL    HW139653   0.615   3.288   1.187 -0.6762  1.3984  1.1169
 9398SOL    HW239654   0.675   3.306   1.055  0.4270 -3.4606  1.7142
 9399SOL     OW39655   2.183   3.237   6.283 -0.7559 -0.3532  0.0645
 9399SOL    HW139656   2.121   3.268   6.348  1.4380  0.4289  1.7653
 9399SOL    HW239657   2.128   3.225   6.205 -2.0830  0.6245  0.8416
 9400SOL     OW39658   1.521   2.496  17.556 -0.0199 -0.0901 -0.2178
 9400SOL    HW139659   1.605   2.512  17.514 -0.4743  4.8385  0.7037
 9400SOL    HW239660   1.496   2.412  17.517  1.9435 -0.5893 -0.3754
 9401SOL     OW39661   1.650   2.195  17.156  0.5571  0.3076 -0.7805
 9401SOL    HW139662   1.590   2.216  17.228  3.0549 -2.0695  2.0252
 9401SOL    HW239663   1.626   2.109  17.120  0.0599  1.2169 -2.6054
 9402SOL     OW39664   1.543   0.505   7.014  0.7772 -0.4774  0.3789
 9402SOL    HW139665   1.623   0.553   7.037 -0.3622  1.3859  0.5056
 9402SOL    HW239666   1.559   0.482   6.922  0.6244 -0.7956  0.4337
 9403SOL     OW39667   4.276   2.063  17.343  0.2210  0.3216 -0.6425
 9403SOL    HW139668   4.291   2.031  17.254  2.0126  0.4306 -0.3876
 9403SOL    HW239669   4.341   2.003  17.379 -1.5247 -0.7265  0.7545
 9404SOL     OW39670   1.694   3.687   2.266 -0.0145  0.4674 -0.4171
 9404SOL    HW139671   1.628   3.733   2.318 -0.6357  1.8415 -2.4257
 9404SOL    HW239672   1.710   3.618   2.331 -2.4144 -0.9048 -1.2764
 9405SOL     OW39673   2.107   2.897   5.169  0.1108  0.3146 -0.1141
 9405SOL    HW139674   2.137   2.853   5.248  2.6221  0.5709 -0.9347
 9405SOL    HW239675   2.169   2.854   5.110 -1.6287 -0.3334 -1.4702
 9406SOL     OW39676   3.993   1.154   6.227  0.5361  0.1677 -0.6086
 9406SOL    HW139677   3.946   1.140   6.145 -1.3374 -2.5216  0.9049
 9406SOL    HW239678   4.013   1.062   6.247 -1.7895 -0.2816 -0.3267
 9407SOL     OW39679   0.968   1.630   6.470  0.2198  0.7758 -0.3839
 9407SOL    HW139680   1.058   1.658   6.457  0.2145  1.1640  0.4191
 9407SOL    HW239681   0.922   1.609   6.389  2.7540  1.3530 -1.9403
 9408SOL     OW39682   3.280   1.629  10.187 -0.3258  0.4713  0.3385
 9408SOL    HW139683   3.303   1.552  10.240 -0.4161 -0.9738 -1.7437
 9408SOL    HW239684   3.254   1.583  10.108  0.6733 -0.6447  0.6575
 9409SOL     OW39685   3.102   4.562   7.919  0.1329 -0.2589  0.1070
 9409SOL    HW139686   3.036   4.593   7.858 -0.0873 -1.5027 -0.2811
 9409SOL    HW239687   3.084   4.625   7.988  1.1626  0.6388 -0.4548
 9410SOL     OW39688   2.601   4.647   7.559  0.2658  0.2791 -0.0438
 9410SOL    HW139689   2.607   4.584   7.631 -0.7629  0.8823  0.5878
 9410SOL    HW239690   2.554   4.720   7.601 -0.0944  0.1541 -0.2281
 9411SOL     OW39691   4.330   4.531   5.656  0.3076  0.8920 -0.4820
 9411SOL    HW139692   4.304   4.555   5.745 -1.1169  0.9322 -0.9052
 9411SOL    HW239693   4.260   4.472   5.626  0.1751  0.3426  0.9366
 9412SOL     OW39694   0.282   4.273   3.842  0.1449 -0.3371  0.5556
 9412SOL    HW139695   0.250   4.186   3.865 -5.8645  1.4847 -1.0292
 9412SOL    HW239696   0.374   4.264   3.816  0.3563  0.0934  1.1367
 9413SOL     OW39697   4.217   3.364   3.379  0.1597  0.6536  0.0616
 9413SOL    HW139698   4.272   3.421   3.431  1.8707  0.1286 -1.1762
 9413SOL    HW239699   4.273   3.363   3.301  1.8388  0.4751  1.2857
 9414SOL     OW39700   3.904   1.706   5.539  0.2307  0.4579 -0.2131
 9414SOL    HW139701   3.858   1.786   5.563  0.8476  0.3975  1.1866
 9414SOL    HW239702   3.863   1.647   5.602  1.6067 -0.3371 -0.0425
 9415SOL     OW39703   4.644   3.396   0.732  0.5525  0.0782 -0.1262
 9415SOL    HW139704   4.674   3.486   0.743 -2.6685  1.0928  0.5297
 9415SOL    HW239705   4.549   3.405   0.728  0.4373 -0.6329  1.0175
 9416SOL     OW39706   1.034   3.500   4.648 -0.0051 -0.8594 -0.2748
 9416SOL    HW139707   1.028   3.521   4.741  0.5486 -0.2682 -0.3718
 9416SOL    HW239708   1.019   3.405   4.644  0.9508 -1.0218  0.2088
 9417SOL     OW39709   2.617   2.085   7.248  0.1809 -0.4380  0.3477
 9417SOL    HW139710   2.652   2.123   7.328 -2.1573  2.2713  0.0799
 9417SOL    HW239711   2.592   1.998   7.278  0.0190 -0.6003 -0.2645
 9418SOL     OW39712   2.329   1.378   6.497  0.4861 -0.5892  0.1232
 9418SOL    HW139713   2.392   1.430   6.447 -0.6872  0.0864 -0.6608
 9418SOL    HW239714   2.379   1.297   6.509 -0.3250 -0.9671  0.9174
 9419SOL     OW39715   1.599   2.729  17.343 -0.3869 -0.3220  0.0049
 9419SOL    HW139716   1.630   2.641  17.365  1.3990  0.4431  0.5397
 9419SOL    HW239717   1.679   2.780  17.351  0.3239 -1.2828 -1.0049
 9420SOL     OW39718   0.230   3.225   7.643 -0.1894  0.5580 -0.1504
 9420SOL    HW139719   0.315   3.238   7.602 -0.1592 -2.8446 -1.2197
 9420SOL    HW239720   0.192   3.313   7.636  1.1532  1.3041  2.2013
 9421SOL     OW39721   4.457   1.603  14.335 -0.3089  0.0490  0.1525
 9421SOL    HW139722   4.389   1.605  14.268  1.7890  0.4244 -1.9474
 9421SOL    HW239723   4.409   1.546  14.395  0.9974  0.4681  1.5979
 9422SOL     OW39724   2.966   4.294   1.635  0.0512 -0.0978  0.2661
 9422SOL    HW139725   3.031   4.298   1.705  0.7737 -1.7970 -0.3018
 9422SOL    HW239726   2.897   4.355   1.659  0.5391  1.2334 -1.6741
 9423SOL     OW39727   3.577   3.157  10.219 -0.4552 -0.2765  0.0896
 9423SOL    HW139728   3.488   3.185  10.241  0.0807  1.8148 -0.4351
 9423SOL    HW239729   3.622   3.217  10.279 -3.2248 -0.0721  2.0122
 9424SOL     OW39730   0.366   3.944   7.393  0.6603  0.6006 -0.2033
 9424SOL    HW139731   0.421   3.941   7.471 -0.5695 -2.0610  0.5487
 9424SOL    HW239732   0.412   4.006   7.336  3.1526  1.1555  2.4299
 9425SOL     OW39733   1.710   0.383  12.698 -0.3360  0.4771  0.0142
 9425SOL    HW139734   1.788   0.327  12.699 -1.1925 -0.7407 -1.0525
 9425SOL    HW239735   1.663   0.343  12.624 -0.7158  1.0736 -0.0617
 9426SOL     OW39736   2.783   1.506   7.957  0.0429 -0.4492 -0.5487
 9426SOL    HW139737   2.795   1.486   8.050 -2.0715 -1.3062 -0.4744
 9426SOL    HW239738   2.778   1.417   7.922 -1.6483  0.8987 -3.7441
 9427SOL     OW39739   4.533   0.642  12.747  1.0194 -0.1214  0.5767
 9427SOL    HW139740   4.579   0.559  12.734 -2.7541 -2.4568  2.2290
 9427SOL    HW239741   4.491   0.662  12.663 -1.1858 -2.3735  1.1308
 9428SOL     OW39742   3.565   4.444   5.871  1.0988  0.2349  0.4017
 9428SOL    HW139743   3.643   4.481   5.830  0.3755 -0.5905 -1.7374
 9428SOL    HW239744   3.502   4.517   5.869  0.1106 -0.6250  0.2887
 9429SOL     OW39745   3.706   1.074   3.667 -0.0090 -0.2913  0.2940
 9429SOL    HW139746   3.685   1.002   3.727  1.0358 -1.9247 -1.3123
 9429SOL    HW239747   3.725   1.146   3.727  2.0067  0.8191 -1.6875
 9430SOL     OW39748   2.087   3.537  12.063 -0.0224 -0.8754  0.2817
 9430SOL    HW139749   2.085   3.542  11.967  0.0167  2.3662  0.4512
 9430SOL    HW239750   2.171   3.496  12.083 -0.1627 -0.8868  0.8396
 9431SOL     OW39751   3.532   0.658   6.299  0.6798 -0.4136  0.7777
 9431SOL    HW139752   3.481   0.648   6.219  1.5157 -1.9450  0.4372
 9431SOL    HW239753   3.463   0.693   6.356 -1.3353  0.3169 -2.1422
 9432SOL     OW39754   3.712   1.468   5.555  0.1805  0.4011  0.4343
 9432SOL    HW139755   3.734   1.375   5.566  2.2049  0.7716 -0.3828
 9432SOL    HW239756   3.736   1.504   5.641  0.4781 -0.5939  0.7729
 9433SOL     OW39757   2.936   4.252   0.517 -0.0114 -0.0778 -0.3365
 9433SOL    HW139758   2.974   4.340   0.519  1.9205 -0.8950 -0.9629
 9433SOL    HW239759   2.980   4.210   0.591  1.4588 -0.3953 -1.3925
 9434SOL     OW39760   3.102   3.303   2.132 -0.3377  0.4365  0.4451
 9434SOL    HW139761   3.135   3.385   2.168 -0.1010  0.6528 -0.2664
 9434SOL    HW239762   3.186   3.281   2.090 -0.8115 -2.7723  1.1898
 9435SOL     OW39763   0.554   0.335   5.879  0.0986 -0.8546  0.0659
 9435SOL    HW139764   0.568   0.422   5.841  1.7774 -0.2271  2.0934
 9435SOL    HW239765   0.488   0.349   5.947 -0.9503  0.1225 -1.1460
 9436SOL     OW39766   1.111   2.308  14.429  0.3947 -0.3230  0.5430
 9436SOL    HW139767   1.144   2.237  14.375 -1.2941 -0.2166 -0.6556
 9436SOL    HW239768   1.183   2.371  14.421 -0.3868  0.5331  0.2020
 9437SOL     OW39769   4.391   1.275   4.257  0.3231 -0.1047 -0.1004
 9437SOL    HW139770   4.353   1.354   4.296  2.9055  1.3271 -0.4588
 9437SOL    HW239771   4.323   1.209   4.271  0.7951 -0.8363 -1.2391
 9438SOL     OW39772   3.211   0.065  15.522  0.8536 -0.6478  0.1025
 9438SOL    HW139773   3.262   0.057  15.603  1.3234 -0.0371 -0.1331
 9438SOL    HW239774   3.132   0.021  15.553 -0.2996  0.4297 -1.3184
 9439SOL     OW39775   4.580   0.336  15.452  0.0843  0.4805  0.8084
 9439SOL    HW139776   4.648   0.293  15.505 -0.0221 -1.0760 -0.3194
 9439SOL    HW239777   4.616   0.418  15.418  0.9051 -0.3370 -0.3011
 9440SOL     OW39778   1.463   4.593   7.674 -0.1140 -0.2658 -0.3733
 9440SOL    HW139779   1.537   4.627   7.724 -1.6545 -1.5987  2.7844
 9440SOL    HW239780   1.428   4.670   7.629 -0.9557 -0.0765  0.6107
 9441SOL     OW39781   1.590   1.935   3.989 -0.1749  0.2055 -0.5337
 9441SOL    HW139782   1.649   1.861   4.003 -1.5822 -0.5867  1.1323
 9441SOL    HW239783   1.632   1.995   4.050  0.4058 -0.0234 -0.7072
 9442SOL     OW39784   0.221   1.399   8.217 -0.1882 -0.5691  0.0622
 9442SOL    HW139785   0.302   1.350   8.205 -1.4779 -1.9019 -3.3818
 9442SOL    HW239786   0.240   1.483   8.177  2.1400 -0.3001  1.7893
 9443SOL     OW39787   0.536   2.120   6.884 -0.5722  0.5061  0.7707
 9443SOL    HW139788   0.593   2.068   6.827  1.7931  2.8709  0.9481
 9443SOL    HW239789   0.596   2.181   6.928  0.5739  0.5099 -0.7768
 9444SOL     OW39790   3.510   4.191   4.064  0.1066  0.5881  0.1901
 9444SOL    HW139791   3.419   4.201   4.092  0.1802  0.4549  0.4752
 9444SOL    HW239792   3.554   4.235   4.138  2.5835 -0.7159 -0.4936
 9445SOL     OW39793   3.263   3.212   7.373  0.5342  0.0351 -0.4938
 9445SOL    HW139794   3.348   3.193   7.413  0.0239 -0.6622  0.2282
 9445SOL    HW239795   3.284   3.306   7.367  0.5540  0.0752  0.2944
 9446SOL     OW39796   1.962   2.520   8.063  0.0530  0.5301 -0.7741
 9446SOL    HW139797   1.925   2.432   8.059  0.3039  0.2617  2.7043
 9446SOL    HW239798   1.890   2.582   8.060 -0.6618 -0.1776  1.7204
 9447SOL     OW39799   0.349   2.628   5.586  0.0982 -0.8458 -0.1672
 9447SOL    HW139800   0.281   2.618   5.653 -1.7164  2.4726 -1.4829
 9447SOL    HW239801   0.328   2.578   5.507 -1.4829 -1.2908  0.5314
 9448SOL     OW39802   0.055   0.985   6.315 -0.5637  0.2621  0.0455
 9448SOL    HW139803   0.104   0.903   6.308 -0.4360  0.1693  2.0242
 9448SOL    HW239804   4.722   0.969   6.239 -1.2650  1.2354  0.3433
 9449SOL     OW39805   3.532   1.801   8.207  0.0253  0.3258  0.1789
 9449SOL    HW139806   3.460   1.860   8.230 -0.0230  0.0745  0.6710
 9449SOL    HW239807   3.591   1.823   8.279  1.5948  2.6784 -1.8168
 9450SOL     OW39808   1.268   4.463   1.148  0.1545  0.1859 -0.0586
 9450SOL    HW139809   1.206   4.495   1.083 -0.5608 -1.7471 -0.3089
 9450SOL    HW239810   1.262   4.532   1.215 -5.2871  1.7732 -2.1584
 9451SOL     OW39811   2.083   2.186   6.575  0.0813 -0.1538  0.0561
 9451SOL    HW139812   2.159   2.161   6.524  0.3967  1.4744 -0.2781
 9451SOL    HW239813   2.033   2.235   6.510  0.3645  2.4052  1.7686
 9452SOL     OW39814   1.251   1.512   2.631  0.2188  0.3296 -0.1384
 9452SOL    HW139815   1.189   1.571   2.590 -1.2928 -0.9398  0.3274
 9452SOL    HW239816   1.188   1.450   2.668 -0.7310  0.6404 -1.2639
 9453SOL     OW39817   3.595   0.336   9.395 -0.2409 -0.4503  0.6705
 9453SOL    HW139818   3.571   0.383   9.315  0.7734 -0.5684  0.2939
 9453SOL    HW239819   3.513   0.306   9.433 -0.8475 -0.5549 -0.7338
 9454SOL     OW39820   0.013   0.770   6.857 -0.3165  0.3214 -0.7358
 9454SOL    HW139821   0.013   0.807   6.768 -2.0748  3.0319  0.3922
 9454SOL    HW239822   4.641   0.770   6.873 -0.1739  1.9213  0.1279
 9455SOL     OW39823   4.213   0.062   3.143  0.0338 -0.1328 -0.3856
 9455SOL    HW139824   4.208   4.707   3.088  0.3839 -1.1483  1.0263
 9455SOL    HW239825   4.125   0.060   3.181  0.1132  2.4142 -0.0480
 9456SOL     OW39826   3.963   2.822   9.152  0.0704 -0.4720  0.6583
 9456SOL    HW139827   3.952   2.748   9.093  0.9188  0.3187 -0.4757
 9456SOL    HW239828   3.985   2.894   9.092 -1.0560 -0.7356 -0.0674
 9457SOL     OW39829   0.790   2.123  11.057 -0.0076  0.0274 -0.1224
 9457SOL    HW139830   0.747   2.140  10.974  0.1797  1.7691  0.1364
 9457SOL    HW239831   0.858   2.189  11.044  0.2650 -0.5931 -1.7562
 9458SOL     OW39832   4.681   2.227   9.675  0.2661  0.6277 -0.2432
 9458SOL    HW139833   0.032   2.277   9.639  1.2994 -1.5811 -1.2078
 9458SOL    HW239834   4.675   2.254   9.767  0.4689  2.5776 -0.8060
 9459SOL     OW39835   2.440   0.797   6.233  0.6565  0.4303  0.1776
 9459SOL    HW139836   2.448   0.776   6.325 -1.8910 -0.7442  0.1229
 9459SOL    HW239837   2.527   0.831   6.212  0.8687 -0.1703  0.1037
 9460SOL     OW39838   1.228   0.317   5.516 -0.3004  0.0074 -0.0438
 9460SOL    HW139839   1.245   0.300   5.609 -0.0357  1.6263  0.2025
 9460SOL    HW239840   1.304   0.280   5.471 -0.3515 -0.2474  0.0803
 9461SOL     OW39841   0.293   2.832  11.240 -0.1358  0.4783  0.7325
 9461SOL    HW139842   0.346   2.889  11.184 -1.3692  0.6771 -0.2192
 9461SOL    HW239843   0.212   2.883  11.231 -1.1488 -1.7184 -2.2651
 9462SOL     OW39844   1.518   3.609   5.397 -0.3822  0.2697 -0.3945
 9462SOL    HW139845   1.453   3.669   5.360 -0.0753  0.2163 -1.0316
 9462SOL    HW239846   1.581   3.595   5.327 -0.1303  1.2387 -0.3598
 9463SOL     OW39847   2.194   0.535   6.105 -0.0203  0.3516 -0.3633
 9463SOL    HW139848   2.216   0.537   6.198  0.4881  0.9484 -0.4950
 9463SOL    HW239849   2.248   0.610   6.078 -0.5753  0.1200 -2.1205
 9464SOL     OW39850   1.722   1.485   6.654  0.1355 -0.6255 -0.4050
 9464SOL    HW139851   1.703   1.484   6.747  2.0439  0.5737 -0.0044
 9464SOL    HW239852   1.800   1.540   6.661  0.0881 -0.6177  0.0662
 9465SOL     OW39853   2.296   2.858  15.065  0.3409  0.2612 -0.7165
 9465SOL    HW139854   2.347   2.781  15.039  1.0732  0.7868 -0.8374
 9465SOL    HW239855   2.328   2.882  15.152 -2.0982 -1.2657  0.5979
 9466SOL     OW39856   4.562   1.385   3.215  0.3750  0.6941 -0.7989
 9466SOL    HW139857   4.480   1.430   3.191 -0.4130  0.3947  1.2642
 9466SOL    HW239858   4.517   1.303   3.236  0.9039  1.1961  2.3021
 9467SOL     OW39859   2.684   0.639   2.891  0.8251 -0.0529 -0.0845
 9467SOL    HW139860   2.655   0.694   2.964 -0.6780  0.0396 -0.7525
 9467SOL    HW239861   2.764   0.689   2.871  0.7026 -0.2333 -1.0364
 9468SOL     OW39862   4.513   3.447   5.756 -0.1198 -0.0833  0.4061
 9468SOL    HW139863   4.451   3.419   5.822  0.0324  1.4295  1.1844
 9468SOL    HW239864   4.594   3.398   5.773 -1.1889 -1.3421  1.8417
 9469SOL     OW39865   1.918   2.143   4.316  0.7901  0.0895 -0.1860
 9469SOL    HW139866   2.005   2.106   4.299  0.4252 -0.9078  0.1491
 9469SOL    HW239867   1.930   2.238   4.311 -0.2116  0.1679 -1.0260
 9470SOL     OW39868   4.647   2.491  10.870 -0.5521  0.1216 -0.4468
 9470SOL    HW139869   4.627   2.553  10.801  0.3058 -0.3681 -1.1441
 9470SOL    HW239870   4.581   2.524  10.930  0.9994 -0.6089  1.6654
 9471SOL     OW39871   2.391   2.797  16.160  0.6569  0.4767 -0.0647
 9471SOL    HW139872   2.303   2.831  16.147 -0.2633 -2.1165 -0.5003
 9471SOL    HW239873   2.384   2.720  16.104 -0.6324  0.8930 -0.4821
 9472SOL     OW39874   1.519   0.828   7.508  0.3113 -0.3462 -0.2649
 9472SOL    HW139875   1.506   0.736   7.486 -2.4091  0.0467 -0.3279
 9472SOL    HW239876   1.539   0.852   7.418  1.7882  0.4611  0.2935
 9473SOL     OW39877   0.736   0.218   7.850  0.6337  0.3391 -0.2752
 9473SOL    HW139878   0.805   0.192   7.911 -0.0660 -0.0174  0.3482
 9473SOL    HW239879   0.744   0.142   7.792 -1.5037 -1.1895  1.4808
 9474SOL     OW39880   3.993   0.230   5.250 -0.1004 -0.1001  0.1473
 9474SOL    HW139881   3.920   0.284   5.280  0.5772  2.1307 -2.2811
 9474SOL    HW239882   3.943   0.176   5.189  0.2255 -0.3464  0.0961
 9475SOL     OW39883   1.537   4.032   6.000  0.4919 -0.3730 -0.0552
 9475SOL    HW139884   1.515   4.125   6.001 -2.4443 -1.0987  0.1639
 9475SOL    HW239885   1.513   4.007   6.089  0.5620 -0.6794 -0.1205
 9476SOL     OW39886   2.855   0.539   4.779  0.6815  0.0032  0.1723
 9476SOL    HW139887   2.935   0.543   4.831  0.9237  0.6656 -0.2445
 9476SOL    HW239888   2.828   0.629   4.760 -0.1263  0.0412  1.4764
 9477SOL     OW39889   2.157   0.602   7.469 -0.1174  0.4411  0.3741
 9477SOL    HW139890   2.100   0.603   7.391 -1.1901 -1.6909  1.1333
 9477SOL    HW239891   2.100   0.598   7.545 -1.0045  0.4840 -0.2834
 9478SOL     OW39892   4.123   3.795  10.581 -0.0725 -0.5422  0.7029
 9478SOL    HW139893   4.187   3.798  10.652  0.0703  0.0215  0.5488
 9478SOL    HW239894   4.082   3.881  10.581 -4.1542 -2.5064  0.4631
 9479SOL     OW39895   0.309   1.740   2.850 -0.1038 -0.4015  0.2901
 9479SOL    HW139896   0.364   1.681   2.799  0.2669 -0.9188  1.3018
 9479SOL    HW239897   0.247   1.678   2.887 -4.3229  2.8986 -1.2195
 9480SOL     OW39898   0.500   4.563   5.022  0.7303  0.8015 -0.1434
 9480SOL    HW139899   0.552   4.527   5.094  1.7174  0.2261 -1.1355
 9480SOL    HW239900   0.416   4.522   5.040  0.6934  0.3222 -1.3872
 9481SOL     OW39901   1.759   1.182  17.193 -0.3947 -0.6067  0.2769
 9481SOL    HW139902   1.830   1.214  17.249  0.1493  0.4125 -0.9661
 9481SOL    HW239903   1.728   1.270  17.172  0.9969 -0.0261  0.6034
 9482SOL     OW39904   1.996   1.443   8.991 -0.4410  0.5500 -0.0784
 9482SOL    HW139905   1.955   1.409   9.071 -2.4709  0.9894 -0.9188
 9482SOL    HW239906   2.088   1.453   9.012 -0.1902 -2.2331  0.1146
 9483SOL     OW39907   2.361   2.473   2.451  0.5480  0.3124 -0.3559
 9483SOL    HW139908   2.321   2.432   2.528  2.2992  0.8790  0.8519
 9483SOL    HW239909   2.437   2.510   2.495  1.3377 -1.1567 -0.4968
 9484SOL     OW39910   1.934   3.003   2.009  0.1368  0.0606  0.5028
 9484SOL    HW139911   1.919   3.040   2.096 -2.1545 -2.0184  1.0068
 9484SOL    HW239912   1.991   3.068   1.969 -0.5386 -0.7344 -1.7609
 9485SOL     OW39913   1.272   2.787   6.153  0.1588  0.5007  0.2200
 9485SOL    HW139914   1.295   2.749   6.237  1.9873  1.8299  0.3123
 9485SOL    HW239915   1.340   2.851   6.133  0.8304 -0.0259  0.8551
 9486SOL     OW39916   0.675   1.553   0.462 -0.3445 -0.4214  0.1746
 9486SOL    HW139917   0.768   1.570   0.453 -0.0117 -1.5339  1.5219
 9486SOL    HW239918   0.672   1.459   0.443  1.6248 -0.2351 -1.1125
 9487SOL     OW39919   4.722   1.305  16.385  0.3391 -0.1028  0.6150
 9487SOL    HW139920   0.069   1.257  16.430  1.9912  0.7423 -1.0349
 9487SOL    HW239921   4.648   1.248  16.406  0.9568  0.2767  3.7943
 9488SOL     OW39922   2.032   4.323  11.586  0.0045  0.4359 -0.2133
 9488SOL    HW139923   2.095   4.309  11.656 -1.1826 -1.0697  0.5411
 9488SOL    HW239924   1.956   4.317  11.644  2.1420  0.3313  2.5182
 9489SOL     OW39925   0.575   2.999   1.979  0.5046 -0.1024 -0.2867
 9489SOL    HW139926   0.526   3.078   1.999  0.2465 -0.7863  1.7641
 9489SOL    HW239927   0.623   3.028   1.901 -2.8102  2.2049 -1.4467
 9490SOL     OW39928   4.600   0.094  12.331 -0.1900 -0.4422  0.6576
 9490SOL    HW139929   4.591   0.071  12.238  1.7973 -1.6753  0.7668
 9490SOL    HW239930   4.522   0.053  12.368 -0.5815  1.4735  1.9377
 9491SOL     OW39931   1.906   3.692   8.603 -0.3597  0.4778 -0.5984
 9491SOL    HW139932   1.912   3.707   8.509  1.2754  1.4815 -0.3281
 9491SOL    HW239933   1.972   3.625   8.619 -1.4285 -0.3586  0.3928
 9492SOL     OW39934   1.780   1.440   9.643  0.0805  0.3214  0.4538
 9492SOL    HW139935   1.742   1.391   9.570 -3.1128  0.8869  1.7724
 9492SOL    HW239936   1.758   1.387   9.720  0.2829  0.2550  0.4665
 9493SOL     OW39937   4.061   1.179  12.514  0.0196  0.0945  0.7308
 9493SOL    HW139938   4.062   1.214  12.425 -0.1545 -2.1734 -0.1659
 9493SOL    HW239939   4.132   1.115  12.506  0.3634  0.6850 -1.1007
 9494SOL     OW39940   4.644   4.010   5.944  0.4981 -0.3829  0.5354
 9494SOL    HW139941   4.622   3.992   5.853  1.9273 -0.3480  0.1701
 9494SOL    HW239942   4.628   4.104   5.953  1.4033 -0.3938  2.2548
 9495SOL     OW39943   3.951   1.772   8.937  0.2371 -0.1213 -0.1988
 9495SOL    HW139944   3.858   1.747   8.932 -0.0763  1.2418 -1.3034
 9495SOL    HW239945   3.946   1.826   9.016  2.3256  1.4846 -1.1836
 9496SOL     OW39946   4.467   1.959   7.934 -0.5676 -0.0595  0.4271
 9496SOL    HW139947   4.470   1.863   7.932  1.3492  0.0001  0.1184
 9496SOL    HW239948   4.562   1.968   7.929 -0.4179 -3.3081 -3.2746
 9497SOL     OW39949   4.150   3.711   5.171  0.4239 -0.0762 -0.0193
 9497SOL    HW139950   4.099   3.646   5.218 -0.5948  0.9377  0.2717
 9497SOL    HW239951   4.080   3.760   5.128 -1.3936 -2.3222  0.4258
 9498SOL     OW39952   2.141   0.024   0.088 -0.2163 -0.1777  0.2024
 9498SOL    HW139953   2.164   4.679   0.025 -0.7784 -0.3671  0.2057
 9498SOL    HW239954   2.165   0.100   0.035 -1.8699  0.4332  0.3499
 9499SOL     OW39955   1.253   3.760   3.630 -0.2760  0.1415  0.0648
 9499SOL    HW139956   1.197   3.815   3.575  0.1459  0.1209 -0.3873
 9499SOL    HW239957   1.237   3.801   3.715 -2.1268 -0.8900  0.2099
 9500SOL     OW39958   3.089   3.930   1.469  0.0066 -0.2634  0.4794
 9500SOL    HW139959   3.119   3.844   1.438  0.0533  0.1716 -0.7022
 9500SOL    HW239960   3.160   3.979   1.508  0.2229 -1.7656  1.9891
 9501SOL     OW39961   2.860   4.683  17.549  0.0677 -0.0883 -0.0949
 9501SOL    HW139962   2.855   4.609  17.489 -0.3858  0.1371 -0.3360
 9501SOL    HW239963   2.943   4.711  17.509  0.7083 -0.1472  1.2042
 9502SOL     OW39964   2.701   1.780   6.904  0.1540 -0.0193  0.0205
 9502SOL    HW139965   2.639   1.801   6.974  0.4863 -1.9171  0.8810
 9502SOL    HW239966   2.726   1.691   6.928  0.0393 -0.4998 -1.6537
 9503SOL     OW39967   1.613   0.689   6.735 -0.0148  0.0786 -0.3600
 9503SOL    HW139968   1.616   0.594   6.725 -1.3337 -0.0825  0.8848
 9503SOL    HW239969   1.521   0.708   6.720  0.4190  1.4509 -1.3329
 9504SOL     OW39970   1.296   3.743  15.368  0.2050  0.8433  0.3171
 9504SOL    HW139971   1.215   3.786  15.395  0.8191  1.1696  1.6569
 9504SOL    HW239972   1.270   3.688  15.294 -1.5457 -0.0171  1.5587
 9505SOL     OW39973   4.680   1.836   7.617  0.4870 -0.5983 -0.0580
 9505SOL    HW139974   4.685   1.931   7.614 -1.7688 -0.4991 -0.0897
 9505SOL    HW239975   0.048   1.808   7.633  0.3125 -2.7663 -2.7533
 9506SOL     OW39976   1.518   3.433   8.674 -0.0508  0.3247  0.3135
 9506SOL    HW139977   1.540   3.490   8.748 -1.8881  1.7386 -0.2101
 9506SOL    HW239978   1.601   3.392   8.651  0.1370  0.1437  1.3219
 9507SOL     OW39979   1.324   2.972   2.969 -0.5102 -0.2786 -0.2272
 9507SOL    HW139980   1.323   2.964   3.064 -1.3070 -1.5105 -0.3447
 9507SOL    HW239981   1.250   3.033   2.967 -0.7775 -0.6237 -0.8287
 9508SOL     OW39982   3.666   2.327   3.916  0.0573  0.4391  0.1126
 9508SOL    HW139983   3.638   2.286   3.999 -1.3956 -0.0049 -0.5980
 9508SOL    HW239984   3.678   2.251   3.859  0.4195 -0.7654  1.7965
 9509SOL     OW39985   3.994   3.716  16.706 -0.0245 -0.3532  0.6250
 9509SOL    HW139986   4.066   3.659  16.678  1.7787  1.4850  1.5219
 9509SOL    HW239987   4.045   3.796  16.709 -2.0323  0.9446 -0.1088
 9510SOL     OW39988   1.175   3.148   3.578  0.1220 -0.4254  0.2025
 9510SOL    HW139989   1.105   3.083   3.576 -0.3287  0.0300  1.2797
 9510SOL    HW239990   1.177   3.165   3.484  0.8162  1.0132  0.4730
 9511SOL     OW39991   3.525   0.916   0.248 -0.1899  0.6528 -0.4376
 9511SOL    HW139992   3.450   0.921   0.307 -0.3171 -0.8107 -0.4670
 9511SOL    HW239993   3.487   0.859   0.181 -1.2348  1.0685 -0.2059
 9512SOL     OW39994   1.680   3.505   4.768 -0.5985 -0.4440  0.2199
 9512SOL    HW139995   1.674   3.589   4.722  0.0780 -0.0738  0.8046
 9512SOL    HW239996   1.722   3.543   4.845 -0.6339  1.1597 -0.5531
 9513SOL     OW39997   3.596   2.560   7.514 -0.3858  0.3837 -0.2524
 9513SOL    HW139998   3.561   2.504   7.445 -1.6400 -0.0940  0.7751
 9513SOL    HW239999   3.686   2.528   7.516 -0.8887 -1.0437 -0.4686
 9514SOL     OW40000   2.883   3.235   7.250 -0.4581 -0.0048  0.0622
 9514SOL    HW140001   2.968   3.197   7.230 -1.2898 -1.9532  0.2472
 9514SOL    HW240002   2.881   3.311   7.192 -1.6684 -0.2936 -0.2691
 9515SOL     OW40003   4.533   0.391   5.805 -0.3194  0.5139 -0.4420
 9515SOL    HW140004   4.534   0.381   5.901  1.9216 -0.9046 -0.6105
 9515SOL    HW240005   4.441   0.409   5.787 -1.1777  0.5723  3.8795
 9516SOL     OW40006   1.857   2.954  10.595 -0.5237 -0.8140  0.3158
 9516SOL    HW140007   1.867   3.041  10.557  1.2109 -1.2517 -0.2496
 9516SOL    HW240008   1.771   2.938  10.557  0.0401  2.5927 -2.3448
 9517SOL     OW40009   4.346   4.421   1.498  0.2274 -0.2902 -0.3770
 9517SOL    HW140010   4.307   4.478   1.432  2.2126 -0.2817 -1.5462
 9517SOL    HW240011   4.349   4.348   1.437 -1.3664 -0.5431 -0.1388
 9518SOL     OW40012   3.262   1.252  13.900  0.3034  0.1236  0.3125
 9518SOL    HW140013   3.180   1.299  13.915 -0.0535 -0.0755 -1.0307
 9518SOL    HW240014   3.324   1.317  13.932 -0.8788  0.5785  1.6858
 9519SOL     OW40015   4.220   1.312   8.801 -0.8288 -0.5623 -0.1964
 9519SOL    HW140016   4.208   1.375   8.872  0.3969  0.0654 -0.5478
 9519SOL    HW240017   4.306   1.340   8.769 -1.6582  1.6825 -0.4139
 9520SOL     OW40018   3.084   1.276   6.383 -0.2001  0.3029 -0.2907
 9520SOL    HW140019   3.052   1.280   6.293 -0.1146 -0.3423 -0.3473
 9520SOL    HW240020   3.012   1.302   6.441 -1.1649  0.6164 -1.6342
 9521SOL     OW40021   4.114   3.514   5.610 -0.2493 -0.3377 -0.0344
 9521SOL    HW140022   4.125   3.420   5.616 -2.7459 -0.5971  0.3921
 9521SOL    HW240023   4.181   3.553   5.667  0.9006  2.4726 -3.2964
 9522SOL     OW40024   2.509   4.002  15.456  0.5850 -0.5495  0.0669
 9522SOL    HW140025   2.597   4.039  15.464  0.1876  1.0436 -2.8513
 9522SOL    HW240026   2.522   3.948  15.378  0.6926 -0.2923 -0.0938
 9523SOL     OW40027   0.645   4.162   5.515 -0.6042  0.1082  0.4919
 9523SOL    HW140028   0.668   4.245   5.557  0.5356  0.1457 -0.2183
 9523SOL    HW240029   0.693   4.103   5.575  0.5514 -0.5964 -1.1179
 9524SOL     OW40030   1.912   2.056   7.911 -0.1334  0.2500  0.0640
 9524SOL    HW140031   1.827   2.019   7.887  0.9088 -1.4885 -0.9049
 9524SOL    HW240032   1.960   1.976   7.934  0.3029  0.6055  0.4033
 9525SOL     OW40033   2.614   0.328  13.663 -0.0552  0.3100  0.4941
 9525SOL    HW140034   2.622   0.275  13.584  0.5817 -0.5199  1.1163
 9525SOL    HW240035   2.688   0.388  13.651 -0.8641  1.3360  0.6120
 9526SOL     OW40036   1.434   2.784   9.892  0.7840  0.0726 -0.1742
 9526SOL    HW140037   1.456   2.842   9.965 -3.4486 -1.2971  2.1865
 9526SOL    HW240038   1.425   2.698   9.933  1.5372 -0.0764 -0.3254
 9527SOL     OW40039   0.450   2.735   9.588 -0.2022  0.8252  0.4664
 9527SOL    HW140040   0.494   2.733   9.503  1.4721  0.1052  1.3508
 9527SOL    HW240041   0.426   2.643   9.599 -0.7234  0.8023 -0.8499
 9528SOL     OW40042   4.642   1.075  15.262  0.0890 -0.1373  0.3986
 9528SOL    HW140043   4.694   1.154  15.251 -3.1973  1.9468 -0.0894
 9528SOL    HW240044   4.563   1.107  15.305  1.5088  1.8342  1.5422
 9529SOL     OW40045   0.068   3.041   1.162 -0.0833 -0.2705  0.1171
 9529SOL    HW140046   4.698   3.022   1.173 -0.7592  1.7095 -2.1389
 9529SOL    HW240047   0.065   3.105   1.091 -0.7664 -0.8202 -0.3382
 9530SOL     OW40048   0.418   3.032  11.101 -0.4318  0.0498 -0.2937
 9530SOL    HW140049   0.492   3.000  11.050 -0.9489  0.3784 -1.2641
 9530SOL    HW240050   0.365   3.068  11.030 -1.8691 -1.2624  0.1184
 9531SOL     OW40051   1.073   3.954   5.432 -0.2585  0.5657 -0.4199
 9531SOL    HW140052   1.154   3.929   5.388 -0.7326 -0.5692 -0.6601
 9531SOL    HW240053   1.016   3.939   5.356 -0.8485 -0.3356  0.1898
 9532SOL     OW40054   3.435   2.602   6.124  0.1529 -0.5092  0.1806
 9532SOL    HW140055   3.402   2.603   6.034 -0.3154  1.7146  0.3796
 9532SOL    HW240056   3.358   2.572   6.171 -0.9364 -1.0004 -1.9004
 9533SOL     OW40057   1.522   4.524  12.984 -0.4238 -0.1568  0.1688
 9533SOL    HW140058   1.517   4.602  12.928 -2.1924 -2.1477 -2.4465
 9533SOL    HW240059   1.429   4.502  12.985 -0.6588  0.8281  0.2974
 9534SOL     OW40060   1.707   2.084   6.633 -0.2452  0.4397 -0.4699
 9534SOL    HW140061   1.681   2.138   6.559  1.8275  1.9756 -0.0799
 9534SOL    HW240062   1.683   2.147   6.701 -0.6274  0.9452 -1.0719
 9535SOL     OW40063   3.877   1.171   3.985  0.4084  0.0602  0.5256
 9535SOL    HW140064   3.877   1.252   3.934 -2.9279  0.3703  1.0199
 9535SOL    HW240065   3.936   1.117   3.933  0.1497 -0.7579  1.0865
 9536SOL     OW40066   0.090   4.681   5.710 -0.6761 -0.0978 -0.1659
 9536SOL    HW140067   0.022   4.631   5.666  0.6067 -2.9316  1.0578
 9536SOL    HW240068   0.038   0.031   5.745 -0.4761 -1.3844  2.7693
 9537SOL     OW40069   0.153   3.750  11.068  0.0089 -0.2591  0.2832
 9537SOL    HW140070   0.201   3.828  11.096  1.5791 -1.3468  0.5647
 9537SOL    HW240071   0.075   3.790  11.028  1.6695  1.5076 -1.2013
 9538SOL     OW40072   4.296   2.338   6.170  0.7075 -0.2643 -0.0385
 9538SOL    HW140073   4.354   2.265   6.195 -0.7595 -1.9373 -1.4897
 9538SOL    HW240074   4.223   2.291   6.129 -1.5870  0.5342  3.1098
 9539SOL     OW40075   2.916   0.775   5.313 -0.1642  0.2262  0.0260
 9539SOL    HW140076   2.988   0.714   5.296 -0.5825 -0.7172  1.6838
 9539SOL    HW240077   2.899   0.809   5.225  1.3430 -3.3570 -1.6557
 9540SOL     OW40078   0.899   1.488  15.383 -0.2787  0.8855  0.3596
 9540SOL    HW140079   0.986   1.492  15.422  0.1439 -1.2170 -0.3810
 9540SOL    HW240080   0.855   1.435  15.450 -0.1186 -0.3884 -0.5378
 9541SOL     OW40081   3.098   4.612  16.643 -0.2102  0.7256 -0.2115
 9541SOL    HW140082   3.163   4.542  16.651 -0.8302  0.1797  0.0716
 9541SOL    HW240083   3.022   4.589  16.697  0.0508  2.8467  1.0577
 9542SOL     OW40084   3.755   1.641   6.046 -0.4362 -0.2750  0.6117
 9542SOL    HW140085   3.848   1.644   6.070 -0.8127 -1.1135  2.1714
 9542SOL    HW240086   3.717   1.600   6.124  1.2554 -0.7032  1.2079
 9543SOL     OW40087   0.648   4.148   3.496 -0.0941 -0.0663 -0.4358
 9543SOL    HW140088   0.722   4.124   3.441  0.0179  0.2050 -0.4029
 9543SOL    HW240089   0.633   4.074   3.555  1.2897  1.0469  1.2942
 9544SOL     OW40090   0.282   3.674   3.452 -0.3579  0.7061  0.2869
 9544SOL    HW140091   0.266   3.634   3.366  0.5838  0.2038  0.3377
 9544SOL    HW240092   0.241   3.758   3.436 -1.5719 -0.1028 -0.8527
 9545SOL     OW40093   1.481   0.817   9.567  0.0736 -0.7281 -0.2364
 9545SOL    HW140094   1.391   0.788   9.550  0.2944 -2.7347  1.9116
 9545SOL    HW240095   1.525   0.733   9.553  1.1402 -0.5677  2.2084
 9546SOL     OW40096   3.401   3.493   0.140  0.5838 -0.4747 -0.0090
 9546SOL    HW140097   3.442   3.572   0.173 -0.8895  0.2857  0.0127
 9546SOL    HW240098   3.311   3.523   0.124  0.9480 -0.0832 -1.2880
 9547SOL     OW40099   3.950   3.718   5.616 -0.3067  0.0500 -0.0608
 9547SOL    HW140100   3.994   3.633   5.614  1.4337  1.0472 -2.9632
 9547SOL    HW240101   3.972   3.758   5.700 -0.4187 -1.1331  0.5368
 9548SOL     OW40102   3.644   0.023  12.959  0.1530  0.1152  0.1296
 9548SOL    HW140103   3.609   4.688  12.891 -3.3764 -0.2484  2.2665
 9548SOL    HW240104   3.740   0.018  12.958 -0.0530 -2.9664 -1.8416
 9549SOL     OW40105   4.690   3.327   3.151  0.5707  0.2525 -0.3212
 9549SOL    HW140106   0.038   3.268   3.178 -1.0321 -0.8954  1.4308
 9549SOL    HW240107   0.017   3.404   3.126 -0.6061  0.6984 -1.2923
 9550SOL     OW40108   1.758   2.753  15.838 -0.1147  0.4540  0.5272
 9550SOL    HW140109   1.803   2.719  15.916  1.3613 -3.4157 -2.0494
 9550SOL    HW240110   1.688   2.690  15.820  1.0153 -0.1128 -1.8349
 9551SOL     OW40111   2.135   0.197  12.915  0.3158 -0.0446  0.1113
 9551SOL    HW140112   2.202   0.141  12.877  0.1829 -0.7932  0.9706
 9551SOL    HW240113   2.196   0.267  12.937  0.5678  0.0251 -0.8290
 9552SOL     OW40114   2.819   3.091   6.848  0.5892 -0.3908  0.0416
 9552SOL    HW140115   2.802   3.013   6.901 -1.3037  0.2058  0.2931
 9552SOL    HW240116   2.911   3.117   6.854  1.0371 -2.4648  1.8091
 9553SOL     OW40117   4.261   4.015   4.414  0.1278  0.1314  0.2751
 9553SOL    HW140118   4.345   4.044   4.449  1.9399 -2.4804 -1.9442
 9553SOL    HW240119   4.215   3.993   4.496  1.5300 -0.7622  0.8089
 9554SOL     OW40120   0.604   3.417   0.150 -0.2185  0.5952 -0.5072
 9554SOL    HW140121   0.674   3.413   0.214 -1.2158  3.4308  0.7793
 9554SOL    HW240122   0.575   3.509   0.157 -1.3594  0.4425 -3.0274
 9555SOL     OW40123   2.527   0.236   8.937 -0.7099 -0.1186 -0.0598
 9555SOL    HW140124   2.569   0.196   8.861 -0.5501 -0.0908  0.0121
 9555SOL    HW240125   2.561   0.326   8.932 -0.1742 -0.2324  1.5536
 9556SOL     OW40126   2.615   0.886  16.680  0.3478  0.4575  0.2361
 9556SOL    HW140127   2.617   0.885  16.585  0.2443  0.7911  0.2293
 9556SOL    HW240128   2.651   0.800  16.702 -0.2372  0.1959  0.1663
 9557SOL     OW40129   1.878   0.401   7.130  0.3094  0.4785 -0.0967
 9557SOL    HW140130   1.832   0.484   7.122 -0.4454 -0.1627 -2.5227
 9557SOL    HW240131   1.917   0.396   7.043 -1.9472  0.8911 -1.1221
 9558SOL     OW40132   0.147   4.673   0.357  0.5086  0.0894  0.0233
 9558SOL    HW140133   0.103   4.607   0.304 -0.2692 -0.9980  2.0334
 9558SOL    HW240134   0.240   4.652   0.345  0.5475 -0.1363  0.7351
 9559SOL     OW40135   0.420   2.593   6.912 -0.0082 -0.3227 -0.3316
 9559SOL    HW140136   0.470   2.672   6.889  3.2535 -2.3742 -0.3759
 9559SOL    HW240137   0.334   2.629   6.931  1.0230  1.7254  0.3753
 9560SOL     OW40138   0.665   2.980   4.921 -0.6877  0.2822 -0.0711
 9560SOL    HW140139   0.636   3.058   4.969  1.2163  0.8689  0.1372
 9560SOL    HW240140   0.704   3.026   4.847  0.2819  1.1918  1.0087
 9561SOL     OW40141   2.343   3.511  12.373 -0.4013  0.0979  0.0617
 9561SOL    HW140142   2.341   3.467  12.288 -3.9371  0.9277 -0.3053
 9561SOL    HW240143   2.273   3.461  12.416 -1.8652  2.2420  0.1629
 9562SOL     OW40144   3.170   1.584  15.380  0.3245 -0.4290 -0.0834
 9562SOL    HW140145   3.115   1.586  15.302  0.9287 -2.1122 -0.5376
 9562SOL    HW240146   3.180   1.489  15.385  0.4354 -0.4278 -0.3119
 9563SOL     OW40147   3.136   4.677  11.888  0.0983 -0.3343 -0.4372
 9563SOL    HW140148   3.183   0.038  11.893 -1.1311  0.2479  1.6684
 9563SOL    HW240149   3.084   4.688  11.809  2.4341 -0.3134 -1.9438
 9564SOL     OW40150   2.132   4.432   9.289 -0.2972  0.0108  0.0410
 9564SOL    HW140151   2.206   4.492   9.278  0.6149 -1.0051  0.6837
 9564SOL    HW240152   2.176   4.347   9.291 -0.6954 -0.2539 -2.1232
 9565SOL     OW40153   2.120   1.714  14.044 -0.1428  0.0446 -0.2410
 9565SOL    HW140154   2.200   1.705  14.095 -1.8886  1.7862  2.8073
 9565SOL    HW240155   2.163   1.747  13.965  1.1227  2.2321  1.3669
   4.72264   4.72264  17.69258
