Membrane in water
40155
    1TCq1    O1    1   0.539   0.822  11.157 -0.1447  0.0119 -0.2421
    1TCq1    C1    2   0.598   0.701  11.181  0.1283  0.0528 -0.0409
    1TCq1    O2    3   0.602   0.656  11.295 -0.5193  0.1626 -0.3801
    1TCq1    C2    4   0.706   0.690  11.088  0.3396 -0.0798 -0.4007
    1TCq1    C3    5   0.700   0.603  10.982 -0.2188  0.0230 -0.1996
    1TCq1    C4    6   0.813   0.527  10.950 -0.2894 -0.4183 -0.3101
    1TCq1    C5    7   0.927   0.551  11.015  0.2107  0.4507 -0.6891
    1TCq1    C6    8   0.927   0.638  11.121 -0.1077  0.1338  0.2874
    1TCq1    C7    9   0.819   0.709  11.164 -0.0578 -0.2186 -0.3082
    1TCq1    C8   10   1.048   0.657  11.197  0.7402  0.5734 -0.0662
    1TCq1    O4   11   1.043   0.716  11.303  0.4787  0.2098 -0.0851
    1TCq1    C9   12   0.803   0.430  10.842 -0.3753 -0.3473  0.1453
    1TCq1    O5   13   0.697   0.439  10.771  0.0809  0.3009  0.6320
    1TCq1    O6   14   0.906   0.362  10.817 -0.2042 -0.5112 -0.2465
    1TCq1    H1   15   0.580   0.864  11.078 -1.4375  0.4257 -0.6989
    1TCq1    H2   16   0.610   0.587  10.924  0.0274  1.3834 -0.9505
    1TCq1    H3   17   1.010   0.509  10.959 -0.4197 -2.5057  0.6129
    1TCq1    H4   18   0.805   0.753  11.263  0.3064 -0.8333  0.0189
    2MPD2     C   19   1.511   0.467  11.315  0.2116  0.5201 -0.6579
    2MPD2    C1   20   1.411   0.528  11.398  0.2557  0.0483  0.3229
    2MPD2    C2   21   1.302   0.583  11.336 -0.3051 -0.2366 -0.1666
    2MPD2    C3   22   1.277   0.571  11.196  0.5500 -0.2870  0.4524
    2MPD2    C4   23   1.370   0.500  11.121  0.1688  0.0598 -0.1185
    2MPD2    C5   24   1.488   0.458  11.181  0.2434 -0.0658 -0.1411
    2MPD2     H   25   1.230   0.631  11.401  0.8628 -0.0215  0.9747
    2MPD2    H1   26   1.360   0.490  11.014 -0.1678  1.0122 -0.1686
    2MPD2    H2   27   1.606   0.440  11.359 -0.5457 -1.6379 -0.3807
    2MPD2    H3   28   1.565   0.422  11.114  1.6728  2.0217  0.3908
    2MPD2     N   29   1.156   0.599  11.135  0.6031  0.7392 -0.3171
    2MPD2    H5   30   1.152   0.564  11.039 -0.4163 -0.0985  0.0351
    2MPD2    N1   31   1.427   0.545  11.536  0.3285  0.0466  0.1277
    2MPD2    H7   32   1.343   0.586  11.577 -0.1481  2.1073 -2.8749
    3TCq1    O1   33   0.804   1.363  10.987 -0.3422 -0.4465 -0.4933
    3TCq1    C1   34   0.684   1.401  11.027  0.4824  0.2107  0.0909
    3TCq1    O2   35   0.619   1.344  11.118  0.3707 -0.0449 -0.0200
    3TCq1    C2   36   0.663   1.544  10.995  0.3043 -0.5950 -0.1047
    3TCq1    C3   37   0.741   1.595  10.897 -0.5298 -0.5493  0.8196
    3TCq1    C4   38   0.699   1.708  10.841 -0.1632 -0.5841 -0.6286
    3TCq1    C5   39   0.593   1.786  10.888  0.4117 -0.0121  0.3080
    3TCq1    C6   40   0.524   1.732  10.995 -0.3533 -0.2271 -0.4768
    3TCq1    C7   41   0.551   1.607  11.046  0.0712  0.0805  0.1019
    3TCq1    C8   42   0.404   1.790  11.052  0.4619  0.6942 -1.1245
    3TCq1    O4   43   0.330   1.715  11.113  0.3860  0.4670  0.1851
    3TCq1    C9   44   0.768   1.750  10.720  0.8740 -0.2321  0.0757
    3TCq1    O5   45   0.796   1.668  10.625  0.0202  0.4448 -0.2421
    3TCq1    O6   46   0.761   1.874  10.702 -0.2792 -0.4088 -0.1331
    3TCq1    H1   47   0.842   1.278  11.018  0.4140  0.2339  0.4905
    3TCq1    H2   48   0.822   1.539  10.852  0.2049  0.6993  0.5869
    3TCq1    H3   49   0.570   1.880  10.841  0.0283 -0.5229 -0.5287
    3TCq1    H4   50   0.480   1.559  11.113  1.2197 -1.5130  0.1626
    4MPD2     C   51   0.107   2.180  11.182  0.2846 -0.1814  0.5523
    4MPD2    C1   52   0.224   2.228  11.135  0.4934  0.1680  0.1270
    4MPD2    C2   53   0.321   2.142  11.092  0.1473 -0.5715  0.0822
    4MPD2    C3   54   0.308   2.005  11.110  0.0505  0.3759  0.3676
    4MPD2    C4   55   0.189   1.953  11.167  0.5587 -0.4711  0.1127
    4MPD2    C5   56   0.090   2.043  11.201 -0.5376  0.4595 -0.4432
    4MPD2     H   57   0.408   2.190  11.048 -0.7084  0.1146 -0.8457
    4MPD2    H1   58   0.171   1.851  11.199  0.7055 -0.4655  0.2126
    4MPD2    H2   59   0.024   2.239  11.218  0.7323  0.1929  0.9732
    4MPD2    H3   60   4.720   2.006  11.241 -0.4000 -0.2706 -0.7968
    4MPD2     N   61   0.411   1.927  11.057 -0.1403  0.0131 -0.5207
    4MPD2    H5   62   0.490   1.975  11.016 -0.4535  0.3522 -0.7226
    4MPD2    N1   63   0.241   2.364  11.109 -0.3682  0.3018 -0.6821
    4MPD2    H7   64   0.328   2.399  11.071  0.9443 -1.8108  0.4167
    5TCq1    O1   65   2.007   4.394  11.149 -0.2545  0.0178  0.0303
    5TCq1    C1   66   1.903   4.314  11.130 -0.0921  0.2566  0.1211
    5TCq1    O2   67   1.806   4.298  11.204 -0.2023 -0.0456 -0.0595
    5TCq1    C2   68   1.895   4.270  10.990 -0.6243  0.0957  0.2879
    5TCq1    C3   69   1.966   4.331  10.890 -0.0469  0.0467  0.9820
    5TCq1    C4   70   1.963   4.284  10.763  0.3396  0.3227  0.3379
    5TCq1    C5   71   1.890   4.173  10.727 -0.0204 -0.6817  0.0737
    5TCq1    C6   72   1.806   4.125  10.831 -0.4502 -0.0782 -0.4873
    5TCq1    C7   73   1.806   4.176  10.963  0.2630 -0.1888  0.1585
    5TCq1    C8   74   1.714   4.012  10.794  0.8441 -0.5212  0.3840
    5TCq1    O4   75   1.701   3.974  10.677 -0.5403  0.6404 -0.4914
    5TCq1    C9   76   2.047   4.333  10.656  0.6675 -0.2344  0.1612
    5TCq1    O5   77   2.024   4.283  10.542 -0.2138  0.2482  0.7274
    5TCq1    O6   78   2.129   4.425  10.681  0.5472  0.0226  0.4069
    5TCq1    H1   79   2.079   4.366  11.089 -0.1917 -0.3154  0.2602
    5TCq1    H2   80   2.038   4.410  10.903 -2.3655  2.3485 -0.0704
    5TCq1    H3   81   1.877   4.141  10.625  0.7590 -0.0854 -0.2031
    5TCq1    H4   82   1.756   4.123  11.044  0.0197 -0.3335 -0.0847
    6MPD2     C   83   1.504   3.801  11.013 -0.3190 -0.7487  0.0624
    6MPD2    C1   84   1.564   3.842  10.895  0.0825 -0.1143  0.0364
    6MPD2    C2   85   1.529   3.767  10.786  0.1316 -0.8149  0.7468
    6MPD2    C3   86   1.451   3.657  10.784  0.1552 -0.0955  0.1245
    6MPD2    C4   87   1.389   3.613  10.903  0.5043 -0.0294 -0.1621
    6MPD2    C5   88   1.421   3.687  11.011 -0.5977 -0.7575  0.6406
    6MPD2     H   89   1.567   3.793  10.688 -0.5555 -1.7417  0.2355
    6MPD2    H1   90   1.337   3.520  10.920 -0.6937  0.3228 -1.9224
    6MPD2    H2   91   1.532   3.851  11.106 -0.7531 -2.3481  1.0544
    6MPD2    H3   92   1.382   3.648  11.104 -0.5739  1.0411  1.3958
    6MPD2     N   93   1.448   3.573  10.672 -0.1387 -0.2217  0.2161
    6MPD2    H5   94   1.521   3.590  10.603  1.1683 -3.2793  0.8294
    6MPD2    N1   95   1.637   3.961  10.898  0.2675  0.1527  0.2789
    6MPD2    H7   96   1.642   3.995  10.993  1.1984 -2.1074  1.0566
    7TCq1    O1   97   3.043   3.478  13.017  0.5284  0.7268  0.3118
    7TCq1    C1   98   3.104   3.356  13.017 -0.6063 -0.1461  0.6059
    7TCq1    O2   99   3.187   3.317  12.947  0.3479 -0.0225 -0.4882
    7TCq1    C2  100   3.100   3.310  13.152 -0.2331 -0.4032 -1.0922
    7TCq1    C3  101   2.974   3.291  13.204 -0.9671  0.1729  0.9333
    7TCq1    C4  102   2.955   3.198  13.304  0.3256 -0.0167 -0.2396
    7TCq1    C5  103   3.060   3.118  13.344  0.8764 -0.2504 -0.3208
    7TCq1    C6  104   3.174   3.128  13.276 -0.1883 -0.7334  0.6360
    7TCq1    C7  105   3.199   3.219  13.175 -0.5074  0.6488 -0.6483
    7TCq1    C8  106   3.283   3.046  13.326  0.2561 -0.0046 -0.6837
    7TCq1    O4  107   3.362   2.987  13.252  0.0209 -0.5342 -0.2073
    7TCq1    C9  108   2.834   3.198  13.381  0.4818  0.0416 -0.3913
    7TCq1    O5  109   2.830   3.099  13.460  0.2398  0.1140  0.0741
    7TCq1    O6  110   2.727   3.240  13.325  0.0996  0.3514  0.0900
    7TCq1    H1  111   3.003   3.509  13.101 -0.8783  2.0621 -0.8533
    7TCq1    H2  112   2.898   3.363  13.178  0.8344  1.0029 -1.9847
    7TCq1    H3  113   3.042   3.036  13.413 -1.4255  0.1785 -0.4038
    7TCq1    H4  114   3.294   3.229  13.123  1.1128 -1.3691  1.9315
    8MPD2     C  115   3.562   2.900  13.741  0.3995 -0.1855 -0.1696
    8MPD2    C1  116   3.536   2.828  13.622 -0.1629 -0.2683  0.2718
    8MPD2    C2  117   3.444   2.881  13.530 -0.4494  0.0112  0.1768
    8MPD2    C3  118   3.382   3.007  13.554  1.0586  0.1911 -0.3480
    8MPD2    C4  119   3.413   3.072  13.675 -0.8190 -0.3382  0.5652
    8MPD2    C5  120   3.500   3.020  13.764 -0.4900  0.2111 -0.0659
    8MPD2     H  121   3.434   2.821  13.441  1.9270 -1.4478  0.8880
    8MPD2    H1  122   3.363   3.166  13.694  1.3497  1.0195 -0.5030
    8MPD2    H2  123   3.633   2.861  13.813  1.3105 -0.2885 -1.1320
    8MPD2    H3  124   3.520   3.071  13.857  0.6410 -0.1864 -0.0855
    8MPD2     N  125   3.301   3.073  13.458  0.2417  0.0542 -0.2455
    8MPD2    H5  126   3.245   3.151  13.490  0.0922  0.0863 -0.5871
    8MPD2    N1  127   3.605   2.706  13.598 -0.0102 -0.0323  0.2382
    8MPD2    H7  128   3.687   2.698  13.657  2.3563  0.3950 -2.9626
    9TCq1    O1  129   1.099   1.878  10.726  0.1206 -0.1637  0.3639
    9TCq1    C1  130   1.120   1.903  10.852 -0.1209  0.1211  0.2812
    9TCq1    O2  131   1.045   1.870  10.942  0.0478  0.4602  0.6673
    9TCq1    C2  132   1.268   1.896  10.870 -0.0063  0.5279  0.0117
    9TCq1    C3  133   1.357   1.960  10.784  0.9686 -0.4144 -0.0322
    9TCq1    C4  134   1.495   1.954  10.808 -0.0924  0.5813 -0.2333
    9TCq1    C5  135   1.537   1.891  10.916 -0.0270  0.0706 -0.6501
    9TCq1    C6  136   1.449   1.841  11.005  0.6805 -0.3619 -0.3305
    9TCq1    C7  137   1.316   1.846  10.986 -0.3052  0.1451 -0.2478
    9TCq1    C8  138   1.502   1.778  11.119  0.1008  0.6739  0.2993
    9TCq1    O4  139   1.618   1.757  11.113 -0.4253 -0.0286  0.2980
    9TCq1    C9  140   1.589   1.999  10.704  0.0920 -0.4045  0.3607
    9TCq1    O5  141   1.549   2.083  10.622  0.3465  0.8434  0.0463
    9TCq1    O6  142   1.701   1.940  10.704  0.4157 -0.3169 -0.2078
    9TCq1    H1  143   1.170   1.883  10.658  0.7884 -1.1947  1.0044
    9TCq1    H2  144   1.316   2.025  10.708  1.1129 -1.1673 -0.7566
    9TCq1    H3  145   1.643   1.890  10.939 -0.3284 -2.0211  0.5714
    9TCq1    H4  146   1.257   1.790  11.058 -1.1861  0.2936 -0.8446
   10MPD2     C  147   1.550   1.638  11.391  0.9061 -0.3470  0.2828
   10MPD2    C1  148   1.429   1.688  11.346 -0.2780  0.1698 -0.2182
   10MPD2    C2  149   1.313   1.669  11.423 -0.2634 -0.8790  0.4027
   10MPD2    C3  150   1.317   1.611  11.546  0.2048 -0.7144  0.1972
   10MPD2    C4  151   1.441   1.559  11.590 -0.0652 -0.1045 -0.2267
   10MPD2    C5  152   1.551   1.581  11.514 -0.1347 -0.5504  0.0910
   10MPD2     H  153   1.219   1.696  11.376 -0.9491 -0.1057  2.2124
   10MPD2    H1  154   1.452   1.507  11.684  1.9683  0.7023 -0.0129
   10MPD2    H2  155   1.644   1.649  11.338  0.0523  0.1079 -1.1227
   10MPD2    H3  156   1.650   1.555  11.551  0.0169  0.2041  0.2153
   10MPD2     N  157   1.201   1.579  11.625 -0.2342 -0.3214 -0.3253
   10MPD2    H5  158   1.219   1.527  11.710 -2.2095  0.2261  0.4287
   10MPD2    N1  159   1.411   1.757  11.219  0.1059 -0.0731 -0.2006
   10MPD2    H7  160   1.317   1.792  11.200 -0.0570  0.3632  1.4142
   11TCq1    O1  161   2.593   1.374  14.686 -0.8195  0.1528  0.0407
   11TCq1    C1  162   2.517   1.358  14.580  0.2361  0.4632  0.5410
   11TCq1    O2  163   2.509   1.258  14.511 -0.2750  0.2285  0.3857
   11TCq1    C2  164   2.433   1.471  14.569  0.3664 -0.4096 -0.3865
   11TCq1    C3  165   2.487   1.590  14.544  0.1091  0.5247 -0.4580
   11TCq1    C4  166   2.421   1.675  14.458 -0.6764 -0.0668 -0.1451
   11TCq1    C5  167   2.298   1.652  14.409 -0.4542  0.6556  0.5548
   11TCq1    C6  168   2.237   1.537  14.447 -0.4529 -0.1882  0.3106
   11TCq1    C7  169   2.303   1.445  14.523  0.1627 -0.6782  1.1567
   11TCq1    C8  170   2.104   1.501  14.391  0.6919 -0.0451 -0.2123
   11TCq1    O4  171   2.081   1.381  14.372 -0.4917  0.3105  0.0484
   11TCq1    C9  172   2.483   1.801  14.423  0.0058 -0.6471 -0.3476
   11TCq1    O5  173   2.567   1.843  14.509  0.6729 -0.3029 -0.4447
   11TCq1    O6  174   2.451   1.861  14.322 -0.2061  0.5666  0.5565
   11TCq1    H1  175   2.592   1.461  14.732 -0.7148  1.3706 -2.2652
   11TCq1    H2  176   2.587   1.619  14.576 -0.3751 -1.3824  2.7023
   11TCq1    H3  177   2.255   1.726  14.343 -0.7226 -0.0498 -0.0698
   11TCq1    H4  178   2.263   1.345  14.537 -1.8456  0.3254  2.5717
   12MPD2     C  179   1.828   1.712  14.277  0.5811  0.1828 -0.2644
   12MPD2    C1  180   1.906   1.599  14.277  0.4283  0.2302  0.6699
   12MPD2    C2  181   1.856   1.484  14.204  0.0922  0.3384 -0.6976
   12MPD2    C3  182   1.761   1.501  14.103  0.0007 -0.1457  0.1303
   12MPD2    C4  183   1.692   1.618  14.102 -0.1031  0.1764 -0.3477
   12MPD2    C5  184   1.722   1.715  14.189  0.1672  0.3632  0.5409
   12MPD2     H  185   1.904   1.387  14.212 -0.2144  0.1150 -1.5755
   12MPD2    H1  186   1.623   1.637  14.021 -1.0098 -3.5118 -0.4472
   12MPD2    H2  187   1.848   1.801  14.336  0.4226  0.5071 -0.6958
   12MPD2    H3  188   1.679   1.814  14.182 -1.4439 -0.4109 -0.6088
   12MPD2     N  189   1.712   1.407  14.013  0.2692 -0.3959 -0.3122
   12MPD2    H5  190   1.646   1.441  13.944 -1.8886 -2.1509  0.9028
   12MPD2    N1  191   2.023   1.608  14.350 -0.5670 -0.2724 -0.1927
   12MPD2    H7  192   2.040   1.695  14.399 -0.6884 -1.1854  1.4734
   13TCq1    O1  193   1.850   1.735  10.647  0.4845  0.4963  0.3820
   13TCq1    C1  194   1.796   1.619  10.683  0.2097 -0.8940 -0.1222
   13TCq1    O2  195   1.863   1.536  10.745 -0.4583  0.2930 -0.5222
   13TCq1    C2  196   1.650   1.637  10.677  0.3470  0.3843  0.0413
   13TCq1    C3  197   1.596   1.691  10.567 -0.3498 -0.3890 -0.0916
   13TCq1    C4  198   1.456   1.697  10.559  0.4362 -0.4183 -0.0447
   13TCq1    C5  199   1.368   1.653  10.665  0.8059  0.3818 -0.8630
   13TCq1    C6  200   1.431   1.589  10.766  0.1559 -0.3981  0.0971
   13TCq1    C7  201   1.572   1.587  10.781 -0.2040 -0.1051  0.8960
   13TCq1    C8  202   1.345   1.535  10.875  0.2815 -0.2715 -0.0723
   13TCq1    O4  203   1.223   1.538  10.851 -0.4434  0.4203  0.4755
   13TCq1    C9  204   1.401   1.774  10.454 -0.2256 -0.0597 -0.6703
   13TCq1    O5  205   1.476   1.848  10.385  0.0328 -0.2272 -0.4217
   13TCq1    O6  206   1.279   1.799  10.464  0.6425  0.4356  0.0363
   13TCq1    H1  207   1.781   1.804  10.643  0.5318  0.5084 -0.2633
   13TCq1    H2  208   1.655   1.713  10.479 -2.6860  1.5551 -1.1499
   13TCq1    H3  209   1.261   1.665  10.657  0.7863  0.5066 -0.3914
   13TCq1    H4  210   1.618   1.553  10.873 -0.2623  1.3608  1.4684
   14MPD2     C  211   1.441   1.362  11.189 -0.4429 -0.2032  0.0975
   14MPD2    C1  212   1.354   1.423  11.105 -0.7819 -0.2678 -0.8188
   14MPD2    C2  213   1.222   1.442  11.135  0.0659 -0.1102 -0.2263
   14MPD2    C3  214   1.171   1.393  11.256  0.1666 -0.3192  0.3946
   14MPD2    C4  215   1.259   1.317  11.344  0.2686 -0.4502  0.1105
   14MPD2    C5  216   1.397   1.303  11.308 -0.1780 -0.5175  0.0087
   14MPD2     H  217   1.162   1.511  11.077  0.9104 -0.4630 -1.5191
   14MPD2    H1  218   1.231   1.272  11.438 -0.0799  0.4535  0.4440
   14MPD2    H2  219   1.545   1.343  11.165 -0.1643  3.6934 -1.8529
   14MPD2    H3  220   1.465   1.245  11.369 -0.4275 -0.6770  0.1311
   14MPD2     N  221   1.033   1.423  11.283 -0.2129 -0.0770 -0.2991
   14MPD2    H5  222   0.989   1.490  11.221 -1.8864  0.5679  1.5619
   14MPD2    N1  223   1.413   1.479  10.986  0.7965  0.1594  0.6255
   14MPD2    H7  224   1.514   1.468  10.979  0.6059 -0.2685 -1.4871
   15TCq1    O1  225   2.262   0.845   1.845 -0.4008  0.3829  0.8221
   15TCq1    C1  226   2.300   0.739   1.762 -0.7022 -0.4929 -1.0132
   15TCq1    O2  227   2.235   0.699   1.669  0.1021 -0.1750  0.2336
   15TCq1    C2  228   2.419   0.680   1.813 -0.0636 -0.3192  0.1705
   15TCq1    C3  229   2.438   0.677   1.951  0.1287 -1.3406 -0.4229
   15TCq1    C4  230   2.529   0.595   2.006 -0.0623  0.2250  0.4251
   15TCq1    C5  231   2.608   0.520   1.925 -0.2563  0.0061  0.1579
   15TCq1    C6  232   2.590   0.519   1.792 -0.4185 -0.0120 -0.1755
   15TCq1    C7  233   2.489   0.598   1.732  0.0660  0.3408  0.7199
   15TCq1    C8  234   2.665   0.424   1.707 -0.1953  0.1371  0.0550
   15TCq1    O4  235   2.746   0.348   1.762  1.0892 -0.0280 -0.0192
   15TCq1    C9  236   2.537   0.585   2.152 -0.1954 -1.1111 -0.2362
   15TCq1    O5  237   2.453   0.641   2.219 -0.2513 -0.6016 -0.0185
   15TCq1    O6  238   2.617   0.506   2.207 -0.4167  0.9075 -0.4824
   15TCq1    H1  239   2.343   0.870   1.895  1.4420 -3.4675 -0.1692
   15TCq1    H2  240   2.371   0.722   2.023 -0.8258 -0.5917 -1.7858
   15TCq1    H3  241   2.678   0.454   1.975 -0.5776  0.5912  1.3973
   15TCq1    H4  242   2.452   0.599   1.630  0.8925  0.6173  0.4203
   16MPD2     C  243   2.581   0.356   1.351  0.0261  0.1067  0.7848
   16MPD2    C1  244   2.645   0.339   1.475  0.0868 -0.1222 -1.2221
   16MPD2    C2  245   2.745   0.242   1.488 -0.2864  0.0314 -0.1154
   16MPD2    C3  246   2.773   0.158   1.381  0.4670 -0.8743  0.4261
   16MPD2    C4  247   2.721   0.179   1.257  1.2800 -0.6788 -0.2589
   16MPD2    C5  248   2.625   0.273   1.248 -0.6611  0.2337  0.3668
   16MPD2     H  249   2.800   0.230   1.580  1.1356  0.9771 -0.8290
   16MPD2    H1  250   2.750   0.128   1.165  0.3853 -1.0128 -0.3564
   16MPD2    H2  251   2.496   0.422   1.343 -0.4940 -0.7157 -0.4528
   16MPD2    H3  252   2.589   0.299   1.149  0.6945  0.7340  0.0085
   16MPD2     N  253   2.878   0.062   1.402 -0.9572  0.3270  0.1139
   16MPD2    H5  254   2.929   0.063   1.489  1.3545  0.7325 -1.2528
   16MPD2    N1  255   2.617   0.424   1.579  0.7785  0.6457  0.0028
   16MPD2    H7  256   2.559   0.502   1.549  0.1759 -0.3496 -1.4235
   17TCq1    O1  257   0.647   1.141  10.819 -0.4092 -0.1070 -0.4530
   17TCq1    C1  258   0.684   1.013  10.839  0.0645 -0.2352  1.0660
   17TCq1    O2  259   0.646   0.942  10.928  0.6108  0.1874  0.3058
   17TCq1    C2  260   0.776   0.978  10.741 -0.4269  0.2987  0.2644
   17TCq1    C3  261   0.797   1.063  10.633  0.3050  0.0623  0.1719
   17TCq1    C4  262   0.922   1.077  10.584 -0.3767 -0.0655  0.0959
   17TCq1    C5  263   1.030   0.992  10.613  0.4428  0.2994  0.0289
   17TCq1    C6  264   0.998   0.895  10.709  0.0191 -1.0011 -0.6295
   17TCq1    C7  265   0.871   0.895  10.783  0.0096 -0.2553 -0.1204
   17TCq1    C8  266   1.106   0.810  10.761 -0.2461 -0.4506  0.0693
   17TCq1    O4  267   1.090   0.750  10.863  0.2330 -1.0178  0.1528
   17TCq1    C9  268   0.946   1.184  10.492  0.2438 -0.7885 -0.7775
   17TCq1    O5  269   1.062   1.209  10.455 -0.1664 -0.1129 -0.4621
   17TCq1    O6  270   0.852   1.264  10.464 -0.3940  0.2360  0.0994
   17TCq1    H1  271   0.693   1.180  10.742  1.2560  1.8918  1.5464
   17TCq1    H2  272   0.719   1.118  10.582  0.3643  0.7745  0.8395
   17TCq1    H3  273   1.120   1.003  10.553  0.9327  1.9748  1.0693
   17TCq1    H4  274   0.860   0.825  10.865  3.6016 -0.6787  0.0101
   18MPD2     C  275   1.390   0.757  10.869  0.2460 -0.8047 -0.3701
   18MPD2    C1  276   1.364   0.794  10.745 -0.3900 -0.4502 -0.0093
   18MPD2    C2  277   1.470   0.827  10.662 -0.4060 -0.0401 -0.0333
   18MPD2    C3  278   1.608   0.813  10.695  0.4333  0.0507 -0.7072
   18MPD2    C4  279   1.633   0.778  10.826  0.2473 -0.2642 -0.2088
   18MPD2    C5  280   1.520   0.741  10.902 -1.0537  0.0257  0.0530
   18MPD2     H  281   1.435   0.853  10.563  1.8598 -1.4138 -1.2048
   18MPD2    H1  282   1.733   0.762  10.865  0.3775  3.1195  0.8798
   18MPD2    H2  283   1.319   0.744  10.951  0.2288  0.8889 -0.1138
   18MPD2    H3  284   1.548   0.700  10.998  1.8223 -0.7148 -1.1064
   18MPD2     N  285   1.716   0.834  10.611 -0.2205 -0.0259  0.9455
   18MPD2    H5  286   1.807   0.817  10.654  0.1489  1.8334  0.9166
   18MPD2    N1  287   1.232   0.834  10.702 -0.1658 -0.6965  0.3695
   18MPD2    H7  288   1.227   0.890  10.617  0.7138  1.7141  1.8964
   19TMC2    C1  289   3.181   0.865  13.727  0.6502 -0.4535  0.1305
   19TMC2    C2  290   3.265   0.857  13.619 -0.4711 -0.0136 -0.1397
   19TMC2    C3  291   3.222   0.808  13.504 -0.8747 -0.0488 -0.2278
   19TMC2    C4  292   3.047   0.834  13.724 -0.4194 -0.0116 -0.5316
   19TMC2    C5  293   3.007   0.801  13.598  0.6708  0.8682 -0.0365
   19TMC2    C6  294   3.089   0.782  13.494 -0.3160  0.2922  0.3948
   19TMC2     C  295   3.222   0.966  13.815 -0.3959 -0.6990 -0.3152
   19TMC2     O  296   3.292   1.048  13.760 -0.0569  0.1530  0.3417
   19TMC2     H  297   3.364   0.900  13.622 -0.6870  0.3396  1.5587
   19TMC2    H1  298   2.981   0.848  13.808 -0.5556  1.0309 -0.8164
   19TMC2    H2  299   3.056   0.736  13.401  1.4432 -0.0413 -0.0789
   19TMC2    C7  300   2.867   0.763  13.583 -0.0950  0.9985  0.7577
   19TMC2    C8  301   3.310   0.811  13.382 -0.1830 -0.2812  0.7500
   19TMC2    O1  302   2.851   0.686  13.490  0.7950 -0.2849 -0.4189
   19TMC2    O2  303   3.429   0.805  13.389 -0.3314 -0.2832  0.0925
   19TMC2    O5  304   3.250   0.892  13.292 -0.1826  0.5837  0.4847
   19TMC2    H5  305   3.155   0.908  13.310  0.2250  2.8487  0.6649
   20MPD2     C  306   3.320   1.145  14.030 -1.1806  0.0077 -0.0603
   20MPD2    C1  307   3.252   1.025  14.051 -0.7703  0.0452  0.4634
   20MPD2    C2  308   3.229   0.990  14.186 -0.5636  0.1889 -0.0365
   20MPD2    C3  309   3.269   1.071  14.289  0.2068 -0.4031  0.5566
   20MPD2    C4  310   3.356   1.177  14.262  0.2283  0.3008  0.2722
   20MPD2    C5  311   3.369   1.214  14.136  0.0362  0.3395 -0.4687
   20MPD2     H  312   3.172   0.899  14.197 -1.0739  0.6514  1.1774
   20MPD2    H1  313   3.395   1.246  14.336 -1.1779  1.9722 -0.5570
   20MPD2    H2  314   3.337   1.180  13.929 -1.5212  0.5110  0.0608
   20MPD2    H3  315   3.414   1.311  14.123 -0.6192  0.5950 -0.8367
   20MPD2     N  316   3.252   1.051  14.427  0.1202 -0.1567  0.3451
   20MPD2    H5  317   3.304   1.112  14.490 -0.8781  0.4336  0.5965
   20MPD2    N1  318   3.195   0.951  13.951 -0.2044  0.2652  0.1797
   20MPD2    H7  319   3.137   0.874  13.982  1.0056 -0.5674  0.3812
   21MPD2     C  320   0.169   1.672  13.870 -0.0500 -0.1067  0.2976
   21MPD2    C1  321   0.260   1.611  13.956  0.5071  0.3470  0.2683
   21MPD2    C2  322   0.224   1.592  14.088  0.1615  0.1564 -0.1704
   21MPD2    C3  323   0.098   1.622  14.128  0.4262 -0.8136 -0.7534
   21MPD2    C4  324   0.010   1.686  14.038  0.0178 -0.0728 -0.5191
   21MPD2    C5  325   0.047   1.704  13.906 -0.2468  0.2655  0.0692
   21MPD2     H  326   0.302   1.549  14.149 -0.1983  0.4343  0.4821
   21MPD2    H1  327   4.637   1.721  14.073 -0.4022 -0.3696 -1.3812
   21MPD2    H2  328   0.190   1.694  13.766  2.8366 -0.7963  0.7516
   21MPD2    H3  329   4.702   1.754  13.838 -0.4294 -2.0064 -1.4129
   21MPD2     N  330   0.046   1.616  14.264  0.3456 -0.4264 -0.0184
   21MPD2    H5  331   4.680   1.661  14.277  0.2830 -0.3808 -0.6137
   21MPD2    N1  332   0.390   1.579  13.919 -0.0094  1.3011  0.8449
   21MPD2    H7  333   0.446   1.538  13.993  0.6795 -0.8269 -0.8539
   22TCq2    C1  334   0.107   1.545  14.363  0.3644  0.3789  0.1394
   22TCq2    O2  335   0.193   1.458  14.362  0.4997  0.4066  0.2741
   22TCq2    C2  336   0.023   1.561  14.483 -0.2805  0.1189 -0.7370
   22TCq2    C3  337   0.032   1.455  14.567  0.2952 -0.2698 -0.7593
   22TCq2    C4  338   0.005   1.476  14.705  0.3140  0.2909 -0.4055
   22TCq2    C5  339   4.692   1.598  14.754  0.6043  0.5266  0.3069
   22TCq2    C6  340   4.680   1.699  14.658  0.2790  0.3548  0.1621
   22TCq2    C7  341   4.710   1.686  14.524  1.0600 -0.7266 -0.5029
   22TCq2    C8  342   4.636   1.832  14.704  0.3648 -0.4257 -1.0914
   22TCq2    O4  343   4.651   1.857  14.827  0.3768  0.0686 -0.2743
   22TCq2    C9  344   0.055   1.370  14.795 -0.0603 -0.1650  0.0271
   22TCq2    O5  345   0.119   1.272  14.749 -0.3450 -0.1768 -0.3329
   22TCq2    O6  346   0.043   1.399  14.919  0.5074 -0.8416 -0.0927
   22TCq2    H2  347   0.060   1.354  14.539  0.5384 -0.2189 -0.6944
   22TCq2    H3  348   4.662   1.614  14.857  0.0513  0.9090  0.0854
   22TCq2    H4  349   0.022   1.776  14.474  2.1441  0.3709  2.2247
   23MPD2     C  350   1.899   2.898  14.985  0.3130 -0.1416 -0.1383
   23MPD2    C1  351   1.798   2.808  14.958 -0.4258 -0.0466 -0.7548
   23MPD2    C2  352   1.743   2.810  14.825 -0.6396 -0.4257  0.5385
   23MPD2    C3  353   1.792   2.899  14.729  0.3685 -0.2396  0.3454
   23MPD2    C4  354   1.889   2.988  14.763  0.6962  0.7950  0.4805
   23MPD2    C5  355   1.946   2.977  14.887 -0.0358  0.6957  0.5405
   23MPD2     H  356   1.665   2.741  14.793 -1.1033  0.7092 -0.8047
   23MPD2    H1  357   1.930   3.065  14.700 -0.4589 -0.2212 -1.5206
   23MPD2    H2  358   1.946   2.903  15.083 -2.5350 -0.5769  1.2252
   23MPD2    H3  359   2.033   3.042  14.901 -0.1911  1.0575 -0.1620
   23MPD2     N  360   1.746   2.903  14.593  0.4277 -0.1270 -0.0738
   23MPD2    H5  361   1.796   2.968  14.533 -0.5679 -0.0100 -0.7797
   23MPD2    N1  362   1.759   2.706  15.052 -0.9320 -0.1755 -0.0074
   23MPD2    H7  363   1.688   2.641  15.018  0.8495 -0.9232 -2.2526
   24TCq2    C1  364   1.635   2.837  14.536 -0.4973 -0.0006 -0.0738
   24TCq2    O2  365   1.547   2.775  14.592  0.0384 -0.0162 -0.0893
   24TCq2    C2  366   1.619   2.877  14.393  0.0749 -0.5453  0.4061
   24TCq2    C3  367   1.698   2.976  14.337 -0.1558  0.1244  0.4363
   24TCq2    C4  368   1.684   3.006  14.206  0.1179  0.4735 -0.8120
   24TCq2    C5  369   1.586   2.947  14.128  0.2896  0.1745 -0.1839
   24TCq2    C6  370   1.507   2.848  14.182  0.3151 -0.0908 -0.1069
   24TCq2    C7  371   1.514   2.823  14.318  0.2256 -0.1743 -0.0514
   24TCq2    C8  372   1.405   2.779  14.092 -0.3839  0.1094  0.2605
   24TCq2    O4  373   1.381   2.831  13.986 -0.5098 -0.5867  0.0603
   24TCq2    C9  374   1.782   3.089  14.145  0.4278  0.4482  0.0822
   24TCq2    O5  375   1.781   3.093  14.019  0.4259 -0.5420 -0.0264
   24TCq2    O6  376   1.853   3.161  14.219  0.6984  0.6288  0.5897
   24TCq2    H2  377   1.778   3.029  14.386 -1.1249 -0.4491  2.6732
   24TCq2    H3  378   1.565   2.976  14.026  2.2548 -0.1855 -0.7026
   24TCq2    H4  379   1.457   2.750  14.375 -2.6140  0.5079 -2.0302
   25TMC2    C1  380   1.189   4.637  11.509 -0.1098  0.5949 -0.4340
   25TMC2    C2  381   1.263   4.711  11.425 -0.2704 -0.4677  0.2777
   25TMC2    C3  382   1.255   0.129  11.438 -0.3217  0.1330  0.0196
   25TMC2    C4  383   1.111   4.689  11.606 -0.3024  0.5079  0.6150
   25TMC2    C5  384   1.089   0.098  11.599 -0.5397 -0.5360  0.2695
   25TMC2    C6  385   1.164   0.181  11.524 -0.6970 -0.7696  0.1381
   25TMC2     C  386   1.143   4.508  11.456  0.1915 -0.4720  0.2066
   25TMC2     O  387   1.227   4.451  11.386 -0.1601 -0.5169  0.3270
   25TMC2     H  388   1.312   4.659  11.343 -0.2219 -1.8667  1.1895
   25TMC2    H1  389   1.054   4.630  11.677  0.2122 -0.8964 -0.1465
   25TMC2    H2  390   1.165   0.288  11.542  1.1820 -1.0388  1.5419
   25TMC2    C7  391   0.975   0.155  11.667  0.3811 -0.3416 -0.0569
   25TMC2    C8  392   1.267   0.218  11.318  0.2590 -0.0419 -0.0467
   25TMC2    O1  393   0.923   0.089  11.756 -0.2148  0.4838  0.4682
   25TMC2    O2  394   1.176   0.279  11.263  0.0265 -0.4056  0.1325
   25TMC2    O5  395   1.359   0.155  11.245  0.1723  0.7921  0.5485
   25TMC2    H5  396   1.434   0.113  11.292  0.3572  0.3507 -0.1430
   26MPD2     C  397   0.820   4.153  11.292  0.5485 -0.0283 -0.6348
   26MPD2    C1  398   0.746   4.255  11.358 -0.1692  0.0091  0.2757
   26MPD2    C2  399   0.812   4.363  11.409  0.0084 -0.7001  0.0529
   26MPD2    C3  400   0.951   4.360  11.405 -0.4548  0.1798 -0.3274
   26MPD2    C4  401   1.022   4.273  11.325  0.2434  0.1733  0.4620
   26MPD2    C5  402   0.950   4.165  11.277 -0.3457 -0.8952 -0.3694
   26MPD2     H  403   0.763   4.433  11.475  2.1573  0.8393  0.0023
   26MPD2    H1  404   1.129   4.276  11.311 -0.0914 -0.8279 -2.4079
   26MPD2    H2  405   0.774   4.068  11.244 -0.3036  0.3508 -0.4905
   26MPD2    H3  406   1.007   4.098  11.213 -1.8567 -0.3402 -2.3099
   26MPD2     N  407   1.010   4.478  11.467 -0.1239 -0.1698  0.3754
   26MPD2    H5  408   0.942   4.550  11.493 -1.6089 -0.8425 -1.6182
   26MPD2    N1  409   0.608   4.241  11.359 -0.0763 -0.1021  0.8238
   26MPD2    H7  410   0.568   4.168  11.301  0.2258 -0.2901  0.8518
   27TMC2    C1  411   4.072   2.128  11.724 -0.3263  0.3541  0.1072
   27TMC2    C2  412   3.982   2.152  11.625 -0.0853  0.6065 -0.2350
   27TMC2    C3  413   3.974   2.285  11.584 -0.1194 -0.9977  0.4143
   27TMC2    C4  414   4.130   2.231  11.793 -0.0579  0.0845  0.7645
   27TMC2    C5  415   4.095   2.362  11.769  0.8660 -0.1082 -0.4745
   27TMC2    C6  416   4.014   2.396  11.660 -0.5966  0.0864  0.6059
   27TMC2     C  417   4.047   2.011  11.807 -0.7274  0.4971 -0.1752
   27TMC2     O  418   4.027   1.899  11.761  0.0847  0.2163 -0.3829
   27TMC2     H  419   3.946   2.076  11.557 -0.1140 -1.8094  2.4704
   27TMC2    H1  420   4.205   2.197  11.863  0.4544 -0.5417 -0.1015
   27TMC2    H2  421   3.993   2.501  11.644  1.4107  0.1897 -1.2788
   27TMC2    C7  422   4.097   2.442  11.889 -0.3004 -0.3204  0.2843
   27TMC2    C8  423   3.911   2.295  11.453 -0.4983 -0.1310 -0.4256
   27TMC2    O1  424   4.078   2.370  11.988  0.0011  0.0075 -0.2518
   27TMC2    O2  425   3.955   2.221  11.365 -0.1114 -0.5840 -0.0259
   27TMC2    O5  426   3.855   2.418  11.453  0.5102 -0.2250  0.2023
   27TMC2    H5  427   3.816   2.431  11.542  0.5815 -0.2771  0.2404
   28MPD2     C  428   3.939   1.835  12.269 -0.3724 -0.2709 -0.3617
   28MPD2    C1  429   3.910   1.973  12.263 -0.2979 -0.6191 -0.6404
   28MPD2    C2  430   3.930   2.041  12.146 -0.0466  0.0793 -0.0562
   28MPD2    C3  431   3.985   1.981  12.040  0.0610  0.2833 -0.0813
   28MPD2    C4  432   4.015   1.845  12.045 -0.5964  0.1241  0.4781
   28MPD2    C5  433   3.995   1.773  12.166 -0.4947  0.1014 -0.2806
   28MPD2     H  434   3.906   2.147  12.148 -0.2447  0.0743 -1.6201
   28MPD2    H1  435   4.070   1.795  11.966 -2.0830  0.2376 -0.6170
   28MPD2    H2  436   3.928   1.784  12.364  0.1767 -1.3478 -0.8789
   28MPD2    H3  437   4.016   1.667  12.169  1.1227  0.4676  1.2379
   28MPD2     N  438   4.018   2.062  11.930  0.0090  0.3100  0.2852
   28MPD2    H5  439   4.026   2.162  11.941  1.7861  0.5300 -3.1856
   28MPD2    N1  440   3.850   2.027  12.378  0.1891 -0.5203 -0.6965
   28MPD2    H7  441   3.831   1.960  12.452 -0.3273  1.7701  1.2325
   29MPD2     C  442   3.209   4.410  13.945  0.0117 -0.3883  0.3325
   29MPD2    C1  443   3.313   4.367  14.031 -0.1585 -0.1296  0.3279
   29MPD2    C2  444   3.351   4.454  14.136 -0.1798  0.4889 -0.2040
   29MPD2    C3  445   3.292   4.580  14.141  0.1594 -0.5513  0.1661
   29MPD2    C4  446   3.198   4.613  14.049 -0.3048  0.0931  0.1044
   29MPD2    C5  447   3.159   4.531  13.944  0.0122 -0.2973  0.1078
   29MPD2     H  448   3.425   4.422  14.208  0.8691  0.0585 -1.4723
   29MPD2    H1  449   3.166   4.717  14.043 -1.5989 -0.2552  1.1863
   29MPD2    H2  450   3.173   4.352  13.861  1.6407  0.1616 -0.7285
   29MPD2    H3  451   3.096   4.576  13.868  1.3862 -2.3143 -2.2536
   29MPD2     N  452   3.331   4.677  14.236 -0.7856  0.5269 -0.0980
   29MPD2    H5  453   3.294   0.046  14.218  0.1649  0.5203 -2.1234
   29MPD2    N1  454   3.378   4.241  14.023 -0.3192  0.3189 -1.0758
   29MPD2    H7  455   3.458   4.225  14.084  1.4849  1.1220 -3.2343
   30TCq2    C1  456   3.380   4.657  14.363  0.1362 -0.0898  0.6155
   30TCq2    O2  457   3.380   4.546  14.418 -0.5065  0.2883  0.4029
   30TCq2    C2  458   3.439   0.048  14.428 -0.7555  0.3238 -0.4324
   30TCq2    C3  459   3.455   0.028  14.564  0.0261  0.5762 -0.4565
   30TCq2    C4  460   3.515   0.131  14.625  0.3033  0.5932 -0.5922
   30TCq2    C5  461   3.576   0.234  14.561  0.1737 -0.6914  0.6460
   30TCq2    C6  462   3.565   0.249  14.425 -0.5458  0.0448 -0.4610
   30TCq2    C7  463   3.497   0.151  14.356 -0.8177 -0.1153  0.1294
   30TCq2    C8  464   3.621   0.359  14.352 -0.3679  0.6453  0.6430
   30TCq2    O4  465   3.598   0.345  14.233 -0.6691  0.1797  0.3863
   30TCq2    C9  466   3.518   0.126  14.766 -0.0895  0.5028  0.0735
   30TCq2    O5  467   3.454   0.029  14.816 -0.4800 -1.0007 -0.7327
   30TCq2    O6  468   3.575   0.218  14.833  0.2537  0.7092  0.7149
   30TCq2    H2  469   3.399   4.676  14.618  0.2907 -1.6131 -3.1800
   30TCq2    H3  470   3.615   0.310  14.627 -0.2842 -1.5209  1.8571
   30TCq2    H4  471   3.470   0.169  14.252 -2.2770 -0.9356  0.3567
   31MPD2     C  472   1.358   3.580  14.772 -0.0442 -0.3160  0.1368
   31MPD2    C1  473   1.318   3.480  14.689 -0.2509 -0.3433 -0.5735
   31MPD2    C2  474   1.321   3.348  14.731  0.2142 -0.1681 -0.3046
   31MPD2    C3  475   1.388   3.317  14.856 -0.5815 -0.0342 -0.0591
   31MPD2    C4  476   1.441   3.422  14.932  0.5810 -0.2297  0.0087
   31MPD2    C5  477   1.428   3.555  14.881  0.0327  0.2376  0.0703
   31MPD2     H  478   1.276   3.266  14.677  1.8202 -1.3690  0.1488
   31MPD2    H1  479   1.492   3.408  15.027  0.6758  3.1172  0.4548
   31MPD2    H2  480   1.342   3.684  14.746  2.2438 -0.0567 -0.2349
   31MPD2    H3  481   1.463   3.645  14.929  3.1259 -1.2724  0.6579
   31MPD2     N  482   1.389   3.186  14.911 -0.0553  0.0609  0.1806
   31MPD2    H5  483   1.430   3.174  15.003  2.8059 -0.0747 -1.1135
   31MPD2    N1  484   1.257   3.519  14.561  0.5962  0.4497  0.0064
   31MPD2    H7  485   1.262   3.617  14.535 -1.6286  0.8483  1.0699
   32TCq2    C1  486   1.372   3.066  14.841 -0.1112 -0.1713 -0.1959
   32TCq2    O2  487   1.342   3.048  14.722 -0.3992 -0.1929  0.4499
   32TCq2    C2  488   1.370   2.951  14.924 -0.3097  0.8219  0.3187
   32TCq2    C3  489   1.291   2.850  14.886 -0.7022 -0.2749 -0.3223
   32TCq2    C4  490   1.291   2.734  14.963 -0.1253 -0.8598 -1.0100
   32TCq2    C5  491   1.363   2.723  15.075  0.9169  0.2782  1.0193
   32TCq2    C6  492   1.437   2.826  15.114 -0.1961 -0.2850 -0.1903
   32TCq2    C7  493   1.440   2.943  15.042 -0.0983  0.3231 -0.7123
   32TCq2    C8  494   1.475   2.819  15.256 -0.0853 -0.8881 -0.1542
   32TCq2    O4  495   1.466   2.709  15.306 -0.5418  0.0774  0.0990
   32TCq2    C9  496   1.225   2.620  14.909 -0.7044 -0.3988 -0.0345
   32TCq2    O5  497   1.150   2.649  14.819  0.2234  0.1336 -0.2661
   32TCq2    O6  498   1.224   2.511  14.969  0.1105 -0.2726 -0.2930
   32TCq2    H2  499   1.220   2.859  14.804  0.4581 -1.3880 -1.4506
   32TCq2    H3  500   1.358   2.627  15.124 -1.0379 -1.6339 -2.8997
   32TCq2    H4  501   1.513   3.020  15.065  1.4229 -0.5556 -2.5967
   33MPD2     C  502   1.496   1.187  10.037 -0.3041  0.3482 -0.6176
   33MPD2    C1  503   1.633   1.173  10.017  0.0599 -0.2143 -0.3108
   33MPD2    C2  504   1.681   1.219   9.896  0.1908 -0.5706 -0.2347
   33MPD2    C3  505   1.588   1.256   9.795  0.3891  0.0366  0.7757
   33MPD2    C4  506   1.455   1.246   9.816 -0.4914 -0.2681 -0.4721
   33MPD2    C5  507   1.408   1.220   9.941  1.3981 -0.4268  0.8154
   33MPD2     H  508   1.785   1.210   9.867 -0.3144  1.2025 -2.5633
   33MPD2    H1  509   1.382   1.255   9.737 -2.7672 -1.9874  1.4627
   33MPD2    H2  510   1.447   1.170  10.132  1.8851 -1.2137  0.2564
   33MPD2    H3  511   1.306   1.233   9.973  1.8821  1.3759  1.6477
   33MPD2     N  512   1.630   1.310   9.671  0.2690  0.7899  0.2861
   33MPD2    H5  513   1.563   1.339   9.601 -0.3561  0.8374  0.9018
   33MPD2    N1  514   1.711   1.128  10.120 -0.4028 -0.0309 -0.1213
   33MPD2    H7  515   1.662   1.087  10.199  1.0576  1.2305  1.4307
   34TCq2    C1  516   1.763   1.327   9.633  0.0614 -0.4757  0.2125
   34TCq2    O2  517   1.861   1.337   9.703 -0.5952 -0.4500  0.3299
   34TCq2    C2  518   1.778   1.379   9.497  0.7319 -0.9047 -0.0239
   34TCq2    C3  519   1.689   1.338   9.401  0.1255  0.2161  0.4193
   34TCq2    C4  520   1.699   1.384   9.279  0.2648  0.1290  0.2954
   34TCq2    C5  521   1.800   1.475   9.247  0.1895  1.2102 -0.2238
   34TCq2    C6  522   1.886   1.514   9.344  0.4433  0.5921 -0.1232
   34TCq2    C7  523   1.884   1.463   9.471 -0.5270 -0.4038  0.6207
   34TCq2    C8  524   2.011   1.589   9.305  0.0266  0.1946  0.3022
   34TCq2    O4  525   2.044   1.588   9.189  0.0048  0.4073 -0.0123
   34TCq2    C9  526   1.601   1.339   9.181  0.4526  1.1314 -0.4313
   34TCq2    O5  527   1.637   1.340   9.055  0.1561  0.6646  0.2053
   34TCq2    O6  528   1.486   1.320   9.226  0.0592 -0.3449  0.3602
   34TCq2    H2  529   1.611   1.268   9.430 -0.0682  0.6691  0.9797
   34TCq2    H3  530   1.817   1.517   9.148  1.6909  0.0737 -0.4406
   34TCq2    H4  531   1.964   1.470   9.544  0.3999 -0.6832 -0.3777
   35MPD2     C  532   3.768   2.964  11.707 -0.3701 -0.4299 -0.4816
   35MPD2    C1  533   3.725   2.858  11.778 -0.0161 -0.2379 -0.4652
   35MPD2    C2  534   3.613   2.780  11.738 -0.8444 -0.2031  0.0562
   35MPD2    C3  535   3.543   2.813  11.626 -0.5493 -0.4651  0.3995
   35MPD2    C4  536   3.598   2.911  11.548 -0.4446 -0.8538 -0.7552
   35MPD2    C5  537   3.706   2.990  11.587  0.0332  0.0386  0.2655
   35MPD2     H  538   3.566   2.699  11.791 -2.3661 -1.4153 -3.1194
   35MPD2    H1  539   3.552   2.939  11.454 -0.1999  1.4232 -0.1910
   35MPD2    H2  540   3.851   3.026  11.739 -1.1015 -0.0143  0.6269
   35MPD2    H3  541   3.738   3.074  11.527  0.1810 -1.5346 -1.8501
   35MPD2     N  542   3.435   2.734  11.596 -0.3597 -0.0923  1.1424
   35MPD2    H5  543   3.418   2.655  11.657 -1.3052 -0.9449 -0.2150
   35MPD2    N1  544   3.777   2.842  11.909  0.2566  0.0274  0.0961
   35MPD2    H7  545   3.837   2.915  11.946  0.3844 -0.5447  1.0301
   36TCq2    C1  546   3.343   2.758  11.495 -0.1955 -0.5964  0.4675
   36TCq2    O2  547   3.321   2.856  11.425  0.5225 -0.1625 -0.0952
   36TCq2    C2  548   3.233   2.673  11.511  0.0765  0.5325 -0.3041
   36TCq2    C3  549   3.128   2.719  11.578  0.4031  0.5487 -0.0841
   36TCq2    C4  550   3.044   2.634  11.635  0.2072  0.5191  0.9258
   36TCq2    C5  551   3.060   2.501  11.624 -0.0194 -1.2703  0.0841
   36TCq2    C6  552   3.165   2.448  11.555  0.5964  0.0287 -0.4311
   36TCq2    C7  553   3.258   2.541  11.507 -0.2828  0.3683  0.0820
   36TCq2    C8  554   3.154   2.309  11.515  0.5334  0.0161 -0.4629
   36TCq2    O4  555   3.053   2.252  11.562  0.0825 -0.5331  0.5410
   36TCq2    C9  556   2.945   2.694  11.718 -0.2922 -0.2466 -0.4468
   36TCq2    O5  557   2.883   2.620  11.799  0.3078  0.9969 -0.3138
   36TCq2    O6  558   2.911   2.813  11.695 -0.2685  0.3929  0.2922
   36TCq2    H2  559   3.110   2.826  11.575  1.1519  0.6352 -1.6227
   36TCq2    H3  560   2.985   2.439  11.673 -0.8096 -1.3703 -1.2775
   36TCq2    H4  561   3.340   2.506  11.446 -1.9343 -2.9620 -0.2264
   37TMC2    C1  562   0.090   2.910  11.313  0.4180  0.6061 -0.0288
   37TMC2    C2  563   0.070   3.027  11.239 -0.1310 -0.0691  0.3273
   37TMC2    C3  564   0.177   3.088  11.179 -0.1052 -0.2075  0.3426
   37TMC2    C4  565   0.209   2.843  11.312 -0.3817 -0.1671  0.0726
   37TMC2    C5  566   0.309   2.890  11.239 -0.1509  0.0212 -0.4893
   37TMC2    C6  567   0.294   3.015  11.179 -0.4252  0.5576 -0.8869
   37TMC2     C  568   4.710   2.866  11.395  0.2514  0.1179 -0.3141
   37TMC2     O  569   4.593   2.881  11.360  0.2179  0.0862  0.4175
   37TMC2     H  570   4.693   3.061  11.219 -0.6618 -0.8017  1.7551
   37TMC2    H1  571   0.225   2.756  11.375  0.0624 -0.3232 -0.2522
   37TMC2    H2  572   0.373   3.063  11.121  0.1975  0.7791  0.1512
   37TMC2    C7  573   0.430   2.818  11.219 -0.0136  0.4436  0.7658
   37TMC2    C8  574   0.171   3.212  11.099  0.3651  0.2956 -0.6882
   37TMC2    O1  575   0.436   2.725  11.299 -0.1731 -0.1410  0.3732
   37TMC2    O2  576   0.242   3.243  11.008  0.5735  0.1650  0.6455
   37TMC2    O5  577   0.132   3.295  11.194  0.6593 -0.0173 -0.1018
   37TMC2    H5  578   0.108   3.253  11.280 -1.3867 -0.8240 -1.0564
   38MPD2     C  579   4.515   2.715  11.850 -0.2085 -0.2154  0.0021
   38MPD2    C1  580   4.654   2.698  11.859  0.5930 -0.4287 -0.0321
   38MPD2    C2  581   4.723   2.733  11.746  0.4400 -0.3107  0.0769
   38MPD2    C3  582   4.664   2.781  11.627 -0.3282 -0.1485 -0.0740
   38MPD2    C4  583   4.526   2.787  11.623 -0.7651 -0.2100 -0.2438
   38MPD2    C5  584   4.452   2.749  11.735 -0.6874 -0.2395  0.3407
   38MPD2     H  585   0.107   2.720  11.745  0.6571  1.4763 -1.1914
   38MPD2    H1  586   4.474   2.820  11.533 -1.8080  0.0340  0.4418
   38MPD2    H2  587   4.455   2.702  11.940 -0.2428 -0.1186 -0.0067
   38MPD2    H3  588   4.344   2.759  11.734 -0.6940 -0.1505  2.1792
   38MPD2     N  589   0.028   2.813  11.518  0.3282 -0.3043  0.1995
   38MPD2    H5  590   0.127   2.810  11.538  0.2641 -2.6154  0.1025
   38MPD2    N1  591   4.723   2.677  11.982 -0.5180  0.7078  0.1315
   38MPD2    H7  592   0.100   2.666  11.979 -0.2309  4.1166 -2.4185
   39MPD2     C  593   3.316   4.182   1.651 -0.2338 -0.0009  0.0145
   39MPD2    C1  594   3.258   4.294   1.704  0.6130 -0.4168  0.5303
   39MPD2    C2  595   3.125   4.320   1.681  0.3974  0.3027  0.5578
   39MPD2    C3  596   3.049   4.234   1.600  0.3818  0.3081  0.3991
   39MPD2    C4  597   3.102   4.113   1.567  0.5277 -0.2248  0.0105
   39MPD2    C5  598   3.236   4.081   1.592 -0.0062  0.2731 -0.9286
   39MPD2     H  599   3.097   4.420   1.714  1.7925  0.1978  2.0954
   39MPD2    H1  600   3.042   4.039   1.515  2.3784 -0.9954 -1.0340
   39MPD2    H2  601   3.421   4.165   1.669 -0.3968 -0.2555  0.7332
   39MPD2    H3  602   3.271   3.980   1.576 -0.5755 -0.0426 -0.2056
   39MPD2     N  603   2.926   4.278   1.547 -0.1488 -0.6685 -0.2014
   39MPD2    H5  604   2.868   4.215   1.492 -0.5474 -0.0875 -0.4522
   39MPD2    N1  605   3.348   4.391   1.770  0.5805 -0.8809 -0.0058
   39MPD2    H7  606   3.446   4.380   1.749  0.8479  1.1649  0.1638
   40TCq2    C1  607   3.315   4.489   1.863 -0.4212 -0.5700  0.8676
   40TCq2    O2  608   3.207   4.507   1.911  0.0946  0.5087  0.7764
   40TCq2    C2  609   3.429   4.563   1.921  0.3641  0.1910  0.2194
   40TCq2    C3  610   3.412   4.649   2.025 -0.9291  0.1083  0.8829
   40TCq2    C4  611   3.513   4.712   2.089 -0.1446 -1.0363  0.7533
   40TCq2    C5  612   3.637   4.696   2.046 -0.3072 -0.0994  0.4712
   40TCq2    C6  613   3.650   4.605   1.941  0.1169  0.2575  0.2189
   40TCq2    C7  614   3.548   4.536   1.877 -0.5567 -0.4991  0.0867
   40TCq2    C8  615   3.780   4.588   1.886  0.7082 -0.1499 -0.1394
   40TCq2    O4  616   3.802   4.484   1.823  0.0802 -0.7307  0.4491
   40TCq2    C9  617   3.486   0.052   2.213  0.1757 -0.7245  0.2135
   40TCq2    O5  618   3.575   0.101   2.283  0.1346 -0.8583  0.1530
   40TCq2    O6  619   3.370   0.047   2.260 -0.4008  0.2294  0.5859
   40TCq2    H2  620   3.310   4.657   2.061 -0.5729 -0.3166  1.9964
   40TCq2    H3  621   3.719   0.019   2.099 -0.5059 -1.3526  1.8747
   40TCq2    H4  622   3.576   4.465   1.801  0.5787  0.2001 -0.1524
   41TMC2    C1  623   1.921   2.529  13.496 -0.1524 -0.0212 -0.3412
   41TMC2    C2  624   2.032   2.580  13.557 -0.0221  0.4293  0.1212
   41TMC2    C3  625   2.131   2.640  13.490  0.0209  0.1871 -0.1051
   41TMC2    C4  626   1.908   2.535  13.363 -0.0698  0.1968 -0.2446
   41TMC2    C5  627   2.008   2.592  13.295  0.3569 -0.0274  0.0003
   41TMC2    C6  628   2.122   2.643  13.352 -0.4286  0.2828 -0.1767
   41TMC2     C  629   1.793   2.529  13.566 -0.5773  0.2249  0.3853
   41TMC2     O  630   1.699   2.591  13.518  0.0555  0.7994  0.3778
   41TMC2     H  631   2.030   2.574  13.665 -1.2175  0.6419  0.1182
   41TMC2    H1  632   1.824   2.483  13.316  0.7987 -0.3308 -1.2044
   41TMC2    H2  633   2.185   2.710  13.294 -1.9952  0.3908 -1.7557
   41TMC2    C7  634   1.992   2.564  13.149  0.4253  0.3359 -0.7093
   41TMC2    C8  635   2.246   2.697  13.556 -0.0318  0.2027 -0.3264
   41TMC2    O1  636   1.886   2.525  13.106  0.2452 -0.6161  0.4633
   41TMC2    O2  637   2.240   2.735  13.674  0.2007  0.0329 -0.5145
   41TMC2    O5  638   2.349   2.695  13.476  0.0527 -0.2970  0.3501
   41TMC2    H5  639   2.336   2.646  13.392 -1.5803 -0.7475  0.8487
   42MPD2     C  640   1.564   2.469  13.753 -0.0870 -0.2417 -0.2055
   42MPD2    C1  641   1.696   2.433  13.774 -0.3253 -0.2118  0.1828
   42MPD2    C2  642   1.732   2.361  13.889 -0.8940  0.1140 -0.3062
   42MPD2    C3  643   1.637   2.335  13.985 -0.1076  0.2593  0.6883
   42MPD2    C4  644   1.504   2.369  13.966 -0.7764 -0.0109 -0.5731
   42MPD2    C5  645   1.469   2.427  13.844  0.3778  0.0506 -0.5246
   42MPD2     H  646   1.832   2.320  13.900 -1.0465 -0.3044 -0.4634
   42MPD2    H1  647   1.434   2.330  14.039 -1.3731  2.6009  0.2623
   42MPD2    H2  648   1.526   2.513  13.662  1.4952  0.0922 -0.7019
   42MPD2    H3  649   1.364   2.446  13.822  1.1482  0.4024 -3.9618
   42MPD2     N  650   1.663   2.278  14.105 -0.4105  0.2795  0.2106
   42MPD2    H5  651   1.587   2.252  14.168 -0.5074 -1.8666 -0.8181
   42MPD2    N1  652   1.798   2.469  13.685 -0.0698  0.1986  0.2021
   42MPD2    H7  653   1.888   2.431  13.714  0.4610 -0.2720 -2.0813
   43MPD2     C  654   4.343   0.861   0.556 -0.3229 -0.0288  0.4766
   43MPD2    C1  655   4.313   0.753   0.640 -0.6639 -0.9188  0.1183
   43MPD2    C2  656   4.242   0.781   0.754  0.8011  0.0624 -0.3793
   43MPD2    C3  657   4.202   0.905   0.799 -0.1779  0.0243 -0.2292
   43MPD2    C4  658   4.238   1.011   0.723  0.3919  0.5093 -0.8298
   43MPD2    C5  659   4.312   0.988   0.606 -0.2789  0.8428  0.1907
   43MPD2     H  660   4.223   0.697   0.820 -2.5039  0.7025 -0.5433
   43MPD2    H1  661   4.213   1.113   0.751  0.0893  0.3499 -0.5219
   43MPD2    H2  662   4.391   0.848   0.459  2.8355 -0.2927  2.0713
   43MPD2    H3  663   4.353   1.074   0.555 -2.0782  0.4339 -1.9551
   43MPD2     N  664   4.133   0.912   0.925  0.1581  0.5313  0.0893
   43MPD2    H5  665   4.125   0.828   0.980 -2.5370  0.4202 -0.4892
   43MPD2    N1  666   4.340   0.617   0.612 -0.4739  0.5953  0.3641
   43MPD2    H7  667   4.301   0.549   0.678  0.6156 -0.9713 -0.5939
   44TCq2    C1  668   4.070   1.221   1.416 -1.3269  0.3434 -0.7000
   44TCq2    O2  669   4.151   1.302   1.376 -0.4186  0.2555  0.7616
   44TCq2    C2  670   4.043   1.108   1.332  1.3726 -0.1322  0.6164
   44TCq2    C3  671   4.029   0.986   1.393 -0.4121  0.4034 -0.4058
   44TCq2    C4  672   4.032   0.872   1.311 -0.5037 -0.1231  0.1908
   44TCq2    C5  673   4.028   0.892   1.173  0.4326 -0.3879  0.4157
   44TCq2    C6  674   4.040   1.018   1.116  0.3652 -0.2685 -0.2695
   44TCq2    C7  675   4.056   1.131   1.195 -0.1093  0.6065  0.0185
   44TCq2    C8  676   4.080   1.030   0.975  0.6247  0.4542 -0.0227
   44TCq2    O4  677   4.080   1.141   0.925  0.2103 -0.2407  0.6171
   44TCq2    C9  678   4.041   0.741   1.370  0.5232  0.0637 -0.5143
   44TCq2    O5  679   4.023   0.643   1.290 -0.1160  0.5616  0.1030
   44TCq2    O6  680   4.060   0.733   1.489 -0.1735  0.0545  0.0666
   44TCq2    H2  681   4.029   0.967   1.500  2.1463 -0.4831 -0.5566
   44TCq2    H3  682   4.033   0.804   1.109 -1.2253  1.1205 -1.7921
   44TCq2    H4  683   4.075   1.231   1.158  0.5428  0.5575  0.2301
   45TMC2    C1  684   0.336   3.165   9.327  0.3572  0.4639 -0.0125
   45TMC2    C2  685   0.334   3.184   9.193  0.3950 -0.6461 -0.0601
   45TMC2    C3  686   0.407   3.295   9.147 -0.5513  0.2208 -0.0777
   45TMC2    C4  687   0.416   3.231   9.415  0.1789 -0.2015 -0.1619
   45TMC2    C5  688   0.498   3.330   9.363  0.3587 -0.6343  0.3526
   45TMC2    C6  689   0.489   3.367   9.232  0.2821 -0.0059 -1.0355
   45TMC2     C  690   0.269   3.049   9.379 -0.2117 -0.1302 -0.1353
   45TMC2     O  691   0.304   3.014   9.490 -0.0518 -0.4132 -0.5791
   45TMC2     H  692   0.282   3.121   9.122 -0.5685 -0.0513  0.1158
   45TMC2    H1  693   0.413   3.211   9.521  1.6681  1.5844  0.2085
   45TMC2    H2  694   0.532   3.459   9.192 -0.3998  0.7134 -0.1163
   45TMC2    C7  695   0.581   3.408   9.449 -0.1909 -0.7514 -0.9613
   45TMC2    C8  696   0.396   3.330   9.008  0.4028 -0.1705  0.2240
   45TMC2    O1  697   0.668   3.473   9.391  0.2071 -0.2859 -1.0356
   45TMC2    O2  698   0.304   3.293   8.940 -0.3110  0.0943  0.0421
   45TMC2    O5  699   0.519   3.366   8.959  0.2523 -0.4383 -0.5145
   45TMC2    H5  700   0.586   3.385   9.027  0.2568  0.9432 -0.9092
   46MPD2     C  701   0.078   2.819   9.418 -0.1647 -0.0687 -0.2273
   46MPD2    C1  702   0.075   2.905   9.305  0.6661  0.1703  0.3504
   46MPD2    C2  703   0.001   2.879   9.189  0.2392 -0.6974  0.1886
   46MPD2    C3  704   4.638   2.773   9.199  0.6369  0.5195  0.6615
   46MPD2    C4  705   4.633   2.693   9.307  0.1942 -0.5224  0.4448
   46MPD2    C5  706   4.716   2.708   9.415 -0.6167 -0.4842 -0.0249
   46MPD2     H  707   0.004   2.943   9.102 -1.6821 -0.7516  0.0979
   46MPD2    H1  708   4.573   2.603   9.312 -2.3556  1.2120  0.5066
   46MPD2    H2  709   0.153   2.833   9.495 -1.0929 -1.2169  0.8899
   46MPD2    H3  710   4.714   2.642   9.501  0.1937  0.1467  0.4905
   46MPD2     N  711   4.551   2.752   9.087  0.2873  0.0100  0.4167
   46MPD2    H5  712   4.566   2.813   9.007 -0.3301 -1.5622 -0.9035
   46MPD2    N1  713   0.173   3.007   9.294 -0.3268  0.4524 -0.2750
   46MPD2    H7  714   0.155   3.079   9.224 -1.4277 -0.8270 -1.2985
   47TMC2    C1  715   1.752   3.704   9.431  0.7189  0.4926 -0.4348
   47TMC2    C2  716   1.723   3.578   9.399  0.0778 -0.7231  0.5321
   47TMC2    C3  717   1.618   3.510   9.460  0.7058  0.4024  0.3875
   47TMC2    C4  718   1.679   3.778   9.518  0.2437 -0.2507 -0.4366
   47TMC2    C5  719   1.571   3.717   9.580 -0.2388  0.2492 -0.2205
   47TMC2    C6  720   1.541   3.579   9.557 -0.1064 -0.8739  0.7159
   47TMC2     C  721   1.855   3.761   9.347  0.8063  0.0815 -0.5972
   47TMC2     O  722   1.846   3.882   9.321  0.6194  0.3965  0.8986
   47TMC2     H  723   1.774   3.519   9.323 -2.3617  0.1465 -1.7959
   47TMC2    H1  724   1.715   3.878   9.539  0.6005 -0.2687 -0.9401
   47TMC2    H2  725   1.450   3.544   9.603 -0.5587 -2.6280 -1.4913
   47TMC2    C7  726   1.518   3.778   9.704 -0.5025  0.4273  0.4358
   47TMC2    C8  727   1.578   3.384   9.404  0.3165 -0.1123 -0.3786
   47TMC2    O1  728   1.462   3.702   9.785 -0.6378 -0.3574 -0.2652
   47TMC2    O2  729   1.617   3.350   9.292  0.7017  0.2738 -0.5882
   47TMC2    O5  730   1.464   3.339   9.466 -0.4007 -0.3983  0.0493
   47TMC2    H5  731   1.441   3.380   9.552  2.4193 -0.7384  0.9797
   48MPD2     C  732   2.005   3.789   9.090  0.5291  0.1444  0.1502
   48MPD2    C1  733   2.021   3.685   9.174  0.0004 -0.3301 -0.1325
   48MPD2    C2  734   2.104   3.582   9.145 -0.0817 -0.1425 -0.1222
   48MPD2    C3  735   2.176   3.586   9.030  1.1670  0.1753 -0.4410
   48MPD2    C4  736   2.148   3.684   8.945 -0.0274 -0.9201 -0.3772
   48MPD2    C5  737   2.067   3.785   8.973 -0.0938 -0.2735  0.4640
   48MPD2     H  738   2.129   3.497   9.208 -2.4830  0.5845  1.7910
   48MPD2    H1  739   2.194   3.693   8.848  1.4524 -1.7810  0.2397
   48MPD2    H2  740   1.939   3.871   9.116 -1.9025 -1.9818  0.6887
   48MPD2    H3  741   2.051   3.869   8.907 -3.5823  1.1131  3.1001
   48MPD2     N  742   2.267   3.477   8.996 -0.1616 -0.3039 -0.3821
   48MPD2    H5  743   2.284   3.413   9.072  0.9286  1.9509  1.2428
   48MPD2    N1  744   1.949   3.667   9.301 -0.0330  0.6182 -0.4237
   48MPD2    H7  745   1.962   3.578   9.347 -0.4931  0.6398 -0.2542
   49MPD2     C  746   1.756   1.280  10.602  0.2002  0.6611  0.1078
   49MPD2    C1  747   1.623   1.287  10.564  0.5814 -0.4612  0.3143
   49MPD2    C2  748   1.535   1.236  10.662 -0.1661 -0.1473 -0.3296
   49MPD2    C3  749   1.575   1.166  10.771  0.7626  0.0980  0.3013
   49MPD2    C4  750   1.710   1.141  10.790  0.4922  0.2709  0.6009
   49MPD2    C5  751   1.794   1.200  10.703  0.2657  0.0518  1.1800
   49MPD2     H  752   1.428   1.251  10.655 -0.1669  0.9027  1.7730
   49MPD2    H1  753   1.736   1.085  10.879 -1.1799 -1.3532  0.0720
   49MPD2    H2  754   1.834   1.326  10.541  1.1549  0.4653  1.1857
   49MPD2    H3  755   1.902   1.193  10.712  0.3383  0.8512  0.8837
   49MPD2     N  756   1.488   1.115  10.871 -0.5434  0.2658 -0.5322
   49MPD2    H5  757   1.531   1.047  10.932 -1.0818  0.7927  0.4200
   49MPD2    N1  758   1.563   1.362  10.459  0.1710 -0.6296 -0.6427
   49MPD2    H7  759   1.462   1.361  10.447  0.2351  0.5541 -1.3657
   50TCq2    C1  760   1.640   1.428  10.364 -0.5962  0.6190  1.4156
   50TCq2    O2  761   1.762   1.433  10.353 -0.4260  0.1555 -0.1032
   50TCq2    C2  762   1.558   1.501  10.259  0.4515  0.5345 -0.1076
   50TCq2    C3  763   1.420   1.485  10.264 -0.2281 -0.4253  0.0097
   50TCq2    C4  764   1.356   1.525  10.151  0.4140  0.3321 -0.5215
   50TCq2    C5  765   1.421   1.559  10.034 -0.1709 -0.3139  0.4600
   50TCq2    C6  766   1.553   1.564  10.033  0.1798 -0.0872  0.4844
   50TCq2    C7  767   1.625   1.548  10.144 -0.0959 -0.3543  0.3924
   50TCq2    C8  768   1.624   1.642   9.923 -0.1040  0.2404  0.3404
   50TCq2    O4  769   1.728   1.697   9.956 -0.4380 -0.0986 -0.2254
   50TCq2    C9  770   1.210   1.531  10.156  0.1253  0.2810  0.3389
   50TCq2    O5  771   1.162   1.537  10.269 -0.2505 -0.0297 -0.4761
   50TCq2    O6  772   1.142   1.551  10.048 -0.5436  0.1027  0.2283
   50TCq2    H2  773   1.368   1.476  10.358  0.0017 -0.4181  0.1381
   50TCq2    H3  774   1.359   1.590   9.950  1.5044  0.3742 -0.5169
   50TCq2    H4  775   1.731   1.568  10.154 -0.0928 -0.2958  0.2443
   51MPD2     C  776   1.065   3.875   1.178 -0.1158  0.3716 -0.3224
   51MPD2    C1  777   0.964   3.916   1.099  0.1213 -0.2566  0.1656
   51MPD2    C2  778   0.902   4.037   1.134 -0.9175 -0.2993 -0.5798
   51MPD2    C3  779   0.930   4.099   1.249 -0.4750 -0.8380  0.3623
   51MPD2    C4  780   1.037   4.058   1.332  0.0024  0.8362  0.3519
   51MPD2    C5  781   1.103   3.942   1.294 -0.0240  0.4136  0.4336
   51MPD2     H  782   0.831   4.079   1.064  1.0273 -0.7100 -2.7939
   51MPD2    H1  783   1.062   4.111   1.423 -2.0411 -0.1616  1.4750
   51MPD2    H2  784   1.121   3.785   1.155 -0.3043  0.4932 -1.2276
   51MPD2    H3  785   1.183   3.900   1.353  0.2929 -0.0172 -0.3017
   51MPD2     N  786   0.856   4.214   1.280  0.0623  0.2238  0.1654
   51MPD2    H5  787   0.888   4.273   1.355 -0.8131  1.0084 -0.0681
   51MPD2    N1  788   0.936   3.849   0.977 -0.2735 -0.0091 -0.4341
   51MPD2    H7  789   0.851   3.871   0.926 -1.1888  0.3175  1.2443
   52TCq2    C1  790   0.722   4.227   1.237 -0.0848  0.9260 -0.7792
   52TCq2    O2  791   0.652   4.154   1.167  0.3067 -0.1817 -0.1420
   52TCq2    C2  792   0.663   4.355   1.266 -0.3305 -0.1247  0.1674
   52TCq2    C3  793   0.521   4.370   1.272 -1.2856  0.2873  0.2961
   52TCq2    C4  794   0.472   4.497   1.287  0.0841 -0.1206  0.0211
   52TCq2    C5  795   0.555   4.604   1.310  0.3854  0.0766 -0.3595
   52TCq2    C6  796   0.690   4.581   1.300  1.0502 -0.8039  0.5957
   52TCq2    C7  797   0.747   4.465   1.274 -0.7617  0.1297 -0.5465
   52TCq2    C8  798   0.770   4.692   1.355 -0.2715 -0.0209 -0.9116
   52TCq2    O4  799   0.716   0.073   1.362  0.5535  0.8237 -0.3318
   52TCq2    C9  800   0.324   4.520   1.289 -0.0116 -0.4208 -0.2502
   52TCq2    O5  801   0.256   4.411   1.295 -0.1152  0.2491 -0.2384
   52TCq2    O6  802   0.287   4.638   1.278  0.0837 -0.3624  0.0541
   52TCq2    H2  803   0.458   4.282   1.265 -2.0390  0.8600 -0.1561
   52TCq2    H3  804   0.507   4.699   1.328  0.9613  0.8679 -2.9285
   52TCq2    H4  805   0.855   4.452   1.267 -0.6191  0.5171  0.8373
   53TMC2    C1  806   1.086   2.547  11.338  0.4723 -0.6384 -0.1312
   53TMC2    C2  807   1.216   2.503  11.335 -0.6885 -0.5009 -0.0588
   53TMC2    C3  808   1.293   2.520  11.446  0.0518 -0.2627  0.6436
   53TMC2    C4  809   1.032   2.611  11.446  0.6230  0.0954  0.3836
   53TMC2    C5  810   1.115   2.624  11.553 -0.5637 -0.1447 -0.3654
   53TMC2    C6  811   1.249   2.587  11.555  0.4023 -0.0294 -0.2407
   53TMC2     C  812   1.025   2.564  11.208 -0.0566  0.0295  0.4106
   53TMC2     O  813   1.077   2.517  11.108 -0.3536  0.5766  0.1120
   53TMC2     H  814   1.256   2.445  11.253 -1.2306 -2.6860  1.2111
   53TMC2    H1  815   0.926   2.626  11.459  0.5399  0.5295 -0.7586
   53TMC2    H2  816   1.316   2.609  11.637  0.7612  1.2816 -0.8769
   53TMC2    C7  817   1.046   2.691  11.664  0.1774  0.3722  0.5974
   53TMC2    C8  818   1.418   2.441  11.449 -0.1723 -0.0824 -0.2781
   53TMC2    O1  819   0.935   2.731  11.640  0.7968 -0.5399 -0.1037
   53TMC2    O2  820   1.473   2.397  11.348 -0.1487  0.1073 -0.0557
   53TMC2    O5  821   1.439   2.389  11.566  0.3060  0.5194 -0.0152
   53TMC2    H5  822   1.378   2.416  11.638  1.1416  1.5224  0.3176
   54MPD2     C  823   0.876   2.692  10.994  0.6612  0.0052  0.2308
   54MPD2    C1  824   0.828   2.683  11.122 -0.1725 -0.2522 -0.1354
   54MPD2    C2  825   0.702   2.734  11.159 -0.2332 -0.1928 -0.3992
   54MPD2    C3  826   0.617   2.786  11.061 -0.1475 -0.1709 -0.6097
   54MPD2    C4  827   0.662   2.792  10.934  0.1785  0.1778  0.1095
   54MPD2    C5  828   0.789   2.744  10.898  0.0800 -0.5455  0.2035
   54MPD2     H  829   0.666   2.735  11.261  0.2738  1.6142 -0.2494
   54MPD2    H1  830   0.597   2.836  10.859  0.1024  1.4456  0.9290
   54MPD2    H2  831   0.972   2.664  10.952  1.2048 -0.0821  1.5479
   54MPD2    H3  832   0.824   2.758  10.796  0.3744  2.5735  0.7274
   54MPD2     N  833   0.491   2.847  11.100 -0.5424 -0.3472 -0.2397
   54MPD2    H5  834   0.449   2.907  11.029 -2.9677  0.4317  1.8569
   54MPD2    N1  835   0.904   2.629  11.227  0.2480 -0.2773 -0.1298
   54MPD2    H7  836   0.870   2.638  11.323 -0.7803 -0.9020 -0.4392
   55MPD2     C  837   1.395   0.504   0.617 -0.3068  0.0893 -0.4580
   55MPD2    C1  838   1.315   0.401   0.654  0.2890  0.0366 -0.5357
   55MPD2    C2  839   1.180   0.421   0.648  0.6117  1.0546  0.3744
   55MPD2    C3  840   1.123   0.526   0.574 -0.3384  0.2269  0.5870
   55MPD2    C4  841   1.206   0.622   0.522 -0.3652  0.5938  0.5524
   55MPD2    C5  842   1.344   0.612   0.546  0.0410 -0.5116 -0.2467
   55MPD2     H  843   1.116   0.347   0.694  1.0112 -0.0832 -0.8979
   55MPD2    H1  844   1.167   0.704   0.461 -0.4232  1.2071  1.4176
   55MPD2    H2  845   1.503   0.505   0.630 -0.3208 -1.2317 -0.2182
   55MPD2    H3  846   1.399   0.696   0.503  1.3097 -0.4398  1.4821
   55MPD2     N  847   0.982   0.525   0.557  0.2998 -0.4251 -0.3276
   55MPD2    H5  848   0.934   0.458   0.616 -1.3298  2.7504  1.9406
   55MPD2    N1  849   1.380   0.290   0.711  0.2476  0.1395 -0.0335
   55MPD2    H7  850   1.481   0.291   0.710  0.1982  3.5017 -1.1216
   56TCq2    C1  851   1.317   0.181   0.763  0.0136 -0.1007 -0.6175
   56TCq2    O2  852   1.201   0.146   0.760  0.4865 -0.6121  0.4095
   56TCq2    C2  853   1.413   0.083   0.826  0.4883 -0.1827 -0.7622
   56TCq2    C3  854   1.524   0.123   0.881  0.1703 -0.4638 -0.3088
   56TCq2    C4  855   1.613   0.029   0.922  0.8172  0.3855 -0.5750
   56TCq2    C5  856   1.592   4.620   0.904  0.5894 -0.3280  0.0745
   56TCq2    C6  857   1.479   4.580   0.838  0.3004 -0.4679  1.0451
   56TCq2    C7  858   1.387   4.674   0.800 -0.4180  0.6499 -0.5459
   56TCq2    C8  859   1.453   4.433   0.824  0.0723 -0.9290  0.4666
   56TCq2    O4  860   1.544   4.356   0.833 -0.6204  0.3383 -0.0766
   56TCq2    C9  861   1.740   0.076   0.972  0.4556 -0.6088 -0.6073
   56TCq2    O5  862   1.830   4.717   0.985 -0.4764  0.5467 -0.0873
   56TCq2    O6  863   1.769   0.197   0.942  0.8502  0.4375  0.3649
   56TCq2    H2  864   1.538   0.228   0.905  2.5467 -0.9822  0.5407
   56TCq2    H3  865   1.662   4.541   0.929 -1.3054 -1.6445  1.2469
   56TCq2    H4  866   1.304   4.654   0.733 -0.6170  2.1280 -0.7485
   57TMC2    C1  867   1.359   1.868  13.700 -0.2646 -0.0597  0.8883
   57TMC2    C2  868   1.441   1.960  13.756 -0.1102  0.6884  0.3808
   57TMC2    C3  869   1.565   1.916  13.799  0.2981 -0.2420 -0.0949
   57TMC2    C4  870   1.394   1.741  13.681  0.8791 -0.1680  0.3071
   57TMC2    C5  871   1.512   1.694  13.726  0.1590 -0.2730 -0.2058
   57TMC2    C6  872   1.596   1.783  13.786  0.7690 -0.3262 -0.0546
   57TMC2     C  873   1.214   1.899  13.701  0.0951  0.2983  0.6269
   57TMC2     O  874   1.180   2.008  13.743  0.3964 -0.6160  0.0366
   57TMC2     H  875   1.417   2.065  13.763 -3.3946 -0.0453  0.2296
   57TMC2    H1  876   1.316   1.673  13.649 -0.0535  1.0181  0.0492
   57TMC2    H2  877   1.698   1.751  13.799  0.3874 -0.7580  1.9472
   57TMC2    C7  878   1.563   1.564  13.687 -0.7504  0.5552  0.9403
   57TMC2    C8  879   1.652   1.995  13.883  0.5876  0.5195 -0.2890
   57TMC2    O1  880   1.662   1.522  13.749  1.0776 -0.5925 -0.2638
   57TMC2    O2  881   1.772   1.970  13.880 -0.2859 -0.2027 -0.1068
   57TMC2    O5  882   1.577   1.993  13.995 -0.6427  0.7302  0.4593
   57TMC2    H5  883   1.481   2.011  13.993 -0.7129  0.4056  0.9747
   58MPD2     C  884   0.726   1.804  13.632 -0.4413 -0.7052  0.3545
   58MPD2    C1  885   0.777   1.911  13.699 -0.4623 -0.3909  0.0983
   58MPD2    C2  886   0.917   1.915  13.705 -0.2239  0.3639  0.2452
   58MPD2    C3  887   0.991   1.812  13.656  0.4006  0.2876  0.4720
   58MPD2    C4  888   0.931   1.704  13.595  0.0929  0.1621 -0.0744
   58MPD2    C5  889   0.798   1.700  13.581 -0.2246  0.1522 -0.6014
   58MPD2     H  890   0.962   2.005  13.746 -0.6088 -0.5440  2.6790
   58MPD2    H1  891   0.992   1.622  13.560  0.0252 -0.5903  1.5912
   58MPD2    H2  892   0.618   1.803  13.625 -0.2775  0.5471 -2.3701
   58MPD2    H3  893   0.744   1.616  13.538 -1.3242  0.5199  0.0469
   58MPD2     N  894   1.128   1.805  13.655 -0.1386 -0.1221 -0.0510
   58MPD2    H5  895   1.160   1.716  13.618 -0.6861 -0.6425  0.7037
   58MPD2    N1  896   0.694   2.010  13.747 -0.4127 -0.8470 -0.2583
   58MPD2    H7  897   0.746   2.082  13.796  1.2854  0.8937 -4.5552
   59MPD2     C  898   3.342   1.577  12.917 -0.0244 -0.0001  0.1100
   59MPD2    C1  899   3.434   1.634  12.828 -0.6687  0.2252  0.2468
   59MPD2    C2  900   3.553   1.684  12.876  0.2366 -0.4902 -0.2295
   59MPD2    C3  901   3.583   1.687  13.017 -0.2135  0.5440  0.4341
   59MPD2    C4  902   3.497   1.629  13.104 -0.0063  0.6293 -0.5659
   59MPD2    C5  903   3.377   1.584  13.056 -0.1321 -0.0190 -0.1524
   59MPD2     H  904   3.623   1.733  12.809  1.2679 -0.1934  1.0602
   59MPD2    H1  905   3.512   1.635  13.211 -0.1184  0.5018 -0.5437
   59MPD2    H2  906   3.245   1.541  12.888  0.9589 -2.0795 -0.5889
   59MPD2    H3  907   3.311   1.537  13.128 -0.8146 -1.6253 -1.8272
   59MPD2     N  908   3.708   1.734  13.073 -0.4588 -0.0799  0.6472
   59MPD2    H5  909   3.711   1.736  13.174  1.0368 -2.3070  0.6430
   59MPD2    N1  910   3.389   1.633  12.694 -0.4738  0.8790 -0.0599
   59MPD2    H7  911   3.308   1.573  12.678 -0.4775  0.6585  0.7749
   60TCq2    C1  912   3.465   1.684  12.591  0.2462  0.0279  0.2806
   60TCq2    O2  913   3.544   1.771  12.600  0.3216 -0.5713 -0.3551
   60TCq2    C2  914   3.404   1.663  12.461  0.1442 -0.3108  0.3102
   60TCq2    C3  915   3.302   1.571  12.446 -0.5085  0.3065  0.0251
   60TCq2    C4  916   3.245   1.561  12.321 -0.3083 -1.0306 -0.0140
   60TCq2    C5  917   3.282   1.638  12.213 -0.4920  0.3230 -0.0473
   60TCq2    C6  918   3.390   1.720  12.234 -0.2421 -0.2466  0.3470
   60TCq2    C7  919   3.451   1.731  12.356  0.4694  0.4130  0.7267
   60TCq2    C8  920   3.449   1.786  12.125  0.0733  0.8397 -0.9588
   60TCq2    O4  921   3.428   1.734  12.016  0.2713  0.2719 -0.3392
   60TCq2    C9  922   3.142   1.463  12.314  0.0939  0.4579 -0.3741
   60TCq2    O5  923   3.079   1.453  12.206 -0.5266 -0.4228 -0.3093
   60TCq2    O6  924   3.114   1.394  12.415 -0.1902  0.0856  0.1092
   60TCq2    H2  925   3.271   1.513  12.532  1.5665 -2.4765 -1.1074
   60TCq2    H3  926   3.234   1.632  12.115 -0.9910 -0.7155  0.2612
   60TCq2    H4  927   3.525   1.810  12.370  2.2935 -0.7438 -2.5854
   61MPD2     C  928   2.978   2.937  14.136 -0.9716  0.3354 -0.0326
   61MPD2    C1  929   2.894   2.888  14.242 -0.2548  0.8854 -0.0976
   61MPD2    C2  930   2.759   2.866  14.214  0.2002  0.3488  0.3886
   61MPD2    C3  931   2.704   2.903  14.090  0.2934  0.5693 -0.4538
   61MPD2    C4  932   2.788   2.947  13.989 -0.8722 -0.3448  0.2673
   61MPD2    C5  933   2.920   2.968  14.013  0.3963  0.3394 -0.1592
   61MPD2     H  934   2.700   2.828  14.297  0.2943  0.0478  0.3156
   61MPD2    H1  935   2.752   2.983  13.894 -1.4181 -0.9251  0.2538
   61MPD2    H2  936   3.086   2.942  14.132 -0.8723 -1.0323  0.8775
   61MPD2    H3  937   2.975   2.995  13.924 -1.1232 -0.5189 -1.3524
   61MPD2     N  938   2.567   2.903  14.056  0.6075 -0.3716  0.0085
   61MPD2    H5  939   2.549   2.890  13.957 -0.2442 -1.7752  0.3468
   61MPD2    N1  940   2.947   2.858  14.364 -0.9322  0.6383  0.8449
   61MPD2    H7  941   2.883   2.819  14.432  0.2967 -1.4156  0.8162
   62TCq2    C1  942   3.069   2.900  14.417  0.6731  0.7162  0.4167
   62TCq2    O2  943   3.157   2.964  14.362 -0.7016 -0.0502  0.1829
   62TCq2    C2  944   3.093   2.871  14.559 -0.9511 -0.6739 -0.3674
   62TCq2    C3  945   3.056   2.746  14.604 -0.7046 -0.3946 -0.1619
   62TCq2    C4  946   3.010   2.738  14.732 -0.1405  0.0937 -0.0801
   62TCq2    C5  947   2.990   2.849  14.812 -0.3325  0.4255  0.2832
   62TCq2    C6  948   3.023   2.971  14.763  0.3220 -0.4217 -0.3184
   62TCq2    C7  949   3.078   2.980  14.638 -0.5331 -0.3910 -0.3694
   62TCq2    C8  950   2.931   3.082  14.795  0.1158  0.1026 -0.7612
   62TCq2    O4  951   2.975   3.195  14.794  0.1549 -0.0168  0.2096
   62TCq2    C9  952   2.962   2.613  14.788 -0.4282  0.7924  0.0544
   62TCq2    O5  953   2.905   2.526  14.711  0.9625 -0.0879  0.2461
   62TCq2    O6  954   2.943   2.616  14.915 -1.1105 -0.4225 -0.7524
   62TCq2    H2  955   3.064   2.654  14.548 -0.6745 -1.2909  1.2990
   62TCq2    H3  956   2.940   2.835  14.907  2.7409  0.3483  1.8814
   62TCq2    H4  957   3.103   3.079  14.599 -1.9406 -0.6777 -2.0294
   63TMC2    C1  958   3.087   3.294  10.937  0.1869 -0.7969  0.1673
   63TMC2    C2  959   3.204   3.329  11.010 -0.0077 -0.1649 -0.2294
   63TMC2    C3  960   3.296   3.410  10.952 -0.8383 -0.0036  0.1998
   63TMC2    C4  961   3.056   3.355  10.818  0.2573  0.0624  0.0079
   63TMC2    C5  962   3.144   3.452  10.766  0.4572  0.4966  0.2784
   63TMC2    C6  963   3.262   3.474  10.832 -0.4271  0.2454 -0.3257
   63TMC2     C  964   2.996   3.205  11.010  0.9076 -0.1552 -0.5559
   63TMC2     O  965   3.030   3.166  11.122  0.7012 -0.3843  0.1409
   63TMC2     H  966   3.226   3.294  11.110  1.4284 -0.2409 -0.5661
   63TMC2    H1  967   2.958   3.351  10.772  0.2901 -0.3082 -0.0306
   63TMC2    H2  968   3.331   3.539  10.779  1.3265 -0.3776  1.1941
   63TMC2    C7  969   3.097   3.535  10.654 -0.4572  0.7664 -0.8593
   63TMC2    C8  970   3.374   3.488  11.047  0.5637 -0.6804  0.5007
   63TMC2    O1  971   3.023   3.474  10.580  0.1285  0.5044 -0.1023
   63TMC2    O2  972   3.302   3.534  11.130  0.7625 -0.4865 -0.2498
   63TMC2    O5  973   3.466   3.546  10.976 -0.5543 -0.0037  0.1290
   63TMC2    H5  974   3.513   3.482  10.918  0.6662  0.8964  0.1244
   64MPD2     C  975   2.630   2.836  10.993  0.4376 -0.1496 -0.1532
   64MPD2    C1  976   2.638   2.908  10.878 -0.0165 -0.1524  0.4887
   64MPD2    C2  977   2.730   3.010  10.861  0.2549  0.7162 -0.3752
   64MPD2    C3  978   2.814   3.044  10.960  0.6277 -0.1300  0.0114
   64MPD2    C4  979   2.825   2.961  11.072 -0.0636 -0.4639 -0.5914
   64MPD2    C5  980   2.725   2.864  11.094 -0.4782  0.3534 -0.2390
   64MPD2     H  981   2.728   3.064  10.767  0.3737  1.0123 -0.2069
   64MPD2    H1  982   2.890   2.978  11.157 -0.7298 -0.7224 -0.0245
   64MPD2    H2  983   2.553   2.761  11.011 -0.5035  1.1106  1.1864
   64MPD2    H3  984   2.715   2.817  11.191 -1.6329  2.4422  0.6770
   64MPD2     N  985   2.896   3.153  10.930 -0.0235  0.1513 -1.0138
   64MPD2    H5  986   2.875   3.204  10.844 -1.0529  0.3485 -0.6460
   64MPD2    N1  987   2.555   2.872  10.763  0.0447  0.6599  0.1211
   64MPD2    H7  988   2.579   2.906  10.670  0.3611  1.0166  0.3303
   65MPD2     C  989   3.263   2.280  15.524 -0.4844  0.4799  0.1228
   65MPD2    C1  990   3.276   2.319  15.392 -0.4343  1.0059  0.4191
   65MPD2    C2  991   3.244   2.229  15.288 -0.8142  0.2147  0.1102
   65MPD2    C3  992   3.212   2.097  15.318  0.1026  0.0967  0.2453
   65MPD2    C4  993   3.193   2.068  15.454 -0.0801  1.0006 -0.2110
   65MPD2    C5  994   3.218   2.154  15.552 -0.0607  0.0011  0.4682
   65MPD2     H  995   3.260   2.264  15.187 -1.9087  0.2757 -0.0416
   65MPD2    H1  996   3.175   1.967  15.491  2.4226  0.7476  0.3073
   65MPD2    H2  997   3.294   2.343  15.607  1.3609 -1.4473  0.9335
   65MPD2    H3  998   3.223   2.110  15.651 -3.2904 -1.6942 -0.1370
   65MPD2     N  999   3.179   2.003  15.222  1.2786  0.2179 -0.1568
   65MPD2    H5 1000   3.146   1.913  15.257  1.0079 -0.0480 -1.1181
   65MPD2    N1 1001   3.309   2.450  15.354 -0.4356  0.1157 -0.2151
   65MPD2    H7 1002   3.336   2.457  15.256 -1.5405 -0.4297 -0.5575
   66TCq2    C1 1003   3.325   2.553  15.438  0.1043  0.0268  0.0015
   66TCq2    O2 1004   3.290   2.564  15.554  0.3293  0.1598 -0.5606
   66TCq2    C2 1005   3.380   2.667  15.367  0.3360 -0.1503 -0.2517
   66TCq2    C3 1006   3.469   2.651  15.262  0.1969  0.9660 -0.2179
   66TCq2    C4 1007   3.522   2.762  15.207 -0.5067  0.3033  0.7182
   66TCq2    C5 1008   3.513   2.890  15.254 -0.6428 -0.0350  0.3699
   66TCq2    C6 1009   3.436   2.898  15.365 -0.7011  0.0778 -0.5510
   66TCq2    C7 1010   3.372   2.792  15.419  0.3409  0.8639 -0.4557
   66TCq2    C8 1011   3.390   3.029  15.394 -0.0957 -0.0072  0.1217
   66TCq2    O4 1012   3.281   3.039  15.449 -0.1998 -0.2832 -0.1194
   66TCq2    C9 1013   3.608   2.744  15.090  0.1010 -0.3875 -0.3279
   66TCq2    O5 1014   3.613   2.625  15.047 -0.2815 -0.2051 -0.1317
   66TCq2    O6 1015   3.654   2.845  15.028 -0.4085 -0.0797 -0.0124
   66TCq2    H2 1016   3.494   2.554  15.221  0.5516  0.6683  0.7030
   66TCq2    H3 1017   3.565   2.972  15.206 -0.8319 -0.9481 -1.3846
   66TCq2    H4 1018   3.304   2.805  15.502 -1.4700 -0.2067 -1.7695
   67MPD2     C 1019   3.516   2.314  13.862 -1.0225  0.5696 -0.0713
   67MPD2    C1 1020   3.444   2.321  13.978 -0.2739  0.4408  0.4132
   67MPD2    C2 1021   3.308   2.292  13.977 -0.2903  0.2171  1.1128
   67MPD2    C3 1022   3.247   2.258  13.857 -0.4163  0.7030  0.3324
   67MPD2    C4 1023   3.332   2.251  13.741 -0.7405 -0.6955 -0.3665
   67MPD2    C5 1024   3.464   2.289  13.743  0.3983 -0.3356  0.3812
   67MPD2     H 1025   3.245   2.318  14.062 -0.8779 -0.0702  0.7689
   67MPD2    H1 1026   3.278   2.242  13.647  0.8875 -1.2929 -1.2380
   67MPD2    H2 1027   3.624   2.322  13.859 -1.0906  1.2956 -0.7443
   67MPD2    H3 1028   3.518   2.301  13.650 -0.9916 -0.2725 -0.4227
   67MPD2     N 1029   3.111   2.218  13.844 -0.1952 -0.0537  0.9866
   67MPD2    H5 1030   3.073   2.221  13.750  1.6294  0.0019  0.2444
   67MPD2    N1 1031   3.502   2.373  14.093 -0.0734  0.4192  1.0027
   67MPD2    H7 1032   3.441   2.397  14.170 -0.2344 -1.1158  1.3618
   68TCq2    C1 1033   3.632   2.358  14.120 -0.0655  0.8962 -0.2252
   68TCq2    O2 1034   3.720   2.294  14.058 -0.1804 -0.8973 -0.0800
   68TCq2    C2 1035   3.670   2.401  14.251  0.3185 -0.0257 -0.0057
   68TCq2    C3 1036   3.586   2.489  14.309 -0.6365  0.5374 -0.2452
   68TCq2    C4 1037   3.613   2.521  14.437  0.6536  0.7082  0.3345
   68TCq2    C5 1038   3.704   2.452  14.511 -0.0392  0.1122 -0.6275
   68TCq2    C6 1039   3.782   2.360  14.447  0.3042 -0.5313  0.0550
   68TCq2    C7 1040   3.776   2.342  14.316 -1.1463 -0.5455  0.4413
   68TCq2    C8 1041   3.897   2.295  14.518  0.0715 -1.0280 -0.0183
   68TCq2    O4 1042   3.981   2.248  14.446  0.3147  0.4371 -0.2617
   68TCq2    C9 1043   3.541   2.629  14.498 -0.2621 -0.2109  0.5507
   68TCq2    O5 1044   3.550   2.643  14.621 -0.0393 -0.4063  0.6663
   68TCq2    O6 1045   3.454   2.679  14.426 -0.3437 -0.4987 -0.5629
   68TCq2    H2 1046   3.512   2.547  14.256  0.6484  1.7099 -0.7659
   68TCq2    H3 1047   3.707   2.481  14.615  0.8403 -0.4453 -0.5006
   68TCq2    H4 1048   3.849   2.289  14.257 -1.6525 -1.5933  0.7636
   69TMC2    C1 1049   0.880   3.245  11.634 -0.2148 -0.3617  1.0534
   69TMC2    C2 1050   0.860   3.362  11.565  0.3868  0.3656  0.2792
   69TMC2    C3 1051   0.908   3.361  11.440  0.7114 -0.2614 -0.4371
   69TMC2    C4 1052   0.946   3.137  11.583 -0.3408  0.3487 -1.0220
   69TMC2    C5 1053   0.993   3.145  11.458  0.3277  0.0744  0.4947
   69TMC2    C6 1054   0.966   3.256  11.381 -0.1473 -0.2769 -0.0332
   69TMC2     C 1055   0.867   3.242  11.780  0.2904  0.4503  0.4066
   69TMC2     O 1056   0.889   3.131  11.825  0.5548  0.1343  0.1620
   69TMC2     H 1057   0.815   3.452  11.604 -1.3334 -0.7824  0.9653
   69TMC2    H1 1058   0.975   3.049  11.638  0.7540  0.6051 -1.1905
   69TMC2    H2 1059   1.009   3.270  11.283  1.2695  0.6623  0.7166
   69TMC2    C7 1060   1.075   3.041  11.398 -0.7647  0.2976 -0.6267
   69TMC2    C8 1061   0.895   3.485  11.363 -0.0392  0.2665 -0.1112
   69TMC2    O1 1062   1.130   2.964  11.470 -0.5619 -0.5769 -0.9929
   69TMC2    O2 1063   0.826   3.574  11.408 -0.2709 -0.1627 -0.9516
   69TMC2    O5 1064   1.014   3.511  11.316  0.2722  0.1222 -0.3182
   69TMC2    H5 1065   1.063   3.429  11.295  0.7176  0.4870 -0.7008
   70MPD2     C 1066   0.679   3.486  11.984  0.2503  0.4592 -0.0034
   70MPD2    C1 1067   0.752   3.371  11.958  0.8433  0.1119  0.4435
   70MPD2    C2 1068   0.792   3.286  12.060  0.6425  0.3878  0.7889
   70MPD2    C3 1069   0.756   3.318  12.190  0.1851 -0.1533 -0.5397
   70MPD2    C4 1070   0.683   3.428  12.218  0.2266  0.5110 -0.1682
   70MPD2    C5 1071   0.651   3.515  12.117 -0.0218 -0.4917  0.1769
   70MPD2     H 1072   0.833   3.190  12.031  2.5959  1.6237 -0.5287
   70MPD2    H1 1073   0.659   3.455  12.320  0.3643 -1.0765  0.2976
   70MPD2    H2 1074   0.660   3.564  11.911 -0.8920  0.1404 -0.0598
   70MPD2    H3 1075   0.589   3.601  12.142  2.0800  1.2435 -0.6384
   70MPD2     N 1076   0.796   3.242  12.296 -0.8850  0.4044 -0.2713
   70MPD2    H5 1077   0.754   3.262  12.386  1.2773  0.1945  0.7777
   70MPD2    N1 1078   0.793   3.353  11.825 -0.0606  0.2574  0.0611
   70MPD2    H7 1079   0.775   3.433  11.765  0.5833  0.0277 -0.4323
   71TMC2    C1 1080   2.260   3.953   1.916 -0.4170  0.1667 -1.1299
   71TMC2    C2 1081   2.376   3.977   1.985  0.8182  0.0077 -0.0184
   71TMC2    C3 1082   2.389   4.104   2.028 -0.1353  0.5646  0.0754
   71TMC2    C4 1083   2.164   4.045   1.890  0.1586  1.0133  0.7435
   71TMC2    C5 1084   2.185   4.170   1.932  0.2546  0.5474 -0.0303
   71TMC2    C6 1085   2.287   4.195   2.017  0.2243 -0.4844  0.5623
   71TMC2     C 1086   2.238   3.818   1.857 -0.6335 -0.5037 -0.1146
   71TMC2     O 1087   2.122   3.785   1.843  0.2314  0.3412  0.3223
   71TMC2     H 1088   2.461   3.914   2.008  0.0688 -0.9475  0.1451
   71TMC2    H1 1089   2.079   4.005   1.835  0.6021 -0.6316  1.2802
   71TMC2    H2 1090   2.305   4.292   2.063 -0.9876  0.7532 -1.5869
   71TMC2    C7 1091   2.081   4.276   1.915 -0.0722 -0.5191 -0.2184
   71TMC2    C8 1092   2.488   4.125   2.132 -1.0463 -0.3978  0.2972
   71TMC2    O1 1093   2.073   4.365   1.996  0.2672 -0.6012  0.0733
   71TMC2    O2 1094   2.497   4.056   2.231 -0.1919  0.4474  0.2991
   71TMC2    O5 1095   2.549   4.245   2.112 -0.0553  0.8623 -0.6360
   71TMC2    H5 1096   2.543   4.280   2.020  1.0577 -1.5657 -1.6286
   72MPD2     C 1097   2.368   3.481   1.492 -0.0070 -0.5614 -0.2759
   72MPD2    C1 1098   2.460   3.594   1.482 -0.0830 -0.1461 -0.2931
   72MPD2    C2 1099   2.453   3.691   1.580  1.3332  0.8918 -0.3767
   72MPD2    C3 1100   2.351   3.687   1.674 -0.0481 -0.5455  0.3137
   72MPD2    C4 1101   2.255   3.582   1.676 -0.6165  0.7475  0.6159
   72MPD2    C5 1102   2.269   3.483   1.588 -0.5715 -0.0967 -0.0666
   72MPD2     H 1103   2.526   3.771   1.587  0.9462  1.2521 -0.4527
   72MPD2    H1 1104   2.181   3.572   1.754 -0.9683  1.5917  0.3979
   72MPD2    H2 1105   2.382   3.399   1.422  1.9928 -0.8633  0.4803
   72MPD2    H3 1106   2.203   3.397   1.579 -1.0836  0.4959 -1.9452
   72MPD2     N 1107   2.341   3.785   1.775  0.6882 -0.5924 -0.1912
   72MPD2    H5 1108   2.423   3.845   1.783  0.7452 -0.9415  1.7705
   72MPD2    N1 1109   2.562   3.610   1.388 -0.2081 -0.5506 -0.2612
   72MPD2    H7 1110   2.627   3.688   1.399 -1.8656  0.7910  0.1227
   73TMC2    C1 1111   3.747   0.965  14.222  0.4017  1.6785 -0.1478
   73TMC2    C2 1112   3.635   0.914  14.277 -0.9217  0.1858 -0.3861
   73TMC2    C3 1113   3.625   0.919  14.413 -0.2116  0.0408  0.1739
   73TMC2    C4 1114   3.846   1.019  14.299  0.8581  0.4222  0.2332
   73TMC2    C5 1115   3.834   1.024  14.433  0.3560  0.7295 -0.8629
   73TMC2    C6 1116   3.723   0.965  14.492 -1.0703  0.5458 -0.0809
   73TMC2     C 1117   3.714   1.068  14.119 -0.2734  0.0180  0.3130
   73TMC2     O 1118   3.742   1.179  14.168 -0.3168 -0.6908  0.4779
   73TMC2     H 1119   3.547   0.918  14.213  1.0531 -0.1240 -3.1427
   73TMC2    H1 1120   3.937   1.050  14.249  0.5058  0.1118 -0.5972
   73TMC2    H2 1121   3.703   0.961  14.599 -2.6858  0.0544 -0.3934
   73TMC2    C7 1122   3.894   1.147  14.488  0.4980 -1.1835  0.1399
   73TMC2    C8 1123   3.506   0.853  14.479 -0.2298 -0.1190  0.1346
   73TMC2    O1 1124   3.911   1.157  14.612  0.0248 -0.2855  0.0415
   73TMC2    O2 1125   3.479   0.872  14.598 -0.2443 -1.0479 -0.5104
   73TMC2    O5 1126   3.478   0.744  14.411  0.4230  0.2999  0.0923
   73TMC2    H5 1127   3.502   0.756  14.317 -0.5709  1.2322 -0.0408
   74MPD2     C 1128   3.603   1.285  13.667 -0.0194  0.0971 -0.6292
   74MPD2    C1 1129   3.654   1.343  13.778  0.7653  0.0618 -0.2721
   74MPD2    C2 1130   3.668   1.256  13.890  0.0204 -0.4996  0.5514
   74MPD2    C3 1131   3.638   1.123  13.887 -1.0320 -0.2169 -0.1076
   74MPD2    C4 1132   3.589   1.069  13.777 -0.5688  0.0162 -0.1764
   74MPD2    C5 1133   3.568   1.151  13.669 -0.2742  0.3417  0.6323
   74MPD2     H 1134   3.712   1.308  13.974 -0.1586 -1.6731  1.3689
   74MPD2    H1 1135   3.565   0.963  13.770 -1.6332  0.2231  0.3465
   74MPD2    H2 1136   3.592   1.347  13.579  0.4226 -1.2067 -1.5828
   74MPD2    H3 1137   3.512   1.112  13.584  2.9202 -1.6880 -0.5406
   74MPD2     N 1138   3.660   1.033  13.997 -0.3413 -0.5190  0.2640
   74MPD2    H5 1139   3.642   0.936  13.977 -0.0185 -1.0314  2.4977
   74MPD2    N1 1140   3.695   1.484  13.768 -0.1160 -1.3878 -0.4294
   74MPD2    H7 1141   3.691   1.530  13.678 -2.0511 -2.3512 -0.8330
   75TCq2    C1 1142   3.026   2.223  13.948 -0.1425  0.3344  0.1818
   75TCq2    O2 1143   3.046   2.209  14.070  0.3280  0.1139  0.1766
   75TCq2    C2 1144   2.889   2.218  13.908 -0.2347 -0.3525  0.3700
   75TCq2    C3 1145   2.810   2.138  13.986 -0.4438 -0.4922 -0.5345
   75TCq2    C4 1146   2.704   2.082  13.919 -0.0879  0.5060 -0.0903
   75TCq2    C5 1147   2.676   2.116  13.788  0.6553  0.6617  0.0175
   75TCq2    C6 1148   2.755   2.196  13.721 -0.3269  0.6216  0.0197
   75TCq2    C7 1149   2.868   2.246  13.779  0.3329 -0.0373  0.1624
   75TCq2    C8 1150   2.716   2.227  13.585 -0.6735 -0.0952  0.1997
   75TCq2    O4 1151   2.632   2.162  13.521 -0.2246 -1.2473  0.5512
   75TCq2    C9 1152   2.610   1.997  13.993  0.1896 -0.4003  0.6408
   75TCq2    O5 1153   2.659   1.939  14.093 -0.5809 -0.1427  0.2894
   75TCq2    O6 1154   2.510   1.951  13.929  0.5118  0.5375  0.1272
   75TCq2    H2 1155   2.828   2.108  14.089  1.0992  0.7700 -0.4383
   75TCq2    H3 1156   2.585   2.086  13.738  0.1721  2.4473 -0.1622
   75TCq2    H4 1157   2.936   2.311  13.726 -1.9524  2.2555  0.0490
   76MPD2     C 1158   2.245   2.407  11.298 -0.1145  0.3753  0.0747
   76MPD2    C1 1159   2.117   2.407  11.360 -0.2123 -0.0174  0.5725
   76MPD2    C2 1160   2.107   2.349  11.488  0.5903  0.4359 -1.1045
   76MPD2    C3 1161   2.210   2.269  11.547  0.1523 -0.3992 -0.7120
   76MPD2    C4 1162   2.328   2.265  11.476  0.1806 -0.0850  0.4310
   76MPD2    C5 1163   2.344   2.326  11.356  0.0666  0.2690  0.5641
   76MPD2     H 1164   2.019   2.368  11.549 -0.1165 -1.3300 -1.5741
   76MPD2    H1 1165   2.402   2.199  11.522  2.0554  0.8004 -1.3138
   76MPD2    H2 1166   2.258   2.443  11.197  0.9661  0.5281  0.2640
   76MPD2    H3 1167   2.439   2.328  11.303 -0.5036 -0.6910 -0.4738
   76MPD2     N 1168   2.203   2.202  11.673 -0.3295 -0.2497  0.7585
   76MPD2    H5 1169   2.277   2.142  11.709 -1.2487 -1.2358  0.9946
   76MPD2    N1 1170   2.014   2.471  11.282  0.4741  0.4261 -0.0829
   76MPD2    H7 1171   2.037   2.512  11.192 -1.2732  0.7216 -0.4094
   77TCq2    C1 1172   2.091   2.199  11.753  0.4748 -0.3669 -0.1499
   77TCq2    O2 1173   1.976   2.215  11.712 -0.5457 -0.2332 -0.4895
   77TCq2    C2 1174   2.115   2.132  11.882 -0.1984 -0.5911 -0.2923
   77TCq2    C3 1175   2.023   2.046  11.928  0.1281 -0.0692 -0.2830
   77TCq2    C4 1176   2.056   1.969  12.037  0.0168 -0.4638  0.0408
   77TCq2    C5 1177   2.183   1.974  12.091 -0.3311  0.4643  0.4881
   77TCq2    C6 1178   2.269   2.070  12.051 -0.2002 -0.0579  0.3917
   77TCq2    C7 1179   2.233   2.159  11.951 -0.1121  0.8304 -0.6114
   77TCq2    C8 1180   2.410   2.056  12.099  0.6988 -0.3848 -0.3378
   77TCq2    O4 1181   2.444   1.956  12.164  0.1653  0.2741 -0.4210
   77TCq2    C9 1182   1.971   1.866  12.077 -0.6192  0.2281  0.1373
   77TCq2    O5 1183   1.858   1.852  12.017  0.5586  0.6805  0.1289
   77TCq2    O6 1184   1.998   1.804  12.182 -0.1415 -0.5433 -0.4382
   77TCq2    H2 1185   1.927   2.044  11.878 -0.9240 -1.3229  1.7971
   77TCq2    H3 1186   2.200   1.906  12.174 -1.2680 -1.5732 -1.0022
   77TCq2    H4 1187   2.307   2.222  11.903  0.2225  0.0716 -1.0900
   78MPD1     C 1188   4.476   1.235   1.965 -0.1682 -0.0450  0.2932
   78MPD1    C1 1189   4.372   1.317   1.934 -0.3191 -0.3593  0.3202
   78MPD1    C2 1190   4.404   1.457   1.922  0.3321  0.0072 -0.9734
   78MPD1    C3 1191   4.538   1.498   1.937 -0.1269  1.3333  0.0014
   78MPD1    C4 1192   4.637   1.409   1.950  0.8577  0.5234 -0.5279
   78MPD1    C5 1193   4.612   1.276   1.947 -0.3741  0.0983  0.5870
   78MPD1     H 1194   4.327   1.530   1.903  0.5828  0.6200  0.3620
   78MPD1    H1 1195   0.012   1.450   1.968  0.8438  0.8636 -1.2362
   78MPD1    H2 1196   4.455   1.133   1.996 -0.2845 -0.2285 -0.3784
   78MPD1    H3 1197   4.689   1.201   1.959 -1.5326 -0.8664  1.9938
   78MPD1     N 1198   4.581   1.639   1.949  0.0558  0.1751 -0.0986
   78MPD1    H5 1199   4.679   1.655   1.969  0.3319  1.1346 -2.2006
   78MPD1    N1 1200   4.240   1.275   1.960 -0.5728 -0.2870  0.2501
   78MPD1    H6 1201   4.174   1.324   1.900 -0.7198 -1.0643 -0.2196
   78MPD1    H7 1202   4.227   1.174   1.953  1.8941 -0.5215 -0.7054
   79TCq2    C1 1203   4.501   1.753   1.938  0.0437 -0.3346  0.5190
   79TCq2    O2 1204   4.380   1.755   1.914 -0.5078 -0.0252  0.1568
   79TCq2    C2 1205   4.567   1.873   1.971  0.5912 -0.3925  0.9137
   79TCq2    C3 1206   4.692   1.875   2.027 -0.1337  0.3221 -0.1180
   79TCq2    C4 1207   0.025   1.986   2.083 -0.8468 -0.2866  0.4873
   79TCq2    C5 1208   4.668   2.098   2.091 -0.4923  0.1242  0.0132
   79TCq2    C6 1209   4.547   2.100   2.028  0.3806 -0.6676  0.9699
   79TCq2    C7 1210   4.494   1.995   1.956  0.6630 -0.4613 -0.9148
   79TCq2    C8 1211   4.472   2.226   2.039  0.4174  0.0439  0.0997
   79TCq2    O4 1212   4.544   2.322   2.068  0.0282 -0.1205 -0.2851
   79TCq2    C9 1213   0.145   1.982   2.156 -0.3665  0.1890 -0.0004
   79TCq2    O5 1214   0.222   1.889   2.124  0.2826  0.4111 -0.3442
   79TCq2    O6 1215   0.180   2.084   2.225 -0.3249  0.1296 -0.1453
   79TCq2    H2 1216   0.026   1.784   2.029 -1.2454 -0.3628  0.6695
   79TCq2    H3 1217   4.699   2.181   2.153  0.0825 -0.8346  1.0063
   79TCq2    H4 1218   4.394   1.994   1.914 -0.3167 -0.3939  1.4092
   80MPD2     C 1219   0.866   2.522  12.392 -0.4767  0.4674  0.3855
   80MPD2    C1 1220   0.795   2.487  12.278  0.5463 -0.6468  0.2881
   80MPD2    C2 1221   0.663   2.524  12.272 -0.4450  0.1255 -0.2000
   80MPD2    C3 1222   0.607   2.592  12.377  0.1752  0.1744 -0.3459
   80MPD2    C4 1223   0.673   2.604  12.500  0.2827 -0.3026 -0.8799
   80MPD2    C5 1224   0.805   2.561  12.504 -0.3808  0.0062 -0.0295
   80MPD2     H 1225   0.610   2.487  12.184 -0.4666 -0.3109 -0.0017
   80MPD2    H1 1226   0.626   2.636  12.592  2.1332  0.8901 -0.3641
   80MPD2    H2 1227   0.974   2.523  12.390 -0.5125  1.4048 -0.9537
   80MPD2    H3 1228   0.876   2.582  12.584 -0.8708 -1.4648  0.7889
   80MPD2     N 1229   0.466   2.611  12.378 -0.2706 -0.0187 -0.0428
   80MPD2    H5 1230   0.424   2.629  12.468 -0.8801 -0.7478 -0.1750
   80MPD2    N1 1231   0.854   2.407  12.177 -0.2842  0.6207  0.1359
   80MPD2    H7 1232   0.797   2.379  12.098 -2.0239  0.9058  1.2938
   81TCq2    C1 1233   0.983   2.360  12.170 -0.3444 -0.2858 -0.2446
   81TCq2    O2 1234   1.078   2.390  12.240 -0.2242  0.5485  0.2553
   81TCq2    C2 1235   0.998   2.277  12.053 -0.5397 -0.0864  0.6168
   81TCq2    C3 1236   1.105   2.307  11.982 -0.4654 -0.1575 -0.0464
   81TCq2    C4 1237   1.122   2.249  11.862 -0.6852  0.1060 -0.1611
   81TCq2    C5 1238   1.023   2.178  11.807  0.2725 -0.7215  0.7068
   81TCq2    C6 1239   0.905   2.153  11.879 -0.6666  0.3552  0.1043
   81TCq2    C7 1240   0.892   2.193  12.011  0.6864  1.7056  0.8240
   81TCq2    C8 1241   0.796   2.072  11.820 -0.2721  0.0417 -0.6118
   81TCq2    O4 1242   0.796   2.041  11.702  0.2195 -0.0542  0.1706
   81TCq2    C9 1243   1.238   2.278  11.782  0.8369  0.4396 -0.0168
   81TCq2    O5 1244   1.283   2.395  11.779 -0.5504  0.2713  0.4627
   81TCq2    O6 1245   1.264   2.187  11.702  0.5718 -0.3034 -0.1255
   81TCq2    H2 1246   1.177   2.379  12.017  0.2526  0.4024 -2.6793
   81TCq2    H3 1247   1.022   2.144  11.704  0.4671 -0.0847  0.4931
   81TCq2    H4 1248   0.800   2.188  12.068  0.4302  1.1732  0.3623
   82MPD2     C 1249   4.361   2.189  10.612  0.1028 -0.3723 -0.3417
   82MPD2    C1 1250   4.254   2.117  10.574 -0.0054  0.6442 -0.6799
   82MPD2    C2 1251   4.268   1.983  10.574  0.2589  0.2685 -0.1507
   82MPD2    C3 1252   4.380   1.923  10.626  0.4437 -0.6558 -0.2893
   82MPD2    C4 1253   4.484   1.997  10.664 -0.1715 -0.8741 -0.1822
   82MPD2    C5 1254   4.475   2.131  10.650 -0.5859 -0.7660 -0.9927
   82MPD2     H 1255   4.189   1.915  10.543  1.3338 -2.1302  2.4454
   82MPD2    H1 1256   4.578   1.952  10.694  1.2940  2.1230 -0.2980
   82MPD2    H2 1257   4.356   2.296  10.597 -0.4669 -0.0226  2.4644
   82MPD2    H3 1258   4.558   2.196  10.673  0.8620 -2.9069 -0.1752
   82MPD2     N 1259   4.391   1.781  10.640 -0.0305  0.0581  0.6636
   82MPD2    H5 1260   4.474   1.749  10.689 -1.2028 -3.4827  0.3763
   82MPD2    N1 1261   4.140   2.180  10.524  0.2643  0.5968 -0.6507
   82MPD2    H7 1262   4.149   2.278  10.501 -0.6696  1.1454  1.3485
   83TCq2    C1 1263   4.296   1.684  10.611  0.2015 -0.1678 -0.2050
   83TCq2    O2 1264   4.187   1.695  10.558  0.1801  0.1810 -0.0472
   83TCq2    C2 1265   4.323   1.552  10.663  0.1180 -0.6252  0.1402
   83TCq2    C3 1266   4.433   1.528  10.740  0.6497 -0.0273 -0.0125
   83TCq2    C4 1267   4.432   1.407  10.815 -0.4289  0.9989 -0.2577
   83TCq2    C5 1268   4.326   1.317  10.813 -0.2045  0.1865 -0.8471
   83TCq2    C6 1269   4.217   1.351  10.736 -0.8227  0.1483  0.0269
   83TCq2    C7 1270   4.224   1.465  10.659 -0.1966 -0.5340 -0.2630
   83TCq2    C8 1271   4.089   1.288  10.755 -0.1864 -0.0335  0.2435
   83TCq2    O4 1272   4.053   1.255  10.864 -0.6151  0.2812  0.1456
   83TCq2    C9 1273   4.545   1.389  10.893  1.0167  0.4733 -0.2748
   83TCq2    O5 1274   4.552   1.283  10.960  0.9678 -0.0866  0.8438
   83TCq2    O6 1275   4.622   1.490  10.900  0.1442 -0.0554  0.0331
   83TCq2    H2 1276   4.521   1.590  10.727  1.8528 -1.4136  1.4580
   83TCq2    H3 1277   4.324   1.228  10.875 -1.9722 -0.3721 -1.7032
   83TCq2    H4 1278   4.143   1.480  10.588 -0.8036  0.0514  0.5581
   84TCq2    C1 1279   1.351   1.133  10.880  0.5540 -0.3396 -0.0822
   84TCq2    O2 1280   1.278   1.209  10.812 -0.0363  0.1603 -0.1304
   84TCq2    C2 1281   1.293   1.070  11.002 -0.5027 -0.8555 -0.1881
   84TCq2    C3 1282   1.374   1.010  11.099  0.0679 -0.0951 -0.9157
   84TCq2    C4 1283   1.324   0.981  11.225 -0.1171  0.1141  0.7925
   84TCq2    C5 1284   1.191   0.989  11.237  0.3604  0.2404  0.1245
   84TCq2    C6 1285   1.110   1.038  11.139  0.0230 -0.1784 -0.4901
   84TCq2    C7 1286   1.160   1.090  11.026  0.1054  0.1479 -0.3036
   84TCq2    C8 1287   0.970   1.080  11.178 -0.8410 -1.3369 -0.0570
   84TCq2    O4 1288   0.913   1.160  11.106  0.6488 -0.3359  0.0054
   84TCq2    C9 1289   1.403   0.953  11.345  0.3470 -0.9456  0.2942
   84TCq2    O5 1290   1.336   0.946  11.450  0.1475 -0.1055 -0.3832
   84TCq2    O6 1291   1.526   0.963  11.331 -0.2344  0.0683 -1.1356
   84TCq2    H2 1292   1.482   1.008  11.089  0.4107  1.4906  2.5585
   84TCq2    H3 1293   1.148   0.964  11.333 -0.8463  0.3899 -0.3772
   84TCq2    H4 1294   1.091   1.137  10.957  2.4537  1.9916 -1.4053
   85MPD2     C 1295   0.696   3.425  16.197  0.5661 -0.3376  0.0209
   85MPD2    C1 1296   0.660   3.370  16.078 -0.2199 -0.4947 -0.2002
   85MPD2    C2 1297   0.652   3.443  15.961 -0.0122 -0.0333 -0.0982
   85MPD2    C3 1298   0.674   3.579  15.967 -0.4628  0.6926  0.1800
   85MPD2    C4 1299   0.694   3.634  16.093  0.4214 -1.0047 -1.1617
   85MPD2    C5 1300   0.703   3.562  16.203 -0.5331 -0.2138  0.3674
   85MPD2     H 1301   0.630   3.400  15.864  2.4210 -0.5766 -0.4115
   85MPD2    H1 1302   0.708   3.739  16.114  2.0055 -1.2917 -0.8064
   85MPD2    H2 1303   0.701   3.373  16.292 -0.9650  1.9607  1.3567
   85MPD2    H3 1304   0.725   3.607  16.299  2.7089 -0.1444 -0.4113
   85MPD2     N 1305   0.669   3.642  15.842 -0.1455 -0.8327 -0.3591
   85MPD2    H5 1306   0.626   3.602  15.759 -3.3075  0.5594  0.5961
   85MPD2    N1 1307   0.619   3.237  16.062  0.1082 -0.8017  0.4207
   85MPD2    H7 1308   0.569   3.221  15.976  0.5346  2.9626 -0.5548
   86TCq2    C1 1309   0.712   3.772  15.830 -0.1693 -0.3431 -0.0531
   86TCq2    O2 1310   0.768   3.848  15.908  0.6876  0.5710  0.2622
   86TCq2    C2 1311   0.728   3.797  15.688 -0.2568  0.1824 -0.6117
   86TCq2    C3 1312   0.736   3.932  15.660 -0.1029 -0.3843  0.0033
   86TCq2    C4 1313   0.787   3.959  15.532 -0.8118  0.6267 -0.2746
   86TCq2    C5 1314   0.829   3.857  15.445 -0.4380  0.3536 -0.2653
   86TCq2    C6 1315   0.825   3.727  15.488 -0.1052 -0.5358 -0.4800
   86TCq2    C7 1316   0.757   3.689  15.603 -0.2885  0.4623 -0.5021
   86TCq2    C8 1317   0.943   3.652  15.470  1.0127 -0.0622 -0.5253
   86TCq2    O4 1318   0.948   3.542  15.527  0.0417  0.1619 -0.7666
   86TCq2    C9 1319   0.798   4.094  15.487 -0.7930 -0.5112 -0.3479
   86TCq2    O5 1320   0.697   4.163  15.503  0.3243  0.4829  0.0222
   86TCq2    O6 1321   0.896   4.118  15.412 -0.6382 -0.4522  0.2599
   86TCq2    H2 1322   0.713   4.016  15.724 -2.2507 -1.0842  0.1293
   86TCq2    H3 1323   0.872   3.885  15.349 -2.0972 -0.2863 -1.1811
   86TCq2    H4 1324   0.734   3.586  15.629  1.4372 -0.4043 -2.3950
   87MPD2     C 1325   1.859   1.599   1.161  0.9071 -0.1070  0.3646
   87MPD2    C1 1326   1.965   1.588   1.076 -0.4178  0.1934  0.7492
   87MPD2    C2 1327   1.943   1.556   0.944 -0.1604  0.0935 -0.7678
   87MPD2    C3 1328   1.823   1.576   0.886  0.8413  0.7225 -0.4411
   87MPD2    C4 1329   1.714   1.593   0.966 -0.1414 -0.3692  0.3629
   87MPD2    C5 1330   1.730   1.599   1.102 -0.5303 -0.2816 -0.2141
   87MPD2     H 1331   2.027   1.523   0.884 -0.0616  0.0918 -0.6285
   87MPD2    H1 1332   1.611   1.604   0.934  0.1254  2.3210  0.3978
   87MPD2    H2 1333   1.864   1.632   1.264  1.2953  0.0859  0.2804
   87MPD2    H3 1334   1.652   1.631   1.170  0.0458 -0.4315  0.5321
   87MPD2     N 1335   1.801   1.569   0.749  0.5241 -0.0388  0.5850
   87MPD2    H5 1336   1.723   1.623   0.711  0.5068 -0.3279  0.2099
   87MPD2    N1 1337   2.086   1.594   1.146 -0.0535 -0.0484  0.3262
   87MPD2    H7 1338   2.095   1.587   1.247  0.4626 -1.5290  0.1858
   88TCq2    C1 1339   2.208   1.602   1.080  0.3790 -1.0416 -0.0331
   88TCq2    O2 1340   2.237   1.604   0.960  0.0379  0.9955 -0.5055
   88TCq2    C2 1341   2.328   1.609   1.166 -0.2439  0.4520  0.0630
   88TCq2    C3 1342   2.320   1.626   1.310  0.2700  0.0414  0.3719
   88TCq2    C4 1343   2.433   1.627   1.390 -0.5347  0.0760  0.7321
   88TCq2    C5 1344   2.554   1.610   1.323 -0.2928 -0.6578 -0.8420
   88TCq2    C6 1345   2.562   1.596   1.185  0.4256  0.1659 -0.1149
   88TCq2    C7 1346   2.451   1.605   1.103  0.6839 -0.4279 -0.1742
   88TCq2    C8 1347   2.692   1.564   1.130  0.3527  0.2929 -0.4235
   88TCq2    O4 1348   2.685   1.577   1.009  0.4997 -0.3982  0.1140
   88TCq2    C9 1349   2.435   1.663   1.528  0.0925 -0.4610 -0.4382
   88TCq2    O5 1350   2.549   1.645   1.593  0.4765  0.1456 -0.3463
   88TCq2    O6 1351   2.326   1.684   1.587  0.1871  0.1276 -0.0095
   88TCq2    H2 1352   2.227   1.633   1.364  0.7525  2.8780  0.8443
   88TCq2    H3 1353   2.644   1.642   1.374 -0.9787  0.3243 -0.2107
   88TCq2    H4 1354   2.450   1.599   0.995 -2.3358 -1.5650 -0.1043
   89MPD2     C 1355   4.063   4.632   1.786  0.3024  0.1222 -0.3529
   89MPD2    C1 1356   3.984   4.722   1.852 -0.1970 -0.5636 -0.0701
   89MPD2    C2 1357   4.045   0.113   1.902  0.4857 -0.1355  0.0932
   89MPD2    C3 1358   4.178   0.141   1.884 -0.2703 -0.2464  0.3685
   89MPD2    C4 1359   4.259   0.046   1.816 -0.4778 -0.7953  0.0320
   89MPD2    C5 1360   4.196   4.661   1.761 -0.3302 -0.5258 -0.6767
   89MPD2     H 1361   3.991   0.178   1.970  0.0961 -1.7157  1.2958
   89MPD2    H1 1362   4.367   0.058   1.811 -0.5438  0.4484  1.3013
   89MPD2    H2 1363   4.033   4.535   1.749 -0.3275 -1.6611  4.8327
   89MPD2    H3 1364   4.250   4.579   1.714  2.3632  1.0933 -0.4434
   89MPD2     N 1365   4.226   0.264   1.932 -0.3545  0.2963  0.3950
   89MPD2    H5 1366   4.174   0.318   2.000  1.4280  2.9452 -0.3743
   89MPD2    N1 1367   3.852   4.710   1.895 -0.2771  0.4203  0.6959
   89MPD2    H7 1368   3.804   0.068   1.932 -1.3776 -0.4159  1.1136
   90TCq2    C1 1369   4.346   0.326   1.892 -0.6656  0.8513 -0.3367
   90TCq2    O2 1370   4.417   0.294   1.798  0.1811  0.0484 -0.1649
   90TCq2    C2 1371   4.354   0.454   1.957 -0.0300 -0.7605  0.1849
   90TCq2    C3 1372   4.336   0.454   2.089  0.3992 -0.1743  0.2227
   90TCq2    C4 1373   4.368   0.570   2.152 -0.3669 -0.1921  0.2205
   90TCq2    C5 1374   4.402   0.684   2.081  0.8897 -0.1092 -0.0908
   90TCq2    C6 1375   4.422   0.678   1.945 -0.2028 -1.0142 -0.2310
   90TCq2    C7 1376   4.402   0.557   1.880 -0.0544 -0.2255 -0.1148
   90TCq2    C8 1377   4.422   0.804   1.880  0.4795 -0.1445  0.0437
   90TCq2    O4 1378   4.396   0.900   1.955  0.3944 -0.0404 -0.1083
   90TCq2    C9 1379   4.366   0.588   2.295  0.2198  0.2775 -0.0985
   90TCq2    O5 1380   4.401   0.487   2.365 -0.1377 -0.4019 -0.1469
   90TCq2    O6 1381   4.363   0.700   2.344  0.4384 -0.0765 -0.0686
   90TCq2    H2 1382   4.291   0.374   2.146 -0.4724  0.3124  0.2119
   90TCq2    H3 1383   4.436   0.771   2.136 -0.1404  0.7597 -0.8316
   90TCq2    H4 1384   4.388   0.556   1.773  2.0496  0.8304 -0.3990
   91TMC2    C1 1385   0.672   4.412  16.130 -0.6867  0.1417  0.3928
   91TMC2    C2 1386   0.746   4.430  16.240 -0.2585  0.2832 -1.2132
   91TMC2    C3 1387   0.689   4.416  16.365  0.2262 -0.4737  0.7720
   91TMC2    C4 1388   0.540   4.374  16.142 -1.0781  0.2545  0.2171
   91TMC2    C5 1389   0.487   4.349  16.271  0.5110  0.2829 -0.0664
   91TMC2    C6 1390   0.566   4.366  16.386  0.6797  0.7856  0.6967
   91TMC2     C 1391   0.736   4.382  16.003  0.4312 -0.0290 -0.6597
   91TMC2     O 1392   0.668   4.383  15.902  0.0317  0.7335  0.1641
   91TMC2     H 1393   0.849   4.463  16.235  0.3011 -1.4176 -0.7942
   91TMC2    H1 1394   0.491   4.347  16.049  0.1103  0.9093 -0.6049
   91TMC2    H2 1395   0.525   4.370  16.486 -2.5903 -0.5183 -0.5663
   91TMC2    C7 1396   0.366   4.267  16.293 -0.0919 -0.1816 -0.4948
   91TMC2    C8 1397   0.791   4.425  16.472  0.0124  0.0445  0.4071
   91TMC2    O1 1398   0.376   4.195  16.390 -0.5863  0.0730  0.0210
   91TMC2    O2 1399   0.790   4.361  16.578  0.4117  0.3139 -0.1505
   91TMC2    O5 1400   0.845   4.549  16.468 -0.5295  0.5502  0.0762
   91TMC2    H5 1401   0.830   4.602  16.387 -0.5033  0.6550  0.1393
   92MPD2     C 1402   0.942   4.273  15.797  0.2425  0.0398 -0.3097
   92MPD2    C1 1403   0.969   4.334  15.916  0.1287 -0.2600  0.7577
   92MPD2    C2 1404   1.097   4.341  15.960  0.1530  0.2113  0.4308
   92MPD2    C3 1405   1.203   4.307  15.876  0.1306 -0.5680  0.1457
   92MPD2    C4 1406   1.180   4.265  15.748  0.1217 -0.5634 -0.0198
   92MPD2    C5 1407   1.048   4.247  15.716  0.3991 -0.5405  0.6882
   92MPD2     H 1408   1.118   4.378  16.060  2.0665 -1.5437  0.6832
   92MPD2    H1 1409   1.257   4.235  15.678  0.5249  0.1947  0.1113
   92MPD2    H2 1410   0.842   4.251  15.762  0.3126 -4.2432  2.2676
   92MPD2    H3 1411   1.044   4.202  15.617  1.1342  0.8912  0.0192
   92MPD2     N 1412   1.331   4.322  15.930  0.0694  0.2536 -0.1178
   92MPD2    H5 1413   1.341   4.352  16.027 -0.7504 -0.4571  0.1905
   92MPD2    N1 1414   0.872   4.377  16.008  0.1055  0.5568 -0.0671
   92MPD2    H7 1415   0.908   4.392  16.101 -0.4921 -1.0303  0.4319
   93MPD2     C 1416   2.396   4.718  13.379 -0.0181  0.5284  0.3513
   93MPD2    C1 1417   2.368   0.069  13.496 -0.5096 -0.3346 -0.1141
   93MPD2    C2 1418   2.244   0.062  13.553  0.1957  0.3358 -0.3067
   93MPD2    C3 1419   2.147   4.710  13.496  0.1691  0.0744 -0.0833
   93MPD2    C4 1420   2.178   4.637  13.386 -0.6974 -0.2988 -0.1353
   93MPD2    C5 1421   2.302   4.642  13.319  0.0428  0.1718 -0.2548
   93MPD2     H 1422   2.219   0.129  13.634  2.5888  1.0917 -0.1912
   93MPD2    H1 1423   2.104   4.568  13.345  0.3095 -1.1245 -0.5700
   93MPD2    H2 1424   2.490   4.718  13.324 -1.3712 -0.6225 -1.9509
   93MPD2    H3 1425   2.329   4.586  13.231 -1.7434 -0.3434 -0.4827
   93MPD2     N 1426   2.022   4.690  13.551 -0.2361  0.0250  0.0275
   93MPD2    H5 1427   1.965   4.616  13.510 -0.2483  1.1712 -2.0278
   93MPD2    N1 1428   2.462   0.156  13.555  0.2393  0.5727  0.2367
   93MPD2    H7 1429   2.431   0.202  13.641  0.0133  1.0773 -0.1169
   94TCq2    C1 1430   2.590   0.176  13.500  0.5357 -0.4452 -0.4684
   94TCq2    O2 1431   2.646   0.128  13.406 -0.0315  0.3310 -0.3408
   94TCq2    C2 1432   2.673   0.253  13.585  0.1267  0.7239 -0.0730
   94TCq2    C3 1433   2.655   0.264  13.722  0.3858 -0.0743  0.0547
   94TCq2    C4 1434   2.745   0.317  13.805  0.1771  0.2228 -0.3506
   94TCq2    C5 1435   2.866   0.352  13.753  0.0594  0.2103 -0.4506
   94TCq2    C6 1436   2.892   0.329  13.621  0.3119 -0.0213  0.8569
   94TCq2    C7 1437   2.792   0.284  13.534 -0.8622 -0.3179  0.7899
   94TCq2    C8 1438   3.019   0.353  13.565  0.7332 -0.0466 -0.2219
   94TCq2    O4 1439   3.122   0.355  13.636  0.0641  0.1696 -0.2336
   94TCq2    C9 1440   2.717   0.330  13.946  0.2404  0.4197 -0.0873
   94TCq2    O5 1441   2.807   0.374  14.023  0.1785 -0.6711  0.1263
   94TCq2    O6 1442   2.603   0.296  13.977 -0.3841  0.6088 -0.0457
   94TCq2    H2 1443   2.558   0.236  13.762 -0.0464 -0.5480 -1.3397
   94TCq2    H3 1444   2.938   0.410  13.809  1.3738 -0.2663 -1.6442
   94TCq2    H4 1445   2.819   0.260  13.432 -1.9966  2.9078 -0.2926
   95TMC2    C1 1446   2.309   1.439  15.460  0.2589 -0.2867 -0.6806
   95TMC2    C2 1447   2.326   1.302  15.445 -0.4060 -0.6066 -0.2700
   95TMC2    C3 1448   2.225   1.227  15.492  0.2325 -0.4137  0.0733
   95TMC2    C4 1449   2.203   1.494  15.525  0.0787  0.3820 -0.6713
   95TMC2    C5 1450   2.110   1.405  15.570 -0.3487  0.1186  0.4626
   95TMC2    C6 1451   2.117   1.270  15.546  0.6012 -0.4282  0.2608
   95TMC2     C 1452   2.398   1.531  15.391 -0.3890 -0.1412  0.0506
   95TMC2     O 1453   2.480   1.478  15.320  0.2374 -0.0482  0.4471
   95TMC2     H 1454   2.420   1.266  15.405  0.3681  0.4862  0.5711
   95TMC2    H1 1455   2.185   1.600  15.534 -1.6629  0.1142 -1.0251
   95TMC2    H2 1456   2.063   1.193  15.599 -2.8944  1.2740 -0.7815
   95TMC2    C7 1457   1.994   1.454  15.639 -0.2444  0.0913  0.2880
   95TMC2    C8 1458   2.232   1.077  15.477 -0.3895 -0.8721 -0.1503
   95TMC2    O1 1459   1.997   1.573  15.668  0.5459  0.3367 -0.2970
   95TMC2    O2 1460   2.194   1.003  15.556 -0.5881  0.4469  0.0699
   95TMC2    O5 1461   2.324   1.052  15.381 -0.2509 -0.4995 -0.3773
   95TMC2    H5 1462   2.323   1.111  15.303  1.5137 -0.7832 -0.6125
   96MPD2     C 1463   2.558   1.989  15.235 -0.0972 -0.6648  0.2181
   96MPD2    C1 1464   2.611   1.868  15.203  0.6894  0.8168 -0.0583
   96MPD2    C2 1465   2.544   1.758  15.258  0.6549 -0.2413 -0.0129
   96MPD2    C3 1466   2.436   1.772  15.349  0.1418  0.2760  0.5514
   96MPD2    C4 1467   2.386   1.898  15.370  0.0600 -0.3310 -0.2946
   96MPD2    C5 1468   2.446   1.999  15.305 -0.5908  0.5785  0.1753
   96MPD2     H 1469   2.584   1.660  15.237  0.5966 -0.5007  1.1247
   96MPD2    H1 1470   2.305   1.909  15.440 -0.0626 -1.0021 -0.3355
   96MPD2    H2 1471   2.598   2.080  15.192 -1.6749  0.4410  1.1030
   96MPD2    H3 1472   2.403   2.098  15.308 -0.6339  0.5922 -0.9305
   96MPD2     N 1473   2.372   1.666  15.417  0.3379  0.3244 -0.5199
   96MPD2    H5 1474   2.300   1.691  15.483  0.3271  0.0980 -0.4443
   96MPD2    N1 1475   2.716   1.869  15.115  0.1363 -0.4745 -0.3606
   96MPD2    H7 1476   2.757   1.959  15.091 -1.0204  0.1203 -0.1275
   97MPD2     C 1477   4.548   3.277   0.766  0.3023 -0.1915 -0.9158
   97MPD2    C1 1478   4.636   3.384   0.749  0.5515 -0.1840  0.3536
   97MPD2    C2 1479   4.696   3.402   0.626 -0.0844  0.1856 -0.1611
   97MPD2    C3 1480   4.679   3.302   0.528 -0.1064  0.2620  0.5284
   97MPD2    C4 1481   4.582   3.203   0.544 -0.5025 -1.1291  0.4974
   97MPD2    C5 1482   4.516   3.191   0.661  0.0172  0.2719 -0.3303
   97MPD2     H 1483   0.023   3.495   0.605 -1.6341  0.5002 -2.4848
   97MPD2    H1 1484   4.568   3.133   0.463 -0.1661 -1.0854  0.3999
   97MPD2    H2 1485   4.500   3.258   0.861 -0.7266 -1.0215 -1.6095
   97MPD2    H3 1486   4.457   3.102   0.676 -2.0184  1.4185 -1.6708
   97MPD2     N 1487   0.025   3.302   0.406  0.9081 -0.6312  0.3914
   97MPD2    H5 1488   4.703   3.234   0.345 -0.6808  0.4363  0.4069
   97MPD2    N1 1489   4.642   3.474   0.860  0.1787 -0.4082 -0.5446
   97MPD2    H7 1490   4.576   3.458   0.936  2.1469  0.5888  1.3632
   98TCq2    C1 1491   0.148   3.357   0.380 -0.1611  0.3779 -0.1754
   98TCq2    O2 1492   0.216   3.420   0.460 -0.0730 -0.3273 -0.3013
   98TCq2    C2 1493   0.190   3.347   0.241 -0.1150  0.7883  0.2228
   98TCq2    C3 1494   0.122   3.260   0.159  0.2172 -0.3215 -1.3961
   98TCq2    C4 1495   0.132   3.271   0.022 -0.4233  0.0789 -0.2646
   98TCq2    C5 1496   0.214   3.362  17.669  0.3503 -0.6233 -0.4835
   98TCq2    C6 1497   0.276   3.458   0.052  0.5822  0.0754  0.6176
   98TCq2    C7 1498   0.267   3.451   0.187  0.5168 -0.3599  0.2738
   98TCq2    C8 1499   0.329   3.581  17.691 -0.6079  0.5454  0.4629
   98TCq2    O4 1500   0.404   3.645   0.067  0.6461  0.2011 -0.1851
   98TCq2    C9 1501   0.054   3.184  17.637  0.0024  0.4875 -0.0465
   98TCq2    O5 1502   0.054   3.210  17.514 -0.2592  0.2676 -0.1932
   98TCq2    O6 1503   4.699   3.108   0.002  0.6381 -0.0088 -1.0671
   98TCq2    H2 1504   0.068   3.178   0.205 -0.8529 -0.3409 -2.6637
   98TCq2    H3 1505   0.220   3.362  17.561  3.1190 -0.3069 -0.3381
   98TCq2    H4 1506   0.307   3.528   0.251  0.0639  0.8729 -0.9227
   99MPD2     C 1507   3.951   1.488   1.835 -0.1142  0.4800  0.1030
   99MPD2    C1 1508   3.883   1.373   1.833  0.6430 -0.6169  0.0285
   99MPD2    C2 1509   3.926   1.270   1.752  1.1056 -0.0569  0.5485
   99MPD2    C3 1510   4.014   1.292   1.645  0.5613  0.3617  0.3112
   99MPD2    C4 1511   4.080   1.414   1.645  0.0284  0.0092 -0.1296
   99MPD2    C5 1512   4.055   1.506   1.747 -0.1198  0.7674 -0.2852
   99MPD2     H 1513   3.863   1.181   1.747  2.1298 -0.7363 -0.3564
   99MPD2    H1 1514   4.165   1.440   1.583  0.3804  0.8572  0.7250
   99MPD2    H2 1515   3.937   1.567   1.908 -0.2573 -0.1360  0.7410
   99MPD2    H3 1516   4.108   1.600   1.754  0.3461  0.4932 -0.1450
   99MPD2     N 1517   4.020   1.199   1.540 -0.0010  0.5409  0.6176
   99MPD2    H5 1518   3.969   1.112   1.556 -2.3971  2.0075  0.9031
   99MPD2    N1 1519   3.780   1.340   1.934 -0.1994  0.4969  0.8661
   99MPD2    H7 1520   3.745   1.246   1.926  0.6939  0.0776  1.9318
  100TCq2    C1 1521   3.722   1.426   2.027 -0.0856  0.6292 -0.1046
  100TCq2    O2 1522   3.731   1.548   2.040 -0.0084 -0.0485  0.3140
  100TCq2    C2 1523   3.601   1.368   2.069 -0.2501 -0.8660 -0.1503
  100TCq2    C3 1524   3.500   1.450   2.107 -0.7391 -0.7344 -0.0420
  100TCq2    C4 1525   3.377   1.407   2.077  0.3361 -0.1776  0.3640
  100TCq2    C5 1526   3.355   1.277   2.037 -1.3118  0.0852  0.0195
  100TCq2    C6 1527   3.461   1.192   2.026  0.7281  0.7575  0.2379
  100TCq2    C7 1528   3.591   1.232   2.039  0.5587  0.3761  0.2207
  100TCq2    C8 1529   3.430   1.065   1.966 -0.3880  0.2617  0.3723
  100TCq2    O4 1530   3.344   1.060   1.877  0.2366  0.3038  0.1934
  100TCq2    C9 1531   3.268   1.496   2.103  0.0695 -0.2725  0.3923
  100TCq2    O5 1532   3.152   1.447   2.098  0.5883 -0.1303  0.4271
  100TCq2    O6 1533   3.298   1.622   2.106 -0.1865  0.2044 -0.1740
  100TCq2    H2 1534   3.523   1.548   2.145  1.0630 -1.3781  0.5530
  100TCq2    H3 1535   3.253   1.240   2.026 -1.3479  0.4405 -0.8169
  100TCq2    H4 1536   3.670   1.159   2.026 -2.8329 -3.3813  0.5817
  101MPD2     C 1537   4.650   2.241  12.844 -0.3649 -0.2728  0.1372
  101MPD2    C1 1538   4.532   2.319  12.856 -0.4290  1.2390  0.2560
  101MPD2    C2 1539   4.415   2.258  12.897 -0.1098  0.5150  0.5364
  101MPD2    C3 1540   4.420   2.121  12.923  0.9045  0.3451 -0.5823
  101MPD2    C4 1541   4.537   2.049  12.909  0.1311 -0.0330 -0.0833
  101MPD2    C5 1542   4.650   2.104  12.860  0.0583  0.2541  0.0497
  101MPD2     H 1543   4.321   2.308  12.916 -0.6439  0.3107 -1.5046
  101MPD2    H1 1544   4.539   1.945  12.939  1.6727  0.5696  1.9303
  101MPD2    H2 1545   0.021   2.282  12.812 -0.7325 -0.1546 -0.7985
  101MPD2    H3 1546   0.016   2.045  12.843 -0.8706 -0.7203 -1.3991
  101MPD2     N 1547   4.292   2.069  12.970 -0.5667 -0.2135  0.5976
  101MPD2    H5 1548   4.234   2.145  13.002 -0.2192  0.4939 -0.4571
  101MPD2    N1 1549   4.532   2.463  12.840 -0.7460  0.4549  0.5859
  101MPD2    H7 1550   4.620   2.507  12.817 -0.2147 -1.4249 -0.9571
  102TCq2    C1 1551   4.540   2.807  12.479 -0.0115  0.2553  0.5013
  102TCq2    O2 1552   4.634   2.735  12.447  0.0671  0.1147 -0.0096
  102TCq2    C2 1553   4.477   2.794  12.611 -0.3681 -0.7129 -0.2994
  102TCq2    C3 1554   4.395   2.893  12.653 -0.8391  0.1110 -0.5155
  102TCq2    C4 1555   4.347   2.891  12.774 -1.1272 -0.2618 -0.1379
  102TCq2    C5 1556   4.373   2.783  12.854 -0.1388 -0.0101 -0.0956
  102TCq2    C6 1557   4.450   2.675  12.814  0.3386  0.4989 -0.6192
  102TCq2    C7 1558   4.506   2.688  12.688  0.1328  0.5192 -0.3975
  102TCq2    C8 1559   4.429   2.549  12.881  1.0205  0.6277  0.4118
  102TCq2    O4 1560   4.331   2.530  12.946  0.1855 -0.1119  0.1698
  102TCq2    C9 1561   4.268   2.996  12.821  0.1830  0.1458  0.0699
  102TCq2    O5 1562   4.218   2.975  12.940  0.6092 -0.3307 -0.2482
  102TCq2    O6 1563   4.251   3.103  12.754  0.1497  0.2561  0.2384
  102TCq2    H2 1564   4.372   2.975  12.586  0.6544  1.1763  0.2898
  102TCq2    H3 1565   4.321   2.771  12.949 -2.3314  1.5092 -1.1175
  102TCq2    H4 1566   4.559   2.601  12.650  0.5016 -0.7079  2.9667
  103TMC2    C1 1567   2.715   2.658  12.481  0.0856 -0.2276  0.6203
  103TMC2    C2 1568   2.843   2.657  12.536 -0.4874 -0.2164  0.0655
  103TMC2    C3 1569   2.855   2.718  12.662 -0.3204  0.0384  0.1357
  103TMC2    C4 1570   2.607   2.697  12.559 -0.4367 -0.8036 -0.5751
  103TMC2    C5 1571   2.625   2.741  12.684 -0.7068 -1.3479 -0.1364
  103TMC2    C6 1572   2.749   2.760  12.735 -1.5634 -0.1185  0.4032
  103TMC2     C 1573   2.680   2.562  12.376 -0.0011 -0.2055  0.2938
  103TMC2     O 1574   2.567   2.570  12.332 -0.0770 -0.2250  0.1040
  103TMC2     H 1575   2.931   2.619  12.485 -1.0290 -2.9361  1.1487
  103TMC2    H1 1576   2.513   2.702  12.506 -0.9293 -2.4888  0.1448
  103TMC2    H2 1577   2.770   2.805  12.832 -0.3996 -1.3184  0.7069
  103TMC2    C7 1578   2.520   2.703  12.777 -0.5216  0.4120 -0.3947
  103TMC2    C8 1579   2.978   2.678  12.734 -0.0532  0.2404 -0.2638
  103TMC2    O1 1580   2.523   2.771  12.878 -0.2220  0.3885  0.1898
  103TMC2    O2 1581   3.084   2.703  12.683  0.2516 -0.3699 -0.3244
  103TMC2    O5 1582   2.956   2.570  12.824 -0.1223  0.2611 -0.2541
  103TMC2    H5 1583   2.859   2.565  12.840  0.1314 -0.1823  1.1927
  104MPD2     C 1584   2.830   2.231  12.307  0.1146 -0.0788 -0.1881
  104MPD2    C1 1585   2.753   2.346  12.283 -0.5107  0.1567 -0.1946
  104MPD2    C2 1586   2.634   2.325  12.218 -0.4486  0.6090 -0.1897
  104MPD2    C3 1587   2.601   2.201  12.169 -0.1990  0.2911  0.4663
  104MPD2    C4 1588   2.688   2.097  12.179 -0.4426  0.5794  0.3985
  104MPD2    C5 1589   2.801   2.110  12.249  0.3801  0.0964  0.5826
  104MPD2     H 1590   2.558   2.398  12.196 -1.9100 -0.0762  2.5710
  104MPD2    H1 1591   2.665   2.002  12.133  1.6430 -0.1047  0.7885
  104MPD2    H2 1592   2.925   2.244  12.359 -0.4666 -3.3910  1.7349
  104MPD2    H3 1593   2.873   2.030  12.257 -0.3524 -0.8627 -2.3609
  104MPD2     N 1594   2.472   2.185  12.109 -0.1916  0.4109 -0.0916
  104MPD2    H5 1595   2.412   2.265  12.089  0.0942 -0.0095 -2.5953
  104MPD2    N1 1596   2.782   2.468  12.340 -0.0006  0.2619  0.4444
  104MPD2    H7 1597   2.877   2.477  12.373 -0.1678  3.1365  0.1108
  105MPD2     C 1598   3.797   1.096   0.069  0.0397  0.0308  0.1046
  105MPD2    C1 1599   3.711   1.195   0.024  0.0507  0.4433 -0.2679
  105MPD2    C2 1600   3.617   1.233   0.116 -0.0928 -0.0254  0.1127
  105MPD2    C3 1601   3.600   1.177   0.245 -0.7368 -0.1006 -0.4073
  105MPD2    C4 1602   3.684   1.074   0.285  0.2263  0.4757 -1.2612
  105MPD2    C5 1603   3.786   1.045   0.198 -0.6648  0.0997 -0.0757
  105MPD2     H 1604   3.546   1.308   0.082  0.2047  0.3468  0.3098
  105MPD2    H1 1605   3.677   1.023   0.380  0.1527 -0.3851 -1.7218
  105MPD2    H2 1606   3.845   1.032  17.692 -1.0553  0.2508 -0.8006
  105MPD2    H3 1607   3.836   0.950   0.215 -1.2348 -0.4420 -1.4265
  105MPD2     N 1608   3.493   1.213   0.331  0.0735  0.2050  0.1937
  105MPD2    H5 1609   3.421   1.264   0.282  1.1565  2.1302  0.6305
  105MPD2    N1 1610   3.707   1.239  17.588 -0.7821  0.6004 -0.5084
  105MPD2    H7 1611   3.640   1.313  17.568  0.8685  1.0346 -4.3855
  106TCq2    C1 1612   3.476   1.182   0.464 -0.5396  0.0821 -0.4006
  106TCq2    O2 1613   3.569   1.147   0.538 -0.7372 -0.0065 -0.1975
  106TCq2    C2 1614   3.349   1.209   0.522 -0.6808  0.7576 -0.3766
  106TCq2    C3 1615   3.246   1.236   0.438  0.3014  0.1872  0.2294
  106TCq2    C4 1616   3.138   1.295   0.497 -0.1252  0.4232  0.6455
  106TCq2    C5 1617   3.125   1.301   0.633  0.0040  0.2395 -0.3451
  106TCq2    C6 1618   3.226   1.268   0.717 -0.7317  0.1535 -0.5352
  106TCq2    C7 1619   3.343   1.224   0.657 -0.3670  0.7063 -0.6256
  106TCq2    C8 1620   3.220   1.286   0.856  0.1440  0.3222 -0.2208
  106TCq2    O4 1621   3.321   1.269   0.924  0.1713  0.4613  0.3795
  106TCq2    C9 1622   3.040   1.352   0.413  0.0970 -1.1197  0.2658
  106TCq2    O5 1623   3.058   1.353   0.287 -0.3981  0.4461  0.1456
  106TCq2    O6 1624   2.937   1.392   0.477  0.0429 -0.2308  0.2450
  106TCq2    H2 1625   3.246   1.231   0.330  1.7384  0.1958  0.2301
  106TCq2    H3 1626   3.034   1.347   0.669 -1.1099  0.9279 -4.0207
  106TCq2    H4 1627   3.427   1.216   0.725 -1.0756 -3.0357 -0.1930
  107TMC2    C1 1628   0.061   1.389  11.244 -0.1408  0.5746 -0.3853
  107TMC2    C2 1629   0.098   1.435  11.120  0.7613 -0.6214 -0.3694
  107TMC2    C3 1630   0.211   1.387  11.062 -0.1929  0.0431  0.2396
  107TMC2    C4 1631   0.130   1.290  11.303  0.1845  0.6655 -0.2501
  107TMC2    C5 1632   0.248   1.253  11.251 -0.1692 -0.6021 -0.3337
  107TMC2    C6 1633   0.298   1.300  11.131 -0.4425  0.1620 -0.4713
  107TMC2     C 1634   4.664   1.434  11.311 -0.7530 -0.5617  0.1265
  107TMC2     O 1635   4.667   1.418  11.431 -0.3246  0.1547  0.2873
  107TMC2     H 1636   0.038   1.508  11.066  1.9054  0.8904  0.4233
  107TMC2    H1 1637   0.085   1.236  11.385  0.2263 -0.9081 -1.2657
  107TMC2    H2 1638   0.392   1.264  11.089 -0.2064 -0.4935  0.6208
  107TMC2    C7 1639   0.321   1.152  11.322 -0.2883  0.7772  0.3059
  107TMC2    C8 1640   0.243   1.427  10.929 -0.6807 -0.3937 -0.4518
  107TMC2    O1 1641   0.258   1.070  11.387  0.1114 -1.2839  0.2446
  107TMC2    O2 1642   0.361   1.411  10.893  0.3045 -0.3132 -0.3801
  107TMC2    O5 1643   0.134   1.444  10.848 -0.2378 -0.5895  0.6624
  107TMC2    H5 1644   0.044   1.453  10.888 -1.1463  1.2153 -1.7336
  108MPD2     C 1645   4.350   1.560  11.171  0.3883  0.0045 -0.0097
  108MPD2    C1 1646   4.433   1.523  11.270 -0.3643  0.0840  0.3356
  108MPD2    C2 1647   4.390   1.527  11.400  0.1955  0.3400  0.1017
  108MPD2    C3 1648   4.259   1.562  11.432 -0.1971  0.4107 -0.3466
  108MPD2    C4 1649   4.167   1.590  11.332 -0.4394 -0.4470 -0.3563
  108MPD2    C5 1650   4.220   1.595  11.204  0.1429  0.4155 -0.3839
  108MPD2     H 1651   4.462   1.493  11.474  1.1335 -1.9423 -1.8707
  108MPD2    H1 1652   4.063   1.615  11.347 -1.2367 -3.1885 -1.2699
  108MPD2    H2 1653   4.363   1.557  11.063 -1.1582 -2.6319 -0.1160
  108MPD2    H3 1654   4.157   1.624  11.120  1.5047  0.2616 -1.4455
  108MPD2     N 1655   4.207   1.556  11.564 -0.0287 -0.1893  0.5398
  108MPD2    H5 1656   4.106   1.562  11.563  0.0424  1.5227  2.5122
  108MPD2    N1 1657   4.562   1.477  11.232  0.2146  0.4632 -0.4144
  108MPD2    H7 1658   4.564   1.446  11.135  0.8742 -2.3559  0.4968
  109MPD2     C 1659   0.193   2.857   2.012  0.2822  0.6606 -0.0786
  109MPD2    C1 1660   0.155   2.961   1.926 -0.1566 -0.5237 -0.2860
  109MPD2    C2 1661   0.246   3.066   1.909 -0.2693 -0.0936  0.5248
  109MPD2    C3 1662   0.362   3.072   1.973 -0.2501 -0.1758  0.1525
  109MPD2    C4 1663   0.394   2.971   2.061  0.2801  0.1651  0.1862
  109MPD2    C5 1664   0.317   2.862   2.073  0.5552  0.0457  0.1977
  109MPD2     H 1665   0.231   3.145   1.837 -0.2209  0.1777  0.8153
  109MPD2    H1 1666   0.491   2.969   2.109  0.5515 -1.3613 -0.4216
  109MPD2    H2 1667   0.134   2.767   2.015 -0.2368  1.0033  0.1213
  109MPD2    H3 1668   0.347   2.772   2.125  1.8452  0.1959 -0.2758
  109MPD2     N 1669   0.436   3.189   1.951  0.0439 -0.1052 -0.3565
  109MPD2    H5 1670   0.391   3.257   1.891 -0.5126  0.6624  0.9190
  109MPD2    N1 1671   0.038   2.944   1.861  0.5842  0.0186  0.8220
  109MPD2    H7 1672   4.698   2.871   1.892  1.1835 -0.6307  0.5141
  110TCq2    C1 1673   0.554   3.230   2.013  0.2529  0.1811 -0.5355
  110TCq2    O2 1674   0.631   3.169   2.083 -0.4016  0.0924 -0.8639
  110TCq2    C2 1675   0.571   3.367   1.972 -0.0957  0.2775 -0.6981
  110TCq2    C3 1676   0.673   3.429   2.042  0.0555  0.1701  0.6477
  110TCq2    C4 1677   0.706   3.554   2.009  0.6830 -0.3553 -0.4847
  110TCq2    C5 1678   0.659   3.607   1.894 -0.0798  0.7747 -0.3877
  110TCq2    C6 1679   0.561   3.546   1.828  0.5048  0.3074 -0.4177
  110TCq2    C7 1680   0.512   3.426   1.865  0.3097 -0.5832 -0.2337
  110TCq2    C8 1681   0.497   3.593   1.703  0.2710 -0.0981  0.4057
  110TCq2    O4 1682   0.381   3.556   1.668  0.0577 -0.3119  0.3471
  110TCq2    C9 1683   0.834   3.608   2.065 -0.5870 -0.1951  0.5063
  110TCq2    O5 1684   0.885   3.528   2.146  0.2684 -0.1241 -0.1632
  110TCq2    O6 1685   0.894   3.705   2.016 -0.2863 -0.2991 -0.8931
  110TCq2    H2 1686   0.724   3.368   2.116  1.5111 -1.0263 -1.3320
  110TCq2    H3 1687   0.696   3.705   1.864  0.4109  1.1010  1.2927
  110TCq2    H4 1688   0.443   3.378   1.797 -2.5688  0.3116  2.0315
  111TMC2    C1 1689   0.289   3.680  11.099 -0.2882  0.1205  0.0416
  111TMC2    C2 1690   0.351   3.797  11.069 -0.2531  0.5745 -0.4485
  111TMC2    C3 1691   0.488   3.802  11.084 -0.2674  0.1614 -0.5946
  111TMC2    C4 1692   0.354   3.564  11.149 -0.3507 -0.3935 -0.3285
  111TMC2    C5 1693   0.487   3.569  11.151 -0.0821  0.2778  0.5779
  111TMC2    C6 1694   0.555   3.687  11.121  0.1057 -0.2398 -0.2945
  111TMC2     C 1695   0.146   3.680  11.072 -1.0593 -0.7539  0.1732
  111TMC2     O 1696   0.114   3.773  10.998  0.2951  0.0148 -0.1545
  111TMC2     H 1697   0.295   3.884  11.036 -0.3025  0.4372 -0.7311
  111TMC2    H1 1698   0.302   3.474  11.182 -0.3502 -0.3064 -0.0885
  111TMC2    H2 1699   0.662   3.682  11.135 -0.3618  1.1292  3.8065
  111TMC2    C7 1700   0.556   3.441  11.174  0.1026 -0.4631 -0.0568
  111TMC2    C8 1701   0.557   3.928  11.091  0.4688  0.3297 -1.0845
  111TMC2    O1 1702   0.655   3.409  11.103 -0.4015 -0.0553 -0.2235
  111TMC2    O2 1703   0.513   4.042  11.108 -0.6746  0.2174 -0.3791
  111TMC2    O5 1704   0.688   3.900  11.061 -0.0081  0.1763 -0.2621
  111TMC2    H5 1705   0.704   3.807  11.034 -1.1454 -0.0475 -0.1854
  112MPD2     C 1706   4.379   3.539  11.146  0.1896 -0.2085 -0.4587
  112MPD2    C1 1707   4.439   3.603  11.035 -0.7164  0.8691  0.3274
  112MPD2    C2 1708   4.579   3.621  11.038 -0.1872 -0.2374  0.2708
  112MPD2    C3 1709   4.652   3.582  11.144 -0.7600  0.1537 -1.1358
  112MPD2    C4 1710   4.592   3.541  11.261  0.5362 -0.0813 -0.1027
  112MPD2    C5 1711   4.453   3.519  11.262 -0.1917  0.2694  0.5640
  112MPD2     H 1712   4.624   3.657  10.946  0.6310 -0.3888  0.6130
  112MPD2    H1 1713   4.643   3.531  11.356 -1.1228  1.5044  0.9555
  112MPD2    H2 1714   4.271   3.525  11.153  0.3554 -2.1954 -1.8608
  112MPD2    H3 1715   4.401   3.479  11.348  2.2581 -0.7225  1.5713
  112MPD2     N 1716   0.066   3.602  11.154 -0.0243 -0.3758 -0.0279
  112MPD2    H5 1717   0.114   3.545  11.223 -1.7452 -0.3376  1.2189
  112MPD2    N1 1718   4.367   3.642  10.916  0.4354 -0.2865  0.0889
  112MPD2    H7 1719   4.416   3.691  10.842 -2.8756  0.9538 -1.2506
  113MPD2     C 1720   3.360   0.653   1.281 -0.5819  0.5355 -0.5824
  113MPD2    C1 1721   3.245   0.705   1.235 -0.5017 -0.1041  0.7449
  113MPD2    C2 1722   3.209   0.680   1.103  0.5166  0.4322 -0.2062
  113MPD2    C3 1723   3.289   0.602   1.022  0.3208 -0.5684 -0.0738
  113MPD2    C4 1724   3.401   0.541   1.074 -0.2700 -0.1641 -0.1729
  113MPD2    C5 1725   3.430   0.559   1.204 -0.3110  0.4575  0.1064
  113MPD2     H 1726   3.120   0.725   1.062  0.5520 -0.7146 -1.5386
  113MPD2    H1 1727   3.457   0.470   1.015  0.4855 -0.3313  0.7569
  113MPD2    H2 1728   3.395   0.661   1.383  1.0086  1.6344 -1.2245
  113MPD2    H3 1729   3.512   0.507   1.253 -1.2980 -0.9953  0.2209
  113MPD2     N 1730   3.248   0.577   0.885 -0.2465 -0.1103 -0.7430
  113MPD2    H5 1731   3.314   0.520   0.833 -0.8194 -1.2779 -0.1772
  113MPD2    N1 1732   3.180   0.801   1.313  0.3145 -0.0118  0.2897
  113MPD2    H7 1733   3.110   0.859   1.269 -0.1305  1.1908  2.5664
  114TCq2    C1 1734   3.130   0.602   0.822  0.4371  0.4429 -0.9810
  114TCq2    O2 1735   3.027   0.649   0.869 -0.6990 -0.0401  0.4669
  114TCq2    C2 1736   3.120   0.554   0.682 -0.2990 -0.0786  0.9158
  114TCq2    C3 1737   3.226   0.509   0.619 -0.1346  0.3449  0.4596
  114TCq2    C4 1738   3.220   0.468   0.494 -0.2570  0.4601  0.7963
  114TCq2    C5 1739   3.105   0.473   0.422  0.1614 -0.1086 -0.1901
  114TCq2    C6 1740   2.990   0.506   0.495  0.6979  1.1151  0.0845
  114TCq2    C7 1741   2.995   0.545   0.628 -0.3624 -0.3779 -0.0199
  114TCq2    C8 1742   2.861   0.478   0.430 -0.6914  0.2521 -0.8718
  114TCq2    O4 1743   2.843   0.485   0.310 -0.2640 -0.2450  0.3283
  114TCq2    C9 1744   3.351   0.449   0.434  0.0321  0.0069 -0.3810
  114TCq2    O5 1745   3.362   0.458   0.313  0.4320 -0.0005  0.5038
  114TCq2    O6 1746   3.452   0.449   0.514 -0.1109  0.4248 -0.5641
  114TCq2    H2 1747   3.323   0.527   0.664  0.1059  0.9645 -0.3038
  114TCq2    H3 1748   3.101   0.435   0.320  1.4413  1.8923 -0.9780
  114TCq2    H4 1749   2.906   0.583   0.679 -2.2274 -1.6469 -2.3441
  115TMC2    C1 1750   3.748   3.433   0.030  0.3763 -0.2818 -0.9243
  115TMC2    C2 1751   3.878   3.426   0.074 -0.2891  0.1158  0.0736
  115TMC2    C3 1752   3.958   3.543   0.073  0.4072 -0.4562  0.0760
  115TMC2    C4 1753   3.694   3.542  17.681  0.0378  0.2492  0.0275
  115TMC2    C5 1754   3.778   3.643  17.647 -0.4790  0.0870 -0.4975
  115TMC2    C6 1755   3.910   3.648  17.690 -0.4857  0.5856 -0.1235
  115TMC2     C 1756   3.658   3.315   0.029  0.1710 -0.3880 -0.1500
  115TMC2     O 1757   3.540   3.337   0.017 -0.3263 -0.3145  0.3611
  115TMC2     H 1758   3.926   3.335   0.108 -0.8803 -0.1032  0.3304
  115TMC2    H1 1759   3.589   3.549  17.655  0.8498 -1.1215 -3.5770
  115TMC2    H2 1760   3.985   3.725  17.674  0.0020  0.1469  0.0570
  115TMC2    C7 1761   3.722   3.740  17.552 -0.1052 -0.2752  0.5813
  115TMC2    C8 1762   4.094   3.529   0.104 -0.2843  0.9334 -0.9526
  115TMC2    O1 1763   3.600   3.744  17.550  0.7191 -0.2342  0.5777
  115TMC2    O2 1764   4.162   3.425   0.098 -0.0501 -0.2081  0.2710
  115TMC2    O5 1765   4.139   3.642   0.154  0.0986  0.3756  0.1976
  115TMC2    H5 1766   4.070   3.712   0.154 -1.8801 -1.5397  1.9462
  116MPD2     C 1767   3.557   2.817   0.005  1.1205  0.6820 -0.6757
  116MPD2    C1 1768   3.482   2.926  17.657  0.2645 -0.1658 -0.2333
  116MPD2    C2 1769   3.529   3.050  17.683 -0.2278  0.0055  0.0126
  116MPD2    C3 1770   3.654   3.064   0.049  0.1727  0.3174  0.8738
  116MPD2    C4 1771   3.728   2.959   0.095 -1.1072  0.1028  0.1998
  116MPD2    C5 1772   3.678   2.837   0.068 -0.5799  0.6861  0.2538
  116MPD2     H 1773   3.476   3.137  17.647 -0.2341 -0.9946 -2.4231
  116MPD2    H1 1774   3.823   2.973   0.145 -0.0473 -0.7962 -1.5532
  116MPD2    H2 1775   3.524   2.717  17.676 -0.6291  1.1652 -0.3180
  116MPD2    H3 1776   3.734   2.756   0.113  1.5256  1.2678 -1.3505
  116MPD2     N 1777   3.715   3.197   0.071 -0.3090  0.1789  0.4189
  116MPD2    H5 1778   3.812   3.197   0.101  0.6114 -3.9115 -2.4700
  116MPD2    N1 1779   3.372   2.901  17.581 -0.1445 -0.4742  0.4630
  116MPD2    H7 1780   3.348   2.805  17.558 -1.0740 -0.1398  0.0250
  117TMC2    C1 1781   2.060   0.362  13.397 -0.3676 -0.1252  0.1558
  117TMC2    C2 1782   2.088   0.294  13.279 -0.0820  0.0424 -0.0099
  117TMC2    C3 1783   2.215   0.300  13.232 -0.4238 -1.3092  0.1957
  117TMC2    C4 1784   2.151   0.436  13.469  0.0055 -0.0658  0.1708
  117TMC2    C5 1785   2.280   0.434  13.417 -0.0388 -0.4214  0.8586
  117TMC2    C6 1786   2.314   0.374  13.296  0.2301  0.0410 -0.3354
  117TMC2     C 1787   1.934   0.353  13.457  0.1745 -0.5545  0.0087
  117TMC2     O 1788   1.871   0.248  13.431  0.3551 -0.0529  0.2028
  117TMC2     H 1789   2.012   0.240  13.224 -0.5310 -0.7131  1.3733
  117TMC2    H1 1790   2.126   0.487  13.561  1.9310 -0.6425  1.0055
  117TMC2    H2 1791   2.417   0.384  13.261  0.6773 -3.0057  0.0744
  117TMC2    C7 1792   2.386   0.519  13.477  0.1187  0.2605  0.0473
  117TMC2    C8 1793   2.232   0.258  13.094  0.1340  0.0202  0.0778
  117TMC2    O1 1794   2.500   0.498  13.439 -0.4804  0.3486 -0.0362
  117TMC2    O2 1795   2.135   0.223  13.029  0.0205  0.0325 -0.5921
  117TMC2    O5 1796   2.333   0.336  13.049  0.1296  0.1494  0.0191
  117TMC2    H5 1797   2.333   0.344  12.951  0.4738  0.6895  0.0593
  118MPD2     C 1798   2.355   0.806  13.705  0.4633  0.0643 -0.3343
  118MPD2    C1 1799   2.425   0.712  13.627 -0.6373 -0.3857  0.5099
  118MPD2    C2 1800   2.561   0.718  13.609  0.2382  0.0503 -0.7916
  118MPD2    C3 1801   2.643   0.819  13.673  0.4264 -0.0607  0.0001
  118MPD2    C4 1802   2.576   0.905  13.757  0.6953  0.5120 -0.5598
  118MPD2    C5 1803   2.437   0.899  13.771  0.7277  0.5828 -0.0952
  118MPD2     H 1804   2.615   0.655  13.539  2.4801 -0.6594  1.5531
  118MPD2    H1 1805   2.632   0.980  13.813  1.8282 -0.9757  0.2752
  118MPD2    H2 1806   2.249   0.792  13.723  0.9691 -2.1630  0.9629
  118MPD2    H3 1807   2.391   0.968  13.840  2.7697  0.9969  0.8593
  118MPD2     N 1808   2.779   0.840  13.657  0.4877  0.5573  0.5290
  118MPD2    H5 1809   2.816   0.915  13.715  0.4770 -0.3040  1.6411
  118MPD2    N1 1810   2.343   0.614  13.563  0.3349  0.0524  0.1437
  118MPD2    H7 1811   2.243   0.612  13.582  0.4330  2.7099  0.9283
  119MPD2     C 1812   0.737   2.181  13.243  0.6056 -0.3371  0.4489
  119MPD2    C1 1813   0.620   2.131  13.304  0.7180  0.7133  0.0227
  119MPD2    C2 1814   0.572   2.011  13.258 -0.0505  0.3296 -0.1744
  119MPD2    C3 1815   0.634   1.940  13.161 -0.5537 -0.3041 -0.2754
  119MPD2    C4 1816   0.744   1.995  13.096 -0.0818  0.5836 -0.1806
  119MPD2    C5 1817   0.799   2.114  13.146 -0.0499 -0.2393 -0.0444
  119MPD2     H 1818   0.479   1.974  13.299  0.0412  0.7504  0.4224
  119MPD2    H1 1819   0.804   1.946  13.020  0.6111 -2.5851  2.3869
  119MPD2    H2 1820   0.777   2.279  13.264  1.0762 -0.2700 -0.7503
  119MPD2    H3 1821   0.883   2.157  13.093 -1.2251  0.0003 -1.7168
  119MPD2     N 1822   0.597   1.816  13.103 -0.6501 -0.3860 -0.3360
  119MPD2    H5 1823   0.654   1.773  13.031  0.6670 -0.0335  0.5021
  119MPD2    N1 1824   0.567   2.214  13.406 -0.1582 -0.1102  0.0930
  119MPD2    H7 1825   0.623   2.295  13.432  0.8028 -0.9276  0.5983
  120TCq2    C1 1826   0.484   1.746  13.127 -0.1727  0.4805 -0.3668
  120TCq2    O2 1827   0.393   1.775  13.196 -0.4311 -0.6736 -0.1700
  120TCq2    C2 1828   0.484   1.620  13.056  0.1179  0.0783  0.1598
  120TCq2    C3 1829   0.568   1.593  12.950 -0.6008  1.1964 -0.6733
  120TCq2    C4 1830   0.571   1.467  12.896 -0.0081 -0.4864  0.5770
  120TCq2    C5 1831   0.488   1.372  12.946  0.3449 -1.1187  0.3006
  120TCq2    C6 1832   0.409   1.402  13.053 -0.4148  0.0999 -0.2616
  120TCq2    C7 1833   0.408   1.526  13.114 -0.7094  0.1150 -0.3601
  120TCq2    C8 1834   0.360   1.288  13.134 -0.3191  0.2638  0.6691
  120TCq2    O4 1835   0.351   1.180  13.078  1.0308  0.0608 -0.1185
  120TCq2    C9 1836   0.672   1.442  12.798 -0.4784 -1.5589 -0.4761
  120TCq2    O5 1837   0.753   1.534  12.778 -0.0254  0.3345  0.2534
  120TCq2    O6 1838   0.701   1.319  12.780 -0.1324 -0.2941  0.4172
  120TCq2    H2 1839   0.641   1.668  12.921 -2.7240  3.2826 -0.6875
  120TCq2    H3 1840   0.495   1.272  12.904 -2.4291 -1.7460  1.3915
  120TCq2    H4 1841   0.341   1.559  13.192  0.0278 -0.3492  0.4596
  121TMC2    C1 1842   1.534   3.382  13.990  0.4096 -0.1131  0.1874
  121TMC2    C2 1843   1.450   3.330  14.084  0.5249 -0.0313 -0.0281
  121TMC2    C3 1844   1.378   3.219  14.057  0.9128  0.4460  0.1146
  121TMC2    C4 1845   1.561   3.315  13.870  0.8185  0.1332  0.3406
  121TMC2    C5 1846   1.482   3.206  13.846 -0.8637  0.3003 -0.0177
  121TMC2    C6 1847   1.396   3.153  13.938 -0.2791 -0.0903 -0.6760
  121TMC2     C 1848   1.606   3.509  14.014  0.0051 -0.0090 -0.5724
  121TMC2     O 1849   1.629   3.531  14.131  0.0651  0.3425 -0.4445
  121TMC2     H 1850   1.429   3.377  14.179  1.6844  1.1832 -0.3691
  121TMC2    H1 1851   1.630   3.356  13.797  2.5395 -1.9014  0.8415
  121TMC2    H2 1852   1.335   3.066  13.918  1.0850 -1.4792  1.1801
  121TMC2    C7 1853   1.475   3.176  13.707  0.6682  0.9991  0.8833
  121TMC2    C8 1854   1.272   3.171  14.143 -0.1082  0.2551 -0.1801
  121TMC2    O1 1855   1.559   3.223  13.631 -0.3611  0.1603 -0.2096
  121TMC2    O2 1856   1.262   3.182  14.261 -0.5888  0.1851  0.0514
  121TMC2    O5 1857   1.163   3.210  14.070  0.4087 -0.3038 -0.3896
  121TMC2    H5 1858   1.185   3.244  13.980 -1.2759 -0.5177 -0.8776
  122MPD2     C 1859   1.810   3.718  14.004 -0.3319 -0.0085 -0.1905
  122MPD2    C1 1860   1.756   3.661  13.893  0.5692  0.2935 -0.4282
  122MPD2    C2 1861   1.802   3.697  13.770  0.0141  0.8480  0.6549
  122MPD2    C3 1862   1.901   3.785  13.747  0.0738 -0.1824 -0.7290
  122MPD2    C4 1863   1.952   3.848  13.855 -0.2122 -0.5437 -0.1538
  122MPD2    C5 1864   1.911   3.805  13.980 -0.4161 -0.1919  0.1324
  122MPD2     H 1865   1.748   3.648  13.689  0.0807  0.1071  1.0526
  122MPD2    H1 1866   2.042   3.907  13.843 -0.1629 -0.5222  0.3503
  122MPD2    H2 1867   1.797   3.674  14.102  3.4741 -0.7439 -0.0056
  122MPD2    H3 1868   1.966   3.841  14.065 -1.4063 -0.2025  0.7747
  122MPD2     N 1869   1.952   3.814  13.617  0.1998  0.1882  1.0237
  122MPD2    H5 1870   2.028   3.881  13.616 -0.2923  0.7613  1.4476
  122MPD2    N1 1871   1.650   3.565  13.900 -0.1978  0.1407 -0.0376
  122MPD2    H7 1872   1.613   3.533  13.811 -1.3233  1.9340 -0.2172
  123MPD2     C 1873   0.766   1.733   9.860 -0.4441 -0.8504 -0.8513
  123MPD2    C1 1874   0.658   1.758   9.773  0.1156  0.2947  0.4689
  123MPD2    C2 1875   0.634   1.886   9.726 -0.6616 -0.0322 -0.1762
  123MPD2    C3 1876   0.703   1.995   9.772  0.0533  0.2964 -0.5945
  123MPD2    C4 1877   0.796   1.973   9.868 -0.6533 -0.8506  0.9456
  123MPD2    C5 1878   0.831   1.841   9.900 -0.1023 -0.0439  0.3908
  123MPD2     H 1879   0.569   1.914   9.644  0.3194 -2.8339 -1.9129
  123MPD2    H1 1880   0.855   2.051   9.914 -0.0077 -0.0532 -1.2252
  123MPD2    H2 1881   0.788   1.630   9.887 -1.7971 -0.9026  0.0911
  123MPD2    H3 1882   0.919   1.829   9.963  0.1892  1.0259  0.1889
  123MPD2     N 1883   0.682   2.122   9.717 -0.6456 -0.1273  0.3738
  123MPD2    H5 1884   0.607   2.123   9.649 -1.0673  0.8761  0.8491
  123MPD2    N1 1885   0.586   1.645   9.731 -0.1483 -0.2009 -0.3500
  123MPD2    H7 1886   0.623   1.558   9.768 -1.9222 -1.2122 -0.9565
  124TCq2    C1 1887   0.761   2.234   9.735 -0.1123 -0.9155 -0.0318
  124TCq2    O2 1888   0.851   2.261   9.812 -1.0977  0.0022 -1.0309
  124TCq2    C2 1889   0.733   2.317   9.621 -0.0062  0.4774  0.2181
  124TCq2    C3 1890   0.715   2.451   9.642 -0.1862 -0.1927  0.2853
  124TCq2    C4 1891   0.703   2.535   9.531 -0.0056  0.4096 -0.4911
  124TCq2    C5 1892   0.694   2.481   9.403 -0.0521 -0.0998  0.2907
  124TCq2    C6 1893   0.700   2.345   9.388  0.3698  0.2896  0.0903
  124TCq2    C7 1894   0.723   2.262   9.495  0.1757  0.2243  0.3860
  124TCq2    C8 1895   0.624   2.287   9.270 -0.6394  0.4065  0.4626
  124TCq2    O4 1896   0.590   2.174   9.300 -0.0919 -0.0232 -0.3148
  124TCq2    C9 1897   0.687   2.679   9.558  0.4578  0.1651 -0.3103
  124TCq2    O5 1898   0.716   2.717   9.672 -0.2902 -0.3781  0.3031
  124TCq2    O6 1899   0.678   2.753   9.459 -0.2141  0.4208  0.5793
  124TCq2    H2 1900   0.732   2.497   9.738  0.8769  1.7319 -0.8301
  124TCq2    H3 1901   0.673   2.547   9.319  2.4660  1.0495  0.5768
  124TCq2    H4 1902   0.740   2.156   9.485  0.6958  0.3071  0.3865
  125TMC2    C1 1903   0.937   4.000  10.421  0.4010  0.3361  0.4458
  125TMC2    C2 1904   0.899   3.880  10.369 -0.4722 -0.8074 -0.8694
  125TMC2    C3 1905   0.978   3.816  10.281 -0.2450 -0.0766 -0.1539
  125TMC2    C4 1906   1.050   4.068  10.385  0.3207 -0.1889 -0.0824
  125TMC2    C5 1907   1.134   3.998  10.295 -0.2288  0.4664 -0.3497
  125TMC2    C6 1908   1.092   3.879  10.246  0.3170 -0.5194 -0.1685
  125TMC2     C 1909   0.856   4.040  10.536 -0.4972 -0.4069  0.4354
  125TMC2     O 1910   0.739   4.011  10.539  0.0430 -0.2810 -0.1456
  125TMC2     H 1911   0.807   3.836  10.407 -1.4679  0.4684 -1.8026
  125TMC2    H1 1912   1.064   4.173  10.409 -0.3914  0.2101 -1.4300
  125TMC2    H2 1913   1.170   3.827  10.193  0.1339  0.9781 -1.9079
  125TMC2    C7 1914   1.238   4.077  10.224  0.0639  0.1660  0.6968
  125TMC2    C8 1915   0.941   3.696  10.213 -0.4521 -0.3781  0.0165
  125TMC2    O1 1916   1.243   4.198  10.251 -0.1575  0.5648 -0.1452
  125TMC2    O2 1917   0.969   3.667  10.096  0.4344 -0.8323  0.2601
  125TMC2    O5 1918   0.850   3.641  10.287 -0.3842 -0.1619  0.1756
  125TMC2    H5 1919   0.877   3.655  10.380  1.4842  0.5177 -0.4668
  126MPD1     C 1920   0.799   4.305  10.982  0.8473  0.0398 -0.0922
  126MPD1    C1 1921   0.935   4.300  10.954 -0.1250 -0.3920  0.6042
  126MPD1    C2 1922   0.976   4.238  10.839  0.0137 -0.0948  0.3182
  126MPD1    C3 1923   0.890   4.167  10.755  0.1523 -0.7609 -0.3933
  126MPD1    C4 1924   0.755   4.173  10.789 -0.1968  0.3473 -0.0505
  126MPD1    C5 1925   0.711   4.248  10.890 -0.0626 -0.3907 -1.2393
  126MPD1     H 1926   1.078   4.243  10.803 -0.1511 -1.2331 -0.2967
  126MPD1    H1 1927   0.680   4.127  10.725 -0.8337  0.1700  0.8345
  126MPD1    H2 1928   0.754   4.351  11.070 -1.7838  0.7785 -1.8419
  126MPD1    H3 1929   0.604   4.259  10.906  0.5570  1.9060  1.3216
  126MPD1     N 1930   0.934   4.110  10.632 -0.8015 -0.2375 -0.5040
  126MPD1    H5 1931   1.035   4.111  10.624 -0.7246  3.6575  0.9717
  126MPD1    N1 1932   1.028   4.377  11.028  0.2593  1.0582 -0.6856
  126MPD1    H6 1933   1.116   4.325  11.028 -0.6616 -0.4846  1.2543
  126MPD1    H7 1934   0.992   4.368  11.122  1.1309  2.3932 -0.2194
  127MPD2     C 1935   2.603   2.566   8.513 -0.5046 -0.0312 -0.2611
  127MPD2    C1 1936   2.590   2.558   8.651 -0.5630  0.3861 -0.7963
  127MPD2    C2 1937   2.566   2.673   8.722 -0.4178  0.2148 -0.0035
  127MPD2    C3 1938   2.549   2.798   8.667  0.2951 -0.0870  0.3832
  127MPD2    C4 1939   2.546   2.795   8.529 -0.1668  0.4518 -0.3656
  127MPD2    C5 1940   2.582   2.685   8.455 -0.0034 -0.4737  0.2361
  127MPD2     H 1941   2.559   2.672   8.830 -0.0598 -0.2408  0.0153
  127MPD2    H1 1942   2.524   2.889   8.481 -0.3639 -0.1687 -1.5053
  127MPD2    H2 1943   2.624   2.474   8.459 -0.8650 -0.5853  0.5473
  127MPD2    H3 1944   2.565   2.688   8.348 -0.4451  3.4342  0.4120
  127MPD2     N 1945   2.527   2.907   8.755  0.4763  0.6080  0.1537
  127MPD2    H5 1946   2.547   2.894   8.854 -0.9605 -3.7217 -0.1347
  127MPD2    N1 1947   2.599   2.428   8.711  1.1396 -0.5144 -0.0938
  127MPD2    H7 1948   2.597   2.356   8.639  1.6985 -0.1571 -0.4630
  128TCq2    C1 1949   2.582   2.390   8.837 -0.2073 -0.1761  0.3271
  128TCq2    O2 1950   2.572   2.459   8.937  0.3339 -0.3319  0.3272
  128TCq2    C2 1951   2.545   2.247   8.868 -0.5222 -0.1355 -0.4647
  128TCq2    C3 1952   2.496   2.164   8.767 -0.6689  0.4633  0.2530
  128TCq2    C4 1953   2.459   2.034   8.809 -0.5805  0.0997  0.6277
  128TCq2    C5 1954   2.470   1.984   8.937 -0.0583  0.0796 -0.5731
  128TCq2    C6 1955   2.503   2.078   9.026 -0.3030  1.0575 -0.6864
  128TCq2    C7 1956   2.549   2.201   8.998 -0.0426  0.0416  0.4309
  128TCq2    C8 1957   2.469   2.055   9.164  0.6541 -0.4308  0.6851
  128TCq2    O4 1958   2.518   2.115   9.257 -0.0013  0.0428 -0.3717
  128TCq2    C9 1959   2.411   1.940   8.717  0.0141 -0.3575 -0.7103
  128TCq2    O5 1960   2.336   1.975   8.622  0.0456  0.6854  0.6160
  128TCq2    O6 1961   2.468   1.835   8.722  0.1459 -0.4640 -0.5146
  128TCq2    H2 1962   2.491   2.197   8.664 -0.6965  2.0262  0.7494
  128TCq2    H3 1963   2.457   1.879   8.959 -0.2739  0.4498  1.0906
  128TCq2    H4 1964   2.578   2.272   9.074  3.9756  0.9389 -1.9134
  129MPD2     C 1965   0.292   3.367   1.110  0.0195 -0.1845 -0.0113
  129MPD2    C1 1966   0.411   3.384   1.180 -0.6026 -0.5076 -0.4058
  129MPD2    C2 1967   0.507   3.440   1.101 -0.9620 -0.5373  0.4079
  129MPD2    C3 1968   0.489   3.477   0.968 -0.8617  0.1243 -0.5079
  129MPD2    C4 1969   0.370   3.463   0.906  0.1609  0.1957 -0.1624
  129MPD2    C5 1970   0.273   3.402   0.979  0.3963  0.2510  0.3224
  129MPD2     H 1971   0.610   3.441   1.136 -0.3154 -0.4543 -1.4622
  129MPD2    H1 1972   0.362   3.502   0.805 -0.2915 -0.5217 -0.4076
  129MPD2    H2 1973   0.203   3.330   1.159 -0.6846 -0.6694 -1.6345
  129MPD2    H3 1974   0.172   3.399   0.940  1.6537 -1.6932 -2.7458
  129MPD2     N 1975   0.603   3.532   0.904  0.3780  0.2845  0.1344
  129MPD2    H5 1976   0.686   3.526   0.962  1.0905  1.7037 -0.7308
  129MPD2    N1 1977   0.439   3.350   1.309 -0.0976 -0.0205  0.3074
  129MPD2    H7 1978   0.537   3.358   1.335 -0.6306  2.9565  1.4716
  130TCq2    C1 1979   0.349   3.296   1.398  0.3549  0.1947 -0.5885
  130TCq2    O2 1980   0.229   3.269   1.379  0.3743  0.6492  0.6256
  130TCq2    C2 1981   0.412   3.230   1.507 -0.1456  0.4669  0.3616
  130TCq2    C3 1982   0.543   3.261   1.526  1.0195 -0.5409  0.1987
  130TCq2    C4 1983   0.618   3.179   1.612 -0.1015 -0.7599 -0.0811
  130TCq2    C5 1984   0.564   3.059   1.661 -0.4241 -0.3082 -0.5704
  130TCq2    C6 1985   0.432   3.028   1.621 -0.3842 -0.7003 -0.7377
  130TCq2    C7 1986   0.353   3.122   1.557  0.1374  0.0810 -0.3998
  130TCq2    C8 1987   0.380   2.895   1.647  0.2667  0.1738 -0.0610
  130TCq2    O4 1988   0.278   2.865   1.589 -0.2338  0.1468  0.1562
  130TCq2    C9 1989   0.750   3.219   1.661 -0.2374 -0.0079 -0.5739
  130TCq2    O5 1990   0.805   3.148   1.749 -0.5207  0.0102  0.4148
  130TCq2    O6 1991   0.802   3.317   1.601 -0.4106  0.0332 -0.1102
  130TCq2    H2 1992   0.596   3.347   1.488  1.9149 -0.9759  0.4529
  130TCq2    H3 1993   0.627   2.993   1.719  0.2657 -1.1975 -2.3398
  130TCq2    H4 1994   0.252   3.093   1.528  0.5686  0.6189 -2.4336
  131MPD2     C 1995   4.679   2.064   9.311 -0.3930  0.4923 -0.0358
  131MPD2    C1 1996   0.086   2.069   9.359  0.2174 -0.3753 -0.1997
  131MPD2    C2 1997   0.152   1.959   9.414  0.7244 -0.5022  0.3164
  131MPD2    C3 1998   0.082   1.837   9.430  0.2970  0.5638  0.3277
  131MPD2    C4 1999   4.668   1.837   9.402 -0.0903  0.1451 -0.3138
  131MPD2    C5 2000   4.606   1.953   9.349  0.4453  0.0694  0.1923
  131MPD2     H 2001   0.257   1.961   9.440  0.7176 -1.2607  0.3988
  131MPD2    H1 2002   4.607   1.748   9.406  0.2229 -0.0336  0.3254
  131MPD2    H2 2003   4.632   2.149   9.264 -1.1449 -0.5769 -1.1995
  131MPD2    H3 2004   4.501   1.957   9.323  0.3927  0.3248  0.4510
  131MPD2     N 2005   0.145   1.717   9.474 -0.4768  0.4273  0.5305
  131MPD2    H5 2006   0.247   1.713   9.480 -0.5524 -0.6975  1.0537
  131MPD2    N1 2007   0.165   2.189   9.355 -0.7685 -0.8126  0.1790
  131MPD2    H7 2008   0.258   2.186   9.396 -1.2911 -0.0529  1.4225
  132TCq2    C1 2009   0.361   2.722   9.229  0.0063 -0.5289  0.3159
  132TCq2    O2 2010   0.296   2.736   9.129  0.9103  0.4223 -0.0253
  132TCq2    C2 2011   0.316   2.616   9.324  0.4410  0.4054 -0.2736
  132TCq2    C3 2012   0.368   2.618   9.457 -0.3926 -0.2973 -0.4005
  132TCq2    C4 2013   0.331   2.513   9.530  0.5538  0.4149 -1.4024
  132TCq2    C5 2014   0.249   2.414   9.486 -0.1318 -0.4345  0.0788
  132TCq2    C6 2015   0.197   2.420   9.361 -0.5884  0.0220 -0.0347
  132TCq2    C7 2016   0.228   2.521   9.275  0.5107 -1.0973  0.5006
  132TCq2    C8 2017   0.129   2.314   9.303  0.4083 -0.2008 -0.1129
  132TCq2    O4 2018   0.053   2.329   9.210  0.1213 -0.3522 -0.2383
  132TCq2    C9 2019   0.347   2.524   9.672 -0.0970  0.4114  0.2750
  132TCq2    O5 2020   0.311   2.425   9.735  0.2659  0.0538 -0.4076
  132TCq2    O6 2021   0.378   2.633   9.726  0.1399 -0.1039  0.6242
  132TCq2    H2 2022   0.422   2.700   9.504 -2.0732 -0.7915  2.3203
  132TCq2    H3 2023   0.198   2.356   9.563 -2.5553  0.0173 -1.1940
  132TCq2    H4 2024   0.188   2.530   9.175 -0.0940 -1.9630  0.6638
  133MPD2     C 2025   4.542   3.479   8.787 -0.0959 -0.3165 -0.4566
  133MPD2    C1 2026   4.599   3.391   8.872  0.6856  0.1205 -0.4684
  133MPD2    C2 2027   4.567   3.263   8.850 -0.3271  0.0662 -0.2619
  133MPD2    C3 2028   4.480   3.223   8.750  0.6233  0.1028  0.7480
  133MPD2    C4 2029   4.431   3.313   8.661 -0.0425  0.1695  0.0044
  133MPD2    C5 2030   4.458   3.445   8.672  0.4736  0.6334 -0.1875
  133MPD2     H 2031   4.598   3.186   8.920 -1.8903 -1.2447 -0.9983
  133MPD2    H1 2032   4.375   3.289   8.571  0.6942 -0.6841 -0.2374
  133MPD2    H2 2033   4.572   3.581   8.807 -2.3289  0.3562 -0.5455
  133MPD2    H3 2034   4.419   3.519   8.604 -0.2113  0.6565  0.2303
  133MPD2     N 2035   4.430   3.087   8.730 -0.0677  0.1717  0.0289
  133MPD2    H5 2036   4.350   3.077   8.668  2.2994  0.3251 -3.0550
  133MPD2    N1 2037   4.677   3.442   8.981  0.5021  0.9283  0.3041
  133MPD2    H7 2038   4.674   3.540   9.007 -0.1474  0.7549  0.8871
  134TCq2    C1 2039   0.017   3.368   9.080  0.7195  0.1246 -0.4255
  134TCq2    O2 2040   0.023   3.247   9.106  0.4626  0.1808 -0.2734
  134TCq2    C2 2041   0.080   3.452   9.181  0.4016 -0.1122  0.5551
  134TCq2    C3 2042   0.173   3.547   9.150  0.4253 -0.6591 -0.3959
  134TCq2    C4 2043   0.244   3.608   9.252 -0.5111  0.5434 -0.9064
  134TCq2    C5 2044   0.229   3.583   9.389 -0.8219 -0.4545 -0.3835
  134TCq2    C6 2045   0.142   3.477   9.409  0.0435  0.0617  0.7076
  134TCq2    C7 2046   0.060   3.422   9.312 -0.0379  0.0637 -0.7790
  134TCq2    C8 2047   0.106   3.441   9.546  0.3065  0.1077 -0.4586
  134TCq2    O4 2048   0.021   3.357   9.558  0.3837 -0.1227  0.0106
  134TCq2    C9 2049   0.351   3.695   9.221  0.4191 -0.2537 -0.6261
  134TCq2    O5 2050   0.375   3.711   9.105 -0.0781 -0.3896  0.7833
  134TCq2    O6 2051   0.416   3.754   9.314  0.5979 -0.5879  0.6437
  134TCq2    H2 2052   0.175   3.583   9.047 -2.0474  1.3406  0.2413
  134TCq2    H3 2053   0.285   3.634   9.466 -0.3196  0.3141 -1.2556
  134TCq2    H4 2054   4.719   3.340   9.340  0.8342 -0.5074 -0.4354
  135MPD2     C 2055   2.368   4.073   8.869 -0.9220 -0.1264  0.2622
  135MPD2    C1 2056   2.385   3.949   8.920  0.4914 -0.7325 -0.0403
  135MPD2    C2 2057   2.430   3.842   8.852  0.8463  0.0358  0.8004
  135MPD2    C3 2058   2.454   3.861   8.718 -0.2932 -0.5647  0.0277
  135MPD2    C4 2059   2.450   3.988   8.661 -0.4211  0.2984 -0.1912
  135MPD2    C5 2060   2.406   4.088   8.737 -0.0601  0.3342 -0.2998
  135MPD2     H 2061   2.441   3.742   8.892 -0.3629 -0.4042  0.0504
  135MPD2    H1 2062   2.456   4.002   8.553 -1.6903 -2.3326 -0.6068
  135MPD2    H2 2063   2.333   4.160   8.924  0.2317  1.4409 -1.4624
  135MPD2    H3 2064   2.385   4.185   8.693  0.1839  0.6571  0.3020
  135MPD2     N 2065   2.485   3.738   8.648 -0.2844  0.2130 -0.1223
  135MPD2    H5 2066   2.505   3.650   8.695 -0.0867  0.1908 -0.2476
  135MPD2    N1 2067   2.364   3.927   9.063 -0.6019 -0.2509 -0.3177
  135MPD2    H7 2068   2.387   3.832   9.088 -0.8090  0.2599  1.7910
  136TCq2    C1 2069   2.309   4.010   9.161  0.4161  0.7348 -0.7485
  136TCq2    O2 2070   2.266   4.123   9.150  0.2937  0.8413 -0.1642
  136TCq2    C2 2071   2.285   3.939   9.288 -0.3698 -0.1096  0.2880
  136TCq2    C3 2072   2.365   3.826   9.309  0.0189 -0.6457 -0.4610
  136TCq2    C4 2073   2.343   3.761   9.426  0.5500  0.2034 -0.0295
  136TCq2    C5 2074   2.249   3.806   9.521 -0.1259 -0.4696  0.6960
  136TCq2    C6 2075   2.173   3.912   9.489  0.4143 -1.1490 -0.7887
  136TCq2    C7 2076   2.189   3.982   9.371 -0.2682  0.6211  0.1233
  136TCq2    C8 2077   2.065   3.943   9.571 -0.0287 -0.3073  0.0631
  136TCq2    O4 2078   2.009   4.046   9.549  0.2051 -0.6358 -0.1849
  136TCq2    C9 2079   2.427   3.661   9.476 -0.4855 -0.1911 -0.0001
  136TCq2    O5 2080   2.396   3.610   9.582 -0.1992  0.1014  0.0883
  136TCq2    O6 2081   2.529   3.642   9.405 -0.2552 -0.0153  0.2568
  136TCq2    H2 2082   2.461   3.810   9.261  0.0470  0.4952 -0.7748
  136TCq2    H3 2083   2.240   3.762   9.619 -0.0348 -0.3475  0.7591
  136TCq2    H4 2084   2.125   4.068   9.352 -3.2193 -1.5960  0.1177
  137MPD2     C 2085   2.055   3.087   8.725 -0.8610  0.3863 -0.0903
  137MPD2    C1 2086   2.038   3.179   8.822 -0.3466  0.9749 -0.1705
  137MPD2    C2 2087   2.093   3.155   8.945 -0.6265 -0.0907 -0.0547
  137MPD2    C3 2088   2.167   3.037   8.971 -0.6049 -0.2868 -0.2294
  137MPD2    C4 2089   2.197   2.957   8.864  0.2599  0.1367  0.4668
  137MPD2    C5 2090   2.135   2.981   8.744 -0.7705  0.1337  0.0863
  137MPD2     H 2091   2.111   3.231   9.021  0.5196  1.1911 -1.6028
  137MPD2    H1 2092   2.271   2.878   8.869 -1.2189 -1.1928  1.4759
  137MPD2    H2 2093   2.003   3.106   8.632  0.2982  0.6384 -0.6952
  137MPD2    H3 2094   2.148   2.906   8.666  0.5520  0.1925  0.2536
  137MPD2     N 2095   2.220   3.008   9.095 -0.2449  0.2232 -0.4535
  137MPD2    H5 2096   2.190   3.057   9.178 -0.9812 -0.8072 -0.1200
  137MPD2    N1 2097   1.969   3.301   8.791  0.9139  0.5685  0.4036
  137MPD2    H7 2098   1.957   3.316   8.691  0.2687  1.5462  0.6388
  138TCq2    C1 2099   1.910   3.382   8.883  0.4508 -0.4998  0.5337
  138TCq2    O2 2100   1.905   3.362   8.999 -0.1462  0.2960  0.2295
  138TCq2    C2 2101   1.856   3.509   8.837  0.3110  0.2292 -0.0400
  138TCq2    C3 2102   1.876   3.550   8.709  0.6574  0.0515 -0.6973
  138TCq2    C4 2103   1.834   3.680   8.679 -0.0450  0.4223  0.3415
  138TCq2    C5 2104   1.766   3.758   8.764 -0.4497  0.1531  0.2504
  138TCq2    C6 2105   1.744   3.708   8.889  0.5007 -0.0235  0.8399
  138TCq2    C7 2106   1.790   3.586   8.927  0.1310 -0.6848  0.6555
  138TCq2    C8 2107   1.661   3.782   8.984  0.0341  0.0147 -0.4616
  138TCq2    O4 2108   1.633   3.896   8.954 -0.0826 -0.0494 -0.0175
  138TCq2    C9 2109   1.846   3.718   8.546 -1.0529 -0.1246  0.2076
  138TCq2    O5 2110   1.833   3.840   8.519  0.3890  0.3271 -0.2178
  138TCq2    O6 2111   1.861   3.625   8.462 -0.0176 -0.0602 -0.5174
  138TCq2    H2 2112   1.915   3.492   8.626  3.6101  1.6703 -0.4479
  138TCq2    H3 2113   1.749   3.861   8.736  1.3315  0.1430 -0.8271
  138TCq2    H4 2114   1.789   3.570   9.035 -1.5036 -0.7532  0.6276
  139TMC2    C1 2115   2.022   1.366  13.453  0.4925  0.2960 -0.4473
  139TMC2    C2 2116   2.070   1.356  13.578 -0.8457 -0.2829  0.0922
  139TMC2    C3 2117   2.035   1.449  13.666  0.6858  0.1831 -0.1468
  139TMC2    C4 2118   1.931   1.464  13.421 -0.3613  1.0423  0.0047
  139TMC2    C5 2119   1.899   1.559  13.515  0.4809 -0.8029  0.5083
  139TMC2    C6 2120   1.946   1.548  13.637  0.1325 -0.4649  0.0239
  139TMC2     C 2121   2.058   1.270  13.353 -0.3354  0.0130  0.3651
  139TMC2     O 2122   2.007   1.278  13.241  0.4843 -0.6239  0.0788
  139TMC2     H 2123   2.130   1.275  13.619 -0.7406  0.7367  1.9330
  139TMC2    H1 2124   1.909   1.483  13.316  1.8185 -0.6669 -0.7479
  139TMC2    H2 2125   1.907   1.605  13.720 -0.2495  0.0667 -0.5193
  139TMC2    C7 2126   1.813   1.668  13.470  0.1382  0.5824 -0.5031
  139TMC2    C8 2127   2.109   1.464  13.787  0.0711 -0.1611 -0.4073
  139TMC2    O1 2128   1.735   1.646  13.383  0.3326 -0.3245 -0.1471
  139TMC2    O2 2129   2.163   1.364  13.831  0.2405  0.1834  0.8741
  139TMC2    O5 2130   2.169   1.584  13.773  0.0156  0.2421  0.5371
  139TMC2    H5 2131   2.116   1.653  13.728 -2.7904 -2.7836 -0.8722
  140MPD2     C 2132   2.332   1.024  13.361  0.2064 -0.0018  0.7477
  140MPD2    C1 2133   2.208   1.069  13.331  0.0536  0.4608 -0.0483
  140MPD2    C2 2134   2.129   1.000  13.239 -0.3251  0.1756  0.6640
  140MPD2    C3 2135   2.184   0.883  13.180 -0.0765 -0.3517  1.0239
  140MPD2    C4 2136   2.314   0.836  13.217 -0.5282 -0.6667  0.1679
  140MPD2    C5 2137   2.387   0.914  13.304 -0.2361 -0.2828  0.1250
  140MPD2     H 2138   2.031   1.044  13.224  0.6073  2.4583  1.2844
  140MPD2    H1 2139   2.361   0.741  13.191 -0.0016 -0.3664  0.0219
  140MPD2    H2 2140   2.382   1.076  13.441  0.9820 -1.6500  1.3249
  140MPD2    H3 2141   2.479   0.875  13.347 -0.3785 -1.4343 -0.6141
  140MPD2     N 2142   2.106   0.810  13.094 -0.2791  0.0037  0.6332
  140MPD2    H5 2143   2.018   0.851  13.064  0.0940 -0.4911 -1.1722
  140MPD2    N1 2144   2.160   1.184  13.399 -0.5067 -0.0492 -0.3999
  140MPD2    H7 2145   2.219   1.222  13.472  0.5221 -1.0090 -0.7222
  141TCq2    C1 2146   1.782   2.231  14.147 -0.2541  0.1406 -0.3470
  141TCq2    O2 2147   1.892   2.223  14.092 -0.2909 -0.0876  0.5766
  141TCq2    C2 2148   1.782   2.182  14.286 -0.3124 -0.2919 -0.1403
  141TCq2    C3 2149   1.680   2.096  14.314  0.6173 -0.6443 -0.9035
  141TCq2    C4 2150   1.671   2.046  14.441  0.0773  0.5817  0.6115
  141TCq2    C5 2151   1.763   2.092  14.535 -0.8750 -0.0539  0.1615
  141TCq2    C6 2152   1.859   2.186  14.505 -0.1711  0.9800  1.0840
  141TCq2    C7 2153   1.876   2.228  14.379  0.2008 -0.6886 -0.8965
  141TCq2    C8 2154   1.893   2.270  14.618  0.5745  0.9213  0.1726
  141TCq2    O4 2155   1.829   2.257  14.721  0.2027  0.5422 -0.1292
  141TCq2    C9 2156   1.583   1.945  14.482  0.0023  0.3403  0.0182
  141TCq2    O5 2157   1.475   1.942  14.414  0.6916 -0.1359  0.2287
  141TCq2    O6 2158   1.612   1.874  14.585  0.2843  0.2545 -0.1971
  141TCq2    H2 2159   1.616   2.055  14.236 -1.0424  0.0153  0.1307
  141TCq2    H3 2160   1.750   2.065  14.639  2.7575  2.4450  1.2341
  141TCq2    H4 2161   1.940   2.310  14.348  2.2016 -1.6076  0.8391
  142MPD2     C 2162   0.327   1.119   9.199  0.1711  0.3963  0.4987
  142MPD2    C1 2163   0.191   1.133   9.206 -0.2650 -0.5649  0.2253
  142MPD2    C2 2164   0.143   1.263   9.202 -0.0861  0.4382 -0.5894
  142MPD2    C3 2165   0.216   1.375   9.177 -0.0327  0.2537  0.0200
  142MPD2    C4 2166   0.353   1.356   9.167  0.0303  0.6794  0.0360
  142MPD2    C5 2167   0.409   1.232   9.178 -0.1588 -0.6995 -0.9927
  142MPD2     H 2168   0.038   1.282   9.220  0.1044 -0.1818  1.1854
  142MPD2    H1 2169   0.417   1.440   9.141  0.5794 -0.0525 -0.9396
  142MPD2    H2 2170   0.368   1.020   9.215 -0.6170 -0.0375 -0.1630
  142MPD2    H3 2171   0.517   1.222   9.168 -0.1298 -1.3180 -0.0685
  142MPD2     N 2172   0.165   1.501   9.146  0.0990  0.1080  0.4542
  142MPD2    H5 2173   0.229   1.569   9.107 -0.7144  0.8839  0.4632
  142MPD2    N1 2174   0.116   1.018   9.247  0.1080  0.2111 -0.1868
  142MPD2    H7 2175   0.161   0.928   9.251  1.2471  0.8650  1.5240
  143TCq2    C1 2176   0.034   1.549   9.151 -0.2148  0.8597  0.3299
  143TCq2    O2 2177   4.655   1.485   9.177  0.0760 -0.0241  0.3685
  143TCq2    C2 2178   0.016   1.689   9.097 -0.3228 -0.3785  0.3547
  143TCq2    C3 2179   4.616   1.725   9.054  0.1887 -0.5705  0.6524
  143TCq2    C4 2180   4.608   1.851   8.992 -0.7969  0.4160  0.2659
  143TCq2    C5 2181   4.714   1.936   8.974  0.0323 -0.6628 -0.3056
  143TCq2    C6 2182   0.113   1.891   9.025  0.2014 -0.0573  0.1979
  143TCq2    C7 2183   0.123   1.771   9.088  0.4060  0.3584 -0.1060
  143TCq2    C8 2184   0.212   1.990   9.056  0.8900 -0.1069 -0.1340
  143TCq2    O4 2185   0.305   1.959   9.134  0.3782  0.0178 -0.2595
  143TCq2    C9 2186   4.477   1.879   8.939  0.2727  0.2280  0.5182
  143TCq2    O5 2187   4.463   1.979   8.872 -0.1944  0.5862  0.0554
  143TCq2    O6 2188   4.389   1.790   8.946  0.2612 -0.5050  0.2309
  143TCq2    H2 2189   4.526   1.665   9.064  0.0908 -0.1682  2.1627
  143TCq2    H3 2190   4.704   2.020   8.905  1.9746 -1.5459 -1.6558
  143TCq2    H4 2191   0.215   1.744   9.137  0.5996 -0.7327 -1.0825
  144MPD2     C 2192   2.637   0.202   0.868 -0.5288 -0.2000  0.7875
  144MPD2    C1 2193   2.646   0.150   0.741 -0.9656  0.8042 -0.1891
  144MPD2    C2 2194   2.768   0.155   0.679 -0.0253  0.1911 -0.0560
  144MPD2    C3 2195   2.882   0.195   0.737 -0.2252 -0.4388 -0.2637
  144MPD2    C4 2196   2.876   0.242   0.863 -0.1099  0.0887 -0.0811
  144MPD2    C5 2197   2.751   0.256   0.918 -0.4171 -0.1639  0.1606
  144MPD2     H 2198   2.783   0.109   0.582 -1.6746 -2.5788  0.9881
  144MPD2    H1 2199   2.960   0.284   0.917 -1.7066  2.4099  0.5983
  144MPD2    H2 2200   2.542   0.231   0.911 -0.4991  0.2255  0.5635
  144MPD2    H3 2201   2.745   0.311   1.011  2.5945  2.8886 -1.4443
  144MPD2     N 2202   3.007   0.173   0.680  0.3081 -0.2005 -0.2137
  144MPD2    H5 2203   3.087   0.172   0.743  0.5148 -1.8455 -0.4897
  144MPD2    N1 2204   2.537   0.104   0.667 -0.4212  0.7093  0.2127
  144MPD2    H7 2205   2.558   0.068   0.574 -0.5976  2.6998 -0.5975
  145TCq2    C1 2206   3.030   0.150   0.545  0.3261  0.0973  1.0480
  145TCq2    O2 2207   2.954   0.169   0.454 -0.3464 -0.4788 -0.3316
  145TCq2    C2 2208   3.164   0.109   0.513  0.2649  0.1551 -0.1643
  145TCq2    C3 2209   3.209   0.135   0.387 -0.2997  0.2961  0.5744
  145TCq2    C4 2210   3.336   0.108   0.357 -0.5054 -0.1025 -0.5147
  145TCq2    C5 2211   3.420   0.049   0.449  0.6126  0.0619 -0.1183
  145TCq2    C6 2212   3.373   0.035   0.576  0.0976 -0.6716 -0.1476
  145TCq2    C7 2213   3.245   0.058   0.612 -0.0301 -0.2314  0.1296
  145TCq2    C8 2214   3.474   0.001   0.679  0.4637 -0.3924  0.2255
  145TCq2    O4 2215   3.574   4.667   0.640 -0.0551 -0.0191 -0.0475
  145TCq2    C9 2216   3.391   0.156   0.233  0.1560 -0.4061 -0.0968
  145TCq2    O5 2217   3.514   0.143   0.201 -0.4233  0.1840  0.2812
  145TCq2    O6 2218   3.309   0.205   0.154 -0.4064  0.5290 -0.4808
  145TCq2    H2 2219   3.143   0.177   0.312  1.6786 -1.3891 -2.1388
  145TCq2    H3 2220   3.527   0.040   0.433  0.3802 -0.0628 -1.6146
  145TCq2    H4 2221   3.211   0.034   0.712 -0.9923  1.2652  0.1553
  146TMC2    C1 2222   3.950   3.509  11.871  0.0262  0.3648  0.2561
  146TMC2    C2 2223   3.825   3.565  11.845  0.8578  0.1741 -0.4470
  146TMC2    C3 2224   3.727   3.472  11.861  0.1516  0.8354  0.6478
  146TMC2    C4 2225   3.975   3.381  11.910 -0.0172 -0.4112 -0.3222
  146TMC2    C5 2226   3.866   3.297  11.914 -0.5358 -0.0344 -0.2932
  146TMC2    C6 2227   3.746   3.341  11.891  0.6899 -0.2754 -0.2054
  146TMC2     C 2228   4.050   3.605  11.902  0.6749  0.2144  0.1779
  146TMC2     O 2229   4.084   3.675  11.807  0.1565  0.2338 -0.5205
  146TMC2     H 2230   3.814   3.672  11.827 -0.8624  0.4589  2.3450
  146TMC2    H1 2231   4.074   3.337  11.913 -0.2170 -0.7039  1.8278
  146TMC2    H2 2232   3.672   3.268  11.920  0.0416  0.5234  0.1574
  146TMC2    C7 2233   3.876   3.197  12.019 -0.0065  0.1303  0.4198
  146TMC2    C8 2234   3.603   3.541  11.884 -0.3653 -0.2450 -0.1208
  146TMC2    O1 2235   3.798   3.104  12.021 -0.2618  0.1485  0.0008
  146TMC2    O2 2236   3.594   3.656  11.923 -0.0980  0.6314 -0.0414
  146TMC2    O5 2237   3.510   3.450  11.910  0.0195  0.3208 -0.5923
  146TMC2    H5 2238   3.507   3.379  11.842  0.5075  0.0231 -0.3008
  147MPD2     C 2239   4.055   3.089  12.494  0.0658 -0.4968 -0.7425
  147MPD2    C1 2240   4.139   3.172  12.428  0.7790 -0.4391  0.1704
  147MPD2    C2 2241   4.101   3.231  12.307 -0.0669 -0.5581  0.3657
  147MPD2    C3 2242   3.993   3.180  12.246 -0.1156  0.1394  0.3872
  147MPD2    C4 2243   3.911   3.095  12.310 -0.2724  0.2825 -0.0888
  147MPD2    C5 2244   3.932   3.057  12.443  0.4460 -0.2160 -0.1322
  147MPD2     H 2245   4.172   3.285  12.245 -1.3121  0.9352  0.2532
  147MPD2    H1 2246   3.822   3.053  12.264 -1.4694  1.7035  0.9055
  147MPD2    H2 2247   4.085   3.055  12.593 -2.6979 -2.7207 -0.6867
  147MPD2    H3 2248   3.873   2.984  12.496 -0.8605  1.4609  0.6975
  147MPD2     N 2249   3.972   3.233  12.111  0.7430 -0.1810 -0.5401
  147MPD2    H5 2250   4.022   3.317  12.082  0.7013  0.0495  0.0484
  147MPD2    N1 2251   4.258   3.207  12.495  0.4599 -0.2117 -0.3972
  147MPD2    H7 2252   4.274   3.169  12.588 -2.2759 -4.1124 -1.5316
  148MPD2     C 2253   4.566   2.776  10.422 -0.4570 -0.3214 -0.2154
  148MPD2    C1 2254   4.618   2.659  10.371  0.6616 -0.3978  0.0141
  148MPD2    C2 2255   4.538   2.561  10.310  0.3072 -0.5813 -0.0746
  148MPD2    C3 2256   4.401   2.585  10.298  0.1050  0.3856 -0.2141
  148MPD2    C4 2257   4.353   2.710  10.326  0.0567 -0.5413  0.6576
  148MPD2    C5 2258   4.431   2.806  10.391 -0.5851 -0.4906 -0.0601
  148MPD2     H 2259   4.592   2.475  10.272  1.2196  0.2552 -0.7056
  148MPD2    H1 2260   4.249   2.734  10.305  0.5050  1.3421  0.6720
  148MPD2    H2 2261   4.627   2.841  10.484 -1.0367 -0.2669  0.3067
  148MPD2    H3 2262   4.380   2.897  10.420  1.4477 -0.2587  2.7953
  148MPD2     N 2263   4.323   2.494  10.232 -0.1999  0.0807 -0.4431
  148MPD2    H5 2264   4.241   2.529  10.182 -0.8530 -2.3501 -1.0730
  148MPD2    N1 2265   0.031   2.623  10.371 -0.7225  0.2209  0.1431
  148MPD2    H7 2266   0.048   2.524  10.354 -2.7592  0.2015 -1.7610
  149TCq2    C1 2267   0.139   2.705  10.387  0.6066  0.2445  0.2995
  149TCq2    O2 2268   0.146   2.823  10.403  0.1910  0.7136 -0.0694
  149TCq2    C2 2269   0.272   2.629  10.383 -0.5844 -0.2969 -0.5454
  149TCq2    C3 2270   0.385   2.708  10.362  0.5407  0.6234 -0.3654
  149TCq2    C4 2271   0.509   2.651  10.338 -0.1854  0.5091  0.6291
  149TCq2    C5 2272   0.520   2.513  10.310  0.4719  0.2315 -0.0712
  149TCq2    C6 2273   0.408   2.441  10.332 -0.5317 -0.3338 -0.2702
  149TCq2    C7 2274   0.280   2.495  10.362  0.1995 -0.5448 -0.0147
  149TCq2    C8 2275   0.401   2.302  10.281  0.6439 -0.3922 -0.0340
  149TCq2    O4 2276   0.308   2.267  10.211  0.5148 -0.4937 -0.5356
  149TCq2    C9 2277   0.609   2.741  10.272  0.3537 -0.4271  0.0085
  149TCq2    O5 2278   0.688   2.682  10.193  0.1697 -0.1546  0.4473
  149TCq2    O6 2279   0.595   2.866  10.293  0.2944  0.7373  0.4557
  149TCq2    H2 2280   0.383   2.816  10.361 -0.6797  0.6037  0.5991
  149TCq2    H3 2281   0.604   2.463  10.262 -0.7110  0.0107 -1.9019
  149TCq2    H4 2282   0.195   2.429  10.352  0.8133 -0.9947 -2.2647
  150MPD2     C 2283   1.007   1.874  12.309  0.3280  0.0874  0.1088
  150MPD2    C1 2284   1.043   1.867  12.173 -0.3055  0.3652  0.5067
  150MPD2    C2 2285   1.155   1.936  12.126 -1.1955 -0.2922 -0.3083
  150MPD2    C3 2286   1.226   2.013  12.212 -0.6288 -0.2419 -0.4647
  150MPD2    C4 2287   1.197   2.011  12.350  0.2006  0.0621  0.8481
  150MPD2    C5 2288   1.077   1.954  12.394  0.0504 -0.3532  0.4167
  150MPD2     H 2289   1.190   1.927  12.024 -0.3207  0.2647 -0.0528
  150MPD2    H1 2290   1.261   2.052  12.428  0.4183 -1.7845  1.6322
  150MPD2    H2 2291   0.910   1.838  12.340  0.5085 -1.5192 -1.1669
  150MPD2    H3 2292   1.046   1.975  12.495  0.1924 -1.6786  0.7326
  150MPD2     N 2293   1.340   2.075  12.160 -0.1040  0.2609  0.1895
  150MPD2    H5 2294   1.366   2.058  12.063  0.3922  1.1115  0.1742
  150MPD2    N1 2295   0.970   1.786  12.090  0.5882  0.2795  0.0349
  150MPD2    H7 2296   0.893   1.736  12.132  0.9942  0.2554  0.7483
  151TCq2    C1 2297   1.439   2.133  12.238 -0.1151  0.0850 -0.3914
  151TCq2    O2 2298   1.453   2.140  12.357 -0.0562 -0.3361  0.3137
  151TCq2    C2 2299   1.536   2.197  12.159 -0.4353  0.1109 -0.4725
  151TCq2    C3 2300   1.527   2.203  12.022  0.2374 -0.0613 -0.1131
  151TCq2    C4 2301   1.638   2.248  11.953 -0.5758 -0.1864  0.0309
  151TCq2    C5 2302   1.743   2.295  12.024  0.1896 -1.1136  0.5403
  151TCq2    C6 2303   1.747   2.279  12.155 -0.3572 -0.2070  0.0734
  151TCq2    C7 2304   1.644   2.236  12.231 -0.1941 -0.6360 -0.4178
  151TCq2    C8 2305   1.853   2.335  12.232  0.7313  0.0402 -0.5337
  151TCq2    O4 2306   1.888   2.443  12.188 -0.8643 -0.8417  0.2342
  151TCq2    C9 2307   1.647   2.250  11.809 -0.2477 -0.1629 -0.1037
  151TCq2    O5 2308   1.718   2.338  11.758  0.4597  0.3902  0.7131
  151TCq2    O6 2309   1.607   2.145  11.759  0.1038  0.4163  0.1458
  151TCq2    H2 2310   1.444   2.181  11.956 -0.1567  0.4882  0.1988
  151TCq2    H3 2311   1.835   2.323  11.974  0.4234 -3.1241 -0.1380
  151TCq2    H4 2312   1.640   2.255  12.338 -3.1724  0.3929 -0.7007
  152MPD2     C 2313   1.098   2.045  12.762 -0.0707  0.5227 -0.0015
  152MPD2    C1 2314   1.117   1.913  12.731 -1.0280 -0.2478 -0.4687
  152MPD2    C2 2315   1.002   1.829  12.701 -0.4385 -0.3430  0.0078
  152MPD2    C3 2316   0.871   1.882  12.708 -0.6227  0.1250  0.1123
  152MPD2    C4 2317   0.861   2.017  12.745 -0.1718  0.8310  0.1533
  152MPD2    C5 2318   0.971   2.088  12.772 -0.0962 -0.2309 -0.0896
  152MPD2     H 2319   1.018   1.730  12.660  0.0280  0.7961 -2.5299
  152MPD2    H1 2320   0.766   2.065  12.766 -0.5486  0.2692 -0.2707
  152MPD2    H2 2321   1.176   2.106  12.808 -0.0524  0.4767  0.0288
  152MPD2    H3 2322   0.961   2.191  12.805 -0.8526 -0.2039 -0.4049
  152MPD2     N 2323   0.762   1.797  12.693 -0.2477 -0.1849 -0.7406
  152MPD2    H5 2324   0.785   1.700  12.676 -2.1645 -0.3724 -2.2833
  152MPD2    N1 2325   1.251   1.867  12.730 -0.3671  0.3633  0.1232
  152MPD2    H7 2326   1.321   1.937  12.752 -0.7070  0.4183  1.0361
  153TCq2    C1 2327   1.301   1.752  12.678 -0.2387 -0.5655  0.7526
  153TCq2    O2 2328   1.239   1.663  12.624  0.3141 -0.2115  0.0831
  153TCq2    C2 2329   1.440   1.732  12.709  0.1646 -0.1560 -0.2782
  153TCq2    C3 2330   1.506   1.700  12.606 -0.0180 -0.3940 -0.1096
  153TCq2    C4 2331   1.646   1.720  12.601  0.2456 -0.2318  0.1509
  153TCq2    C5 2332   1.707   1.788  12.705 -0.1304 -0.1557 -0.2612
  153TCq2    C6 2333   1.632   1.826  12.811  0.0866  0.1383 -0.4281
  153TCq2    C7 2334   1.493   1.801  12.814 -0.0244  0.2005  0.2450
  153TCq2    C8 2335   1.687   1.901  12.920 -0.1139  0.6340  0.1245
  153TCq2    O4 2336   1.612   1.919  13.016  0.5545  0.3233  0.0133
  153TCq2    C9 2337   1.721   1.699  12.476  0.7183  0.2125  0.0504
  153TCq2    O5 2338   1.842   1.724  12.469  0.2865 -0.5856  0.3484
  153TCq2    O6 2339   1.654   1.651  12.385  0.2097  0.1461 -0.4503
  153TCq2    H2 2340   1.451   1.659  12.522  0.5165  1.1629 -1.2125
  153TCq2    H3 2341   1.814   1.797  12.701 -0.4116  3.2883  0.2408
  153TCq2    H4 2342   1.433   1.829  12.900 -0.2062  0.4997  0.0251
  154MPD2     C 2343   3.363   0.812   0.402 -0.1586  0.2159 -0.5212
  154MPD2    C1 2344   3.325   0.839   0.533  0.2472 -0.1760  0.0355
  154MPD2    C2 2345   3.192   0.873   0.556 -0.2248  0.2401 -0.3272
  154MPD2    C3 2346   3.104   0.890   0.444 -0.4331  0.7693 -0.9682
  154MPD2    C4 2347   3.149   0.864   0.312  0.0581 -0.0471 -0.1234
  154MPD2    C5 2348   3.275   0.810   0.298  0.6978  0.0780  0.9854
  154MPD2     H 2349   3.155   0.885   0.657 -0.9034  0.4734 -0.6047
  154MPD2    H1 2350   3.076   0.856   0.232  0.7479  0.7795 -0.8342
  154MPD2    H2 2351   3.468   0.797   0.378 -0.2193  0.1709 -0.7547
  154MPD2    H3 2352   3.309   0.783   0.198 -1.7244 -1.0498  0.4685
  154MPD2     N 2353   2.983   0.934   0.478  0.5292 -0.2796  0.2423
  154MPD2    H5 2354   2.962   0.927   0.577 -0.4270 -0.6247  0.0142
  154MPD2    N1 2355   3.420   0.833   0.636  0.1893 -0.2791 -0.2356
  154MPD2    H7 2356   3.514   0.815   0.602  0.4292  1.3181 -0.4513
  155TCq2    C1 2357   3.403   0.881   0.768 -0.6203 -0.1307  0.0889
  155TCq2    O2 2358   3.303   0.932   0.816 -0.6258  0.5070 -0.0168
  155TCq2    C2 2359   3.510   0.841   0.862 -1.0135 -0.2992 -0.1533
  155TCq2    C3 2360   3.586   0.733   0.837 -0.0120 -0.5139  0.4553
  155TCq2    C4 2361   3.696   0.713   0.915  0.3496 -0.1414 -0.3841
  155TCq2    C5 2362   3.724   0.792   1.019 -0.2278 -0.4750 -0.3646
  155TCq2    C6 2363   3.635   0.893   1.047  0.2318  0.6724 -0.6909
  155TCq2    C7 2364   3.530   0.920   0.967  0.3105 -0.3386 -0.1126
  155TCq2    C8 2365   3.634   0.956   1.175 -0.5638  0.1291  0.3268
  155TCq2    O4 2366   3.551   1.047   1.189 -0.4833  0.5090  0.2802
  155TCq2    C9 2367   3.781   0.600   0.887 -0.5428  0.2946 -0.2515
  155TCq2    O5 2368   3.859   0.547   0.970  0.3973  1.0103  0.0029
  155TCq2    O6 2369   3.748   0.551   0.773  0.5926 -0.5057  0.2626
  155TCq2    H2 2370   3.556   0.662   0.760  0.8021  0.8644 -1.1231
  155TCq2    H3 2371   3.813   0.764   1.074  0.3378 -1.4605 -1.8042
  155TCq2    H4 2372   3.468   1.007   0.984  1.8620  0.7011  0.2485
  156MPD2     C 2373   1.699   3.474  12.147 -0.8329 -0.0255 -0.6224
  156MPD2    C1 2374   1.694   3.581  12.056 -0.2666 -0.2050  0.9791
  156MPD2    C2 2375   1.745   3.698  12.108 -0.0931 -0.5946  0.9307
  156MPD2    C3 2376   1.786   3.716  12.239  0.3720 -0.4796  0.1786
  156MPD2    C4 2377   1.803   3.604  12.322  0.2129 -0.1373 -0.6427
  156MPD2    C5 2378   1.754   3.483  12.272 -0.4516  0.1779 -0.1503
  156MPD2     H 2379   1.741   3.793  12.056 -2.0217 -0.9826  0.3444
  156MPD2    H1 2380   1.855   3.615  12.416 -0.4578 -0.4775 -0.2299
  156MPD2    H2 2381   1.661   3.375  12.124 -0.3833 -0.3649  0.1027
  156MPD2    H3 2382   1.790   3.393  12.320 -0.5178  0.4818  0.4755
  156MPD2     N 2383   1.834   3.842  12.266  0.0551  0.1181  0.4602
  156MPD2    H5 2384   1.833   3.906  12.187  0.7177  0.0558  0.4002
  156MPD2    N1 2385   1.618   3.571  11.933  0.5430 -0.2530 -0.0117
  156MPD2    H7 2386   1.578   3.483  11.901 -2.1116  0.1199  2.3083
  157TCq2    C1 2387   1.615   3.676  11.840 -0.1077 -0.8010 -0.2033
  157TCq2    O2 2388   1.649   3.796  11.850 -0.1924  0.1194 -0.0538
  157TCq2    C2 2389   1.540   3.643  11.717  0.2271 -0.3141  0.8806
  157TCq2    C3 2390   1.514   3.513  11.683  0.0135 -0.0971  0.3516
  157TCq2    C4 2391   1.453   3.481  11.567  0.6164 -1.0365  0.4169
  157TCq2    C5 2392   1.401   3.577  11.486  0.1957 -0.4513  0.2688
  157TCq2    C6 2393   1.418   3.705  11.531 -0.1059  0.0220 -0.6424
  157TCq2    C7 2394   1.484   3.740  11.649  1.2573 -0.0794 -0.4586
  157TCq2    C8 2395   1.393   3.813  11.445  0.7399  0.7703  0.0440
  157TCq2    O4 2396   1.453   3.914  11.470 -0.0371 -0.6383  0.3360
  157TCq2    C9 2397   1.468   3.347  11.516  0.0899  0.8123  0.3887
  157TCq2    O5 2398   1.536   3.262  11.585 -0.6134 -0.3220 -1.0847
  157TCq2    O6 2399   1.430   3.337  11.394 -0.0333 -0.6671 -0.0811
  157TCq2    H2 2400   1.558   3.431  11.738 -2.0883 -1.7432 -0.4323
  157TCq2    H3 2401   1.363   3.552  11.387  1.5743  1.6350 -0.7985
  157TCq2    H4 2402   1.486   3.840  11.692 -0.7844  0.3764 -1.3940
  158TMC2    C1 2403   1.997   2.947  12.697  0.1322  0.2309 -0.1880
  158TMC2    C2 2404   1.994   3.033  12.592  0.8520 -0.1972  0.4309
  158TMC2    C3 2405   1.908   2.998  12.486 -0.1382  0.5242  0.0339
  158TMC2    C4 2406   1.937   2.820  12.699  0.4857 -0.5598  0.5470
  158TMC2    C5 2407   1.865   2.787  12.588 -0.1806 -0.4567 -0.0478
  158TMC2    C6 2408   1.850   2.871  12.483  0.5854  0.6265  0.1608
  158TMC2     C 2409   2.076   2.986  12.805  0.5106  0.7717  0.7202
  158TMC2     O 2410   2.167   3.068  12.793 -0.1874  0.1409 -0.4183
  158TMC2     H 2411   2.042   3.130  12.602  1.2930 -0.3912  0.2299
  158TMC2    H1 2412   1.960   2.745  12.773  2.8146 -0.5018 -0.1261
  158TMC2    H2 2413   1.793   2.839  12.397  1.1259 -2.0354  0.7892
  158TMC2    C7 2414   1.827   2.658  12.563 -0.0974  0.2641 -0.1845
  158TMC2    C8 2415   1.871   3.088  12.374  0.6955  0.4056  0.6732
  158TMC2    O1 2416   1.827   2.622  12.444 -0.1282 -0.4264 -0.2176
  158TMC2    O2 2417   1.806   3.055  12.275  0.3513 -0.0434 -0.3107
  158TMC2    O5 2418   1.923   3.207  12.410  0.2737  0.5878  0.7968
  158TMC2    H5 2419   1.963   3.210  12.500  1.4989 -0.1555  0.2780
  159MPD2     C 2420   2.194   3.022  13.307  0.2473  0.2940 -0.3414
  159MPD2    C1 2421   2.071   2.967  13.297  0.1437  0.5830 -1.1971
  159MPD2    C2 2422   2.030   2.933  13.165 -0.2292  0.4306  0.4333
  159MPD2    C3 2423   2.099   2.948  13.049 -0.4849 -0.6886  0.5559
  159MPD2    C4 2424   2.230   3.005  13.070 -0.7226  0.2142  0.0550
  159MPD2    C5 2425   2.268   3.042  13.195  0.1840  0.0482 -0.3008
  159MPD2     H 2426   1.939   2.875  13.153 -0.0946  0.7243 -2.0694
  159MPD2    H1 2427   2.292   3.013  12.982  0.5064 -0.4854  0.8537
  159MPD2    H2 2428   2.238   3.052  13.402 -1.1344  0.8904  0.1199
  159MPD2    H3 2429   2.364   3.090  13.200 -0.0690  0.7799 -2.6200
  159MPD2     N 2430   2.038   2.924  12.925  0.5597  0.3619  0.0702
  159MPD2    H5 2431   1.953   2.869  12.923  0.0542  1.1322  0.3439
  159MPD2    N1 2432   1.991   2.960  13.418  0.0190 -0.6066 -1.3204
  159MPD2    H7 2433   2.039   2.983  13.505 -1.2940 -1.4901 -0.3625
  160TMC2    C1 2434   1.461   1.055   1.973  0.1626  0.4092 -0.3296
  160TMC2    C2 2435   1.566   0.989   2.029 -0.0751  0.1347 -0.0481
  160TMC2    C3 2436   1.684   0.989   1.960  0.5249 -0.6846  0.3940
  160TMC2    C4 2437   1.469   1.112   1.840 -0.0572  0.0284  0.5302
  160TMC2    C5 2438   1.587   1.113   1.780 -0.0756 -0.2569  0.0549
  160TMC2    C6 2439   1.697   1.048   1.837 -1.1391  0.0631 -0.4580
  160TMC2     C 2440   1.329   1.013   2.018 -0.2595 -0.0725 -0.0966
  160TMC2     O 2441   1.321   0.907   2.076  0.2708  0.2413  0.3058
  160TMC2     H 2442   1.555   0.941   2.126  2.2535  1.4494  0.8531
  160TMC2    H1 2443   1.386   1.150   1.782 -0.2449  1.5287  1.7577
  160TMC2    H2 2444   1.787   1.051   1.777 -0.9342 -0.2247 -0.1676
  160TMC2    C7 2445   1.596   1.170   1.642 -0.2332 -0.5763 -0.2670
  160TMC2    C8 2446   1.777   0.892   2.015 -0.5268 -0.0430 -0.3581
  160TMC2    O1 2447   1.511   1.253   1.614  0.0993 -0.0946 -0.0069
  160TMC2    O2 2448   1.740   0.799   2.084  0.0076  0.0207 -0.3292
  160TMC2    O5 2449   1.891   0.880   1.940 -0.2900 -0.1387  0.0117
  160TMC2    H5 2450   1.909   0.957   1.882  1.5953  1.4321  2.7610
  161MPD2     C 2451   1.058   0.898   1.946 -0.3421  0.2429  0.4561
  161MPD2    C1 2452   1.098   1.035   1.923 -0.8229 -0.6813  0.0103
  161MPD2    C2 2453   0.998   1.124   1.884  0.1036  0.1112  0.6859
  161MPD2    C3 2454   0.867   1.087   1.862  0.1617  1.1431 -0.6748
  161MPD2    C4 2455   0.828   0.960   1.891 -0.9964  0.0703  0.1488
  161MPD2    C5 2456   0.922   0.866   1.929  0.5320 -0.2299 -0.4363
  161MPD2     H 2457   1.036   1.222   1.856 -1.7373 -0.0950 -2.5747
  161MPD2    H1 2458   0.725   0.927   1.902 -0.4542 -1.4397  0.7158
  161MPD2    H2 2459   1.117   0.819   1.992  0.3623  0.0295 -0.8328
  161MPD2    H3 2460   0.887   0.766   1.953 -1.1268  0.5624  0.4007
  161MPD2     N 2461   0.756   1.171   1.826 -0.3695 -0.0931  0.2632
  161MPD2    H5 2462   0.662   1.133   1.821 -0.0522 -0.5583 -2.2043
  161MPD2    N1 2463   1.229   1.082   1.940 -1.2719 -0.0402  0.5798
  161MPD2    H7 2464   1.253   1.171   1.898 -0.8191 -1.0226 -1.2548
  162TMC2    C1 2465   4.026   3.016   1.027 -0.3068  0.1061  0.9705
  162TMC2    C2 2466   4.107   3.111   1.084 -0.2304 -0.2889 -0.2886
  162TMC2    C3 2467   4.142   3.079   1.211 -0.3246  1.0384 -0.9710
  162TMC2    C4 2468   3.975   2.906   1.088 -0.2981 -0.3412 -0.4365
  162TMC2    C5 2469   4.005   2.885   1.220 -0.5730  0.3001  0.5285
  162TMC2    C6 2470   4.090   2.974   1.282 -0.7199 -0.7668  0.4821
  162TMC2     C 2471   4.048   2.988   0.887  0.0651 -0.5732 -0.1321
  162TMC2     O 2472   4.046   2.867   0.860  0.2532 -0.0755  0.2946
  162TMC2     H 2473   4.162   3.186   1.029 -1.0945 -0.6002 -1.5770
  162TMC2    H1 2474   3.914   2.833   1.035 -1.3802 -0.5295  1.0823
  162TMC2    H2 2475   4.116   2.955   1.385 -1.3333  1.5730  1.0616
  162TMC2    C7 2476   3.965   2.760   1.277  0.7650  1.1600  0.3203
  162TMC2    C8 2477   4.225   3.174   1.279  0.4968  0.2163 -0.0517
  162TMC2    O1 2478   3.870   2.705   1.218  0.4396  0.1593 -0.2690
  162TMC2    O2 2479   4.322   3.228   1.229  0.1370 -0.2813 -0.4770
  162TMC2    O5 2480   4.193   3.177   1.411  0.1332 -0.4252  0.1956
  162TMC2    H5 2481   4.099   3.155   1.426  0.1138 -0.7207 -0.3412
  163MPD2     C 2482   4.294   3.054   0.450  0.2490  0.0552 -0.3568
  163MPD2    C1 2483   4.252   2.941   0.512 -0.1923  0.4205  0.1643
  163MPD2    C2 2484   4.173   2.953   0.623 -1.0884  0.0418  0.3978
  163MPD2    C3 2485   4.147   3.078   0.676 -0.8867  0.4097 -0.4333
  163MPD2    C4 2486   4.193   3.192   0.614  1.1212 -0.2393  0.6067
  163MPD2    C5 2487   4.254   3.184   0.496  0.3895  0.2535 -0.1686
  163MPD2     H 2488   4.139   2.862   0.671 -1.8873 -0.3744 -0.9645
  163MPD2    H1 2489   4.173   3.286   0.664  2.3171 -1.5272  3.5050
  163MPD2    H2 2490   4.346   3.055   0.355  0.1958 -0.9406 -0.3940
  163MPD2    H3 2491   4.296   3.278   0.461  2.2052 -1.0813 -1.6000
  163MPD2     N 2492   4.092   3.090   0.805 -0.0796  0.3169 -0.2276
  163MPD2    H5 2493   4.097   3.182   0.847 -2.8218  0.0086  0.7623
  163MPD2    N1 2494   4.285   2.817   0.448 -0.0309  0.0913 -0.5807
  163MPD2    H7 2495   4.344   2.820   0.366  1.5636 -0.8763  0.5259
  164TCq2    C1 2496   0.148   2.462  11.106  0.1503  0.0073 -0.5790
  164TCq2    O2 2497   0.031   2.462  11.144 -0.0202  0.4616 -0.2770
  164TCq2    C2 2498   0.176   2.588  11.029 -0.1512 -0.4498  0.8256
  164TCq2    C3 2499   0.275   2.594  10.939 -1.1975 -0.2871 -0.3587
  164TCq2    C4 2500   0.266   2.683  10.838  0.6165 -0.1280 -0.1714
  164TCq2    C5 2501   0.164   2.774  10.837  0.0310 -0.1756  0.6211
  164TCq2    C6 2502   0.076   2.782  10.941 -0.0437 -0.4144  0.1262
  164TCq2    C7 2503   0.076   2.683  11.031 -0.6396 -0.0797  0.1642
  164TCq2    C8 2504   4.698   2.877  10.947 -0.3408 -0.2534 -0.4820
  164TCq2    O4 2505   4.604   2.873  11.023 -0.4792 -0.2077 -0.0447
  164TCq2    C9 2506   0.374   2.704  10.744  0.2874  0.3263 -0.3442
  164TCq2    O5 2507   0.371   2.812  10.680 -0.4812  0.2164 -0.4613
  164TCq2    O6 2508   0.472   2.624  10.749  0.0552 -0.5680  0.2980
  164TCq2    H2 2509   0.366   2.535  10.946 -1.2815 -0.5575 -1.5948
  164TCq2    H3 2510   0.161   2.847  10.757 -1.0258  1.4999  2.1954
  164TCq2    H4 2511   0.009   2.692  11.116 -2.1815  0.3375 -1.0949
  165MPD2     C 2512   1.108   4.691   1.486 -0.2431 -0.0470  0.3109
  165MPD2    C1 2513   0.992   0.025   1.438 -0.2584 -0.1528 -0.7709
  165MPD2    C2 2514   0.976   0.160   1.426 -0.0712 -0.4116 -0.3264
  165MPD2    C3 2515   1.073   0.250   1.477  0.7069  0.0379 -0.0755
  165MPD2    C4 2516   1.194   0.190   1.512 -0.0025  0.1435  0.0650
  165MPD2    C5 2517   1.212   0.050   1.506  0.1945 -0.1230 -0.0804
  165MPD2     H 2518   0.884   0.209   1.395  0.5572  0.4628 -0.8106
  165MPD2    H1 2519   1.282   0.251   1.534 -0.3827 -0.5846  3.6235
  165MPD2    H2 2520   1.124   4.585   1.502  0.1772  0.0524  0.5425
  165MPD2    H3 2521   1.302   0.012   1.554 -0.5009 -0.6117  0.8280
  165MPD2     N 2522   1.070   0.391   1.466  0.7919  0.1820 -0.0795
  165MPD2    H5 2523   1.149   0.438   1.510  0.8274  1.9194 -1.9610
  165MPD2    N1 2524   0.894   4.656   1.387  0.6223 -0.2316 -0.4136
  165MPD2    H7 2525   0.914   4.557   1.392  2.5584  0.0405 -2.5120
  166TCq2    C1 2526   0.966   0.468   1.424 -0.4131 -0.4602  0.0259
  166TCq2    O2 2527   0.854   0.431   1.390  0.5216 -0.0085 -0.2413
  166TCq2    C2 2528   1.018   0.601   1.391  0.6639 -0.3943 -0.3769
  166TCq2    C3 2529   0.936   0.686   1.311  0.0382 -0.3329 -0.5500
  166TCq2    C4 2530   0.991   0.790   1.250  0.6115  0.6852 -0.1934
  166TCq2    C5 2531   1.125   0.819   1.264 -0.0359 -0.3910  0.0447
  166TCq2    C6 2532   1.209   0.718   1.308  0.1939 -0.8477 -0.3377
  166TCq2    C7 2533   1.156   0.615   1.375 -1.1758 -0.4721 -0.0909
  166TCq2    C8 2534   1.352   0.707   1.274  0.6818 -0.3286 -0.3765
  166TCq2    O4 2535   1.420   0.620   1.318  0.6770 -0.7292  0.0891
  166TCq2    C9 2536   0.912   0.904   1.203  0.3262  0.9426  0.4314
  166TCq2    O5 2537   0.976   0.985   1.132 -0.1117  0.0620  0.1696
  166TCq2    O6 2538   0.788   0.897   1.210  0.3757 -0.3219 -0.2825
  166TCq2    H2 2539   0.834   0.661   1.286 -0.0932 -1.4417  1.0999
  166TCq2    H3 2540   1.159   0.909   1.213 -0.1410 -0.9032 -0.9254
  166TCq2    H4 2541   1.227   0.550   1.427 -1.7860 -0.5674  0.6226
  167TMC2    C1 2542   4.134   2.639  12.562  0.0836 -0.1014  0.9928
  167TMC2    C2 2543   4.072   2.704  12.666 -0.2102  0.2789  0.7200
  167TMC2    C3 2544   4.015   2.628  12.767  0.0682 -0.4413  0.6676
  167TMC2    C4 2545   4.152   2.505  12.562  0.1215  0.1549  0.2901
  167TMC2    C5 2546   4.084   2.434  12.663  0.3945 -0.1934 -0.3777
  167TMC2    C6 2547   4.015   2.490  12.763 -0.1761 -0.2710  1.3586
  167TMC2     C 2548   4.142   2.723  12.445  0.1097  0.4325 -0.1484
  167TMC2     O 2549   4.181   2.838  12.463 -0.1998  0.2912 -0.0105
  167TMC2     H 2550   4.074   2.812  12.667 -0.3303  0.2934 -0.3749
  167TMC2    H1 2551   4.212   2.456  12.486  0.3382 -1.2988  1.4004
  167TMC2    H2 2552   3.963   2.437  12.842  3.6013 -0.1685  3.8622
  167TMC2    C7 2553   4.098   2.292  12.672  0.0817 -0.0002 -0.4695
  167TMC2    C8 2554   3.979   2.686  12.893  0.8669 -0.1309 -0.1797
  167TMC2    O1 2555   4.079   2.244  12.784  0.3819  0.0299  0.1817
  167TMC2    O2 2556   4.012   2.792  12.940 -0.1215 -0.7111  0.7491
  167TMC2    O5 2557   3.853   2.638  12.908  1.4399 -0.1571 -0.0056
  167TMC2    H5 2558   3.828   2.573  12.839  0.8070  0.6170 -0.5024
  168MPD2     C 2559   4.098   2.843  12.179 -0.1234 -0.0316  0.7468
  168MPD2    C1 2560   4.134   2.709  12.201 -0.1732 -0.2775  1.2099
  168MPD2    C2 2561   4.151   2.626  12.097 -0.4921  0.2852  0.1919
  168MPD2    C3 2562   4.127   2.673  11.971 -0.3114  0.2863  0.1654
  168MPD2    C4 2563   4.098   2.810  11.946 -0.1988  0.4869  0.4421
  168MPD2    C5 2564   4.092   2.899  12.053 -0.0916  0.0164  0.3434
  168MPD2     H 2565   4.169   2.520  12.111  3.6706  0.9860  0.1758
  168MPD2    H1 2566   4.071   2.846  11.847 -0.1558 -1.4231 -0.2653
  168MPD2    H2 2567   4.074   2.908  12.262  0.2500  1.7246 -0.5368
  168MPD2    H3 2568   4.068   3.004  12.035 -0.1873 -0.1625 -0.5918
  168MPD2     N 2569   4.116   2.581  11.865 -0.2941 -0.4091  0.7890
  168MPD2    H5 2570   4.132   2.609  11.769  1.1583  0.2327  1.2163
  168MPD2    N1 2571   4.132   2.651  12.331  0.3843 -0.0906  0.3139
  168MPD2    H7 2572   4.125   2.549  12.331 -1.3947  0.0267 -0.8334
  169MPD1     C 2573   2.312   1.767  10.112  0.1422  0.3608 -0.6464
  169MPD1    C1 2574   2.405   1.835  10.036 -0.1643 -0.5552 -0.1000
  169MPD1    C2 2575   2.434   1.791   9.908  0.5042  0.2128  0.8557
  169MPD1    C3 2576   2.377   1.676   9.861  0.0844 -0.0554  0.0306
  169MPD1    C4 2577   2.289   1.608   9.937  0.4572 -0.8146 -0.5323
  169MPD1    C5 2578   2.258   1.652  10.059 -0.1115 -0.0225 -0.0972
  169MPD1     H 2579   2.489   1.850   9.836 -1.5227  1.5893  0.4425
  169MPD1    H1 2580   2.249   1.513   9.901  0.3325 -1.2699  0.8314
  169MPD1    H2 2581   2.294   1.786  10.217 -0.1952 -0.5411 -0.5437
  169MPD1    H3 2582   2.209   1.589  10.132  0.0771 -0.0319  0.0240
  169MPD1     N 2583   2.407   1.635   9.734 -0.3776 -0.2087 -0.7306
  169MPD1    H5 2584   2.482   1.686   9.688 -0.0181 -0.4658 -0.4273
  169MPD1    N1 2585   2.471   1.949  10.090 -0.1717 -0.4230 -0.1478
  169MPD1    H6 2586   2.411   1.998  10.157  1.0487 -0.3887  0.9279
  169MPD1    H7 2587   2.504   2.013  10.018 -1.6811  3.1313  2.3009
  170MPD1     C 2588   4.591   0.040  12.673  0.0487 -0.1412 -0.0091
  170MPD1    C1 2589   4.670   0.155  12.690 -0.7608  0.5038 -0.1771
  170MPD1    C2 2590   4.707   0.189  12.820  0.3737 -0.1316 -0.7821
  170MPD1    C3 2591   4.659   0.124  12.932  0.3311  0.1732  0.5510
  170MPD1    C4 2592   4.576   0.014  12.916  0.0126 -0.3122 -0.3655
  170MPD1    C5 2593   4.544   4.695  12.784  0.2244 -0.3331 -0.3765
  170MPD1     H 2594   0.046   0.276  12.834 -0.1469 -0.0401  0.9312
  170MPD1    H1 2595   4.550   4.670  12.996  1.4464  1.1747  1.3750
  170MPD1    H2 2596   4.556   0.002  12.577  0.6603 -0.7335 -0.0020
  170MPD1    H3 2597   4.494   4.599  12.777  1.0088 -0.6907 -1.1063
  170MPD1     N 2598   4.706   0.160  13.066  0.4166 -0.4107 -0.2844
  170MPD1    H5 2599   0.068   0.215  13.071  0.8307 -1.0467 -0.3185
  170MPD1    N1 2600   0.017   0.216  12.582 -0.4550 -0.2051  0.2013
  170MPD1    H6 2601   0.042   0.312  12.604 -1.9586 -0.2217  1.9409
  170MPD1    H7 2602   4.694   0.202  12.493 -0.7872 -1.6109  0.5854
  171MPD1     C 2603   3.699   1.229  15.119 -0.3975 -0.3786 -0.0900
  171MPD1    C1 2604   3.615   1.120  15.110 -0.1749 -0.0748 -0.3816
  171MPD1    C2 2605   3.674   0.999  15.143 -0.0108  0.3913  0.2208
  171MPD1    C3 2606   3.799   0.988  15.196 -1.0527  0.8536 -0.1942
  171MPD1    C4 2607   3.873   1.103  15.217  0.2695  0.4644 -0.7048
  171MPD1    C5 2608   3.829   1.223  15.178  0.4451 -0.0762 -0.0987
  171MPD1     H 2609   3.618   0.907  15.127  0.5976 -0.0559  0.6696
  171MPD1    H1 2610   3.974   1.100  15.256  0.1992 -0.3844 -0.5911
  171MPD1    H2 2611   3.663   1.330  15.098 -2.3924 -1.3248 -1.2889
  171MPD1    H3 2612   3.888   1.311  15.199  0.9780 -1.0800  2.5989
  171MPD1     N 2613   3.859   0.870  15.244 -0.0426 -0.7793  0.0659
  171MPD1    H5 2614   3.952   0.879  15.283 -0.6357 -0.3751  1.4015
  171MPD1    N1 2615   3.499   1.119  15.025 -0.1479 -0.5338 -0.0734
  171MPD1    H6 2616   3.449   1.207  15.030  0.6565 -0.0157 -1.2834
  171MPD1    H7 2617   3.434   1.050  15.063  1.1237 -1.7272 -0.0411
  172MPD1     C 2618   2.501   4.533   1.005 -0.5700  0.2144  0.5995
  172MPD1    C1 2619   2.460   4.478   0.885  0.3883  1.0045 -0.1668
  172MPD1    C2 2620   2.538   4.488   0.775  0.5487 -0.5151  0.5020
  172MPD1    C3 2621   2.674   4.517   0.798 -0.3501  0.7053  0.6941
  172MPD1    C4 2622   2.720   4.541   0.922 -0.4454 -0.5057  0.7476
  172MPD1    C5 2623   2.634   4.555   1.022 -0.5479 -0.2632  0.0806
  172MPD1     H 2624   2.491   4.461   0.681  0.2124  1.3609  0.1435
  172MPD1    H1 2625   2.821   4.563   0.955 -0.4426 -0.6533  0.8362
  172MPD1    H2 2626   2.435   4.536   1.091 -1.2127  1.8946  0.0600
  172MPD1    H3 2627   2.658   4.574   1.126 -0.9775  0.0032  0.1341
  172MPD1     N 2628   2.774   4.512   0.698  0.0164  0.6038  0.7622
  172MPD1    H5 2629   2.869   4.528   0.730 -0.0049 -0.2267  1.2448
  172MPD1    N1 2630   2.330   4.436   0.872 -0.0037 -0.1417 -0.4034
  172MPD1    H6 2631   2.307   4.377   0.952 -1.0915  0.9136  0.0596
  172MPD1    H7 2632   2.324   4.366   0.799  1.1344 -1.0354  0.3585
  173MPD1     C 2633   4.149   0.450  14.163  0.0349  0.0357 -0.3100
  173MPD1    C1 2634   4.093   0.372  14.061  0.6659 -0.2264 -0.6681
  173MPD1    C2 2635   4.004   0.280  14.104  0.7204  0.7074 -0.4088
  173MPD1    C3 2636   3.985   0.235  14.230  0.6049 -0.1113 -0.5067
  173MPD1    C4 2637   4.049   0.305  14.328 -0.4592 -0.4624  0.4734
  173MPD1    C5 2638   4.124   0.412  14.293 -0.0319 -0.7169  0.2227
  173MPD1     H 2639   3.946   0.236  14.023 -0.3891  0.3978  0.5661
  173MPD1    H1 2640   4.047   0.289  14.435  0.7102 -2.0202  0.2592
  173MPD1    H2 2641   4.208   0.541  14.160  0.7191 -0.3792  0.4016
  173MPD1    H3 2642   4.159   0.474  14.375  0.0475  0.5337 -0.7403
  173MPD1     N 2643   3.906   0.124  14.260 -0.2516 -0.0721 -0.0386
  173MPD1    H5 2644   3.873   0.064  14.186 -1.0781 -2.3206  2.1617
  173MPD1    N1 2645   4.084   0.408  13.930 -0.0081  0.3324  0.0544
  173MPD1    H6 2646   4.165   0.467  13.914  0.3070  0.2942  1.4998
  173MPD1    H7 2647   4.085   0.329  13.866  2.0689  2.2874 -2.3231
  174MPD1     C 2648   3.848   4.336  13.690 -0.0336 -0.2701 -0.0679
  174MPD1    C1 2649   3.961   4.368  13.766  0.3034 -0.6981 -0.0606
  174MPD1    C2 2650   3.944   4.392  13.903  0.0726  0.4004 -0.3679
  174MPD1    C3 2651   3.817   4.401  13.950  0.8974  0.1151  0.2730
  174MPD1    C4 2652   3.705   4.374  13.874 -0.3083  0.5861 -0.3566
  174MPD1    C5 2653   3.723   4.340  13.745 -0.3968  0.3127  0.0159
  174MPD1     H 2654   4.029   4.404  13.970 -0.3741 -0.9453  0.4257
  174MPD1    H1 2655   3.601   4.375  13.902  0.3134 -1.1916  2.0674
  174MPD1    H2 2656   3.855   4.318  13.584  0.2151 -1.8834  0.2300
  174MPD1    H3 2657   3.644   4.313  13.676 -0.6231  1.2753 -0.1004
  174MPD1     N 2658   3.802   4.443  14.083 -0.0634 -0.1544  0.6545
  174MPD1    H5 2659   3.884   4.482  14.128 -0.2640  1.1162 -0.0809
  174MPD1    N1 2660   4.083   4.392  13.707  0.3999 -0.0068  0.4317
  174MPD1    H6 2661   4.090   4.313  13.643  0.8267 -0.1542  0.6617
  174MPD1    H7 2662   4.163   4.365  13.763 -0.6965 -0.9338  1.5603
  175MPD1     C 2663   2.523   0.613  14.944 -0.4258  0.5424  0.5885
  175MPD1    C1 2664   2.409   0.658  15.002  0.1952  0.1750 -0.1482
  175MPD1    C2 2665   2.409   0.700  15.134  0.3718  0.4986  0.3811
  175MPD1    C3 2666   2.521   0.696  15.207 -0.0820 -0.0287  0.1905
  175MPD1    C4 2667   2.634   0.656  15.147  0.2335  0.2732 -0.0592
  175MPD1    C5 2668   2.634   0.597  15.024 -0.2270  0.8452 -0.5898
  175MPD1     H 2669   2.316   0.734  15.179 -0.5786 -0.5506 -0.7783
  175MPD1    H1 2670   2.724   0.652  15.208  1.1239 -2.8988 -1.5816
  175MPD1    H2 2671   2.531   0.574  14.843  1.5543  0.5755  0.7302
  175MPD1    H3 2672   2.727   0.555  14.986  0.8018  0.7363  2.0765
  175MPD1     N 2673   2.529   0.712  15.347 -0.1299  0.2928 -0.9961
  175MPD1    H5 2674   2.622   0.731  15.384  0.4828  0.4606 -2.6647
  175MPD1    N1 2675   2.301   0.680  14.916 -0.1860  0.0236  0.5466
  175MPD1    H6 2676   2.211   0.678  14.963 -0.7380  0.8780 -0.4796
  175MPD1    H7 2677   2.295   0.613  14.840 -1.1954 -0.3468  0.9678
  176MPD1     C 2678   3.938   2.187  16.979 -0.2235  0.4245  0.6508
  176MPD1    C1 2679   3.869   2.213  17.099 -0.0746  0.1969 -0.2749
  176MPD1    C2 2680   3.911   2.318  17.179  0.4821  0.2230 -0.7313
  176MPD1    C3 2681   4.027   2.386  17.145 -0.3463  0.2971  0.5695
  176MPD1    C4 2682   4.104   2.341  17.043 -0.9113  0.1281 -0.5226
  176MPD1    C5 2683   4.056   2.244  16.956 -0.4837  0.3174  0.5364
  176MPD1     H 2684   3.850   2.353  17.262  0.6309  0.3589 -0.6810
  176MPD1    H1 2685   4.208   2.371  17.036 -0.9110  0.0863 -0.7136
  176MPD1    H2 2686   3.908   2.106  16.914  0.3314  0.6692  0.0910
  176MPD1    H3 2687   4.129   2.199  16.889 -0.6191  1.1509 -0.1705
  176MPD1     N 2688   4.066   2.495  17.228 -0.2884  0.1024  0.2914
  176MPD1    H5 2689   4.017   2.497  17.317 -1.4029  0.7975 -0.3361
  176MPD1    N1 2690   3.753   2.143  17.135 -0.3729  0.2870  0.1311
  176MPD1    H6 2691   3.750   2.060  17.076 -1.4611 -0.8586  1.8318
  176MPD1    H7 2692   3.767   2.104  17.228  1.2635  2.8766  0.9991
  177MPD1     C 2693   3.103   3.484   9.268  0.1883  0.9185 -1.1883
  177MPD1    C1 2694   2.987   3.553   9.294  0.3376 -0.2942 -0.5801
  177MPD1    C2 2695   2.868   3.496   9.250 -0.1966  1.3454 -0.1607
  177MPD1    C3 2696   2.858   3.376   9.179 -0.2318  0.1598 -0.0415
  177MPD1    C4 2697   2.979   3.305   9.162 -0.0434 -0.3653 -0.0347
  177MPD1    C5 2698   3.094   3.368   9.196  0.4664  0.3800  0.4288
  177MPD1     H 2699   2.777   3.550   9.272 -2.0109 -2.4548  1.8234
  177MPD1    H1 2700   2.979   3.227   9.087 -1.4278 -0.5004  0.1089
  177MPD1    H2 2701   3.201   3.519   9.299 -0.5328  3.1380 -1.4219
  177MPD1    H3 2702   3.186   3.314   9.177 -0.3210 -0.8642  0.1178
  177MPD1     N 2703   2.734   3.334   9.136  0.0341 -0.3788  0.1585
  177MPD1    H5 2704   2.658   3.395   9.166  0.9667  1.5467 -1.3843
  177MPD1    N1 2705   2.994   3.687   9.329 -0.2632  0.0953 -1.0262
  177MPD1    H6 2706   2.907   3.721   9.371  0.3462  0.0846  0.2537
  177MPD1    H7 2707   3.070   3.715   9.390 -1.5039  0.8906  0.1550
  178MPD1     C 2708   0.768   2.471  17.614 -0.0347 -0.4639  0.1724
  178MPD1    C1 2709   0.661   2.557  17.640 -0.2525  0.0673 -0.2656
  178MPD1    C2 2710   0.627   2.657  17.547 -0.1721  0.4702  0.9720
  178MPD1    C3 2711   0.689   2.671  17.425 -0.1268 -0.6065  0.0189
  178MPD1    C4 2712   0.795   2.586  17.406  0.2348 -0.3488  0.3113
  178MPD1    C5 2713   0.835   2.490  17.495 -0.4234  0.2948 -0.2090
  178MPD1     H 2714   0.545   2.720  17.577 -0.7275 -0.1597  0.7697
  178MPD1    H1 2715   0.852   2.590  17.314 -0.6088  1.4677 -0.1340
  178MPD1    H2 2716   0.788   2.384  17.676  0.3937 -1.7711 -1.8128
  178MPD1    H3 2717   0.907   2.415  17.465 -1.3096  0.1371 -1.9676
  178MPD1     N 2718   0.650   2.772  17.332 -0.3139  0.1358 -0.3033
  178MPD1    H5 2719   0.714   2.789  17.255 -1.7716 -0.7051 -1.6876
  178MPD1    N1 2720   0.609   2.569   0.066  1.0463  0.2958 -0.2520
  178MPD1    H6 2721   0.514   2.606   0.070  1.2035  0.5537  1.3103
  178MPD1    H7 2722   0.617   2.480   0.114 -2.0563  0.6635  0.9509
  179MPD1     C 2723   0.425   2.358  15.853  0.1334 -0.1074 -0.0084
  179MPD1    C1 2724   0.415   2.310  15.732  0.0431 -0.2546 -1.0995
  179MPD1    C2 2725   0.336   2.194  15.710 -0.6296  0.5816 -0.5196
  179MPD1    C3 2726   0.284   2.128  15.822 -0.0891 -0.3213  0.0125
  179MPD1    C4 2727   0.291   2.186  15.940  0.3058 -0.1895  0.2174
  179MPD1    C5 2728   0.365   2.297  15.959  0.0629  0.6077  0.0024
  179MPD1     H 2729   0.326   2.157  15.608 -0.6781  1.1310 -0.7167
  179MPD1    H1 2730   0.226   2.141  16.014 -2.3293  2.7977 -0.2981
  179MPD1    H2 2731   0.475   2.454  15.862 -0.5386  0.4517 -2.3422
  179MPD1    H3 2732   0.357   2.346  16.056 -1.6544 -1.3529  0.8574
  179MPD1     N 2733   0.210   2.007  15.812 -0.2541 -0.3467  0.1051
  179MPD1    H5 2734   0.173   1.970  15.898  1.3409 -2.1810  0.0015
  179MPD1    N1 2735   0.461   2.386  15.624 -0.6457  0.1565  0.3587
  179MPD1    H6 2736   0.550   2.432  15.642  1.0939 -3.4470  0.9732
  179MPD1    H7 2737   0.468   2.346  15.530  0.3136  0.8642  0.1234
  180MPD1     C 2738   4.613   3.514  15.153  0.7991  0.0127 -0.4440
  180MPD1    C1 2739   4.683   3.590  15.063 -0.1991 -0.2475 -0.9067
  180MPD1    C2 2740   4.652   3.582  14.925 -1.4145  0.3082 -0.9673
  180MPD1    C3 2741   4.541   3.504  14.883 -0.0786 -0.3126  0.2299
  180MPD1    C4 2742   4.485   3.425  14.974  0.3977 -0.4869 -0.3664
  180MPD1    C5 2743   4.522   3.428  15.101 -0.9220 -0.3218  0.1066
  180MPD1     H 2744   4.714   3.632  14.852 -0.2077  0.3676  0.1100
  180MPD1    H1 2745   4.401   3.361  14.947  0.6390 -1.5908  1.5356
  180MPD1    H2 2746   4.641   3.493  15.255  1.5625  1.0367 -0.4388
  180MPD1    H3 2747   4.470   3.367  15.174  1.0138 -0.6321  1.2090
  180MPD1     N 2748   4.519   3.498  14.745 -0.2498  0.2473  0.5389
  180MPD1    H5 2749   4.582   3.558  14.693  0.3191 -1.3722 -0.6411
  180MPD1    N1 2750   0.073   3.642  15.108  0.8220  0.0651 -0.1698
  180MPD1    H6 2751   0.069   3.678  15.203 -1.3190 -2.7116  0.7834
  180MPD1    H7 2752   0.104   3.724  15.056  0.8204 -0.0629 -0.3713
  181MPD1     C 2753   1.621   4.316  10.209 -0.1862  0.5515  0.1264
  181MPD1    C1 2754   1.586   4.449  10.244  0.7359 -0.3196  0.4809
  181MPD1    C2 2755   1.625   4.547  10.154  0.3764 -0.0162  0.6167
  181MPD1    C3 2756   1.691   4.517  10.040  0.4847 -0.6670 -0.7880
  181MPD1    C4 2757   1.732   4.389  10.013  0.4822  0.6169  0.3214
  181MPD1    C5 2758   1.695   4.290  10.096  0.6147 -0.3257  0.3351
  181MPD1     H 2759   1.601   4.649  10.181  1.4755 -0.0473  1.7262
  181MPD1    H1 2760   1.793   4.359   9.929 -1.7226  1.9586 -1.7364
  181MPD1    H2 2761   1.600   4.231  10.272  0.1617  1.0226  0.8839
  181MPD1    H3 2762   1.723   4.187  10.078 -0.7229 -0.5243 -0.6103
  181MPD1     N 2763   1.744   4.621   9.960  0.2040 -0.1666 -0.7670
  181MPD1    H5 2764   1.813   4.596   9.891  1.1139  3.3041 -1.1169
  181MPD1    N1 2765   1.504   4.478  10.357 -0.1813  0.8259 -0.2073
  181MPD1    H6 2766   1.502   4.578  10.375  2.5979  0.6427  1.0592
  181MPD1    H7 2767   1.536   4.430  10.441  1.2883 -3.0329 -2.9868
  182MPD1     C 2768   2.609   4.147   1.706  0.3290 -0.1220 -0.1867
  182MPD1    C1 2769   2.551   4.270   1.741 -0.9124 -0.2009  0.0351
  182MPD1    C2 2770   2.431   4.307   1.675  0.5947  0.0008  0.2443
  182MPD1    C3 2771   2.377   4.223   1.580 -0.2385  0.7128  0.7740
  182MPD1    C4 2772   2.443   4.107   1.541  0.3566 -0.3524 -0.2678
  182MPD1    C5 2773   2.552   4.066   1.608  0.7916  0.9118  0.5872
  182MPD1     H 2774   2.381   4.397   1.706  1.1295  0.4300 -0.1487
  182MPD1    H1 2775   2.399   4.050   1.461 -1.5179  0.5774  0.0961
  182MPD1    H2 2776   2.698   4.112   1.756  1.0389  1.8333 -0.0962
  182MPD1    H3 2777   2.609   3.980   1.574 -0.7581  0.0116  0.2514
  182MPD1     N 2778   2.260   4.255   1.505 -0.8513  0.5626 -0.1105
  182MPD1    H5 2779   2.220   4.191   1.438  0.3291  0.6787 -0.9420
  182MPD1    N1 2780   2.597   4.349   1.845  0.3342  0.2553 -0.3388
  182MPD1    H6 2781   2.575   4.445   1.822  2.2601  1.2802  2.0102
  182MPD1    H7 2782   2.699   4.348   1.855  0.2390  1.7312  0.7245
  183MPD1     C 2783   3.640   0.144   8.916 -0.0276  0.2616  0.0073
  183MPD1    C1 2784   3.621   0.071   9.032 -0.4408  0.3872  0.4107
  183MPD1    C2 2785   3.514   0.103   9.115 -0.5078  0.3380 -0.2497
  183MPD1    C3 2786   3.430   0.206   9.086  0.0635 -0.5158 -0.4149
  183MPD1    C4 2787   3.445   0.273   8.965  0.1711  0.2581 -1.0501
  183MPD1    C5 2788   3.548   0.242   8.877 -0.5174 -0.6529  0.2437
  183MPD1     H 2789   3.502   0.045   9.206 -1.8240  0.0117 -0.6350
  183MPD1    H1 2790   3.362   0.332   8.928  2.5127  3.3077 -1.4552
  183MPD1    H2 2791   3.719   0.112   8.849 -1.7010  0.6275 -2.1517
  183MPD1    H3 2792   3.571   0.284   8.780 -1.1868  0.8265  0.7268
  183MPD1     N 2793   3.320   0.232   9.178 -0.8657  0.2339 -0.2854
  183MPD1    H5 2794   3.305   0.169   9.256 -1.3039  0.7318  0.0332
  183MPD1    N1 2795   3.704   4.694   9.072 -0.0722 -0.1407 -0.1852
  183MPD1    H6 2796   3.649   4.629   9.126 -0.5495 -0.5748 -1.1844
  183MPD1    H7 2797   3.745   4.642   8.994  0.5620  1.2706 -0.8020
  184MPD1     C 2798   1.867   2.473  10.456  0.3157  0.5774 -0.0262
  184MPD1    C1 2799   1.954   2.578  10.439  0.1141 -0.4589 -0.0059
  184MPD1    C2 2800   2.034   2.579  10.329  0.5372 -0.5943 -0.4350
  184MPD1    C3 2801   2.009   2.494  10.221  0.1834 -0.0425  0.1628
  184MPD1    C4 2802   1.912   2.392  10.239  0.1816 -0.3403  0.2559
  184MPD1    C5 2803   1.843   2.386  10.355  0.2179  0.0507 -0.2493
  184MPD1     H 2804   2.117   2.649  10.328 -1.6867  2.0867  1.2471
  184MPD1    H1 2805   1.894   2.316  10.165 -0.4748  1.4808 -1.4466
  184MPD1    H2 2806   1.824   2.464  10.556  1.2594 -1.3047  0.2056
  184MPD1    H3 2807   1.784   2.302  10.387  2.3483 -1.3362  0.0460
  184MPD1     N 2808   2.067   2.506  10.095  0.5550  0.1138 -0.6629
  184MPD1    H5 2809   2.025   2.445  10.026  2.2599 -0.5741 -1.0991
  184MPD1    N1 2810   1.993   2.656  10.549 -0.0720 -0.1151  0.1066
  184MPD1    H6 2811   2.047   2.737  10.519  1.9816 -2.2183 -1.8835
  184MPD1    H7 2812   1.920   2.681  10.615  0.0666 -2.3459  1.1023
  185MPD1     C 2813   2.094   2.207   9.170  0.4476  0.3900  0.4491
  185MPD1    C1 2814   2.043   2.166   9.292  0.0568 -0.9157 -0.0856
  185MPD1    C2 2815   2.083   2.226   9.407 -0.2861  0.5610  0.6789
  185MPD1    C3 2816   2.163   2.332   9.398  0.7781 -0.2185 -0.2246
  185MPD1    C4 2817   2.223   2.369   9.281  0.6912  0.1564 -0.3779
  185MPD1    C5 2818   2.185   2.310   9.168 -0.2577 -0.4770  0.4139
  185MPD1     H 2819   2.040   2.198   9.502 -1.7541 -1.1298 -0.4727
  185MPD1    H1 2820   2.303   2.442   9.282 -0.1622  1.0759  2.0368
  185MPD1    H2 2821   2.063   2.165   9.075 -0.7380  0.5157  0.7860
  185MPD1    H3 2822   2.242   2.342   9.081 -0.3306  2.0094  1.2741
  185MPD1     N 2823   2.214   2.399   9.509  0.7844 -0.1226 -0.0878
  185MPD1    H5 2824   2.283   2.472   9.495  0.9105 -0.1875  0.1874
  185MPD1    N1 2825   1.925   2.080   9.292  0.5313  0.2696 -0.0446
  185MPD1    H6 2826   1.919   2.034   9.383  2.5003  1.2107  0.5713
  185MPD1    H7 2827   1.928   2.017   9.212  1.1336  1.5644 -1.0439
  186MPD1     C 2828   0.563   1.738  15.483  0.2094 -0.4153  0.2182
  186MPD1    C1 2829   0.571   1.665  15.594  0.2152 -0.0651 -0.0058
  186MPD1    C2 2830   0.559   1.735  15.712  0.2714  0.3927  0.1598
  186MPD1    C3 2831   0.546   1.873  15.712  0.2191  0.1005 -0.1283
  186MPD1    C4 2832   0.552   1.938  15.598  0.1472 -0.6960  0.0878
  186MPD1    C5 2833   0.557   1.872  15.480  0.9249 -0.0518 -0.3060
  186MPD1     H 2834   0.555   1.665  15.794 -1.1140 -0.4843 -0.6511
  186MPD1    H1 2835   0.542   2.046  15.608 -0.5761 -0.8462  0.9997
  186MPD1    H2 2836   0.559   1.686  15.388  1.0822 -0.5117  0.2307
  186MPD1    H3 2837   0.545   1.921  15.384 -0.4998  0.1418 -0.0312
  186MPD1     N 2838   0.530   1.939  15.832 -0.3528 -0.0551  0.1918
  186MPD1    H5 2839   0.524   2.040  15.823  0.7719  0.1072  1.2272
  186MPD1    N1 2840   0.569   1.525  15.591 -0.1115 -0.4048  0.0639
  186MPD1    H6 2841   0.612   1.488  15.507 -0.2948 -2.2170  0.7661
  186MPD1    H7 2842   0.621   1.487  15.670  2.2703  2.3997 -0.1490
  187MPD1     C 2843   0.021   3.677   0.224 -0.6077  0.0003 -0.0911
  187MPD1    C1 2844   4.626   3.614   0.194  0.2397 -0.0355  0.3619
  187MPD1    C2 2845   4.565   3.634   0.073  0.0225 -0.0487 -0.0919
  187MPD1    C3 2846   4.621   3.730  17.684 -0.3869 -0.3281 -0.2567
  187MPD1    C4 2847   0.012   3.794   0.020 -0.0403  0.4117  0.6217
  187MPD1    C5 2848   0.075   3.768   0.137 -0.0717 -0.4442  0.3158
  187MPD1     H 2849   4.470   3.583   0.056  0.2937 -0.9743  1.1737
  187MPD1    H1 2850   0.058   3.864  17.649 -2.2909  0.5085 -0.8315
  187MPD1    H2 2851   0.076   3.657   0.316 -0.4871 -0.9480 -0.3702
  187MPD1    H3 2852   0.171   3.813   0.160 -1.5245  2.8262  0.0463
  187MPD1     N 2853   4.558   3.768  17.565 -0.0435  0.4692  0.7275
  187MPD1    H5 2854   4.586   3.854  17.517 -0.2536  0.7262  1.0646
  187MPD1    N1 2855   4.565   3.519   0.275  0.5863  0.0172 -0.1906
  187MPD1    H6 2856   4.511   3.447   0.228  1.1088 -0.5860  0.1440
  187MPD1    H7 2857   4.625   3.474   0.343 -0.5244 -0.5318  0.4211
  188MPD1     C 2858   0.313   4.069   9.956 -0.0595  0.0259 -0.3730
  188MPD1    C1 2859   0.328   3.998   9.841 -0.6516 -0.4105  0.0923
  188MPD1    C2 2860   0.213   3.978   9.767 -0.9452 -0.7333 -0.5049
  188MPD1    C3 2861   0.083   3.995   9.818  0.6026  0.2007 -0.0605
  188MPD1    C4 2862   0.071   4.051   9.941 -0.0749  0.1819  1.1381
  188MPD1    C5 2863   0.184   4.080  10.014 -0.6073  0.4196 -0.0463
  188MPD1     H 2864   0.222   3.921   9.675 -0.1206 -1.0227 -0.2377
  188MPD1    H1 2865   4.702   4.049   9.997 -1.0538  1.6237 -0.4394
  188MPD1    H2 2866   0.402   4.096  10.012 -0.1641  2.1241 -1.1900
  188MPD1    H3 2867   0.173   4.142  10.103  1.3093 -0.8723  1.0906
  188MPD1     N 2868   4.694   3.931   9.766 -0.6931  0.1534 -0.2077
  188MPD1    H5 2869   4.611   3.943   9.824 -1.8808 -1.9149 -1.4722
  188MPD1    N1 2870   0.452   3.990   9.786  0.3353 -0.2700 -0.1956
  188MPD1    H6 2871   0.511   3.981   9.868  1.3759 -0.9216 -1.0088
  188MPD1    H7 2872   0.458   3.912   9.720 -1.6344  0.5443 -1.3589
  189MPD1     C 2873   1.389   4.035   0.056 -0.1251 -0.4514  0.5823
  189MPD1    C1 2874   1.289   3.942   0.065 -0.8010  0.5070  0.7659
  189MPD1    C2 2875   1.157   3.993   0.046 -0.5250 -0.1242  0.2361
  189MPD1    C3 2876   1.126   4.126   0.030 -0.2942 -0.0440  0.6454
  189MPD1    C4 2877   1.233   4.217   0.031 -0.2956 -0.0805  0.0086
  189MPD1    C5 2878   1.361   4.170   0.043 -0.1070 -0.1365  0.5046
  189MPD1     H 2879   1.076   3.924   0.067 -0.1122 -0.1598  1.6772
  189MPD1    H1 2880   1.213   4.320   0.005 -2.0136 -0.4529 -0.1872
  189MPD1    H2 2881   1.489   4.013   0.093 -0.1479  0.1430  1.0056
  189MPD1    H3 2882   1.443   4.241   0.040 -0.6209  0.5157  2.0022
  189MPD1     N 2883   0.990   4.162   0.018  0.0771  0.4717 -0.1803
  189MPD1    H5 2884   0.917   4.095   0.040 -1.0041  1.3791 -1.0138
  189MPD1    N1 2885   1.310   3.812   0.118 -0.1202  0.3438  0.3118
  189MPD1    H6 2886   1.402   3.775   0.094  1.2187  2.9395  1.4407
  189MPD1    H7 2887   1.244   3.752   0.070  0.3114  0.0840  0.0365
  190MPD1     C 2888   4.197   3.323  15.613  0.2180  0.3036 -0.0738
  190MPD1    C1 2889   4.253   3.241  15.709 -0.0888  0.1118 -0.4110
  190MPD1    C2 2890   4.389   3.234  15.710  0.0593  0.3700 -0.4365
  190MPD1    C3 2891   4.466   3.274  15.599 -0.3467 -0.9337  0.6295
  190MPD1    C4 2892   4.410   3.353  15.497  0.3225 -0.0629  0.4449
  190MPD1    C5 2893   4.273   3.376  15.503  0.2099  0.0142 -0.5097
  190MPD1     H 2894   4.429   3.171  15.789 -1.6508 -1.0163 -0.6711
  190MPD1    H1 2895   4.468   3.390  15.414  0.6392  1.4512  1.3405
  190MPD1    H2 2896   4.090   3.343  15.617  0.1112 -0.3403  0.2201
  190MPD1    H3 2897   4.223   3.437  15.429  0.0596 -1.1759 -1.3782
  190MPD1     N 2898   4.597   3.223  15.596 -0.2913  0.0961 -0.2358
  190MPD1    H5 2899   4.627   3.180  15.683 -1.8448  1.5167  1.0000
  190MPD1    N1 2900   4.173   3.187  15.811  0.2676 -0.1613  0.1459
  190MPD1    H6 2901   4.217   3.115  15.867  1.6089  0.1777 -0.4737
  190MPD1    H7 2902   4.081   3.160  15.778 -0.7573 -0.1115  2.9525
  191MPD1     C 2903   3.738   0.682  12.888 -0.3413  0.1354  0.5604
  191MPD1    C1 2904   3.678   0.774  12.801  0.0194 -0.0545 -0.3503
  191MPD1    C2 2905   3.748   0.797  12.674 -0.3903 -0.8183 -0.3318
  191MPD1    C3 2906   3.880   0.758  12.656  1.3616 -0.0677 -0.3895
  191MPD1    C4 2907   3.945   0.685  12.756  0.4440 -0.6591  0.0526
  191MPD1    C5 2908   3.870   0.644  12.867 -0.0010 -0.1466  0.0731
  191MPD1     H 2909   3.691   0.827  12.587  0.9277  1.7682 -0.2890
  191MPD1    H1 2910   4.049   0.658  12.743  1.0960  1.8522  0.0513
  191MPD1    H2 2911   3.697   0.648  12.982  0.4600  0.1742  0.9258
  191MPD1    H3 2912   3.910   0.582  12.946  0.4350  0.5879  0.4370
  191MPD1     N 2913   3.933   0.776  12.527 -0.1601  0.0515 -0.3539
  191MPD1    H5 2914   3.870   0.812  12.456  1.1476  2.5610 -0.2482
  191MPD1    N1 2915   3.543   0.806  12.822 -0.3281  0.7816  0.2664
  191MPD1    H6 2916   3.512   0.897  12.788  0.0855  1.4682  1.7281
  191MPD1    H7 2917   3.526   0.807  12.923  3.2802 -4.7303  0.9003
  192MPD1     C 2918   3.655   0.600  11.611 -0.0728 -0.0772  0.9186
  192MPD1    C1 2919   3.603   0.600  11.738 -0.4928 -0.1156 -0.2538
  192MPD1    C2 2920   3.685   0.660  11.838  0.2610 -0.5852 -0.3321
  192MPD1    C3 2921   3.805   0.722  11.804  0.4490 -0.1073 -0.3243
  192MPD1    C4 2922   3.854   0.724  11.681  0.6599 -0.0077 -0.1424
  192MPD1    C5 2923   3.773   0.664  11.586 -0.0188  0.7567  0.0909
  192MPD1     H 2924   3.647   0.673  11.939  0.1676 -0.0681 -0.4301
  192MPD1    H1 2925   3.950   0.771  11.665 -0.0828  1.1999 -1.0948
  192MPD1    H2 2926   3.601   0.559  11.526  1.5838 -0.3411  0.0061
  192MPD1    H3 2927   3.805   0.652  11.483 -2.4731  1.6445 -0.7805
  192MPD1     N 2928   3.891   0.772  11.905 -0.1114  0.2440 -0.8446
  192MPD1    H5 2929   3.964   0.830  11.866  0.1210 -1.1067 -2.4448
  192MPD1    N1 2930   3.491   0.541  11.766 -0.5100 -0.1743 -0.5503
  192MPD1    H6 2931   3.444   0.526  11.677 -0.3681  2.3293 -1.0381
  192MPD1    H7 2932   3.434   0.598  11.827  0.3340 -2.1567  2.1261
  193MPD1     C 2933   4.014   4.373  16.267 -0.1189  0.2081  0.1187
  193MPD1    C1 2934   3.963   4.463  16.168 -0.2048 -0.2394  0.1111
  193MPD1    C2 2935   3.963   4.595  16.192  0.4513 -0.5818  0.1381
  193MPD1    C3 2936   4.020   4.642  16.311 -1.0604  0.0171 -0.0430
  193MPD1    C4 2937   4.066   4.551  16.404  0.2593 -0.5963 -0.3761
  193MPD1    C5 2938   4.069   4.413  16.383 -0.4751  0.5726  0.0443
  193MPD1     H 2939   3.907   4.663  16.128  0.1520  0.6782  1.7379
  193MPD1    H1 2940   4.104   4.589  16.498  1.0321 -2.2006 -0.0355
  193MPD1    H2 2941   4.014   4.266  16.252 -0.6737  0.4890 -1.8496
  193MPD1    H3 2942   4.108   4.354  16.465  1.2665 -1.1669 -1.9917
  193MPD1     N 2943   4.027   0.052  16.345  0.5277  0.2255 -0.4039
  193MPD1    H5 2944   4.074   0.071  16.433  2.9405 -0.2888 -1.5773
  193MPD1    N1 2945   3.886   4.416  16.062  0.1007 -0.4834 -0.3938
  193MPD1    H6 2946   3.908   4.321  16.032  2.7626  0.3879 -1.1765
  193MPD1    H7 2947   3.900   4.469  15.976 -1.0266  0.2761 -0.1091
  194MPD1     C 2948   1.871   2.446  16.974 -0.3295 -0.4617 -0.2946
  194MPD1    C1 2949   1.799   2.358  16.889 -0.4616 -0.1786 -0.1548
  194MPD1    C2 2950   1.732   2.251  16.943  0.3473 -0.2186 -0.0620
  194MPD1    C3 2951   1.739   2.223  17.072 -0.4654 -0.1455  0.0179
  194MPD1    C4 2952   1.807   2.305  17.157  0.2151 -0.4176 -0.4840
  194MPD1    C5 2953   1.874   2.409  17.110 -0.0750 -0.6090 -1.0414
  194MPD1     H 2954   1.707   2.176  16.868  0.2560 -0.4730  0.2248
  194MPD1    H1 2955   1.822   2.278  17.260 -1.9006  1.5726  0.3465
  194MPD1    H2 2956   1.924   2.534  16.940  0.9800 -0.8819  0.6416
  194MPD1    H3 2957   1.941   2.464  17.175 -2.8727  1.4579  0.1132
  194MPD1     N 2958   1.700   2.102  17.130  0.1598  0.5473  0.9298
  194MPD1    H5 2959   1.741   2.080  17.220 -0.3599 -0.5811  0.8865
  194MPD1    N1 2960   1.788   2.393  16.753 -0.2910  0.1171 -0.5083
  194MPD1    H6 2961   1.782   2.314  16.690  0.0926 -1.4242  1.3950
  194MPD1    H7 2962   1.858   2.457  16.715  0.4992  0.2402  1.1521
  195MPD1     C 2963   3.229   1.677   0.762 -0.3529  0.3245 -0.0538
  195MPD1    C1 2964   3.336   1.762   0.773  0.4449  0.0892 -0.2697
  195MPD1    C2 2965   3.382   1.823   0.658  0.2950 -0.1308  0.0591
  195MPD1    C3 2966   3.310   1.808   0.537 -0.5236 -0.5283  0.4431
  195MPD1    C4 2967   3.201   1.729   0.534  0.3841  0.2894  0.5587
  195MPD1    C5 2968   3.158   1.667   0.650 -0.3371  0.4141  0.2249
  195MPD1     H 2969   3.474   1.880   0.655 -0.7059  1.4289 -0.5048
  195MPD1    H1 2970   3.139   1.709   0.448  0.9186 -1.7701  0.6373
  195MPD1    H2 2971   3.199   1.626   0.852  2.5434 -0.6847  0.3143
  195MPD1    H3 2972   3.066   1.609   0.650 -1.2622  1.8962  2.6498
  195MPD1     N 2973   3.351   1.875   0.417  0.3148  0.3821  0.2486
  195MPD1    H5 2974   3.287   1.861   0.339  3.0494  0.4095 -2.0148
  195MPD1    N1 2975   3.411   1.781   0.894  0.6199 -0.1632  0.4137
  195MPD1    H6 2976   3.469   1.864   0.894  2.1618 -1.2554  0.3110
  195MPD1    H7 2977   3.358   1.773   0.981  0.4076 -1.2195  0.1898
  196MPD1     C 2978   2.574   3.387   0.383 -0.8458 -0.2480  0.0259
  196MPD1    C1 2979   2.701   3.411   0.413  0.3357 -0.0535 -0.3022
  196MPD1    C2 2980   2.737   3.447   0.542 -0.1285  0.2285  0.5290
  196MPD1    C3 2981   2.638   3.470   0.644  0.1483 -0.5567  0.2518
  196MPD1    C4 2982   2.508   3.454   0.611 -0.0707  0.0602 -0.2732
  196MPD1    C5 2983   2.480   3.399   0.484  0.7152  0.1765  0.0504
  196MPD1     H 2984   2.843   3.463   0.563 -0.0162  1.4902 -1.0180
  196MPD1    H1 2985   2.416   3.479   0.663  0.4434 -2.1242  1.6903
  196MPD1    H2 2986   2.548   3.344   0.287  1.5998  2.9798 -2.0760
  196MPD1    H3 2987   2.382   3.377   0.445 -0.0976  0.8427  1.7145
  196MPD1     N 2988   2.671   3.502   0.776  0.2499 -0.0306 -0.1514
  196MPD1    H5 2989   2.589   3.515   0.835  1.3253 -1.3105  1.6023
  196MPD1    N1 2990   2.803   3.362   0.327 -0.3615  0.2548 -0.4363
  196MPD1    H6 2991   2.892   3.412   0.334 -0.0964  0.1910 -3.3566
  196MPD1    H7 2992   2.776   3.367   0.229 -1.9423 -1.3885 -0.0823
  197MPD1     C 2993   1.937   1.151  17.023 -1.1116 -0.2273 -0.4260
  197MPD1    C1 2994   1.975   1.063  16.922 -0.1485  0.4138 -0.1486
  197MPD1    C2 2995   2.022   1.112  16.805  0.0694 -0.6014 -0.0490
  197MPD1    C3 2996   2.022   1.246  16.782 -1.2950  0.2008 -0.4876
  197MPD1    C4 2997   1.984   1.333  16.877 -0.0820 -1.5172  0.3723
  197MPD1    C5 2998   1.936   1.284  16.992  0.2842  0.9365 -0.3285
  197MPD1     H 2999   2.062   1.038  16.737  1.5369 -0.9599  1.2257
  197MPD1    H1 3000   2.003   1.439  16.862  0.8101 -1.7810 -0.3448
  197MPD1    H2 3001   1.913   1.117  17.123  3.4614 -0.4741  0.6138
  197MPD1    H3 3002   1.888   1.354  17.060  0.3856  0.0143  0.6943
  197MPD1     N 3003   2.073   1.305  16.666 -0.3152  0.1354 -0.2205
  197MPD1    H5 3004   2.081   1.405  16.680  0.3779 -0.2146  1.8348
  197MPD1    N1 3005   1.995   0.931  16.956 -0.3345 -0.5530  0.4047
  197MPD1    H6 3006   1.983   0.866  16.878  2.3815  0.0593 -0.5262
  197MPD1    H7 3007   1.934   0.895  17.028  0.6547 -2.9282  0.0621
  198MPD1     C 3008   3.805   3.938  16.058 -0.0912 -0.4483 -0.2932
  198MPD1    C1 3009   3.924   3.908  16.109  0.2493 -0.1997 -0.8459
  198MPD1    C2 3010   4.035   3.962  16.049 -0.1989  0.1228 -0.4926
  198MPD1    C3 3011   4.036   4.032  15.931 -0.7096 -0.0527 -0.4374
  198MPD1    C4 3012   3.912   4.057  15.881  0.1687  0.4893  0.7483
  198MPD1    C5 3013   3.796   4.010  15.943 -0.1325  0.0691  0.7705
  198MPD1     H 3014   4.130   3.949  16.099 -0.2656  1.2846 -0.0793
  198MPD1    H1 3015   3.888   4.112  15.791  1.4160 -0.3391 -0.0773
  198MPD1    H2 3016   3.713   3.906  16.108 -0.5930 -1.1373 -1.6584
  198MPD1    H3 3017   3.706   4.028  15.885  1.3806  2.3047 -0.8926
  198MPD1     N 3018   4.151   4.079  15.872  0.0506 -0.2492 -0.0226
  198MPD1    H5 3019   4.236   4.065  15.926  1.2235 -0.5481 -1.9551
  198MPD1    N1 3020   3.929   3.847  16.233  0.6987 -0.2512  0.8262
  198MPD1    H6 3021   3.999   3.777  16.256 -0.1507 -2.1564 -2.3375
  198MPD1    H7 3022   3.836   3.819  16.264  0.3497 -0.8185 -0.7132
  199MPD1     C 3023   1.495   0.033   9.572  0.6564 -0.0722 -1.0355
  199MPD1    C1 3024   1.581   0.079   9.473  0.1158  0.0835 -0.2543
  199MPD1    C2 3025   1.600   0.213   9.459 -0.0904  0.3067  0.2184
  199MPD1    C3 3026   1.544   0.310   9.541  0.5225  0.1396 -0.3939
  199MPD1    C4 3027   1.465   0.259   9.645  0.1015  0.1192  0.0431
  199MPD1    C5 3028   1.447   0.124   9.661 -0.5292  0.6270 -0.2475
  199MPD1     H 3029   1.663   0.242   9.376  1.5155 -1.3680  0.8755
  199MPD1    H1 3030   1.412   0.325   9.713  1.8420  0.1756  1.3491
  199MPD1    H2 3031   1.478   4.652   9.593  1.5807  0.2328  1.2219
  199MPD1    H3 3032   1.388   0.092   9.747  1.6187 -0.4648  0.8257
  199MPD1     N 3033   1.559   0.450   9.534  0.2445  0.3455 -0.3718
  199MPD1    H5 3034   1.500   0.501   9.600 -0.0335 -0.6190  0.1290
  199MPD1    N1 3035   1.659   4.707   9.402 -0.5840 -0.2922  0.0289
  199MPD1    H6 3036   1.611   4.619   9.384 -0.8599  0.1724 -1.4964
  199MPD1    H7 3037   1.698   0.013   9.312  0.8562 -0.9680  0.4229
  200MPD1     C 3038   1.033   0.589  14.914  0.2184 -0.2378 -0.0223
  200MPD1    C1 3039   1.114   0.528  14.821 -0.3217  0.4139  0.0303
  200MPD1    C2 3040   1.173   0.608  14.731  0.3546 -0.9052  0.4252
  200MPD1    C3 3041   1.153   0.746  14.732 -0.0575  0.7280  0.0092
  200MPD1    C4 3042   1.074   0.802  14.827 -0.3135  0.0509  0.0848
  200MPD1    C5 3043   1.011   0.722  14.918  0.9597 -0.1222  0.6342
  200MPD1     H 3044   1.234   0.553  14.660  1.4093  0.2204  0.4694
  200MPD1    H1 3045   1.047   0.907  14.830  1.1076  0.4958 -3.0641
  200MPD1    H2 3046   0.981   0.527  14.987  0.1001  2.4295  2.1525
  200MPD1    H3 3047   0.940   0.759  14.992  0.7396 -0.2450  0.4844
  200MPD1     N 3048   1.219   0.815  14.622 -0.4518 -0.0869  0.2286
  200MPD1    H5 3049   1.287   0.762  14.569 -1.8625 -1.6330 -0.0434
  200MPD1    N1 3050   1.136   0.391  14.830  0.0675  0.2656 -0.1138
  200MPD1    H6 3051   1.058   0.346  14.876 -0.9568  0.3563 -1.7852
  200MPD1    H7 3052   1.151   0.336  14.746 -2.1389 -0.6415  0.0938
  201MPD1     C 3053   2.986   0.287  12.730 -0.2064  0.3537  0.1689
  201MPD1    C1 3054   3.000   0.251  12.865 -0.6184  0.2686  0.3315
  201MPD1    C2 3055   3.026   0.116  12.883  0.1268  0.2645 -0.5743
  201MPD1    C3 3056   3.028   0.027  12.779 -0.1847 -0.4796  0.0654
  201MPD1    C4 3057   3.008   0.072  12.656  0.1424  0.1276  0.2990
  201MPD1    C5 3058   2.991   0.200  12.629  0.0822  0.1207  0.3692
  201MPD1     H 3059   3.039   0.076  12.983  0.3927 -0.0673 -0.7452
  201MPD1    H1 3060   3.000   0.009  12.569 -3.2739  1.4858 -0.3697
  201MPD1    H2 3061   2.984   0.394  12.715  0.8304  0.5533  1.4244
  201MPD1    H3 3062   2.989   0.237  12.528 -1.6565  0.2874  0.4746
  201MPD1     N 3063   3.048   4.617  12.805 -0.2776 -0.1749 -0.2198
  201MPD1    H5 3064   3.059   4.598  12.905 -1.2883 -1.4985 -0.3573
  201MPD1    N1 3065   3.039   0.345  12.960  0.0542  0.9096 -0.1898
  201MPD1    H6 3066   2.977   0.425  12.951  1.5486  2.2313  1.1574
  201MPD1    H7 3067   3.020   0.309  13.053 -2.1715  1.3632 -0.4700
  202MPD1     C 3068   3.752   3.947   8.899 -0.0392  0.2790  0.5155
  202MPD1    C1 3069   3.616   3.960   8.925 -0.3206  0.4497  0.1476
  202MPD1    C2 3070   3.584   4.033   9.042 -0.8634  0.1532 -0.0060
  202MPD1    C3 3071   3.674   4.042   9.143 -0.8044  0.4441  0.0732
  202MPD1    C4 3072   3.806   4.016   9.120  0.0578  0.7863  0.0910
  202MPD1    C5 3073   3.840   3.982   8.995 -0.3198 -0.1981  0.5676
  202MPD1     H 3074   3.484   4.069   9.063 -1.5928 -0.6750 -2.1352
  202MPD1    H1 3075   3.881   4.039   9.196  0.2512  0.0792  0.1189
  202MPD1    H2 3076   3.795   3.898   8.812 -1.2565 -2.0389  1.2180
  202MPD1    H3 3077   3.946   3.972   8.975 -0.1060  0.9930  1.1647
  202MPD1     N 3078   3.647   4.083   9.274  0.0717  0.2658  0.6446
  202MPD1    H5 3079   3.715   4.057   9.344 -0.2747  0.6100  1.1115
  202MPD1    N1 3080   3.527   3.978   8.814 -0.0010  0.0692  0.3796
  202MPD1    H6 3081   3.431   3.972   8.848 -0.0605  3.1788  0.8131
  202MPD1    H7 3082   3.536   3.906   8.743 -1.9097  0.4540 -0.2547
  203MPD1     C 3083   2.183   0.767  12.554 -0.3232  0.4431 -0.2166
  203MPD1    C1 3084   2.121   0.683  12.466 -0.6157  0.1568  0.0693
  203MPD1    C2 3085   2.154   0.551  12.471 -0.2788 -0.5596 -0.4080
  203MPD1    C3 3086   2.223   0.496  12.577  0.1208 -0.1558 -0.3328
  203MPD1    C4 3087   2.275   0.581  12.672 -0.0222 -0.8324 -0.8154
  203MPD1    C5 3088   2.259   0.717  12.656 -0.3638  0.6356 -0.1932
  203MPD1     H 3089   2.100   0.494  12.397 -0.3900 -3.0702  1.6105
  203MPD1    H1 3090   2.328   0.551  12.762 -0.3459  1.5925  0.2088
  203MPD1    H2 3091   2.169   0.874  12.545 -2.8355  0.3021  1.8633
  203MPD1    H3 3092   2.299   0.792  12.723 -1.0030  0.0125  0.8887
  203MPD1     N 3093   2.235   0.355  12.575 -0.2296  0.0787 -0.2430
  203MPD1    H5 3094   2.176   0.310  12.506  2.0218 -1.5418 -1.0827
  203MPD1    N1 3095   2.059   0.741  12.354 -0.1429 -0.1431  0.2361
  203MPD1    H6 3096   1.985   0.685  12.313  0.0414 -1.3386  1.5188
  203MPD1    H7 3097   2.015   0.830  12.378 -0.9551 -0.5213  0.1546
  204MPD1     C 3098   0.829   0.050   0.474  0.8741 -0.4179  0.1117
  204MPD1    C1 3099   0.948   0.087   0.544  0.4309 -0.5133 -0.3553
  204MPD1    C2 3100   1.027   0.176   0.479  0.6952  0.3003  0.0751
  204MPD1    C3 3101   0.995   0.231   0.357  0.5631 -0.7294 -0.0980
  204MPD1    C4 3102   0.878   0.198   0.297  0.6928 -0.5870 -0.4110
  204MPD1    C5 3103   0.800   0.100   0.354 -0.2112  0.5869 -0.0813
  204MPD1     H 3104   1.123   0.201   0.524  0.6089 -0.4647  0.6961
  204MPD1    H1 3105   0.846   0.231   0.198  0.5599 -3.6542 -1.3765
  204MPD1    H2 3106   0.756   4.705   0.515  0.6665 -1.4972 -2.0477
  204MPD1    H3 3107   0.711   0.064   0.303 -1.5012  1.7241  1.3640
  204MPD1     N 3108   1.087   0.320   0.307  0.0813 -0.1805 -0.1247
  204MPD1    H5 3109   1.182   0.308   0.339 -0.8376  0.6284  2.9404
  204MPD1    N1 3110   0.996   0.015   0.657  0.1904 -0.1410 -0.2547
  204MPD1    H6 3111   1.065   0.068   0.709 -2.6832  1.1662  2.2671
  204MPD1    H7 3112   0.928   4.719   0.731 -1.1872  1.9515 -0.9601
  205MPD1     C 3113   1.498   0.152  16.610  0.6537  0.5261  0.0405
  205MPD1    C1 3114   1.620   0.087  16.610  0.4046 -0.3333  0.0914
  205MPD1    C2 3115   1.658   0.011  16.724  0.0852  0.9213  0.1442
  205MPD1    C3 3116   1.584   0.017  16.839  0.2567 -0.1462 -0.2731
  205MPD1    C4 3117   1.462   0.083  16.835 -0.1639  0.2671  0.0434
  205MPD1    C5 3118   1.420   0.153  16.724  0.4161  0.0522 -0.2373
  205MPD1     H 3119   1.746   4.671  16.719 -0.3431  0.5409 -2.5700
  205MPD1    H1 3120   1.383   0.079  16.910 -0.5344 -3.2076 -0.5041
  205MPD1    H2 3121   1.458   0.192  16.518 -1.9522  1.6294  1.6686
  205MPD1    H3 3122   1.319   0.193  16.718  0.2349 -0.6920 -2.1425
  205MPD1     N 3123   1.623   4.681  16.962 -0.2105  0.4028  0.5362
  205MPD1    H5 3124   1.569   4.711  17.042 -0.5791  1.3117 -0.0562
  205MPD1    N1 3125   1.689   0.068  16.488 -0.1179 -0.0806  0.1990
  205MPD1    H6 3126   1.787   0.050  16.507 -0.1821 -1.9235 -1.2672
  205MPD1    H7 3127   1.680   0.153  16.432 -0.0275 -0.6145 -0.6289
  206MPD1     C 3128   2.110   2.485  16.675  0.0066 -0.3010 -0.1031
  206MPD1    C1 3129   2.049   2.604  16.665 -0.5335  0.0530  0.1080
  206MPD1    C2 3130   1.965   2.621  16.556  0.3445  0.1608  0.3332
  206MPD1    C3 3131   1.949   2.526  16.462 -0.1778 -0.2717 -0.5959
  206MPD1    C4 3132   2.023   2.409  16.474 -0.2690  0.2080  0.1582
  206MPD1    C5 3133   2.112   2.396  16.576 -0.1082 -0.3267 -0.1376
  206MPD1     H 3134   1.915   2.716  16.538 -1.1227 -0.6380  0.2265
  206MPD1    H1 3135   1.996   2.327  16.409  1.3553 -0.4602  0.3088
  206MPD1    H2 3136   2.173   2.455  16.759  0.2196  1.0385  0.2068
  206MPD1    H3 3137   2.162   2.301  16.587  0.6195  0.0884  0.1214
  206MPD1     N 3138   1.862   2.541  16.353  0.1823 -0.3945 -0.3181
  206MPD1    H5 3139   1.834   2.455  16.305 -1.7063  0.0014  0.0623
  206MPD1    N1 3140   2.048   2.686  16.778 -0.1625 -0.3551  0.2191
  206MPD1    H6 3141   2.036   2.777  16.735 -2.7116 -0.8470 -0.1226
  206MPD1    H7 3142   2.135   2.674  16.829  1.4618  2.3611 -1.9325
  207MPD1     C 3143   4.348   0.223   8.924 -0.2170  0.2753  1.1521
  207MPD1    C1 3144   4.477   0.268   8.898 -0.0439  0.3951  0.1041
  207MPD1    C2 3145   4.546   0.343   8.993  0.1530 -0.6343 -0.1121
  207MPD1    C3 3146   4.480   0.386   9.110 -0.1034  0.0819  0.2998
  207MPD1    C4 3147   4.357   0.334   9.136  0.5043  0.0319 -0.4694
  207MPD1    C5 3148   4.297   0.249   9.048 -0.3045  0.2239  0.4432
  207MPD1     H 3149   4.643   0.386   8.970 -1.1736  1.9630 -0.8876
  207MPD1    H1 3150   4.295   0.366   9.219 -0.3746 -1.5300 -0.5028
  207MPD1    H2 3151   4.287   0.157   8.863  1.4574  0.5041 -0.7787
  207MPD1    H3 3152   4.202   0.201   9.071  0.3107 -1.3268 -0.2431
  207MPD1     N 3153   4.531   0.496   9.191  0.0518  0.5731  0.1072
  207MPD1    H5 3154   4.482   0.516   9.278 -1.2161 -0.7650 -0.3010
  207MPD1    N1 3155   4.535   0.242   8.773 -0.3486  0.3206 -0.5914
  207MPD1    H6 3156   4.487   0.163   8.730  4.1111 -2.1781 -1.0261
  207MPD1    H7 3157   4.637   0.240   8.771 -0.2535  2.0136  3.5842
  208MPD1     C 3158   3.125   4.112   0.719 -0.0327 -0.1825 -0.5183
  208MPD1    C1 3159   3.022   4.180   0.788  0.6337  0.3203  0.2529
  208MPD1    C2 3160   2.905   4.210   0.717 -0.5862 -0.2326  0.8726
  208MPD1    C3 3161   2.877   4.153   0.589  0.0512 -0.2463  0.2971
  208MPD1    C4 3162   2.980   4.083   0.522 -0.2872  0.4999  0.2849
  208MPD1    C5 3163   3.100   4.070   0.591  0.2208  0.6817 -0.5573
  208MPD1     H 3164   2.832   4.266   0.775  0.6266  0.9442  1.2702
  208MPD1    H1 3165   2.962   4.027   0.431  1.9908 -0.2856  0.3211
  208MPD1    H2 3166   3.219   4.082   0.763  0.1301 -1.2351 -1.5947
  208MPD1    H3 3167   3.177   4.015   0.537  1.9855  0.1086  2.5379
  208MPD1     N 3168   2.745   4.156   0.540 -0.6412  0.4599 -0.3393
  208MPD1    H5 3169   2.668   4.198   0.591 -1.3712 -2.4894  0.9855
  208MPD1    N1 3170   3.052   4.238   0.916  0.2534 -0.3161 -0.1115
  208MPD1    H6 3171   2.965   4.243   0.968  1.7903 -0.4961  2.4909
  208MPD1    H7 3172   3.116   4.183   0.974 -0.7387 -1.5052 -0.1541
  209MPD1     C 3173   0.124   4.680  10.932  0.1684  0.3103  0.0001
  209MPD1    C1 3174   0.155   0.087  10.968 -0.0922  0.6713  0.1976
  209MPD1    C2 3175   0.132   0.189  10.878 -0.1431  0.1854  0.0407
  209MPD1    C3 3176   0.069   0.162  10.757 -0.4118 -0.4402  0.3189
  209MPD1    C4 3177   0.016   0.032  10.738 -0.2279  0.1110 -0.6314
  209MPD1    C5 3178   0.049   4.660  10.822  0.8549 -0.8222  0.0675
  209MPD1     H 3179   0.176   0.286  10.899 -0.5806  0.8431 -2.1644
  209MPD1    H1 3180   4.673   0.014  10.654 -1.1539  3.2361 -0.5633
  209MPD1    H2 3181   0.142   4.596  10.999  1.5312  0.6996  0.1280
  209MPD1    H3 3182   0.018   4.558  10.799 -2.3573 -0.1763  1.6227
  209MPD1     N 3183   0.055   0.270  10.664  0.2684 -0.1100 -0.1396
  209MPD1    H5 3184   0.101   0.353  10.700  0.1219 -0.8364  1.7185
  209MPD1    N1 3185   0.238   0.099  11.079 -0.0092 -0.5448 -0.2169
  209MPD1    H6 3186   0.236   0.192  11.120  0.5382 -0.5073 -0.2818
  209MPD1    H7 3187   0.227   0.029  11.152  1.6474 -2.7614 -2.0681
  210MPD1     C 3188   0.418   1.174  10.504 -0.2771  0.6619  0.1715
  210MPD1    C1 3189   0.325   1.122  10.589 -0.4043 -0.1490  0.2507
  210MPD1    C2 3190   0.254   1.005  10.555  0.3218  0.5818  0.3626
  210MPD1    C3 3191   0.302   0.933  10.450  0.4682 -0.3703 -0.1548
  210MPD1    C4 3192   0.397   0.982  10.363  0.5961  0.3597 -0.6979
  210MPD1    C5 3193   0.453   1.106  10.389 -0.1956  0.5300  0.2454
  210MPD1     H 3194   0.167   0.972  10.609 -0.6868 -1.0949 -2.2797
  210MPD1    H1 3195   0.418   0.943  10.264  0.6738  0.8670 -0.8830
  210MPD1    H2 3196   0.467   1.269  10.522  1.6271 -0.2744 -0.0708
  210MPD1    H3 3197   0.522   1.151  10.318 -0.1068  0.3124  0.1927
  210MPD1     N 3198   0.249   0.805  10.420  0.0051  0.2018 -0.1114
  210MPD1    H5 3199   0.272   0.764  10.330  1.3558 -0.5201  0.5472
  210MPD1    N1 3200   0.288   1.186  10.715 -0.3440 -0.5609 -0.2982
  210MPD1    H6 3201   0.337   1.274  10.731  0.5131 -0.5929 -2.7711
  210MPD1    H7 3202   0.188   1.200  10.729 -0.2136 -2.2707  2.3113
  211MPD1     C 3203   2.419   4.265  15.991  0.0382  0.0194 -0.6259
  211MPD1    C1 3204   2.379   4.384  16.046 -0.2800  0.3021 -0.7547
  211MPD1    C2 3205   2.248   4.412  16.064 -0.8443 -0.2062  0.0793
  211MPD1    C3 3206   2.158   4.321  16.021 -0.5296 -0.2769  0.7849
  211MPD1    C4 3207   2.196   4.201  15.971 -0.7225  0.2695 -0.6674
  211MPD1    C5 3208   2.328   4.176  15.947  0.3151  0.1337 -0.7143
  211MPD1     H 3209   2.209   4.507  16.101  0.4106  0.4815 -0.3877
  211MPD1    H1 3210   2.133   4.115  15.950  0.1145 -0.2211 -1.1623
  211MPD1    H2 3211   2.523   4.242  15.973  0.2489 -0.3879  1.0876
  211MPD1    H3 3212   2.368   4.086  15.901  2.4000 -0.2339  1.8196
  211MPD1     N 3213   2.018   4.351  16.029  0.7559 -0.7421 -0.0259
  211MPD1    H5 3214   1.995   4.445  16.058  3.1377  0.5203 -2.2623
  211MPD1    N1 3215   2.478   4.475  16.079 -0.6461  0.5660 -0.1578
  211MPD1    H6 3216   2.545   4.477  16.003  0.7502  0.4222  1.0601
  211MPD1    H7 3217   2.439   4.564  16.110  0.0760  1.1930 -1.0497
  212MPD1     C 3218   1.410   3.115  16.684 -0.0880  0.1292  0.3455
  212MPD1    C1 3219   1.370   3.033  16.578 -0.2417 -0.0248 -0.2535
  212MPD1    C2 3220   1.294   2.920  16.602 -0.3189 -0.2803 -0.0298
  212MPD1    C3 3221   1.263   2.889  16.732  0.2124  0.1740  0.5336
  212MPD1    C4 3222   1.293   2.977  16.829  0.1507 -0.6255 -0.5697
  212MPD1    C5 3223   1.361   3.094  16.805 -0.5697 -0.1696  0.4906
  212MPD1     H 3224   1.259   2.858  16.521 -0.6172 -0.9966  0.6454
  212MPD1    H1 3225   1.286   2.942  16.931 -0.8470  0.7587 -0.1557
  212MPD1    H2 3226   1.474   3.202  16.674  0.0343  0.2663  2.3228
  212MPD1    H3 3227   1.396   3.155  16.887 -1.7903  2.0949 -0.6673
  212MPD1     N 3228   1.181   2.777  16.767  0.7176 -0.2084  0.4540
  212MPD1    H5 3229   1.169   2.759  16.866  1.4496 -0.0080  0.5783
  212MPD1    N1 3230   1.384   3.086  16.445 -0.2223 -0.3607  0.1439
  212MPD1    H6 3231   1.398   3.019  16.370  1.8528  0.9903 -0.6870
  212MPD1    H7 3232   1.469   3.142  16.446 -1.1241  1.0294 -1.3697
  213MPD1     C 3233   4.453   4.036  15.234  0.4268 -0.2603 -0.1701
  213MPD1    C1 3234   4.466   3.988  15.105  0.1594 -0.1127 -0.2191
  213MPD1    C2 3235   4.347   3.952  15.043  0.3379 -0.0302  1.1502
  213MPD1    C3 3236   4.227   3.951  15.114 -0.7374  0.5057 -0.5485
  213MPD1    C4 3237   4.231   3.985  15.251  0.4878  0.1495  0.3360
  213MPD1    C5 3238   4.339   4.037  15.307  0.2948 -0.3404  0.1250
  213MPD1     H 3239   4.345   3.930  14.937 -1.5259 -0.4215  1.2736
  213MPD1    H1 3240   4.139   3.998  15.305  0.2179 -1.2435  0.2302
  213MPD1    H2 3241   4.532   4.102  15.268 -0.9548  0.9103  0.7728
  213MPD1    H3 3242   4.329   4.087  15.402  2.3291  0.4257 -0.0532
  213MPD1     N 3243   4.104   3.905  15.052  0.3580 -0.1951 -0.6769
  213MPD1    H5 3244   4.111   3.889  14.952  1.6180 -1.1231 -0.4480
  213MPD1    N1 3245   4.582   4.037  15.037  0.0878  0.7637 -0.6177
  213MPD1    H6 3246   4.602   3.986  14.951  0.4031 -0.0064 -0.0795
  213MPD1    H7 3247   4.664   4.028  15.096 -1.4497  1.0304  1.5571
  214MPD1     C 3248   3.213   3.264  14.978  0.3176 -0.4682  0.2865
  214MPD1    C1 3249   3.267   3.303  15.099 -0.1989  0.0834 -0.2855
  214MPD1    C2 3250   3.359   3.407  15.086  0.7316 -0.2884  0.5627
  214MPD1    C3 3251   3.414   3.449  14.964  0.4455  0.2185 -0.1521
  214MPD1    C4 3252   3.370   3.394  14.851 -0.9940  0.0101 -0.6516
  214MPD1    C5 3253   3.270   3.302  14.860 -0.4503  0.2161 -0.2863
  214MPD1     H 3254   3.402   3.453  15.174 -0.1435  2.1560 -0.2741
  214MPD1    H1 3255   3.408   3.419  14.753  0.0026  2.4819  0.3818
  214MPD1    H2 3256   3.127   3.198  14.981  0.9574 -1.2563  1.3360
  214MPD1    H3 3257   3.217   3.266  14.773 -1.9133 -0.0740  0.7322
  214MPD1     N 3258   3.514   3.545  14.945 -0.5177  0.6910  0.6406
  214MPD1    H5 3259   3.520   3.582  14.851  1.1972 -0.8410  0.1340
  214MPD1    N1 3260   3.198   3.268  15.216  0.5914 -0.3478 -0.2675
  214MPD1    H6 3261   3.177   3.168  15.221  0.3935 -0.2245  1.4852
  214MPD1    H7 3262   3.259   3.273  15.298  1.1913  0.2870 -0.7487
  215MPD1     C 3263   4.347   4.465  10.597  0.4847 -0.2446 -0.6788
  215MPD1    C1 3264   4.443   4.433  10.700  0.4943 -0.2293 -0.1004
  215MPD1    C2 3265   4.458   4.533  10.793 -0.3343 -0.1039  0.0918
  215MPD1    C3 3266   4.379   4.646  10.789 -0.2813 -0.5395 -0.1783
  215MPD1    C4 3267   4.286   4.673  10.685 -0.5525 -0.2167 -0.5709
  215MPD1    C5 3268   4.267   4.578  10.592 -0.2757  0.0102  0.0205
  215MPD1     H 3269   4.529   4.521  10.873 -1.7167 -0.6262  1.2360
  215MPD1    H1 3270   4.231   0.043  10.677 -0.7469 -0.0347  2.8595
  215MPD1    H2 3271   4.323   4.395  10.517 -1.1591  0.4392 -0.7883
  215MPD1    H3 3272   4.197   4.592  10.510 -0.1673 -2.3205 -0.4835
  215MPD1     N 3273   4.395   0.028  10.877  0.0912 -0.5115 -0.2401
  215MPD1    H5 3274   4.353   0.116  10.849 -3.7079 -1.9631  0.9578
  215MPD1    N1 3275   4.522   4.320  10.691 -0.1632  0.5894 -0.2420
  215MPD1    H6 3276   4.469   4.243  10.651  2.1188 -1.0762 -0.1069
  215MPD1    H7 3277   4.550   4.300  10.787 -0.9382 -2.8373 -0.7310
  216MPD1     C 3278   0.935   1.315  16.715 -0.5997 -0.3793  0.5717
  216MPD1    C1 3279   0.908   1.376  16.831  0.1159 -0.3117  0.1143
  216MPD1    C2 3280   0.892   1.306  16.947 -1.0054 -0.0698 -0.4750
  216MPD1    C3 3281   0.917   1.175  16.946 -0.1651  0.7225  0.4652
  216MPD1    C4 3282   0.943   1.108  16.834 -0.2751 -0.0646 -0.0592
  216MPD1    C5 3283   0.956   1.179  16.715 -0.3870  0.0475 -0.0914
  216MPD1     H 3284   0.869   1.348  17.044  0.4765 -1.7089  0.5816
  216MPD1    H1 3285   0.946   1.000  16.826  2.6762  0.1036 -1.2841
  216MPD1    H2 3286   0.924   1.367  16.621  3.2971 -0.2437  0.1543
  216MPD1    H3 3287   0.985   1.131  16.622 -0.2355  1.3297 -0.7132
  216MPD1     N 3288   0.911   1.112  17.077  0.4683  0.6683 -0.6301
  216MPD1    H5 3289   0.867   1.164  17.152 -2.2509 -2.1552 -0.2882
  216MPD1    N1 3290   0.871   1.513  16.825 -0.1620  0.0437 -0.2374
  216MPD1    H6 3291   0.910   1.576  16.756  0.5098 -0.1143 -0.0076
  216MPD1    H7 3292   0.873   1.559  16.916  2.1900 -1.6260  0.5634
  217MPD1     C 3293   2.005   2.919   8.281 -0.0228 -0.0467  0.5662
  217MPD1    C1 3294   2.017   3.033   8.206  0.6261 -0.5548  0.2549
  217MPD1    C2 3295   2.124   3.117   8.222  0.5785  0.1868 -0.0970
  217MPD1    C3 3296   2.210   3.102   8.332  0.0491 -0.1360  0.1145
  217MPD1    C4 3297   2.194   2.984   8.399 -0.0874 -0.0007 -0.5085
  217MPD1    C5 3298   2.098   2.889   8.370  0.3447 -0.4471  0.1456
  217MPD1     H 3299   2.133   3.207   8.163 -0.5604 -0.1530 -0.7967
  217MPD1    H1 3300   2.266   2.968   8.478 -0.7174 -2.2818 -0.3983
  217MPD1    H2 3301   1.928   2.845   8.264 -0.7431  0.3743  2.0080
  217MPD1    H3 3302   2.095   2.797   8.429  3.7246 -1.0585 -0.6561
  217MPD1     N 3303   2.309   3.191   8.368  0.2470 -0.4369 -0.4232
  217MPD1    H5 3304   2.378   3.157   8.434 -3.3273 -1.2450  2.8753
  217MPD1    N1 3305   1.931   3.057   8.099  0.7089 -0.0386  0.2091
  217MPD1    H6 3306   1.852   2.995   8.084  0.0906  0.4231  1.5198
  217MPD1    H7 3307   1.907   3.156   8.096  1.3189  0.0311 -2.0566
  218MPD1     C 3308   3.001   0.597  12.325  0.5510 -0.1491  0.2718
  218MPD1    C1 3309   3.021   0.461  12.327 -0.4384 -0.3804  0.6664
  218MPD1    C2 3310   3.135   0.415  12.389  0.7267 -0.2091  0.0782
  218MPD1    C3 3311   3.237   0.493  12.433 -0.1023 -0.8141 -0.2548
  218MPD1    C4 3312   3.222   0.633  12.422  0.3275  0.2703 -0.0934
  218MPD1    C5 3313   3.105   0.681  12.366 -0.0333 -0.0563  0.1026
  218MPD1     H 3314   3.156   0.309  12.386 -0.8476 -0.5581  1.0949
  218MPD1    H1 3315   3.300   0.705  12.444  0.8847 -0.1065 -0.8232
  218MPD1    H2 3316   2.910   0.635  12.280  0.8575  0.4065  0.1310
  218MPD1    H3 3317   3.094   0.788  12.351 -0.7463 -0.0502  0.6579
  218MPD1     N 3318   3.354   0.437  12.481  0.0478  0.1164 -0.5036
  218MPD1    H5 3319   3.358   0.336  12.493 -0.5865  0.1414 -0.0801
  218MPD1    N1 3320   2.912   0.379  12.295 -0.1164  0.1722  0.3825
  218MPD1    H6 3321   2.861   0.400  12.210 -0.4245  1.2307  0.8392
  218MPD1    H7 3322   2.949   0.286  12.273  1.2214  0.9835 -0.8012
  219MPD1     C 3323   4.455   0.449  12.518  0.0632  0.3541 -0.2979
  219MPD1    C1 3324   4.382   0.491  12.407  0.0835  0.0991  0.0312
  219MPD1    C2 3325   4.247   0.473  12.407  0.3226 -0.0037 -0.5086
  219MPD1    C3 3326   4.186   0.420  12.517 -0.0921 -0.1752 -0.6248
  219MPD1    C4 3327   4.252   0.371  12.626  0.4285  0.0269  0.8106
  219MPD1    C5 3328   4.391   0.385  12.626  0.1055  0.2077 -0.2358
  219MPD1     H 3329   4.187   0.509  12.324  0.4154 -0.5185 -0.7932
  219MPD1    H1 3330   4.200   0.331  12.713  0.6327 -1.1641  0.3793
  219MPD1    H2 3331   4.562   0.455  12.507  0.2701 -1.1814  0.9554
  219MPD1    H3 3332   4.457   0.353  12.705 -0.8746  1.0489  0.9166
  219MPD1     N 3333   4.047   0.411  12.538 -0.2241 -0.2715 -0.4956
  219MPD1    H5 3334   4.008   0.354  12.612  1.7900 -1.5020 -0.3915
  219MPD1    N1 3335   4.451   0.567  12.303  0.1656 -0.2127 -0.0914
  219MPD1    H6 3336   4.549   0.542  12.307  0.0380 -0.4143  1.7538
  219MPD1    H7 3337   4.423   0.531  12.212  2.0397 -0.7348 -0.4667
  220MPD1     C 3338   4.308   1.042   9.463 -0.0851  0.5699 -0.0855
  220MPD1    C1 3339   4.351   1.100   9.582  0.9742 -0.0697  0.0322
  220MPD1    C2 3340   4.299   1.044   9.700 -0.2537  0.1895 -0.3665
  220MPD1    C3 3341   4.219   0.933   9.699 -0.3958 -0.1867  0.4824
  220MPD1    C4 3342   4.188   0.875   9.575  0.0821 -1.0136 -0.3652
  220MPD1    C5 3343   4.236   0.922   9.461  0.2254  0.2845 -0.2514
  220MPD1     H 3344   4.337   1.091   9.790 -0.1162 -0.1309 -0.2568
  220MPD1    H1 3345   4.118   0.792   9.576 -1.3189  0.1774  0.1073
  220MPD1    H2 3346   4.340   1.086   9.370 -2.1781 -1.9368 -1.9806
  220MPD1    H3 3347   4.210   0.878   9.365 -0.4995 -0.1438  0.1347
  220MPD1     N 3348   4.187   0.875   9.825 -0.6284  0.4816 -0.0671
  220MPD1    H5 3349   4.198   0.935   9.906 -0.8840  0.8926 -0.3360
  220MPD1    N1 3350   4.411   1.226   9.580  0.1565 -0.1195 -0.0785
  220MPD1    H6 3351   4.483   1.228   9.652 -0.1201 -2.6046  0.2568
  220MPD1    H7 3352   4.459   1.257   9.495  0.1227 -2.5264 -0.9782
  221MPD1     C 3353   2.218   3.203  16.017 -0.1981 -0.8201 -0.2324
  221MPD1    C1 3354   2.087   3.209  16.038  0.3470  0.5303 -0.3092
  221MPD1    C2 3355   2.015   3.329  16.028 -0.5122  0.7547  0.5848
  221MPD1    C3 3356   2.084   3.450  16.027 -0.3079 -0.4569 -0.4372
  221MPD1    C4 3357   2.222   3.447  16.030 -0.1309 -0.0252 -0.0566
  221MPD1    C5 3358   2.284   3.323  16.019 -0.3509  0.6881  1.1901
  221MPD1     H 3359   1.908   3.340  16.012 -1.0356 -1.3270  2.7250
  221MPD1    H1 3360   2.290   3.531  16.033  0.9403 -0.9758  2.5071
  221MPD1    H2 3361   2.270   3.109  16.005 -0.1509 -0.6112 -1.6409
  221MPD1    H3 3362   2.391   3.315  16.009 -0.6133 -0.1830 -0.8277
  221MPD1     N 3363   2.014   3.570  16.036 -0.7423  0.0490  0.7551
  221MPD1    H5 3364   2.066   3.657  16.050 -0.2742  0.1242 -1.4533
  221MPD1    N1 3365   2.019   3.083  16.030  0.3440  0.2060  0.3628
  221MPD1    H6 3366   1.934   3.082  16.086 -0.1945 -0.9664 -0.4805
  221MPD1    H7 3367   2.074   3.005  16.067 -1.9939 -1.9426 -0.6950
  222MPD1     C 3368   1.633   3.345  16.234  0.0910 -0.4725 -0.3676
  222MPD1    C1 3369   1.658   3.374  16.367  0.2208 -0.3206 -0.4998
  222MPD1    C2 3370   1.700   3.275  16.451 -0.2615  0.2293 -0.1927
  222MPD1    C3 3371   1.717   3.146  16.403  0.1781  0.1573 -0.3020
  222MPD1    C4 3372   1.709   3.121  16.263  0.3400  0.4936 -0.6224
  222MPD1    C5 3373   1.656   3.216  16.183 -0.0617  0.0240 -0.6701
  222MPD1     H 3374   1.698   3.291  16.559 -0.3595  1.5231 -0.3857
  222MPD1    H1 3375   1.727   3.023  16.220 -0.4161 -0.2634  0.7841
  222MPD1    H2 3376   1.619   3.428  16.165  0.6919  0.3700  0.5184
  222MPD1    H3 3377   1.641   3.198  16.078 -0.3254  0.0969 -0.6447
  222MPD1     N 3378   1.744   3.028  16.479  1.0672 -0.4681  0.8277
  222MPD1    H5 3379   1.747   2.936  16.437  1.3233  0.5544 -1.3970
  222MPD1    N1 3380   1.648   3.505  16.405 -0.0302  0.2841  0.4468
  222MPD1    H6 3381   1.561   3.550  16.378  0.9327  2.0398  0.2568
  222MPD1    H7 3382   1.651   3.526  16.505 -1.4174 -1.0204  0.7673
  223MPD1     C 3383   1.410   2.120  16.468  0.3387  0.6337  0.0203
  223MPD1    C1 3384   1.466   2.125  16.596 -0.1092 -0.1161  0.2379
  223MPD1    C2 3385   1.487   2.246  16.658 -0.5491 -0.4156  0.2805
  223MPD1    C3 3386   1.468   2.364  16.590 -0.2067 -0.7430  0.7353
  223MPD1    C4 3387   1.408   2.362  16.464  0.0277  0.3894 -0.3620
  223MPD1    C5 3388   1.385   2.238  16.404  0.0870 -0.0116 -0.4166
  223MPD1     H 3389   1.529   2.248  16.758  1.8637 -0.9952 -0.7234
  223MPD1    H1 3390   1.382   2.451  16.409  3.5735  1.8501  0.3463
  223MPD1    H2 3391   1.390   2.036  16.403 -1.0130  1.0641 -0.1138
  223MPD1    H3 3392   1.336   2.231  16.307  2.2452 -3.0189 -1.2947
  223MPD1     N 3393   1.505   2.486  16.653  0.3615 -0.0523 -0.2985
  223MPD1    H5 3394   1.562   2.471  16.736  0.6420 -0.1079 -0.5055
  223MPD1    N1 3395   1.527   2.013  16.651 -0.0136  0.2050  1.3755
  223MPD1    H6 3396   1.536   2.026  16.752 -5.0015  0.8739  1.7058
  223MPD1    H7 3397   1.462   1.935  16.656 -0.0097  0.1224 -0.0334
  224MPD1     C 3398   2.885   0.209   9.004 -0.1245 -0.4833 -0.0724
  224MPD1    C1 3399   2.976   0.112   9.021  0.2907  0.6039 -0.2331
  224MPD1    C2 3400   2.951   0.001   9.103 -0.2029 -0.3687  0.4203
  224MPD1    C3 3401   2.842   0.011   9.192 -0.1470 -0.7265  0.1963
  224MPD1    C4 3402   2.748   0.112   9.177  0.1199 -0.4852 -0.4012
  224MPD1    C5 3403   2.771   0.214   9.083 -0.4573  0.2669 -0.0065
  224MPD1     H 3404   3.018   4.639   9.099  1.9498  1.3294 -0.2429
  224MPD1    H1 3405   2.664   0.119   9.245  1.6030  2.3529  1.1393
  224MPD1    H2 3406   2.906   0.291   8.935  1.1993  0.5281  1.5295
  224MPD1    H3 3407   2.698   0.294   9.077 -0.0642  0.6161 -0.0853
  224MPD1     N 3408   2.802   4.644   9.293 -0.6429 -0.2287  0.0498
  224MPD1    H5 3409   2.706   4.654   9.323 -1.3075 -3.5170 -0.9732
  224MPD1    N1 3410   3.086   0.111   8.931  0.1837 -0.5624 -0.6259
  224MPD1    H6 3411   3.171   0.060   8.953  1.2096  1.3287 -0.1741
  224MPD1    H7 3412   3.110   0.203   8.893 -2.4178  0.6186  0.6110
  225MPD1     C 3413   3.724   1.408  12.405  0.4207  0.2221 -0.3807
  225MPD1    C1 3414   3.637   1.301  12.432 -1.0226 -0.6123 -0.5594
  225MPD1    C2 3415   3.544   1.275  12.334  0.0274  0.3020  0.0225
  225MPD1    C3 3416   3.521   1.359  12.226 -0.4060  0.3672 -0.1328
  225MPD1    C4 3417   3.598   1.471  12.212 -0.4520  0.3440  0.3369
  225MPD1    C5 3418   3.704   1.488  12.298 -0.7433 -0.5409 -0.2737
  225MPD1     H 3419   3.483   1.187  12.351  0.7256 -0.1660  0.0924
  225MPD1    H1 3420   3.598   1.547  12.134  0.9879  0.0850  0.0844
  225MPD1    H2 3421   3.810   1.429  12.467 -0.2680  1.8987  0.0058
  225MPD1    H3 3422   3.769   1.571  12.273 -1.7143  0.2021 -0.3023
  225MPD1     N 3423   3.420   1.343  12.133 -0.2726 -0.9060 -0.3475
  225MPD1    H5 3424   3.420   1.401  12.049 -1.7025  0.1962  0.4142
  225MPD1    N1 3425   3.659   1.207  12.538 -0.3295  0.6253 -0.1620
  225MPD1    H6 3426   3.571   1.160  12.555  0.1855 -0.7478 -1.3486
  225MPD1    H7 3427   3.697   1.247  12.624  0.4978  0.9794 -0.6969
  226MPD1     C 3428   2.939   2.049  10.012 -0.7504  0.4262 -0.0975
  226MPD1    C1 3429   3.053   2.001   9.956 -0.3120 -0.0157  0.5524
  226MPD1    C2 3430   3.035   1.902   9.853  0.7581 -0.0057  0.2603
  226MPD1    C3 3431   2.911   1.852   9.821  0.5108  0.2888 -0.0080
  226MPD1    C4 3432   2.806   1.894   9.892  0.1287  0.5268 -0.3603
  226MPD1    C5 3433   2.823   1.984   9.996 -0.1728  0.3073  0.5605
  226MPD1     H 3434   3.123   1.856   9.810 -0.7887 -0.8143 -1.9997
  226MPD1    H1 3435   2.705   1.861   9.869 -1.0369  1.5329  3.1733
  226MPD1    H2 3436   2.947   2.124  10.089 -2.6922  0.5485  0.0007
  226MPD1    H3 3437   2.731   2.020  10.040 -1.5784 -0.8336 -1.4199
  226MPD1     N 3438   2.902   1.756   9.716 -0.2040 -0.4653 -0.3549
  226MPD1    H5 3439   2.991   1.731   9.674 -0.3815  0.7327 -1.4403
  226MPD1    N1 3440   3.168   2.068   9.967 -0.0054 -0.2045  0.6259
  226MPD1    H6 3441   3.172   2.117  10.056  1.1165  1.7758 -0.5122
  226MPD1    H7 3442   3.244   2.000   9.959 -1.0291 -1.3808  0.9912
  227MPD1     C 3443   3.433   1.223   9.038 -0.0040 -0.3847 -0.0622
  227MPD1    C1 3444   3.356   1.121   9.098 -0.9546  0.0956 -0.1038
  227MPD1    C2 3445   3.260   1.166   9.188  0.2529 -0.2053  0.0244
  227MPD1    C3 3446   3.238   1.300   9.219 -0.4201  0.6133  0.3071
  227MPD1    C4 3447   3.322   1.393   9.160 -0.5808 -0.7158 -0.5819
  227MPD1    C5 3448   3.416   1.349   9.070  0.2321  0.2410 -0.4837
  227MPD1     H 3449   3.197   1.096   9.243 -0.0085 -0.4966 -0.6427
  227MPD1    H1 3450   3.309   1.496   9.192 -0.0141 -1.3860  1.8508
  227MPD1    H2 3451   3.507   1.202   8.961  0.4936  0.2471  0.2424
  227MPD1    H3 3452   3.467   1.432   9.023 -2.0938  1.0667 -1.5604
  227MPD1     N 3453   3.127   1.335   9.301  0.6125  0.7521  0.1956
  227MPD1    H5 3454   3.076   1.254   9.334  0.0017  1.1379  0.1944
  227MPD1    N1 3455   3.356   0.991   9.047  0.7945  0.3953 -0.3605
  227MPD1    H6 3456   3.341   0.912   9.110 -3.4326  0.8782 -0.7603
  227MPD1    H7 3457   3.448   0.975   9.006  0.3984 -0.8676 -0.7312
  228MPD1     C 3458   0.319   3.415  11.947  0.5445 -0.6472  1.1514
  228MPD1    C1 3459   0.199   3.471  11.960  0.4084 -0.7021 -0.1221
  228MPD1    C2 3460   0.123   3.441  12.065 -0.9614 -1.1779 -0.8099
  228MPD1    C3 3461   0.174   3.369  12.172  0.2664  1.0071  0.9292
  228MPD1    C4 3462   0.309   3.329  12.172 -0.5636 -0.7974  0.7136
  228MPD1    C5 3463   0.378   3.345  12.053  0.1179  0.6944  0.4943
  228MPD1     H 3464   0.022   3.480  12.066 -0.6314 -0.4225  2.2261
  228MPD1    H1 3465   0.361   3.264  12.242 -0.0690  0.8056  1.8495
  228MPD1    H2 3466   0.385   3.448  11.868 -1.5977 -1.6863 -1.0548
  228MPD1    H3 3467   0.479   3.309  12.044  0.0744  1.2073 -2.0436
  228MPD1     N 3468   0.083   3.335  12.274  0.3351 -0.3361 -0.5856
  228MPD1    H5 3469   4.710   3.345  12.244  0.2504 -0.5351 -0.3751
  228MPD1    N1 3470   0.142   3.541  11.852  0.0246 -0.2740 -0.3638
  228MPD1    H6 3471   0.212   3.584  11.791 -0.9026 -0.9687 -1.9314
  228MPD1    H7 3472   0.079   3.612  11.886 -1.4179 -1.4210 -0.6379
  229MPD1     C 3473   0.867   2.294  13.959 -0.6301 -0.1959 -0.0613
  229MPD1    C1 3474   0.732   2.313  13.979  0.3481  0.8543  0.1097
  229MPD1    C2 3475   0.655   2.222  14.036 -0.0399  0.0537  0.1163
  229MPD1    C3 3476   0.703   2.099  14.070  0.3329  0.3127 -1.1205
  229MPD1    C4 3477   0.834   2.076  14.031 -0.7577  0.3098  0.2516
  229MPD1    C5 3478   0.919   2.171  13.975 -0.7979  0.4100  0.3729
  229MPD1     H 3479   0.552   2.249  14.054  0.0821  0.8415 -0.4055
  229MPD1    H1 3480   0.883   1.981  14.051  1.0323  1.1523 -0.0994
  229MPD1    H2 3481   0.940   2.369  13.932  1.2734 -0.9871  2.8650
  229MPD1    H3 3482   1.025   2.152  13.960 -1.0254 -0.9447  0.4471
  229MPD1     N 3483   0.632   1.999  14.130  0.0104  0.1020 -0.3259
  229MPD1    H5 3484   0.680   1.910  14.139  0.2444  0.0784 -1.7444
  229MPD1    N1 3485   0.679   2.443  13.954 -0.0071  0.5856  0.0730
  229MPD1    H6 3486   0.713   2.491  13.871  2.5473  0.4472  1.0542
  229MPD1    H7 3487   0.578   2.449  13.936 -0.3074 -1.5572  1.1361
  230MPD1     C 3488   0.257   1.867  15.081  0.3380  0.1122  0.2808
  230MPD1    C1 3489   0.321   1.751  15.049 -0.7361  0.0995 -0.6593
  230MPD1    C2 3490   0.357   1.731  14.914  0.0203 -0.0564  0.5220
  230MPD1    C3 3491   0.333   1.830  14.816  0.0367 -0.2333 -0.4492
  230MPD1    C4 3492   0.273   1.947  14.860  0.2665  0.3378  1.2811
  230MPD1    C5 3493   0.233   1.965  14.987  0.4189 -0.2126  0.8957
  230MPD1     H 3494   0.420   1.649  14.883 -1.8690 -0.7282 -1.5210
  230MPD1    H1 3495   0.264   2.027  14.787  0.0279 -0.8625 -0.0161
  230MPD1    H2 3496   0.235   1.892  15.184 -1.3988 -0.6609  0.0888
  230MPD1    H3 3497   0.205   2.068  15.007  0.3744  0.1025 -0.7985
  230MPD1     N 3498   0.364   1.798  14.679 -0.0984 -0.4610 -0.4668
  230MPD1    H5 3499   0.413   1.714  14.649  0.0818 -0.1364 -1.0811
  230MPD1    N1 3500   0.349   1.646  15.139 -0.6140 -0.2056 -0.5056
  230MPD1    H6 3501   0.447   1.617  15.134 -0.8632 -1.4776  1.8550
  230MPD1    H7 3502   0.326   1.665  15.237  1.2611  0.0367 -0.1174
  231MPD1     C 3503   2.720   3.281  15.384  0.2861 -0.2066  0.0515
  231MPD1    C1 3504   2.750   3.231  15.261 -0.1744 -0.2303  0.7889
  231MPD1    C2 3505   2.839   3.305  15.188 -0.0574 -0.3644  0.1324
  231MPD1    C3 3506   2.858   3.442  15.216  0.2090 -0.5457  0.1384
  231MPD1    C4 3507   2.803   3.500  15.324  0.6810 -0.2996  0.2453
  231MPD1    C5 3508   2.744   3.407  15.417 -0.1082  0.4067  0.1389
  231MPD1     H 3509   2.880   3.261  15.098  0.8547 -0.1552  0.4444
  231MPD1    H1 3510   2.835   3.598  15.359  0.3070 -1.2004  3.0891
  231MPD1    H2 3511   2.684   3.220  15.466 -0.5353  2.2408  1.4949
  231MPD1    H3 3512   2.722   3.448  15.515  2.1053 -0.1433  0.8787
  231MPD1     N 3513   2.948   3.509  15.125  0.4432 -0.3621 -0.4520
  231MPD1    H5 3514   2.973   3.459  15.040 -2.1272 -4.3833  1.1509
  231MPD1    N1 3515   2.724   3.094  15.228  0.2513  0.0492  0.2661
  231MPD1    H6 3516   2.729   3.077  15.128 -0.7289 -0.9929  0.3977
  231MPD1    H7 3517   2.632   3.073  15.265  1.1963 -1.2948  1.8429
  232MPD1     C 3518   4.616   2.705   0.507  0.1119  0.1600  0.1626
  232MPD1    C1 3519   4.655   2.647   0.390 -0.2120 -0.6184  0.8952
  232MPD1    C2 3520   4.678   2.510   0.390 -0.1269  0.3600  0.7965
  232MPD1    C3 3521   4.669   2.439   0.509 -0.4784  0.0849 -0.4948
  232MPD1    C4 3522   4.634   2.503   0.629 -1.0254 -0.2014 -0.1004
  232MPD1    C5 3523   4.608   2.637   0.622 -0.1916  0.4195 -0.6288
  232MPD1     H 3524   4.695   2.459   0.296 -1.4146  0.0668  0.7345
  232MPD1    H1 3525   4.635   2.452   0.724  0.9832  1.3489  0.7106
  232MPD1    H2 3526   4.594   2.810   0.515 -0.8595 -0.1097  0.9820
  232MPD1    H3 3527   4.591   2.692   0.713 -0.5723  0.5767 -0.7960
  232MPD1     N 3528   4.694   2.300   0.504  0.0361 -0.3416 -0.0545
  232MPD1    H5 3529   4.708   2.263   0.411 -1.7780  0.5291 -0.6685
  232MPD1    N1 3530   4.669   2.717   0.267  0.7883  0.1297  0.9067
  232MPD1    H6 3531   0.020   2.684   0.206 -0.8992 -0.1446 -0.9907
  232MPD1    H7 3532   4.687   2.816   0.282 -2.4692  0.7245  0.7786
  233MPD1     C 3533   1.039   1.023   0.760  0.6161  0.5596  0.6104
  233MPD1    C1 3534   1.164   0.980   0.789  0.1071 -0.3332 -0.3223
  233MPD1    C2 3535   1.190   0.863   0.860 -0.3762 -0.6560 -0.0491
  233MPD1    C3 3536   1.086   0.766   0.883  0.3763 -0.3290 -0.0942
  233MPD1    C4 3537   0.957   0.808   0.853 -0.3786  0.6268 -0.3450
  233MPD1    C5 3538   0.939   0.931   0.787 -0.4621  1.0250  0.0732
  233MPD1     H 3539   1.293   0.837   0.881 -0.1269 -0.1275 -0.6367
  233MPD1    H1 3540   0.863   0.757   0.872 -1.0170  1.4430 -1.2243
  233MPD1    H2 3541   1.013   1.120   0.718 -2.1064 -1.2631 -1.8545
  233MPD1    H3 3542   0.840   0.974   0.774  0.2261  3.0328  1.5009
  233MPD1     N 3543   1.098   0.637   0.938 -0.2512  0.4524 -0.6867
  233MPD1    H5 3544   1.010   0.595   0.966  0.9058 -1.2006  0.4429
  233MPD1    N1 3545   1.274   1.074   0.779  0.4005 -0.8283  0.1622
  233MPD1    H6 3546   1.364   1.029   0.762  0.5697 -0.6696  0.6576
  233MPD1    H7 3547   1.259   1.136   0.700  0.7627  0.4822  1.1229
  234MPD1     C 3548   4.232   3.641   9.027  0.2164 -0.5521  0.5483
  234MPD1    C1 3549   4.171   3.701   9.136  0.5415  0.0869 -0.7928
  234MPD1    C2 3550   4.036   3.711   9.133  0.6475 -0.0299  0.3413
  234MPD1    C3 3551   3.955   3.637   9.053 -0.3878 -0.6283 -0.1278
  234MPD1    C4 3552   4.012   3.549   8.968  0.2730 -0.2509  0.0837
  234MPD1    C5 3553   4.147   3.562   8.951  0.7419  0.4304 -0.5221
  234MPD1     H 3554   3.989   3.786   9.197 -2.0984 -0.8598 -0.6926
  234MPD1    H1 3555   3.955   3.489   8.898 -1.0651  1.8127 -0.6097
  234MPD1    H2 3556   4.339   3.640   9.011  0.0803  0.8862 -0.4554
  234MPD1    H3 3557   4.197   3.512   8.869  0.7926  0.3861 -0.4646
  234MPD1     N 3558   3.817   3.660   9.059 -0.0575 -0.5088  0.0249
  234MPD1    H5 3559   3.786   3.735   9.119  0.7575 -0.1997  0.0621
  234MPD1    N1 3560   4.237   3.796   9.222  1.2196  0.0537 -0.1525
  234MPD1    H6 3561   4.334   3.771   9.241  1.1070 -0.4196 -0.1981
  234MPD1    H7 3562   4.187   3.800   9.310  0.1012  1.7360 -0.8843
  235MPD1     C 3563   4.700   0.985  10.155  0.1996 -0.5382 -0.2464
  235MPD1    C1 3564   4.659   0.977  10.023  0.3169  0.9596 -0.0615
  235MPD1    C2 3565   4.710   1.074   9.941 -0.3657  0.3324  0.2869
  235MPD1    C3 3566   0.079   1.168   9.983 -0.0816 -0.1596 -0.6244
  235MPD1    C4 3567   0.121   1.168  10.115  0.2005  0.0106  0.3931
  235MPD1    C5 3568   0.067   1.075  10.201  0.0614  0.1965 -0.0965
  235MPD1     H 3569   4.683   1.091   9.837  1.0102  0.7820  0.0005
  235MPD1    H1 3570   0.189   1.243  10.154  1.0493  0.4781 -2.0032
  235MPD1    H2 3571   4.667   0.923  10.238  2.7196 -1.7435 -0.1345
  235MPD1    H3 3572   0.102   1.068  10.303  0.5384  0.5880 -0.2352
  235MPD1     N 3573   0.125   1.263   9.885  0.6675 -0.5322  0.0942
  235MPD1    H5 3574   0.095   1.252   9.788  0.0950  0.2918  0.1779
  235MPD1    N1 3575   4.560   0.888   9.982  0.1337  0.2932 -0.1562
  235MPD1    H6 3576   4.584   0.878   9.883  0.0449  0.3682 -0.1859
  235MPD1    H7 3577   4.568   0.800  10.031 -0.2030  0.6509  0.5429
  236MPD1     C 3578   3.817   2.626   9.553 -0.4107 -0.6826  0.0664
  236MPD1    C1 3579   3.847   2.494   9.543 -0.5136  0.4596 -0.1239
  236MPD1    C2 3580   3.917   2.429   9.645  0.0038 -0.6543 -0.4592
  236MPD1    C3 3581   3.957   2.493   9.762 -0.3992  0.3704  0.1747
  236MPD1    C4 3582   3.939   2.627   9.758 -0.7420 -0.0138  0.5530
  236MPD1    C5 3583   3.871   2.691   9.661  0.0259  0.0227  0.7698
  236MPD1     H 3584   3.946   2.326   9.624 -2.2500 -1.7567  1.8614
  236MPD1    H1 3585   3.948   2.679   9.853 -2.5296  1.1992  0.0797
  236MPD1    H2 3586   3.763   2.672   9.472 -0.5415 -1.5012 -0.3188
  236MPD1    H3 3587   3.842   2.794   9.674 -0.7242 -0.0285 -0.5176
  236MPD1     N 3588   4.027   2.423   9.863  0.1235 -0.6435  0.4309
  236MPD1    H5 3589   4.073   2.474   9.939 -0.3598  1.3218 -0.5876
  236MPD1    N1 3590   3.784   2.427   9.440 -0.9212 -0.5000  0.2363
  236MPD1    H6 3591   3.851   2.354   9.415  1.4367  1.8751 -0.3272
  236MPD1    H7 3592   3.771   2.488   9.359 -0.3654 -0.8936 -0.1563
  237MPD1     C 3593   3.913   0.048  15.883  1.1527 -0.7096  0.1710
  237MPD1    C1 3594   3.921   0.178  15.832 -0.7260  0.5829 -0.5760
  237MPD1    C2 3595   3.806   0.231  15.767 -0.5804 -0.3438 -0.0038
  237MPD1    C3 3596   3.687   0.152  15.775 -0.4758  0.2619  0.0428
  237MPD1    C4 3597   3.687   0.029  15.837 -0.1517 -0.2506 -0.6483
  237MPD1    C5 3598   3.798   4.696  15.890 -0.3568  0.2707  0.1125
  237MPD1     H 3599   3.808   0.331  15.725  0.2302 -0.3823 -0.0598
  237MPD1    H1 3600   3.596   4.693  15.835 -1.3271  1.5242  0.1282
  237MPD1    H2 3601   3.997   0.016  15.944  0.7760 -1.1251  0.4750
  237MPD1    H3 3602   3.791   4.606  15.950 -2.9541  1.9918  2.4205
  237MPD1     N 3603   3.566   0.211  15.727  0.1833  0.4689 -0.0779
  237MPD1    H5 3604   3.479   0.170  15.758  0.4741 -1.4921 -1.8958
  237MPD1    N1 3605   4.033   0.256  15.861 -0.1201 -0.1757  0.0828
  237MPD1    H6 3606   4.037   0.343  15.808  1.7191 -0.2468  0.1037
  237MPD1    H7 3607   4.124   0.210  15.851  0.4699  0.5008  2.4376
  238MPD1     C 3608   4.605   4.530  14.271 -0.6590  0.1505  0.3070
  238MPD1    C1 3609   4.557   4.516  14.403 -0.4336 -0.3108  0.4999
  238MPD1    C2 3610   4.481   4.402  14.435 -0.2823  0.2546 -0.0765
  238MPD1    C3 3611   4.415   4.334  14.334  0.2862  0.1924  0.5485
  238MPD1    C4 3612   4.437   4.371  14.203 -0.5245  0.2414 -0.0662
  238MPD1    C5 3613   4.534   4.467  14.173 -0.6445  0.3883 -0.4537
  238MPD1     H 3614   4.459   4.370  14.536 -1.0769 -0.5355 -0.4944
  238MPD1    H1 3615   4.374   4.321  14.130  1.4611 -0.8095 -1.0621
  238MPD1    H2 3616   4.679   4.604  14.242  0.2894 -1.2836 -0.8887
  238MPD1    H3 3617   4.561   4.502  14.075  1.4618 -0.8884 -0.3322
  238MPD1     N 3618   4.322   4.225  14.348  0.0153 -0.1446 -0.7526
  238MPD1    H5 3619   4.283   4.187  14.263 -1.0348 -3.8234  1.3558
  238MPD1    N1 3620   4.611   4.600  14.507 -0.1363 -0.2653 -0.3268
  238MPD1    H6 3621   4.640   4.693  14.476  0.3288 -0.0163  0.8798
  238MPD1    H7 3622   4.546   4.617  14.584 -2.4718  0.8440 -2.5138
  239MPD1     C 3623   0.257   4.231  14.559 -0.4362  0.6242  0.2561
  239MPD1    C1 3624   0.377   4.220  14.484 -0.3307  0.0044  0.0421
  239MPD1    C2 3625   0.399   4.310  14.376 -0.0054 -0.9640 -0.4040
  239MPD1    C3 3626   0.309   4.411  14.355  0.0499  0.3673 -0.1104
  239MPD1    C4 3627   0.183   4.407  14.418 -0.1239 -0.2422 -0.4401
  239MPD1    C5 3628   0.160   4.320  14.520 -0.1163  0.2838 -0.0907
  239MPD1     H 3629   0.492   4.311  14.322 -0.4439  1.6474 -1.1174
  239MPD1    H1 3630   0.107   4.483  14.411  2.4557  2.4866  1.0320
  239MPD1    H2 3631   0.224   4.157  14.630 -1.6987 -0.3227 -1.3181
  239MPD1    H3 3632   0.072   4.338  14.581  1.4376  0.8615  2.0012
  239MPD1     N 3633   0.333   4.524  14.269  0.0096  0.3126 -0.5107
  239MPD1    H5 3634   0.258   4.590  14.251  1.6257  2.3660  0.2776
  239MPD1    N1 3635   0.458   4.109  14.502  0.4990  0.1261  0.1351
  239MPD1    H6 3636   0.460   4.065  14.594  0.1378  1.2729  0.6931
  239MPD1    H7 3637   0.550   4.120  14.460  0.2705  0.5912 -0.2510
  240MPD1     C 3638   3.740   0.287  12.897  0.3556 -0.3212 -0.3352
  240MPD1    C1 3639   3.877   0.266  12.892 -0.2332  0.4148  0.0345
  240MPD1    C2 3640   3.926   0.141  12.907  0.6775 -0.1130  0.7085
  240MPD1    C3 3641   3.844   0.032  12.944 -0.1274  0.5385 -1.4051
  240MPD1    C4 3642   3.711   0.050  12.953 -0.6051  0.0428  0.0212
  240MPD1    C5 3643   3.660   0.178  12.927 -0.1903 -0.1322 -0.0740
  240MPD1     H 3644   4.033   0.125  12.900  0.1964 -2.4664 -1.2814
  240MPD1    H1 3645   3.639   4.699  12.985  0.4924 -0.9852  0.0851
  240MPD1    H2 3646   3.693   0.380  12.867 -0.7251 -0.5433  0.6246
  240MPD1    H3 3647   3.555   0.198  12.939  0.0572  1.8431 -1.1343
  240MPD1     N 3648   3.906   4.634  12.976  0.1532  0.4028  0.0052
  240MPD1    H5 3649   4.006   4.631  12.991  0.2053  0.1651 -0.3983
  240MPD1    N1 3650   3.962   0.360  12.829 -0.2187  0.3636  0.1551
  240MPD1    H6 3651   3.924   0.454  12.822 -3.6291 -1.0474  0.1729
  240MPD1    H7 3652   4.047   0.365  12.884 -0.3100 -2.2201  0.5329
  241MPD1     C 3653   0.041   4.235  12.866 -0.1986 -0.6202  0.1884
  241MPD1    C1 3654   4.678   4.274  12.773 -0.2001  0.8445  0.1179
  241MPD1    C2 3655   4.550   4.303  12.818 -0.2527 -0.1560 -0.6186
  241MPD1    C3 3656   4.506   4.257  12.942 -0.3439 -0.5509 -0.5360
  241MPD1    C4 3657   4.595   4.202  13.027  0.0171  0.1147 -1.1952
  241MPD1    C5 3658   0.001   4.186  12.989  0.2010  0.1047  0.2188
  241MPD1     H 3659   4.483   4.352  12.749  0.1634  1.3683  0.0755
  241MPD1    H1 3660   4.570   4.155  13.122 -1.4757  1.5241 -0.9072
  241MPD1    H2 3661   0.146   4.215  12.849  0.4071  1.0583  1.9995
  241MPD1    H3 3662   0.071   4.144  13.060 -0.3980 -0.4687  0.4788
  241MPD1     N 3663   4.382   4.274  12.996 -0.8773  0.5683 -0.2567
  241MPD1    H5 3664   4.361   4.242  13.090 -2.1846 -0.0561 -0.7658
  241MPD1    N1 3665   4.720   4.339  12.653 -0.0329  0.5721  0.5863
  241MPD1    H6 3666   0.073   4.288  12.608 -3.2004 -1.0899 -2.9271
  241MPD1    H7 3667   4.643   4.326  12.587 -0.4063 -0.5618  1.2348
  242MPD1     C 3668   4.198   2.541  15.760  0.5459 -0.8940 -0.2506
  242MPD1    C1 3669   4.108   2.589  15.664 -0.0089 -0.2031 -0.5913
  242MPD1    C2 3670   4.151   2.599  15.531 -0.0054  0.3066  0.0454
  242MPD1    C3 3671   4.279   2.577  15.497 -0.5349  0.6697  0.1587
  242MPD1    C4 3672   4.368   2.530  15.590 -0.7182  0.1154  0.1056
  242MPD1    C5 3673   4.326   2.508  15.717 -0.2878 -0.2564 -0.3914
  242MPD1     H 3674   4.076   2.616  15.455  0.0308 -1.6322 -0.4461
  242MPD1    H1 3675   4.471   2.503  15.571 -0.7561  1.3919 -1.8621
  242MPD1    H2 3676   4.163   2.516  15.859 -1.1026  0.8125 -0.3989
  242MPD1    H3 3677   4.391   2.458  15.788 -0.4489  3.2467  2.2227
  242MPD1     N 3678   4.329   2.613  15.370  0.0672 -0.3021  0.0103
  242MPD1    H5 3679   4.419   2.569  15.351  1.7289  2.8503  0.3644
  242MPD1    N1 3680   3.972   2.576  15.694 -0.1300  0.3640  0.5659
  242MPD1    H6 3681   3.959   2.598  15.793  3.3636 -0.4023  1.2142
  242MPD1    H7 3682   3.920   2.641  15.637  0.4206  1.0851  0.8866
  243MPD1     C 3683   4.569   1.472   0.051  0.0617 -0.3754  0.3074
  243MPD1    C1 3684   4.653   1.439   0.157  0.5002 -0.5091  0.0675
  243MPD1    C2 3685   0.006   1.330   0.133 -0.3488  0.2268  0.1497
  243MPD1    C3 3686   0.001   1.252   0.022  0.3802  0.4600 -0.7898
  243MPD1    C4 3687   4.629   1.284  17.625 -0.1758  0.2340 -0.6148
  243MPD1    C5 3688   4.557   1.395  17.640  0.1389  0.4221 -0.3116
  243MPD1     H 3689   0.085   1.309   0.204 -0.8280  0.4873  0.7616
  243MPD1    H1 3690   4.617   1.229  17.532 -0.0493  2.0319 -1.7116
  243MPD1    H2 3691   4.517   1.567   0.050  0.2976 -0.2660 -1.2627
  243MPD1    H3 3692   4.489   1.428  17.563  0.3401  0.6744 -0.3810
  243MPD1     N 3693   0.079   1.134   0.020  0.0793 -0.1738 -0.0659
  243MPD1    H5 3694   0.126   1.121   0.109 -1.7967  0.9341  1.1098
  243MPD1    N1 3695   4.670   1.536   0.256 -0.0550 -0.9559 -0.1296
  243MPD1    H6 3696   4.584   1.583   0.284 -0.5144 -1.8447 -0.0511
  243MPD1    H7 3697   0.002   1.494   0.331 -1.9733 -1.4079  1.0367
  244MPD1     C 3698   0.300   0.758   0.730  0.0420  0.9524 -0.1196
  244MPD1    C1 3699   0.259   0.877   0.678  0.1126 -0.1074  0.4780
  244MPD1    C2 3700   0.234   0.883   0.540 -0.7351 -0.8547  0.1643
  244MPD1    C3 3701   0.260   0.777   0.453  0.3167  0.0908  0.0469
  244MPD1    C4 3702   0.327   0.667   0.507  0.2464  0.3710 -0.2563
  244MPD1    C5 3703   0.336   0.656   0.645  0.0790 -0.4668 -0.5074
  244MPD1     H 3704   0.198   0.975   0.494 -1.0407 -1.6916 -1.2644
  244MPD1    H1 3705   0.363   0.586   0.444 -1.3311 -0.0520 -0.6088
  244MPD1    H2 3706   0.294   0.747   0.838 -0.7229  1.2501 -0.1346
  244MPD1    H3 3707   0.347   0.555   0.684 -1.1751 -0.0438  0.9179
  244MPD1     N 3708   0.250   0.803   0.306  0.5172  0.3300  0.0877
  244MPD1    H5 3709   0.227   0.895   0.271 -0.2939 -1.0398 -3.0007
  244MPD1    N1 3710   0.220   0.981   0.764 -0.2331  0.7747  0.2057
  244MPD1    H6 3711   0.227   1.076   0.727 -1.3632  0.6210 -0.3885
  244MPD1    H7 3712   0.281   0.985   0.846 -1.9984 -0.2064  1.5670
  245MPD1     C 3713   3.540   2.003  12.845 -0.0606 -0.7310  0.1132
  245MPD1    C1 3714   3.458   2.004  12.951  0.2512  0.2472  0.0340
  245MPD1    C2 3715   3.506   2.066  13.068  0.1954 -0.4951  0.8146
  245MPD1    C3 3716   3.626   2.132  13.076  0.4716 -0.2187  0.0791
  245MPD1    C4 3717   3.712   2.127  12.962 -0.0735 -1.3778  0.4956
  245MPD1    C5 3718   3.669   2.061  12.851  0.1307  0.1425  0.6558
  245MPD1     H 3719   3.441   2.086  13.152 -0.4620 -0.9287  0.4115
  245MPD1    H1 3720   3.807   2.177  12.954  0.4453 -2.6379 -1.1495
  245MPD1    H2 3721   3.518   1.962  12.747 -1.2781 -0.0377  0.0899
  245MPD1    H3 3722   3.736   2.045  12.768  0.5392 -0.1852  1.0504
  245MPD1     N 3723   3.656   2.204  13.192  0.6226 -0.0907 -0.8620
  245MPD1    H5 3724   3.581   2.214  13.259  0.2756 -2.9648 -0.8128
  245MPD1    N1 3725   3.324   1.961  12.937 -0.2939 -0.7357 -0.2449
  245MPD1    H6 3726   3.323   1.885  12.869  2.2144 -0.5639 -0.4744
  245MPD1    H7 3727   3.285   1.925  13.024  0.8798 -1.0816  0.1309
  246MPD1     C 3728   0.036   3.562  10.036  0.0986 -0.3828 -0.4590
  246MPD1    C1 3729   0.109   3.665   9.979  0.2997 -0.6058  0.0137
  246MPD1    C2 3730   0.153   3.642   9.846  0.1528  0.1329 -0.2752
  246MPD1    C3 3731   0.120   3.532   9.776  0.0803  0.2294  0.6793
  246MPD1    C4 3732   0.043   3.434   9.837 -0.6299 -0.5624 -0.2647
  246MPD1    C5 3733   0.018   3.447   9.964 -1.1617  0.8859  0.5405
  246MPD1     H 3734   0.214   3.717   9.796 -0.3188  0.3580 -0.5168
  246MPD1    H1 3735   4.716   3.349   9.792 -1.7026 -0.9568  1.6916
  246MPD1    H2 3736   0.007   3.575  10.140 -1.8569 -0.9189 -0.9276
  246MPD1    H3 3737   4.674   3.379  10.014 -0.5039  0.4151  0.7937
  246MPD1     N 3738   0.148   3.536   9.637 -0.1499 -0.1920 -0.0551
  246MPD1    H5 3739   0.189   3.624   9.607 -1.8017 -0.4309 -2.9877
  246MPD1    N1 3740   0.176   3.744  10.069 -0.6709 -0.6401 -0.6703
  246MPD1    H6 3741   0.118   3.772  10.147  2.4814  1.0047  1.1066
  246MPD1    H7 3742   0.207   3.829  10.023  2.2560 -2.7071 -2.5776
  247MPD1     C 3743   1.561   1.453  15.897  0.9744  0.5490  0.3636
  247MPD1    C1 3744   1.673   1.530  15.913  0.6072  0.0409 -0.3660
  247MPD1    C2 3745   1.780   1.504  15.835  0.0549  0.0686  0.2244
  247MPD1    C3 3746   1.782   1.401  15.743  0.5155 -0.5735 -0.0450
  247MPD1    C4 3747   1.674   1.317  15.735 -0.7381 -0.3580  0.1154
  247MPD1    C5 3748   1.568   1.345  15.816  0.3228 -0.4079 -0.2810
  247MPD1     H 3749   1.862   1.573  15.850  0.4430 -0.0494 -1.3365
  247MPD1    H1 3750   1.674   1.231  15.669 -0.3280 -0.7561  0.6300
  247MPD1    H2 3751   1.471   1.478  15.951  1.0403 -1.3953  1.3758
  247MPD1    H3 3752   1.477   1.288  15.803  0.1189 -0.5566  1.7565
  247MPD1     N 3753   1.896   1.365  15.670 -0.7308 -0.4267  0.1034
  247MPD1    H5 3754   1.903   1.270  15.635 -0.3495  0.1638 -1.3959
  247MPD1    N1 3755   1.663   1.639  16.002  0.6627  0.2490  0.3955
  247MPD1    H6 3756   1.752   1.670  16.040 -0.2191  2.0119  1.0166
  247MPD1    H7 3757   1.578   1.638  16.058 -0.0272 -1.7628 -0.6691
  248MPD1     C 3758   3.707   0.987   1.676 -0.1742 -0.3664  0.6660
  248MPD1    C1 3759   3.734   0.860   1.634  0.2864 -0.1491 -0.3543
  248MPD1    C2 3760   3.741   0.834   1.501 -0.1964  0.4223 -0.5224
  248MPD1    C3 3761   3.710   0.927   1.405 -0.4105 -0.1770  0.7623
  248MPD1    C4 3762   3.668   1.052   1.442 -0.1832  0.4948 -0.2406
  248MPD1    C5 3763   3.672   1.073   1.576  0.7629 -0.3740  0.2640
  248MPD1     H 3764   3.772   0.738   1.463 -2.3324 -0.5813  0.2599
  248MPD1    H1 3765   3.642   1.130   1.372  1.4801  0.7952 -0.5220
  248MPD1    H2 3766   3.713   1.020   1.779  1.0095 -0.5671  0.6614
  248MPD1    H3 3767   3.657   1.176   1.606 -0.5744 -1.0303  1.8344
  248MPD1     N 3768   3.694   0.882   1.276 -0.1615  0.5460 -0.1592
  248MPD1    H5 3769   3.718   0.785   1.258 -1.8411  0.6042 -2.7315
  248MPD1    N1 3770   3.783   0.762   1.719 -0.3823  0.5783  0.0022
  248MPD1    H6 3771   3.751   0.678   1.673 -0.0318  0.9698 -0.9480
  248MPD1    H7 3772   3.740   0.764   1.811  1.0069  0.3263  0.6718
  249MPD1     C 3773   1.687   1.814   9.447 -0.0827 -0.4995  0.5553
  249MPD1    C1 3774   1.578   1.725   9.446 -0.2530 -0.3138 -0.2719
  249MPD1    C2 3775   1.531   1.670   9.568  0.3768  0.1300  0.0874
  249MPD1    C3 3776   1.593   1.702   9.686 -0.5526 -0.1288  0.5655
  249MPD1    C4 3777   1.698   1.799   9.683  0.2439  1.1458 -0.0530
  249MPD1    C5 3778   1.743   1.847   9.566  0.0725 -0.0659 -0.2361
  249MPD1     H 3779   1.455   1.593   9.558 -2.4457  3.2114 -2.4641
  249MPD1    H1 3780   1.753   1.833   9.770  0.4175 -0.1649  0.3512
  249MPD1    H2 3781   1.719   1.862   9.355  0.3284  0.9844  1.4706
  249MPD1    H3 3782   1.823   1.919   9.575  0.4707 -0.6337  0.7816
  249MPD1     N 3783   1.551   1.635   9.806 -0.2421  0.4493 -0.4961
  249MPD1    H5 3784   1.467   1.578   9.810 -0.6594  1.0855 -0.1943
  249MPD1    N1 3785   1.517   1.699   9.321 -0.3704  0.0956 -0.0222
  249MPD1    H6 3786   1.591   1.655   9.267  1.1520  3.1154 -0.4338
  249MPD1    H7 3787   1.447   1.625   9.319 -0.4910  0.2253 -0.8421
  250MPD2     C 3788   1.256   0.386  13.340 -0.4468  0.0376  0.1366
  250MPD2    C1 3789   1.200   0.427  13.222 -0.1063 -0.1650 -0.6176
  250MPD2    C2 3790   1.163   0.333  13.129  0.8447  0.1995  0.4119
  250MPD2    C3 3791   1.181   0.192  13.157 -0.3322  0.3588 -0.7988
  250MPD2    C4 3792   1.249   0.157  13.271  1.1053  0.2033 -0.2019
  250MPD2    C5 3793   1.285   0.251  13.363  0.5236 -0.1379 -0.3407
  250MPD2     H 3794   1.115   0.363  13.036 -1.0932 -1.7822  0.7677
  250MPD2    H1 3795   1.275   0.053  13.287 -0.7655 -0.1263  0.7333
  250MPD2    H2 3796   1.294   0.449  13.419 -0.7454 -0.2977  0.5470
  250MPD2    H3 3797   1.340   0.217  13.450 -0.6444 -1.3042 -0.0468
  250MPD2     N 3798   1.151   0.084  13.069  0.3132  0.2744  0.1977
  250MPD2    H5 3799   1.195   4.719  13.091 -0.2913 -0.4529 -1.5355
  250MPD2    N1 3800   1.190   0.568  13.205  0.0254 -0.7448  0.0938
  250MPD2    H7 3801   1.222   0.635  13.274 -0.9460  1.1635 -1.3033
  251TMC3    C1 3802   1.158   0.776  13.095  0.5431  0.2198  0.5184
  251TMC3    C2 3803   1.216   0.841  13.202 -0.1746 -0.0560  0.1505
  251TMC3    C3 3804   1.260   0.966  13.188  0.2229 -0.2964 -0.1066
  251TMC3    C4 3805   1.123   0.838  12.983 -0.0466  0.4000  0.0234
  251TMC3    C5 3806   1.190   0.959  12.952  0.0084 -0.4574  0.1663
  251TMC3    C6 3807   1.250   1.023  13.061 -0.4572  0.2090 -0.0716
  251TMC3     C 3808   1.153   0.629  13.088 -0.4506 -1.0613  0.4609
  251TMC3     O 3809   1.109   0.580  12.987 -0.4011 -0.7464  0.3648
  251TMC3     H 3810   1.247   0.797  13.296  1.4289  0.2723 -0.2253
  251TMC3    H1 3811   1.077   0.785  12.900  1.1282 -3.0079  1.5209
  251TMC3    H2 3812   1.292   1.123  13.053  0.7589 -0.3830 -1.0965
  251TMC3    C7 3813   1.279   0.955  12.846  0.2354 -0.2045 -0.6247
  251TMC3    C8 3814   1.379   1.005  13.269  0.6790 -0.2357 -0.4888
  251TMC3    O1 3815   1.303   0.845  12.803 -0.3969  0.1666  0.0605
  251TMC3    O2 3816   1.438   0.929  13.340 -0.0136  0.6725  0.1419
  252TMC3    C1 3817   2.372   1.558   9.505 -0.3170  0.3445  0.0826
  252TMC3    C2 3818   2.477   1.643   9.476  0.9737 -0.4368  0.0261
  252TMC3    C3 3819   2.539   1.612   9.356 -0.2543 -0.4273 -0.4405
  252TMC3    C4 3820   2.345   1.440   9.437  0.6564 -0.0318  0.0233
  252TMC3    C5 3821   2.408   1.420   9.312 -0.7943  0.3327 -0.5594
  252TMC3    C6 3822   2.499   1.516   9.269 -0.4357 -0.3709  0.1549
  252TMC3     C 3823   2.325   1.561   9.646  0.6276  0.7562  0.3466
  252TMC3     O 3824   2.217   1.511   9.670 -0.0981 -0.2529 -0.3809
  252TMC3     H 3825   2.513   1.723   9.539 -0.5656 -0.5761  1.0774
  252TMC3    H1 3826   2.272   1.376   9.486  0.4147 -1.1299 -1.7754
  252TMC3    H2 3827   2.550   1.488   9.178  0.0702  0.4896  0.1734
  252TMC3    C7 3828   2.418   1.288   9.253  0.1521 -0.2066  0.1116
  252TMC3    C8 3829   2.660   1.681   9.326  0.4657  0.2911 -0.3241
  252TMC3    O1 3830   2.508   1.262   9.170  0.3933 -0.4615  0.1001
  252TMC3    O2 3831   2.738   1.611   9.263  0.1246 -0.3931 -0.1781
  253MPD2     C 3832   2.734   0.387  15.391  0.0120  0.4823 -0.4441
  253MPD2    C1 3833   2.612   0.328  15.424  0.5440  0.1584  0.4737
  253MPD2    C2 3834   2.556   0.334  15.555  0.5117  0.2293 -0.7504
  253MPD2    C3 3835   2.631   0.397  15.650 -1.0932  0.2505  0.3553
  253MPD2    C4 3836   2.758   0.448  15.617  1.0419 -0.9948  0.3064
  253MPD2    C5 3837   2.812   0.445  15.487 -0.1573 -0.0411  0.1193
  253MPD2     H 3838   2.465   0.281  15.580  0.7072  0.8610  1.2550
  253MPD2    H1 3839   2.824   0.488  15.694  0.8777 -0.5971  0.2432
  253MPD2    H2 3840   2.787   0.385  15.297  0.3654  1.1699 -0.2563
  253MPD2    H3 3841   2.907   0.492  15.463 -0.6811  0.7638 -0.3579
  253MPD2     N 3842   2.596   0.414  15.782  0.3343 -0.3320 -0.5901
  253MPD2    H5 3843   2.662   0.466  15.839  0.2167  1.7661 -2.3885
  253MPD2    N1 3844   2.513   0.287  15.326 -0.5086  0.4222  0.0075
  253MPD2    H7 3845   2.432   0.239  15.362  1.5580 -1.7872  1.6820
  254TMC3    C1 3846   2.473   0.456  15.965 -0.1979 -0.4696  0.8879
  254TMC3    C2 3847   2.348   0.493  16.015  0.2426 -0.2148 -0.4288
  254TMC3    C3 3848   2.339   0.508  16.148  0.2908 -0.3025 -0.0812
  254TMC3    C4 3849   2.583   0.439  16.048 -0.0939  0.4609  0.0670
  254TMC3    C5 3850   2.570   0.464  16.180  0.5647  0.3411  0.0236
  254TMC3    C6 3851   2.448   0.491  16.231 -0.3414 -0.4728 -0.0950
  254TMC3     C 3852   2.472   0.399  15.829 -0.8753  0.2697 -0.7553
  254TMC3     O 3853   2.371   0.374  15.765  0.4882 -0.3429  0.3412
  254TMC3     H 3854   2.257   0.492  15.956 -0.8926  4.1507  1.2587
  254TMC3    H1 3855   2.670   0.390  16.005  0.9636  0.1714  2.5417
  254TMC3    H2 3856   2.440   0.500  16.339 -0.3018  0.1067 -0.1370
  254TMC3    C7 3857   2.647   0.373  16.265 -0.3801 -0.3826 -0.1267
  254TMC3    C8 3858   2.214   0.487  16.213  0.5163  0.7522  0.0165
  254TMC3    O1 3859   2.577   0.294  16.335  0.2064 -0.5227 -0.4534
  254TMC3    O2 3860   2.207   0.408  16.306 -0.5556  0.1696 -0.2814
  255MPD2     C 3861   1.835   2.792   9.956  0.3250 -0.6581  0.3777
  255MPD2    C1 3862   1.876   2.924   9.934 -0.0024 -0.2635  0.0386
  255MPD2    C2 3863   1.965   2.950   9.835 -0.4000 -0.1271  0.0369
  255MPD2    C3 3864   2.015   2.848   9.760  0.2351 -0.1934  0.6378
  255MPD2    C4 3865   1.979   2.712   9.778 -0.5382  0.2158 -0.4729
  255MPD2    C5 3866   1.883   2.692   9.876  0.1923 -0.4140 -0.2415
  255MPD2     H 3867   2.011   3.048   9.826  0.8908 -0.5855  1.6230
  255MPD2    H1 3868   2.015   2.632   9.714 -0.5427  0.5555 -0.9013
  255MPD2    H2 3869   1.750   2.775  10.021  1.6881 -3.2987  1.4437
  255MPD2    H3 3870   1.838   2.594   9.890  0.3531 -0.5622 -0.7507
  255MPD2     N 3871   2.105   2.891   9.653  0.2187  0.4910  0.0757
  255MPD2    H5 3872   2.131   2.989   9.654 -0.2752  0.6220  0.0198
  255MPD2    N1 3873   1.828   3.027  10.026 -0.7892 -0.1128  0.3854
  255MPD2    H7 3874   1.761   3.000  10.097 -0.4668 -0.2506  0.6381
  256TMC3    C1 3875   1.782   3.236  10.115  0.1896  0.0337 -0.4878
  256TMC3    C2 3876   1.828   3.365  10.135  0.4943 -0.3846 -0.0264
  256TMC3    C3 3877   1.737   3.459  10.178 -0.2013  0.2991 -0.6696
  256TMC3    C4 3878   1.649   3.206  10.126  0.7334  0.9550 -0.0791
  256TMC3    C5 3879   1.568   3.296  10.183  0.3191 -0.4209  0.1476
  256TMC3    C6 3880   1.612   3.421  10.214  0.3754  0.5621 -0.9427
  256TMC3     C 3881   1.865   3.159  10.025 -1.0018  0.3519 -0.2212
  256TMC3     O 3882   1.964   3.210   9.967  0.0217 -0.0583 -0.4621
  256TMC3     H 3883   1.930   3.400  10.123  0.2233  0.8501  1.2483
  256TMC3    H1 3884   1.607   3.114  10.086 -0.3702  2.2048 -1.7757
  256TMC3    H2 3885   1.546   3.496  10.254  2.0560  3.1627 -3.0203
  256TMC3    C7 3886   1.425   3.281  10.163 -0.3878  0.5584 -0.3335
  256TMC3    C8 3887   1.733   3.603  10.130 -0.2162  0.4101 -0.3747
  256TMC3    O1 3888   1.360   3.383  10.147  0.8985 -0.2731  0.4302
  256TMC3    O2 3889   1.651   3.675  10.176  0.0478 -0.2657 -0.3992
  257MPD2     C 3890   0.457   0.794  13.218 -0.8153  0.2585 -0.0496
  257MPD2    C1 3891   0.405   0.718  13.108 -0.5512  0.4795  0.1364
  257MPD2    C2 3892   0.358   0.591  13.137 -0.4431 -0.0101 -0.4646
  257MPD2    C3 3893   0.368   0.539  13.262 -0.0120  0.7527  0.3159
  257MPD2    C4 3894   0.429   0.609  13.360 -0.0788 -0.2742 -0.2567
  257MPD2    C5 3895   0.478   0.731  13.340 -0.7919 -0.1009 -0.5889
  257MPD2     H 3896   0.337   0.526  13.053 -1.4260 -1.5171  0.9362
  257MPD2    H1 3897   0.443   0.575  13.462 -1.7828 -0.2610 -0.0086
  257MPD2    H2 3898   0.491   0.895  13.197 -1.2660  0.1712 -1.1805
  257MPD2    H3 3899   0.531   0.777  13.423 -0.6542 -1.0622 -0.1480
  257MPD2     N 3900   0.310   0.411  13.281  0.0603 -0.3476  0.0600
  257MPD2    H5 3901   0.281   0.366  13.195 -1.4829  0.4176  0.1861
  257MPD2    N1 3902   0.416   0.777  12.984 -0.8345 -0.1342 -0.3827
  257MPD2    H7 3903   0.468   0.863  12.970 -0.1690 -0.2609  1.2674
  258TMC3    C1 3904   0.213   0.229  13.391  0.3024  0.0920 -0.2437
  258TMC3    C2 3905   0.114   0.229  13.295  0.6563  0.2061 -0.3460
  258TMC3    C3 3906   0.021   0.132  13.296  0.5375  0.1864 -0.3383
  258TMC3    C4 3907   0.229   0.125  13.476  0.5376 -0.1851 -0.6179
  258TMC3    C5 3908   0.133   0.028  13.473 -0.2881 -0.1659 -0.2734
  258TMC3    C6 3909   0.021   0.040  13.396  0.2053  0.1529 -0.3455
  258TMC3     C 3910   0.304   0.345  13.398 -0.6131  0.2427  0.6664
  258TMC3     O 3911   0.379   0.356  13.495  0.8771  0.5068  0.2154
  258TMC3     H 3912   0.093   0.321  13.243 -1.3700 -0.6913 -1.1285
  258TMC3    H1 3913   0.322   0.115  13.532 -0.8643  1.5062  2.0076
  258TMC3    H2 3914   4.676   4.680  13.396 -2.2890  2.1835 -0.5102
  258TMC3    C7 3915   0.133   4.647  13.575  0.1393 -0.0821 -0.7366
  258TMC3    C8 3916   4.653   0.113  13.183  0.4548  0.2869  0.4166
  258TMC3    O1 3917   0.031   4.583  13.588 -0.3134  0.3723 -0.3363
  258TMC3    O2 3918   4.557   0.041  13.204  0.2492  0.0835  0.6851
  259MPD2     C 3919   3.567   1.524   0.668  0.5179 -0.0655 -0.1859
  259MPD2    C1 3920   3.702   1.556   0.687  1.2239  0.4890 -0.7337
  259MPD2    C2 3921   3.788   1.540   0.588  0.3213 -0.3951 -0.2128
  259MPD2    C3 3922   3.741   1.512   0.457  0.0790  0.0650  0.0557
  259MPD2    C4 3923   3.600   1.512   0.433  0.2169 -0.7822 -0.0936
  259MPD2    C5 3924   3.516   1.507   0.539 -0.2163 -0.1390  0.1353
  259MPD2     H 3925   3.892   1.565   0.606  0.0626  1.9664 -1.9594
  259MPD2    H1 3926   3.564   1.493   0.333 -1.8067  1.4034  0.2193
  259MPD2    H2 3927   3.502   1.534   0.754  0.5566 -1.7885  0.0350
  259MPD2    H3 3928   3.409   1.500   0.522 -0.0340 -0.9760 -0.6971
  259MPD2     N 3929   3.827   1.505   0.353 -0.6849  0.3596  0.5085
  259MPD2    H5 3930   3.921   1.493   0.389 -0.7628 -1.7170  0.0408
  259MPD2    N1 3931   3.749   1.575   0.819 -0.1683 -0.1858  0.7972
  259MPD2    H7 3932   3.674   1.598   0.884 -2.0377 -2.6782 -0.4969
  260TMC3    C1 3933   3.897   1.478   0.138  0.5149 -0.0524  0.3234
  260TMC3    C2 3934   3.922   1.564   0.035  0.1627 -0.0629 -0.3481
  260TMC3    C3 3935   4.027   1.547  17.653  0.1518 -0.1964  0.8895
  260TMC3    C4 3936   3.988   1.379   0.167  0.6768 -0.5442  1.2038
  260TMC3    C5 3937   4.092   1.360   0.082 -0.1239  0.9108  0.3538
  260TMC3    C6 3938   4.114   1.446  17.678  0.4427  0.7371 -0.2226
  260TMC3     C 3939   3.789   1.501   0.223 -0.2849  0.1440 -1.1002
  260TMC3     O 3940   3.693   1.549   0.164  0.1392  0.7921  0.1237
  260TMC3     H 3941   3.859   1.653   0.032  0.1720 -0.0133  1.3035
  260TMC3    H1 3942   3.956   1.312   0.246  0.2571 -0.7123  0.8883
  260TMC3    H2 3943   4.198   1.430  17.611 -0.0246 -1.5148 -0.2982
  260TMC3    C7 3944   4.155   1.223   0.073 -0.7667 -0.3133 -0.9020
  260TMC3    C8 3945   4.084   1.667  17.600  0.1467 -0.3357 -0.1717
  260TMC3    O1 3946   4.224   1.207  17.671  0.7439 -0.2689 -0.3833
  260TMC3    O2 3947   4.015   1.737  17.525  0.7285  1.0526  0.0073
  261MPD2     C 3948   0.956   4.676  12.245  0.5853 -0.8545 -1.0618
  261MPD2    C1 3949   1.033   0.030  12.328  0.1028  0.2769  0.9617
  261MPD2    C2 3950   1.121   0.126  12.277  0.4472 -0.4648 -0.5167
  261MPD2    C3 3951   1.124   0.160  12.141 -0.2852 -0.9905 -0.0647
  261MPD2    C4 3952   1.031   0.090  12.056 -0.1882 -0.6670  1.2398
  261MPD2    C5 3953   0.960   4.708  12.109  0.0778  0.3368 -0.0568
  261MPD2     H 3954   1.185   0.186  12.340 -0.9030 -0.5494  0.9271
  261MPD2    H1 3955   1.035   0.111  11.950  1.2682  2.1525  1.8528
  261MPD2    H2 3956   0.887   4.602  12.284 -3.7671  2.3088 -2.7795
  261MPD2    H3 3957   0.895   4.658  12.037  0.5713 -0.9329  0.3830
  261MPD2     N 3958   1.214   0.263  12.099  0.1925  0.0700  0.3831
  261MPD2    H5 3959   1.271   0.312  12.167  1.4723 -2.0939  0.8899
  261MPD2    N1 3960   1.033   0.003  12.467 -0.4272  0.7776  0.0004
  261MPD2    H7 3961   1.095   0.062  12.522  0.0986 -1.2729  1.6492
  262TMC3    C1 3962   1.329   0.392  11.948 -0.0108 -0.5048  0.1376
  262TMC3    C2 3963   1.276   0.514  11.975  0.5617  0.6464 -0.1535
  262TMC3    C3 3964   1.330   0.623  11.908  0.3186 -0.7055 -0.5544
  262TMC3    C4 3965   1.410   0.371  11.837 -0.6962  0.0228  0.1894
  262TMC3    C5 3966   1.445   0.483  11.761  0.0168 -0.1953 -0.4653
  262TMC3    C6 3967   1.401   0.606  11.799 -0.4166  0.4179  0.0741
  262TMC3     C 3968   1.234   0.293  11.965 -0.2560  0.5867 -0.0919
  262TMC3     O 3969   1.220   0.233  11.861  0.1320  0.2867 -0.1183
  262TMC3     H 3970   1.190   0.530  12.039  0.0764 -0.7574 -0.4400
  262TMC3    H1 3971   1.452   0.272  11.817  1.0501  1.0855 -1.4173
  262TMC3    H2 3972   1.433   0.689  11.737  0.1369 -0.4166 -0.7612
  262TMC3    C7 3973   1.486   0.462  11.617  0.2828 -0.1606 -0.3535
  262TMC3    C8 3974   1.269   0.751  11.916 -0.2923 -0.3405 -0.4477
  262TMC3    O1 3975   1.533   0.352  11.586 -0.2203 -0.9703  0.0006
  262TMC3    O2 3976   1.276   0.827  11.819  0.1986 -0.1414  0.0070
  263MPD2     C 3977   1.957   4.694  11.512  0.4015  0.3328  0.0604
  263MPD2    C1 3978   2.057   4.639  11.439 -0.2299  0.1154 -0.0312
  263MPD2    C2 3979   2.060   4.669  11.301 -1.2211  0.4041 -0.1691
  263MPD2    C3 3980   1.978   0.042  11.239  0.4562  0.1649  0.1645
  263MPD2    C4 3981   1.877   0.088  11.323  0.0443 -1.1440 -0.2850
  263MPD2    C5 3982   1.873   0.061  11.456  0.2553  0.4761  0.5788
  263MPD2     H 3983   2.137   4.627  11.237  1.6333  2.5890  1.8294
  263MPD2    H1 3984   1.807   0.165  11.294 -1.2586 -1.3582  2.2896
  263MPD2    H2 3985   1.948   4.674  11.618  1.1036 -1.2729 -0.1826
  263MPD2    H3 3986   1.798   0.107  11.519 -0.4631  4.2553 -2.9856
  263MPD2     N 3987   2.009   0.093  11.114 -0.0182 -0.1264 -0.6021
  263MPD2    H5 3988   2.096   0.067  11.068 -0.8060 -1.5387 -1.2688
  263MPD2    N1 3989   2.151   4.556  11.518  0.2958  0.2995 -0.1339
  263MPD2    H7 3990   2.138   4.539  11.617 -0.6965 -1.6610 -0.5985
  264TMC3    C1 3991   1.983   0.230  10.929  0.4344  0.1209 -0.5749
  264TMC3    C2 3992   1.914   0.347  10.885  0.1870  0.2556  0.2565
  264TMC3    C3 3993   1.958   0.395  10.762 -0.3187  0.0319  0.1467
  264TMC3    C4 3994   2.084   0.173  10.857  0.1359 -0.3741 -0.0047
  264TMC3    C5 3995   2.122   0.227  10.741  0.1551  0.1905 -0.3692
  264TMC3    C6 3996   2.054   0.337  10.691  0.3617  0.4867 -0.3209
  264TMC3     C 3997   1.929   0.182  11.054  0.7117 -0.2638  0.2010
  264TMC3     O 3998   1.818   0.225  11.081 -0.3643 -0.3268 -0.5924
  264TMC3     H 3999   1.827   0.392  10.930 -1.2099 -0.6597 -1.5305
  264TMC3    H1 4000   2.139   0.087  10.893 -0.7880  0.1896  2.8154
  264TMC3    H2 4001   2.096   0.379  10.601  0.8096  1.0982  0.1742
  264TMC3    C7 4002   2.261   0.256  10.755 -0.2916  0.1512  0.7790
  264TMC3    C8 4003   1.948   0.538  10.727 -0.5073 -0.4316  1.0035
  264TMC3    O1 4004   2.339   0.205  10.672 -1.0626  0.0025 -0.1478
  264TMC3    O2 4005   1.963   0.565  10.608 -0.1425  0.2369 -0.3819
  265MPD2     C 4006   3.918   4.721  15.155 -0.0379  0.5335 -0.4904
  265MPD2    C1 4007   3.950   0.117  15.091  0.1852 -0.0751 -0.6020
  265MPD2    C2 4008   4.008   0.115  14.960  0.4284 -0.2817 -0.3501
  265MPD2    C3 4009   4.012   4.720  14.897  0.0755 -0.3870  1.0303
  265MPD2    C4 4010   3.969   4.602  14.957  0.7215 -0.1063 -0.0191
  265MPD2    C5 4011   3.906   4.601  15.081 -0.2197  0.5289  0.8494
  265MPD2     H 4012   4.037   0.212  14.922  0.9624 -1.4075 -2.8332
  265MPD2    H1 4013   3.965   4.511  14.897 -0.2086  0.1125 -0.2813
  265MPD2    H2 4014   3.882   4.718  15.258  1.5118  1.9814  0.0794
  265MPD2    H3 4015   3.882   4.515  15.142 -1.8031 -0.7748 -1.5948
  265MPD2     N 4016   4.071   4.701  14.768 -0.0889  0.2350 -0.1549
  265MPD2    H5 4017   4.068   4.615  14.714  2.1270 -1.3987  2.3486
  265MPD2    N1 4018   3.941   0.253  15.148 -0.1483  0.1176  0.5007
  265MPD2    H7 4019   3.964   0.327  15.082  2.1406 -0.5328  0.5949
  266TMC3    C1 4020   3.935   0.417  15.332 -0.1284  0.3005  0.2933
  266TMC3    C2 4021   3.962   0.434  15.467 -0.0377 -0.0253  0.7649
  266TMC3    C3 4022   3.955   0.560  15.516  0.5800 -0.6631  0.3926
  266TMC3    C4 4023   3.900   0.518  15.248  0.3013  0.0312 -0.7961
  266TMC3    C5 4024   3.906   0.643  15.303 -0.4100 -0.3482  0.6657
  266TMC3    C6 4025   3.915   0.671  15.440  0.5845  0.3819 -0.3651
  266TMC3     C 4026   3.922   0.277  15.285 -0.0638  0.1180  0.5564
  266TMC3     O 4027   3.912   0.189  15.368  0.0990 -0.1684 -0.2438
  266TMC3     H 4028   3.976   0.347  15.531  2.9810  1.4107  2.0781
  266TMC3    H1 4029   3.857   0.504  15.149 -2.0772  0.2472  0.1929
  266TMC3    H2 4030   3.894   0.769  15.483  0.4826 -0.5965  1.8079
  266TMC3    C7 4031   3.823   0.736  15.231 -0.1486 -0.3316 -0.1617
  266TMC3    C8 4032   3.975   0.576  15.664  0.4408  0.6002 -0.2144
  266TMC3    O1 4033   3.717   0.692  15.187 -0.6699  0.0080  0.0446
  266TMC3    O2 4034   4.022   0.481  15.719  0.1401  0.5443 -0.0426
  267MPD2     C 4035   1.474   0.832   0.237  0.1870  0.8437 -0.3676
  267MPD2    C1 4036   1.521   0.835   0.103 -0.5176  0.3812 -0.0239
  267MPD2    C2 4037   1.427   0.851   0.004  1.1168  0.2788 -1.0573
  267MPD2    C3 4038   1.293   0.851   0.033  0.2015  0.1015  0.2626
  267MPD2    C4 4039   1.255   0.837   0.169 -0.3405  0.7522 -0.0608
  267MPD2    C5 4040   1.347   0.842   0.274 -0.3068 -0.4615 -0.0190
  267MPD2     H 4041   1.457   0.856  17.596  1.6696  1.4565 -0.8509
  267MPD2    H1 4042   1.149   0.841   0.190  0.0128 -0.6205  2.0071
  267MPD2    H2 4043   1.550   0.814   0.311  0.5531  0.8788 -0.7340
  267MPD2    H3 4044   1.322   0.847   0.379 -0.1882  1.5178 -0.0890
  267MPD2     N 4045   1.191   0.867  17.633  0.2086 -0.5923  0.6703
  267MPD2    H5 4046   1.098   0.847  17.671 -0.5502  0.0850 -0.8515
  267MPD2    N1 4047   1.669   0.833   0.082 -0.2329  0.6687  0.2664
  267MPD2    H7 4048   1.723   0.817   0.166  1.8975 -0.8771 -1.3936
  268TMC3    C1 4049   1.876   0.876  17.683 -0.1288 -0.2704  0.1045
  268TMC3    C2 4050   1.952   0.937  17.586  0.4767 -0.0345  0.6657
  268TMC3    C3 4051   2.079   0.960  17.610  0.2379  0.4330 -0.6574
  268TMC3    C4 4052   1.931   0.848   0.105  0.5102  0.1245  0.2581
  268TMC3    C5 4053   2.067   0.856   0.118  0.0710  0.1395 -0.5489
  268TMC3    C6 4054   2.143   0.917   0.024 -0.2912  0.7500 -0.2693
  268TMC3     C 4055   1.734   0.853  17.659 -0.6503  0.5804 -0.0269
  268TMC3     O 4056   1.679   0.890  17.554 -0.4935  0.0858 -0.3521
  268TMC3     H 4057   1.901   0.937  17.490  3.3582  3.5461 -0.8228
  268TMC3    H1 4058   1.875   0.818   0.193  0.3860  2.0747  0.8506
  268TMC3    H2 4059   2.250   0.936   0.034 -1.2235  4.5459  2.5249
  268TMC3    C7 4060   2.124   0.845   0.247  0.6343 -0.4698 -0.3723
  268TMC3    C8 4061   2.152   1.060  17.527  0.2413  0.0036 -0.3916
  268TMC3    O1 4062   2.046   0.854   0.337  0.4458  0.6132 -0.3020
  268TMC3    O2 4063   2.271   1.076  17.548  0.5289  0.7037 -0.3814
  269MPD2     C 4064   1.907   0.692  15.585  0.9762  0.0255 -0.0094
  269MPD2    C1 4065   1.780   0.728  15.634 -0.4180  0.3023 -0.0611
  269MPD2    C2 4066   1.726   0.846  15.590 -0.0296  0.7428 -0.7429
  269MPD2    C3 4067   1.789   0.923  15.495 -0.0190 -0.7322 -0.2628
  269MPD2    C4 4068   1.910   0.878  15.441  0.5531 -0.0147  0.2297
  269MPD2    C5 4069   1.969   0.760  15.483 -0.2165 -0.3854 -0.5821
  269MPD2     H 4070   1.630   0.874  15.631  0.0882 -4.0527  2.7790
  269MPD2    H1 4071   1.951   0.935  15.358 -0.4648  1.3098  0.6359
  269MPD2    H2 4072   1.948   0.594  15.603  4.4843  1.5229  0.1072
  269MPD2    H3 4073   2.060   0.719  15.442  0.0359  0.6004 -1.0261
  269MPD2     N 4074   1.725   1.045  15.458  0.5523 -0.6293 -0.0553
  269MPD2    H5 4075   1.629   1.057  15.488  1.0693  0.9256  0.9951
  269MPD2    N1 4076   1.731   0.653  15.757  0.1578  0.4314 -0.1378
  269MPD2    H7 4077   1.792   0.579  15.788 -0.3337 -0.1195 -0.4923
  270TMC3    C1 4078   1.545   0.553  15.885 -0.0702 -0.1910 -0.6820
  270TMC3    C2 4079   1.408   0.546  15.904  0.1928  0.6487 -0.4187
  270TMC3    C3 4080   1.356   0.417  15.913  0.1798 -0.1200  0.1364
  270TMC3    C4 4081   1.627   0.446  15.890  0.6521 -0.0105  0.2556
  270TMC3    C5 4082   1.575   0.320  15.897  0.8342 -0.7809 -0.2165
  270TMC3    C6 4083   1.438   0.308  15.911  0.2207 -0.9703 -0.3413
  270TMC3     C 4084   1.599   0.663  15.805  1.1858 -0.1532  0.1959
  270TMC3     O 4085   1.521   0.757  15.790  0.2771 -0.2131  0.0337
  270TMC3     H 4086   1.340   0.629  15.887 -0.1288  0.2219 -1.2386
  270TMC3    H1 4087   1.734   0.462  15.882  0.5861  0.7382  0.8493
  270TMC3    H2 4088   1.390   0.211  15.909  1.5143 -1.5740 -1.5779
  270TMC3    C7 4089   1.658   0.204  15.855  0.2939 -0.0452 -0.0411
  270TMC3    C8 4090   1.232   0.401  15.842 -0.3983  0.3546 -0.1698
  270TMC3    O1 4091   1.781   0.211  15.864 -0.6728 -0.1244  0.4793
  270TMC3    O2 4092   1.130   0.437  15.902  0.4955 -0.1113 -0.5477
  271MPD2     C 4093   0.868   0.104  14.248 -0.3935 -0.6215 -0.3397
  271MPD2    C1 4094   0.763   0.067  14.328  0.1118 -0.0555  0.0246
  271MPD2    C2 4095   0.645   0.148  14.319  0.7337  0.2185 -0.0399
  271MPD2    C3 4096   0.629   0.252  14.223  1.0537 -0.0413 -0.5203
  271MPD2    C4 4097   0.740   0.275  14.143  0.0683 -0.0892 -0.4020
  271MPD2    C5 4098   0.847   0.203  14.150 -0.5583 -0.3369 -0.3679
  271MPD2     H 4099   0.565   0.127  14.389  1.2028  0.7842  0.6688
  271MPD2    H1 4100   0.744   0.353  14.067  0.9640  0.3928  0.1406
  271MPD2    H2 4101   0.964   0.055  14.246  0.2194  0.5922 -0.7065
  271MPD2    H3 4102   0.935   0.230  14.093 -1.5547  0.3809 -1.5741
  271MPD2     N 4103   0.511   0.328  14.215  0.5328 -0.1756  0.0619
  271MPD2    H5 4104   0.518   0.397  14.140 -2.0443  0.8165  0.7457
  271MPD2    N1 4105   0.779   4.699  14.433 -0.2980 -0.0803 -0.3865
  271MPD2    H7 4106   0.704   4.666  14.494 -1.1899  1.5520 -0.5827
  272TMC3    C1 4107   0.890   4.561  14.583 -0.2752 -0.4540  0.1889
  272TMC3    C2 4108   1.007   4.494  14.607 -1.0344  0.1251  0.5103
  272TMC3    C3 4109   1.051   4.484  14.735  0.5724 -0.4682  0.1881
  272TMC3    C4 4110   0.815   4.618  14.686 -0.0928 -0.1648 -0.8843
  272TMC3    C5 4111   0.864   4.612  14.810 -0.2861 -0.0950 -0.1893
  272TMC3    C6 4112   0.977   4.540  14.839 -0.1198 -0.4772 -0.7604
  272TMC3     C 4113   0.890   4.626  14.455 -0.1165  0.3228  0.0394
  272TMC3     O 4114   1.002   4.620  14.400  0.1292 -0.2850  0.3005
  272TMC3     H 4115   1.054   4.442  14.524 -1.9715  0.0647  0.0194
  272TMC3    H1 4116   0.723   4.669  14.661 -1.3191 -1.2495  1.4484
  272TMC3    H2 4117   1.018   4.545  14.939 -1.3420 -2.9710 -0.1401
  272TMC3    C7 4118   0.814   4.712  14.900 -0.1482  0.5570 -0.2044
  272TMC3    C8 4119   1.189   4.446  14.746 -0.4298 -0.4813 -0.1219
  272TMC3    O1 4120   0.696   0.023  14.887 -0.2552  0.3126 -0.3957
  272TMC3    O2 4121   1.259   4.469  14.648  0.0064  0.0499  0.2406
  273MPD2     C 4122   2.938   3.327  11.928 -0.0798  0.1848  0.5610
  273MPD2    C1 4123   2.990   3.437  11.867 -0.3457 -0.0818 -1.1969
  273MPD2    C2 4124   2.980   3.460  11.732  0.0533 -0.0977  1.0827
  273MPD2    C3 4125   2.911   3.367  11.648  1.2821  1.0999 -0.6694
  273MPD2    C4 4126   2.849   3.261  11.714  0.1191 -0.5712 -0.2834
  273MPD2    C5 4127   2.870   3.238  11.845  0.6440  0.2419  0.2120
  273MPD2     H 4128   3.014   3.558  11.700 -0.7782  0.2100  1.1488
  273MPD2    H1 4129   2.777   3.200  11.662  0.9692 -0.9096 -1.0687
  273MPD2    H2 4130   2.951   3.317  12.035  0.2583  1.0820  0.6132
  273MPD2    H3 4131   2.824   3.153  11.894  1.1453 -0.2908 -0.2429
  273MPD2     N 4132   2.909   3.388  11.508  0.1316 -0.4034 -0.1076
  273MPD2    H5 4133   2.852   3.325  11.452 -1.4538  0.7912  0.1544
  273MPD2    N1 4134   3.053   3.527  11.959  0.4666 -0.4212  0.2344
  273MPD2    H7 4135   3.046   3.510  12.059 -1.0604  2.9688  0.7096
  274TMC3    C1 4136   2.969   3.491  11.306 -0.0764 -0.2447 -0.0921
  274TMC3    C2 4137   2.858   3.434  11.241 -0.0360  0.2407 -0.5759
  274TMC3    C3 4138   2.782   3.505  11.154 -0.1430  0.5239  0.4277
  274TMC3    C4 4139   3.011   3.615  11.270  0.5583 -0.8519 -0.7024
  274TMC3    C5 4140   2.929   3.680  11.184  0.0570  0.7789  0.2544
  274TMC3    C6 4141   2.827   3.627  11.109 -0.0289  0.5081 -0.3556
  274TMC3     C 4142   3.002   3.462  11.445  0.3456  0.3427  0.2997
  274TMC3     O 4143   3.094   3.533  11.486 -0.1530 -0.3835 -0.0316
  274TMC3     H 4144   2.840   3.333  11.277 -1.1372  0.7127  0.2377
  274TMC3    H1 4145   3.106   3.653  11.305  0.0787 -0.7992  0.5565
  274TMC3    H2 4146   2.776   3.689  11.036  0.2858  2.1173  0.7680
  274TMC3    C7 4147   2.907   3.824  11.199  1.0182 -0.3601  1.0721
  274TMC3    C8 4148   2.657   3.461  11.111  0.3815  0.0045 -0.4371
  274TMC3    O1 4149   2.801   3.869  11.166 -0.7712 -0.2563  0.5767
  274TMC3    O2 4150   2.593   3.546  11.052 -0.6274  0.2255  0.3134
  275MPD2     C 4151   2.245   1.032  14.058  0.7166 -0.7207  0.5257
  275MPD2    C1 4152   2.286   0.932  14.150  0.5181  0.7765 -0.6865
  275MPD2    C2 4153   2.188   0.859  14.213  0.7785 -0.0132  0.0518
  275MPD2    C3 4154   2.052   0.887  14.192 -0.8121 -0.6152  0.1289
  275MPD2    C4 4155   2.016   0.986  14.096 -0.0074 -0.0552  0.1596
  275MPD2    C5 4156   2.114   1.057  14.033 -0.4708 -0.2312  0.4348
  275MPD2     H 4157   2.228   0.791  14.287 -0.0238  0.9810  1.3930
  275MPD2    H1 4158   1.913   1.017  14.079  0.1003  0.4943  0.5288
  275MPD2    H2 4159   2.315   1.094  14.003 -0.6910 -2.2317 -2.9708
  275MPD2    H3 4160   2.095   1.143  13.970  2.2289  1.8518  2.4949
  275MPD2     N 4161   1.942   0.817  14.252  0.3139 -0.3246  0.0642
  275MPD2    H5 4162   1.847   0.846  14.228 -0.2214 -0.7385  1.6240
  275MPD2    N1 4163   2.416   0.919  14.204  0.0091  0.4597  0.1846
  275MPD2    H7 4164   2.442   0.839  14.261 -1.9189 -0.8287 -0.7232
  276TMC3    C1 4165   2.633   0.970  14.267 -1.0037 -0.4557  0.8789
  276TMC3    C2 4166   2.641   0.856  14.341  0.3945  0.4515  0.4293
  276TMC3    C3 4167   2.739   0.836  14.429  0.1213 -0.4190  0.5702
  276TMC3    C4 4168   2.728   1.069  14.282 -0.7011 -0.1203  0.2899
  276TMC3    C5 4169   2.822   1.046  14.382  0.0604 -0.1785 -0.7257
  276TMC3    C6 4170   2.831   0.932  14.463  0.0302  0.5672  0.0637
  276TMC3     C 4171   2.518   1.008  14.185 -0.3655 -0.1095  0.0679
  276TMC3     O 4172   2.515   1.118  14.137 -0.4292  0.0900  0.2868
  276TMC3     H 4173   2.583   0.768  14.314  2.5251 -0.4235 -1.3604
  276TMC3    H1 4174   2.725   1.162  14.226 -1.3214 -1.3381 -1.7341
  276TMC3    H2 4175   2.902   0.915  14.543 -0.9987  1.1199  1.0943
  276TMC3    C7 4176   2.876   1.170  14.436  0.3300  0.3199 -0.0581
  276TMC3    C8 4177   2.782   0.704  14.466  0.3336  0.0449 -0.0804
  276TMC3    O1 4178   2.878   1.166  14.557 -0.1020 -0.2156  0.2492
  276TMC3    O2 4179   2.901   0.682  14.483 -0.3257  0.2271 -0.2328
  277MPD2     C 4180   4.321   0.655  12.925  0.6087  0.2951  0.7348
  277MPD2    C1 4181   4.216   0.727  12.977  0.3693 -0.3269  0.0159
  277MPD2    C2 4182   4.129   0.652  13.062 -0.3953  0.2653 -0.3651
  277MPD2    C3 4183   4.149   0.517  13.088  0.0459 -0.0786  0.2898
  277MPD2    C4 4184   4.263   0.452  13.041 -0.9797  0.0536  0.0911
  277MPD2    C5 4185   4.343   0.522  12.951 -0.2513  0.3698  0.0882
  277MPD2     H 4186   4.035   0.697  13.091 -1.4417 -0.4618 -2.6383
  277MPD2    H1 4187   4.278   0.345  13.047 -2.0129 -0.0314  1.1249
  277MPD2    H2 4188   4.395   0.703  12.862 -0.2250  1.0275  0.3107
  277MPD2    H3 4189   4.429   0.479  12.902  0.4238  0.5416  1.1391
  277MPD2     N 4190   4.053   0.462  13.166 -0.3159  0.2747 -0.2898
  277MPD2    H5 4191   3.984   0.530  13.197  1.1659  1.4763  0.3981
  277MPD2    N1 4192   4.198   0.867  12.947  0.3504  0.9598 -0.1738
  277MPD2    H7 4193   4.279   0.909  12.902  0.3185 -2.0132 -3.0121
  278TMC3    C1 4194   3.913   0.278  13.233 -0.1469 -0.1570  0.5740
  278TMC3    C2 4195   3.903   0.154  13.293  0.6502  0.0869  0.3741
  278TMC3    C3 4196   3.778   0.130  13.340 -0.0364  0.4694 -0.7195
  278TMC3    C4 4197   3.813   0.356  13.200  0.3288  0.2764 -0.2083
  278TMC3    C5 4198   3.689   0.325  13.259  0.2582  0.8275 -0.0227
  278TMC3    C6 4199   3.676   0.215  13.332  0.4774  0.6350 -0.1683
  278TMC3     C 4200   4.045   0.329  13.198  0.4173  0.2231 -0.0301
  278TMC3     O 4201   4.132   0.244  13.208  0.1070  0.4893 -0.3512
  278TMC3     H 4202   3.975   0.075  13.303 -0.3613 -0.5560  2.6119
  278TMC3    H1 4203   3.821   0.427  13.119  0.7970  0.3507 -0.0944
  278TMC3    H2 4204   3.579   0.189  13.372 -0.3033  1.1140 -1.7542
  278TMC3    C7 4205   3.578   0.412  13.220 -0.1011  0.4695  0.4360
  278TMC3    C8 4206   3.751   4.715  13.370 -0.8880  0.1165  0.6519
  278TMC3    O1 4207   3.579   0.485  13.116  0.1695  0.1998 -0.5730
  278TMC3    O2 4208   3.845   4.643  13.405 -0.1509  0.0961  0.2037
  279MPD2     C 4209   3.515   4.301   0.472 -0.4776  0.3651  0.1535
  279MPD2    C1 4210   3.426   4.319   0.366 -0.3567 -0.7691 -0.0270
  279MPD2    C2 4211   3.472   4.306   0.240  0.4527  0.2111 -0.6930
  279MPD2    C3 4212   3.610   4.285   0.218  0.1466 -0.4824  0.2253
  279MPD2    C4 4213   3.689   4.253   0.325  0.0078 -0.5212 -0.1251
  279MPD2    C5 4214   3.644   4.263   0.452 -0.6642 -0.2414  0.4944
  279MPD2     H 4215   3.406   4.330   0.157  2.5091 -0.0177 -2.3757
  279MPD2    H1 4216   3.792   4.222   0.310  0.6520  1.3023  0.5461
  279MPD2    H2 4217   3.479   4.309   0.574 -0.7552  1.1381 -0.0038
  279MPD2    H3 4218   3.716   4.263   0.533  1.1755  0.9448 -1.1551
  279MPD2     N 4219   3.666   4.273   0.091  0.5733  0.1793 -0.2720
  279MPD2    H5 4220   3.764   4.249   0.088  0.8265  1.5053 -2.1103
  279MPD2    N1 4221   3.297   4.371   0.375  0.1920 -0.7240 -0.6702
  279MPD2    H7 4222   3.249   4.391   0.288  0.3490 -0.9141 -0.8018
  280TMC3    C1 4223   3.110   4.475   0.445 -0.0100 -0.3178 -0.1097
  280TMC3    C2 4224   3.001   4.468   0.525 -0.2194  0.7767  0.3562
  280TMC3    C3 4225   2.882   4.522   0.482  0.0504 -0.4100  0.2829
  280TMC3    C4 4226   3.101   4.530   0.324 -0.0914 -0.0631 -0.3756
  280TMC3    C5 4227   2.982   4.579   0.284  0.1995 -0.0574 -0.1228
  280TMC3    C6 4228   2.868   4.584   0.358 -0.9327 -0.6418  0.0074
  280TMC3     C 4229   3.238   4.427   0.487 -0.1417  0.4740 -0.4896
  280TMC3     O 4230   3.269   4.418   0.603  0.0921  0.0507  0.4632
  280TMC3     H 4231   3.013   4.427   0.625 -0.1133 -0.4841 -0.1728
  280TMC3    H1 4232   3.193   4.559   0.274  0.1518 -0.4631 -0.1564
  280TMC3    H2 4233   2.771   4.618   0.324 -0.2971  1.3494  0.1854
  280TMC3    C7 4234   2.977   4.622   0.140  0.3810 -0.0506  0.1474
  280TMC3    C8 4235   2.763   4.511   0.563  1.1295 -0.1498 -0.0861
  280TMC3    O1 4236   3.068   4.578   0.075 -0.3109 -0.0010  0.0827
  280TMC3    O2 4237   2.659   4.507   0.504 -0.5351  0.2888 -0.3151
  281TMC3    C1 4238   2.037   0.656  12.937 -0.6937  0.0175 -0.4002
  281TMC3    C2 4239   1.983   0.753  12.854  0.4741  0.2322  0.2428
  281TMC3    C3 4240   1.891   0.714  12.753 -0.5429 -0.7229  0.2291
  281TMC3    C4 4241   2.014   0.524  12.914 -0.3325  0.7580 -0.5330
  281TMC3    C5 4242   1.927   0.486  12.820 -0.0387 -0.6378 -0.1668
  281TMC3    C6 4243   1.874   0.583  12.735  0.1427  0.4503 -0.4106
  281TMC3     C 4244   2.132   0.687  13.039 -0.0056  0.3954 -0.4727
  281TMC3     O 4245   2.228   0.613  13.057  0.0810 -0.5937 -0.0554
  281TMC3     H 4246   1.979   0.857  12.884 -2.3620  0.5739 -1.4116
  281TMC3    H1 4247   2.056   0.450  12.980  0.7940  1.7160 -0.1613
  281TMC3    H2 4248   1.793   0.548  12.672  0.9244 -1.1805 -0.5110
  281TMC3    C7 4249   1.868   0.352  12.827  0.4515 -0.0147 -0.0464
  281TMC3    C8 4250   1.764   0.788  12.748 -1.0296 -0.1568  0.5112
  281TMC3    O1 4251   1.847   0.291  12.724 -0.7742  0.2848 -0.1943
  281TMC3    O2 4252   1.665   0.718  12.775  0.0246  0.2248 -0.4517
  282MPD2     C 4253   4.071   2.025  14.904  0.3099 -0.2065  0.1515
  282MPD2    C1 4254   3.967   2.102  14.948 -1.1686 -0.4094  0.2217
  282MPD2    C2 4255   3.904   2.181  14.863  0.0164  0.0380  0.7154
  282MPD2    C3 4256   3.951   2.201  14.737  0.5440 -0.5936 -0.6275
  282MPD2    C4 4257   4.049   2.117  14.694 -0.0333  0.3426  0.1657
  282MPD2    C5 4258   4.107   2.026  14.774 -1.1401 -0.4461  0.6019
  282MPD2     H 4259   3.817   2.238  14.894  0.1773  0.9932 -0.5762
  282MPD2    H1 4260   4.092   2.135  14.597  0.9174 -2.5385  0.0310
  282MPD2    H2 4261   4.123   1.959  14.973 -1.9482 -3.5167 -1.3583
  282MPD2    H3 4262   4.192   1.962  14.752  0.1719  1.6930 -0.5640
  282MPD2     N 4263   3.876   2.283  14.653 -0.0564 -0.5346 -0.5088
  282MPD2    H5 4264   3.794   2.327  14.695  0.9098  1.7612 -1.0146
  282MPD2    N1 4265   3.923   2.113  15.084  0.6643 -0.0048 -0.1732
  282MPD2    H7 4266   3.846   2.177  15.101 -0.2889 -1.6014  1.6322
  283TMC3    C1 4267   3.875   2.041  15.296  0.8588  0.6940 -0.1553
  283TMC3    C2 4268   3.836   2.169  15.315 -0.2941  0.5415  0.3078
  283TMC3    C3 4269   3.713   2.191  15.378  0.0830 -0.0097 -0.5220
  283TMC3    C4 4270   3.800   1.927  15.331 -0.3186 -0.2205  0.3726
  283TMC3    C5 4271   3.684   1.960  15.387 -0.7487  0.3030 -0.6650
  283TMC3    C6 4272   3.644   2.079  15.414 -0.4319  0.0386 -0.5968
  283TMC3     C 4273   3.962   2.025  15.184 -0.0248 -0.5551 -0.4400
  283TMC3     O 4274   4.034   1.921  15.177  0.3498  0.1079 -0.7469
  283TMC3     H 4275   3.905   2.250  15.294 -0.8089  0.8568 -0.1742
  283TMC3    H1 4276   3.833   1.829  15.296 -0.6545 -0.2046  0.0002
  283TMC3    H2 4277   3.546   2.096  15.457 -0.2345  0.0572 -0.1558
  283TMC3    C7 4278   3.587   1.858  15.421 -0.2305  0.3822 -0.0660
  283TMC3    C8 4279   3.697   2.309  15.464  0.0353 -0.5279 -0.7335
  283TMC3    O1 4280   3.483   1.893  15.473 -0.8586 -0.3477  0.3874
  283TMC3    O2 4281   3.649   2.289  15.575  0.8781  0.1170 -0.1671
  284MPD2     C 4282   2.310   1.643  11.772  0.2534 -0.0868  0.1913
  284MPD2    C1 4283   2.332   1.556  11.670 -0.0312  0.1134 -0.4668
  284MPD2    C2 4284   2.255   1.443  11.664 -0.5283  0.3957 -0.3660
  284MPD2    C3 4285   2.161   1.413  11.766 -0.1637 -0.6059 -0.3117
  284MPD2    C4 4286   2.151   1.495  11.874  0.1640  0.7222  1.0204
  284MPD2    C5 4287   2.231   1.603  11.880  0.4869 -0.3153 -0.7117
  284MPD2     H 4288   2.266   1.383  11.574  1.6665  0.4569 -0.1366
  284MPD2    H1 4289   2.074   1.487  11.949  0.5772  1.9216  1.5835
  284MPD2    H2 4290   2.357   1.741  11.778  1.4540 -0.6275 -0.3220
  284MPD2    H3 4291   2.217   1.673  11.962 -1.4505  0.1287 -1.4186
  284MPD2     N 4292   2.077   1.295  11.767  0.0480 -0.3882  0.5135
  284MPD2    H5 4293   2.029   1.277  11.855  0.0055 -0.4251  0.4831
  284MPD2    N1 4294   2.412   1.595  11.556 -0.4373 -0.3543 -0.6030
  284MPD2    H7 4295   2.422   1.531  11.478 -1.9158 -1.6860  0.2849
  285TMC3    C1 4296   2.595   1.684  11.445 -0.6184 -0.5351 -0.9317
  285TMC3    C2 4297   2.565   1.633  11.323  0.0243  0.0343 -0.7172
  285TMC3    C3 4298   2.648   1.669  11.213 -0.3508 -0.1840  0.1771
  285TMC3    C4 4299   2.710   1.750  11.462  0.4146 -0.3823  0.6952
  285TMC3    C5 4300   2.796   1.771  11.355 -0.2234  0.4937  0.3879
  285TMC3    C6 4301   2.764   1.739  11.228 -0.0846 -0.3394 -0.8600
  285TMC3     C 4302   2.498   1.701  11.551  0.5605 -0.7164  0.6457
  285TMC3     O 4303   2.513   1.792  11.627  0.2976 -0.7175  0.4888
  285TMC3     H 4304   2.468   1.589  11.308  0.4404 -1.0592 -0.1894
  285TMC3    H1 4305   2.746   1.786  11.557  1.0661 -0.6064  0.5342
  285TMC3    H2 4306   2.841   1.757  11.154 -1.5339  0.5597 -2.1372
  285TMC3    C7 4307   2.921   1.843  11.389 -0.0655 -0.1158  0.4464
  285TMC3    C8 4308   2.602   1.630  11.074  0.2256  0.5012  0.3429
  285TMC3    O1 4309   2.932   1.891  11.502 -0.2202 -0.1158 -0.1968
  285TMC3    O2 4310   2.503   1.558  11.071  0.1036  0.4761 -0.3181
  286MPD2     C 4311   2.264   0.353   1.572  0.7238 -0.7402  0.1118
  286MPD2    C1 4312   2.293   0.301   1.444 -0.1161  0.2413  0.1545
  286MPD2    C2 4313   2.352   0.173   1.438 -0.1565  0.3519  0.3659
  286MPD2    C3 4314   2.407   0.110   1.545 -0.3127 -0.4549  0.3713
  286MPD2    C4 4315   2.394   0.176   1.669 -0.4988  0.3851 -0.1237
  286MPD2    C5 4316   2.321   0.291   1.685 -0.5358  0.4243  0.1089
  286MPD2     H 4317   2.351   0.132   1.338 -0.0553  1.2371  0.0038
  286MPD2    H1 4318   2.431   0.121   1.755  0.4253 -1.9034 -1.9940
  286MPD2    H2 4319   2.204   0.443   1.581 -0.1674 -1.7120  3.8809
  286MPD2    H3 4320   2.301   0.317   1.788  1.2261  0.2063  0.5073
  286MPD2     N 4321   2.464   4.695   1.549 -0.3449  0.3596  0.1901
  286MPD2    H5 4322   2.500   4.658   1.636 -0.8549  2.2496  1.2008
  286MPD2    N1 4323   2.251   0.356   1.329 -0.4035 -0.1654 -0.7882
  286MPD2    H7 4324   2.279   0.310   1.243  0.8697  1.4370 -1.2466
  287TMC3    C1 4325   2.550   4.505   1.431  0.5241 -0.1920 -0.5475
  287TMC3    C2 4326   2.523   4.413   1.333 -0.5427 -0.2869  0.0729
  287TMC3    C3 4327   2.602   4.305   1.321  0.9559  0.5626 -0.1426
  287TMC3    C4 4328   2.659   4.502   1.503 -0.0742  0.1936 -0.2063
  287TMC3    C5 4329   2.748   4.407   1.478  0.4770 -0.0179  0.1131
  287TMC3    C6 4330   2.731   4.314   1.375  0.7300  0.6052 -0.7153
  287TMC3     C 4331   2.464   4.619   1.432 -0.0914 -0.6591  0.1153
  287TMC3     O 4332   2.393   4.633   1.333  0.0385 -0.0526  0.0005
  287TMC3     H 4333   2.432   4.424   1.276 -1.5934  0.2116  1.8251
  287TMC3    H1 4334   2.694   4.581   1.569  0.5746 -0.0740 -0.2342
  287TMC3    H2 4335   2.808   4.246   1.340  1.1234  0.1232  1.0946
  287TMC3    C7 4336   2.867   4.401   1.562 -0.4371  0.4183 -0.1681
  287TMC3    C8 4337   2.572   4.210   1.214 -0.2130 -0.7297 -0.3539
  287TMC3    O1 4338   2.887   4.489   1.641  0.4889  0.5285  0.3940
  287TMC3    O2 4339   2.455   4.191   1.201 -0.4480 -0.6906 -0.3834
  288TMC3    C1 4340   3.703   4.495  14.287  0.0113  0.2606  0.2572
  288TMC3    C2 4341   3.666   4.430  14.405 -0.4444  0.1361  0.5168
  288TMC3    C3 4342   3.700   4.506  14.518  0.1110 -0.3478 -0.6394
  288TMC3    C4 4343   3.765   4.620  14.273 -0.5537  0.0624 -0.2053
  288TMC3    C5 4344   3.780   4.690  14.389 -0.4363 -0.0914  0.2834
  288TMC3    C6 4345   3.761   4.634  14.511 -0.0783 -0.0089  0.6679
  288TMC3     C 4346   3.693   4.420  14.160  1.0048 -0.8260  0.1541
  288TMC3     O 4347   3.627   4.318  14.162  0.1480  0.1577 -0.1845
  288TMC3     H 4348   3.618   4.333  14.401  0.3455 -0.2404  0.1365
  288TMC3    H1 4349   3.783   4.663  14.175  0.4776  1.2363  0.5081
  288TMC3    H2 4350   3.790   4.684  14.603  0.7190  0.5714  0.1002
  288TMC3    C7 4351   3.867   0.080  14.384  0.8379 -1.0190 -0.0644
  288TMC3    C8 4352   3.694   4.449  14.650 -0.4587 -0.3069  0.3983
  288TMC3    O1 4353   3.881   0.137  14.491  0.2074 -0.0301 -0.6629
  288TMC3    O2 4354   3.769   4.492  14.738 -0.6681 -0.6556 -0.3846
  289MPD2     C 4355   4.243   4.095  13.563 -0.1504  0.1661 -0.5758
  289MPD2    C1 4356   4.123   4.107  13.508  0.4592  0.2321 -0.6164
  289MPD2    C2 4357   4.015   4.068  13.585 -0.1823  0.7213 -0.4703
  289MPD2    C3 4358   4.031   4.014  13.712 -0.0263 -0.4206  0.3049
  289MPD2    C4 4359   4.161   3.995  13.763 -0.3817 -0.2446 -0.0107
  289MPD2    C5 4360   4.270   4.042  13.692 -0.1238  0.0892  0.0178
  289MPD2     H 4361   3.920   4.068  13.533 -0.1937 -1.1061 -0.4463
  289MPD2    H1 4362   4.179   3.956  13.863 -0.6053  0.5174  0.3349
  289MPD2    H2 4363   4.331   4.123  13.505 -0.1995 -0.6914 -1.0709
  289MPD2    H3 4364   4.371   4.037  13.728  1.0743 -1.0727 -3.4953
  289MPD2     N 4365   3.918   3.987  13.791  0.0993  0.3634  0.6450
  289MPD2    H5 4366   3.925   3.984  13.893  0.0331 -2.5107  0.5803
  289MPD2    N1 4367   4.117   4.171  13.384 -0.1669 -0.0809  0.2993
  289MPD2    H7 4368   4.204   4.207  13.346 -2.6539  2.2288 -3.1572
  290TMC3    C1 4369   3.693   3.972  13.851  0.3391 -0.1657  0.3495
  290TMC3    C2 4370   3.581   4.054  13.822 -0.5119 -0.5808  0.1436
  290TMC3    C3 4371   3.482   4.064  13.914 -0.3008  0.8494 -0.6878
  290TMC3    C4 4372   3.710   3.906  13.971  0.3523  0.4079 -0.1405
  290TMC3    C5 4373   3.611   3.926  14.061 -0.1339  0.1529  0.2633
  290TMC3    C6 4374   3.498   4.002  14.036  0.2044 -0.1224 -0.2194
  290TMC3     C 4375   3.792   3.972  13.745 -0.5875  0.3704  0.2390
  290TMC3     O 4376   3.742   3.997  13.636 -0.0997  0.3226 -0.2108
  290TMC3     H 4377   3.578   4.121  13.738  0.7065 -1.4155 -0.5723
  290TMC3    H1 4378   3.788   3.831  13.978 -0.0578 -0.1225 -1.2208
  290TMC3    H2 4379   3.417   3.999  14.108  0.8398 -1.1605  0.4591
  290TMC3    C7 4380   3.586   3.819  14.154  0.2389 -0.8693  0.1387
  290TMC3    C8 4381   3.385   4.168  13.901 -0.4344  0.4194 -0.1952
  290TMC3    O1 4382   3.470   3.799  14.186 -0.0309  0.0207 -0.2170
  290TMC3    O2 4383   3.362   4.202  13.786 -0.3541 -0.1057 -0.0991
  291MPD2     C 4384   2.871   2.614   0.095  0.0805  0.2189  0.2531
  291MPD2    C1 4385   2.849   2.482   0.059  0.3334  0.4234  0.7473
  291MPD2    C2 4386   2.960   2.394   0.058 -0.1099  0.2956 -0.0777
  291MPD2    C3 4387   3.089   2.432   0.102 -0.3285  0.0053 -1.2220
  291MPD2    C4 4388   3.106   2.559   0.150 -0.0172 -1.0358 -0.1810
  291MPD2    C5 4389   2.999   2.647   0.138  0.6598 -0.3159 -0.3646
  291MPD2     H 4390   2.940   2.289   0.039 -2.5403  1.2351 -2.8168
  291MPD2    H1 4391   3.202   2.596   0.184  0.4811 -2.0832 -0.4500
  291MPD2    H2 4392   2.794   2.689   0.089  1.8891  2.1170  0.9159
  291MPD2    H3 4393   3.010   2.749   0.172 -2.2380 -0.0655 -0.1640
  291MPD2     N 4394   3.197   2.341   0.116 -0.8103  1.1670  0.2722
  291MPD2    H5 4395   3.275   2.388   0.161  0.1718 -0.5766  0.3902
  291MPD2    N1 4396   2.724   2.436   0.013  0.0350  0.7747 -0.1593
  291MPD2    H7 4397   2.718   2.341  17.672  4.3883  0.1870  0.6505
  292TMC3    C1 4398   2.482   2.414   0.004  0.0813 -0.3611  0.2777
  292TMC3    C2 4399   2.368   2.446   0.066 -0.5391 -0.1046 -0.1691
  292TMC3    C3 4400   2.263   2.363   0.050  0.0526  0.0806  0.9331
  292TMC3    C4 4401   2.500   2.314  17.614  0.2288  0.5320 -0.4326
  292TMC3    C5 4402   2.394   2.229  17.599 -1.0001  0.3807 -0.3790
  292TMC3    C6 4403   2.273   2.248  17.665  0.1013 -0.5675 -0.6424
  292TMC3     C 4404   2.598   2.487   0.047 -0.1000  0.1384 -0.3102
  292TMC3     O 4405   2.573   2.579   0.126  0.1125 -0.0197 -0.0841
  292TMC3     H 4406   2.356   2.531   0.131  0.8365 -0.3456  0.4085
  292TMC3    H1 4407   2.584   2.297  17.548 -0.2919  0.2119 -1.0149
  292TMC3    H2 4408   2.185   2.197  17.625 -0.6722  1.0625 -1.0358
  292TMC3    C7 4409   2.405   2.131  17.495 -0.2919  0.3513  0.2309
  292TMC3    C8 4410   2.164   2.366   0.147 -0.4279  1.0353 -0.2244
  292TMC3    O1 4411   2.514   2.075  17.498  0.8081 -0.0590 -0.3764
  292TMC3    O2 4412   2.143   2.473   0.197 -0.0402 -0.5446  0.3719
  293MPD2     C 4413   0.821   0.654  12.438  0.6710  0.3273 -0.9950
  293MPD2    C1 4414   0.704   0.597  12.482 -0.0471 -0.4449 -0.3951
  293MPD2    C2 4415   0.671   0.618  12.616  0.1310 -0.8686  0.1331
  293MPD2    C3 4416   0.744   0.689  12.700  0.1637  0.5956  0.6340
  293MPD2    C4 4417   0.863   0.740  12.658  0.0387 -0.3871 -0.1799
  293MPD2    C5 4418   0.890   0.732  12.525  0.0706 -0.5500 -0.1238
  293MPD2     H 4419   0.581   0.573  12.656 -0.8392 -0.7480 -1.9548
  293MPD2    H1 4420   0.925   0.800  12.723 -1.6048  3.2699 -1.9805
  293MPD2    H2 4421   0.856   0.632  12.338 -0.0236  3.4699 -1.9326
  293MPD2    H3 4422   0.979   0.780  12.486 -0.2774 -1.2616 -1.7879
  293MPD2     N 4423   0.714   0.689  12.837  0.0405 -0.6061  0.4777
  293MPD2    H5 4424   0.647   0.620  12.870 -1.8713  1.4532  0.8289
  293MPD2    N1 4425   0.617   0.550  12.387  0.8038 -0.7743  0.4678
  293MPD2    H7 4426   0.646   0.549  12.290  0.8940 -0.2083  0.4906
  294TMC3    C1 4427   0.422   0.480  12.295 -0.2111  0.0479 -0.5976
  294TMC3    C2 4428   0.287   0.467  12.304 -0.0511  0.2479 -1.0988
  294TMC3    C3 4429   0.203   0.463  12.196 -0.5524  0.3698 -0.7493
  294TMC3    C4 4430   0.477   0.480  12.171  0.0914  0.4534  0.3054
  294TMC3    C5 4431   0.393   0.455  12.068  0.1602  0.0706 -0.1866
  294TMC3    C6 4432   0.256   0.451  12.071 -0.3238  0.4442  0.5606
  294TMC3     C 4433   0.499   0.482  12.415  0.0512  0.2765  0.3390
  294TMC3     O 4434   0.439   0.465  12.521  1.3839 -0.1204 -0.0803
  294TMC3     H 4435   0.237   0.479  12.399 -0.3261  1.7067 -1.4243
  294TMC3    H1 4436   0.583   0.487  12.147 -0.1363  0.7212 -0.6446
  294TMC3    H2 4437   0.201   0.422  11.982 -0.3991 -2.8800  1.6779
  294TMC3    C7 4438   0.446   0.485  11.937  0.4290  0.1362  0.3467
  294TMC3    C8 4439   0.070   0.411  12.221 -0.1076 -0.3594  0.1089
  294TMC3    O1 4440   0.384   0.572  11.881  0.4716  0.3911 -1.0948
  294TMC3    O2 4441   0.001   0.467  12.304  0.0018  0.0900 -0.2213
  295MPD2     C 4442   0.984   3.134   0.130  0.1140  0.2530 -0.4994
  295MPD2    C1 4443   1.090   3.187   0.196  1.1870  0.9079  0.3681
  295MPD2    C2 4444   1.079   3.276   0.300  0.7124  0.0206  0.3924
  295MPD2    C3 4445   0.957   3.321   0.336  0.2376 -0.8791 -0.0878
  295MPD2    C4 4446   0.853   3.281   0.260 -0.1239 -0.8995  0.2554
  295MPD2    C5 4447   0.860   3.184   0.164 -0.3650  0.2725 -0.4217
  295MPD2     H 4448   1.161   3.311   0.361 -0.9581  1.0767  2.0511
  295MPD2    H1 4449   0.758   3.329   0.274 -0.0641 -0.7295  0.0695
  295MPD2    H2 4450   0.997   3.077   0.039  2.1241 -1.4388  0.8327
  295MPD2    H3 4451   0.772   3.156   0.109 -1.0113  0.9209  0.2762
  295MPD2     N 4452   0.935   3.417   0.442 -0.4541 -0.5756 -0.6167
  295MPD2    H5 4453   0.838   3.446   0.450 -0.4709 -0.4457 -1.3038
  295MPD2    N1 4454   1.221   3.159   0.155 -0.2194  0.0298 -0.6087
  295MPD2    H7 4455   1.296   3.207   0.203  0.2216 -1.5207  0.2451
  296TMC3    C1 4456   0.958   3.564   0.619  0.2266 -0.5281 -0.2570
  296TMC3    C2 4457   1.028   3.644   0.708  0.1275 -0.0802  0.0174
  296TMC3    C3 4458   0.952   3.706   0.803  0.7212  0.3117  0.3179
  296TMC3    C4 4459   0.820   3.542   0.634 -0.2091 -0.0236  0.5962
  296TMC3    C5 4460   0.755   3.601   0.738 -0.1650 -0.5090  0.1997
  296TMC3    C6 4461   0.812   3.691   0.826  0.3173 -0.6216 -0.0520
  296TMC3     C 4462   1.025   3.463   0.536  0.4649  0.0127 -0.0844
  296TMC3     O 4463   1.147   3.464   0.541 -0.0275 -0.0873  0.5014
  296TMC3     H 4464   1.133   3.664   0.690  0.1203  0.2558  0.3603
  296TMC3    H1 4465   0.761   3.461   0.593 -1.3794  0.5336  1.1893
  296TMC3    H2 4466   0.755   3.719   0.913 -1.3045  0.1163 -1.3640
  296TMC3    C7 4467   0.623   3.560   0.771 -0.0542  1.0512  0.1426
  296TMC3    C8 4468   1.016   3.764   0.910 -0.0642  0.2448 -0.0325
  296TMC3    O1 4469   0.548   3.535   0.677 -0.1664  0.3830 -0.0446
  296TMC3    O2 4470   1.132   3.724   0.922 -0.3030  0.0320  0.1609
  297MPD2     C 4471   3.049   0.659  15.808  0.0724 -0.3538  0.1870
  297MPD2    C1 4472   2.993   0.759  15.725  0.6811 -0.1742  0.0458
  297MPD2    C2 4473   3.083   0.831  15.649 -0.2946 -0.2208 -0.2064
  297MPD2    C3 4474   3.221   0.815  15.664  0.1326 -0.5028 -0.6404
  297MPD2    C4 4475   3.270   0.719  15.751 -0.0920 -0.6725 -0.2312
  297MPD2    C5 4476   3.183   0.636  15.811 -0.1478  0.0293 -0.4998
  297MPD2     H 4477   3.045   0.894  15.570  1.0788 -0.2208 -0.8713
  297MPD2    H1 4478   3.376   0.705  15.768  0.0922 -2.1917 -2.5720
  297MPD2    H2 4479   2.986   0.590  15.864 -0.2356  0.2188  0.5439
  297MPD2    H3 4480   3.224   0.564  15.881  0.7672  1.1187  0.0849
  297MPD2     N 4481   3.310   0.911  15.607 -0.3341  0.2645 -0.2098
  297MPD2    H5 4482   3.271   0.978  15.542  2.9249  0.8997 -1.4977
  297MPD2    N1 4483   2.854   0.784  15.708  0.3669  0.0869  0.5745
  297MPD2    H7 4484   2.821   0.855  15.644 -1.1880 -1.8469 -0.7921
  298TMC3    C1 4485   2.626   0.762  15.748 -0.5547 -0.2964  0.4841
  298TMC3    C2 4486   2.595   0.764  15.610  0.0854 -0.1873  0.4609
  298TMC3    C3 4487   2.462   0.740  15.567 -0.5454 -0.0999  0.3066
  298TMC3    C4 4488   2.529   0.748  15.839  0.3105  0.1350 -0.5247
  298TMC3    C5 4489   2.399   0.765  15.795 -0.3651  0.7155 -0.4584
  298TMC3    C6 4490   2.367   0.752  15.660 -0.2139 -0.4293  0.1809
  298TMC3     C 4491   2.757   0.727  15.792  0.5443  0.3754  0.4530
  298TMC3     O 4492   2.756   0.649  15.885 -0.7237 -0.0960  0.6303
  298TMC3     H 4493   2.675   0.759  15.537 -0.7907 -2.5724 -0.3341
  298TMC3    H1 4494   2.553   0.743  15.944 -0.2226 -1.4049 -0.4632
  298TMC3    H2 4495   2.265   0.741  15.626  0.5884 -1.4937 -1.8445
  298TMC3    C7 4496   2.299   0.817  15.885  0.0871  0.1315  0.3133
  298TMC3    C8 4497   2.427   0.717  15.431  0.4270 -0.2389 -0.2451
  298TMC3    O1 4498   2.309   0.791  16.004  0.0788  0.1189  0.3366
  298TMC3    O2 4499   2.317   0.670  15.408 -0.3263 -0.7462  0.0316
  299MPD2     C 4500   4.109   1.216   9.894 -0.4848 -0.0035  0.2419
  299MPD2    C1 4501   4.058   1.133   9.982 -0.5012 -0.0310 -0.3417
  299MPD2    C2 4502   3.930   1.092   9.955 -0.1063  0.0055  0.6410
  299MPD2    C3 4503   3.854   1.142   9.849  0.1588  0.1240  0.6572
  299MPD2    C4 4504   3.900   1.233   9.763 -0.4041 -0.3523 -0.3144
  299MPD2    C5 4505   4.031   1.275   9.789  0.1731  0.0174  0.4667
  299MPD2     H 4506   3.882   1.022  10.021 -0.2922  1.4853  2.0751
  299MPD2    H1 4507   3.848   1.269   9.675  1.9195  0.6188 -1.2697
  299MPD2    H2 4508   4.210   1.252   9.907 -0.0675 -0.9478 -0.4185
  299MPD2    H3 4509   4.081   1.355   9.735 -1.2232  0.1682 -0.6022
  299MPD2     N 4510   3.721   1.111   9.826  0.3406 -0.2443  0.4845
  299MPD2    H5 4511   3.662   1.166   9.765  1.3862 -0.1725 -0.4786
  299MPD2    N1 4512   4.141   1.095  10.095 -0.5613  0.3215  0.3521
  299MPD2    H7 4513   4.235   1.133  10.105 -1.3336  1.9217  1.5667
  300TMC3    C1 4514   3.515   1.008   9.868  0.0187  0.2772  0.7484
  300TMC3    C2 4515   3.449   1.131   9.862  0.2883  0.7941  0.4359
  300TMC3    C3 4516   3.317   1.133   9.892 -0.2088  0.1274 -0.1760
  300TMC3    C4 4517   3.447   0.892   9.895 -0.3745 -0.4518 -0.2586
  300TMC3    C5 4518   3.314   0.900   9.933  0.4350 -0.6150 -0.0226
  300TMC3    C6 4519   3.248   1.020   9.928  0.0090 -0.1338 -0.2734
  300TMC3     C 4520   3.659   0.998   9.872 -0.7948  0.3710  0.4929
  300TMC3     O 4521   3.716   0.895   9.900  0.4569 -0.3866  0.3615
  300TMC3     H 4522   3.487   1.225   9.823  2.4531  0.2382  1.1645
  300TMC3    H1 4523   3.493   0.795   9.879 -1.5510 -0.5735 -2.8399
  300TMC3    H2 4524   3.150   1.031   9.973 -0.1408 -0.5579 -0.4915
  300TMC3    C7 4525   3.243   0.775   9.973  0.1233 -0.1275  0.4492
  300TMC3    C8 4526   3.265   1.261   9.921 -1.0839  0.6096  0.0148
  300TMC3    O1 4527   3.300   0.671   9.943  0.0636  0.0810 -0.0500
  300TMC3    O2 4528   3.340   1.356   9.925  0.2582  0.1053 -0.5104
  301MPD2     C 4529   0.809   2.134   1.722  0.0717  0.4888  0.2260
  301MPD2    C1 4530   0.682   2.118   1.678  0.0018 -0.6191  0.8066
  301MPD2    C2 4531   0.621   1.992   1.696  0.3827 -0.2740 -0.3812
  301MPD2    C3 4532   0.682   1.885   1.759  0.4405  0.2834 -0.7241
  301MPD2    C4 4533   0.810   1.906   1.806  0.0087  0.3099  0.0563
  301MPD2    C5 4534   0.866   2.032   1.794 -0.1443 -0.0160  0.4529
  301MPD2     H 4535   0.522   1.982   1.654  0.5332  1.4115 -1.1281
  301MPD2    H1 4536   0.853   1.833   1.875 -1.0401 -0.2762  0.0880
  301MPD2    H2 4537   0.854   2.233   1.725  1.3002 -0.0311 -1.0503
  301MPD2    H3 4538   0.959   2.050   1.848 -0.9446  0.4447  1.6775
  301MPD2     N 4539   0.623   1.762   1.791 -0.0720 -0.0182 -0.3368
  301MPD2    H5 4540   0.681   1.702   1.849  1.0272 -0.1181 -1.5368
  301MPD2    N1 4541   0.600   2.223   1.625 -0.3338  0.4427  0.4674
  301MPD2    H7 4542   0.502   2.204   1.606  0.0753  0.6471 -1.7806
  302TMC3    C1 4543   0.512   1.565   1.741  0.5759  0.3055 -0.3988
  302TMC3    C2 4544   0.627   1.501   1.785  0.8564 -0.1469  0.2126
  302TMC3    C3 4545   0.656   1.374   1.749  0.5089 -0.5355  0.9762
  302TMC3    C4 4546   0.439   1.500   1.647  0.8217  0.3252 -0.6821
  302TMC3    C5 4547   0.474   1.370   1.607 -0.3602  0.1134  0.8686
  302TMC3    C6 4548   0.581   1.303   1.660  0.6916 -0.4374 -0.2970
  302TMC3     C 4549   0.508   1.708   1.733 -0.4562 -0.6583 -0.2195
  302TMC3     O 4550   0.430   1.763   1.653  0.1159  0.0409  0.8396
  302TMC3     H 4551   0.680   1.536   1.873  2.5691  0.0234 -0.8920
  302TMC3    H1 4552   0.347   1.545   1.611 -0.1763 -1.5017 -0.4369
  302TMC3    H2 4553   0.600   1.199   1.636 -2.5113 -0.8855 -0.9677
  302TMC3    C7 4554   0.400   1.300   1.507  0.0972  0.1155  0.4127
  302TMC3    C8 4555   0.773   1.306   1.799 -0.4464 -0.0276 -0.3820
  302TMC3    O1 4556   0.429   1.184   1.488 -0.2048  0.4804  0.2195
  302TMC3    O2 4557   0.869   1.379   1.824 -0.0063  0.5336  0.1592
  303MPD2     C 4558   1.555   0.473  10.553  1.1992 -0.2982  0.3446
  303MPD2    C1 4559   1.428   0.438  10.591  0.7556  0.0676  0.0707
  303MPD2    C2 4560   1.319   0.480  10.524  0.3662 -0.0538  0.0353
  303MPD2    C3 4561   1.325   0.575  10.423 -0.2996 -0.6540 -0.1470
  303MPD2    C4 4562   1.457   0.611  10.380 -0.2290  0.3646  0.7887
  303MPD2    C5 4563   1.567   0.560  10.443  0.5361 -0.3126 -0.4602
  303MPD2     H 4564   1.223   0.449  10.565 -0.0837  1.1234 -0.1279
  303MPD2    H1 4565   1.471   0.688  10.306 -0.9770  0.1234  0.4052
  303MPD2    H2 4566   1.644   0.439  10.604  0.8015 -1.8081  0.0517
  303MPD2    H3 4567   1.669   0.582  10.412  1.5395 -1.3168  2.0528
  303MPD2     N 4568   1.209   0.644  10.376 -0.4512 -0.1996 -0.4573
  303MPD2    H5 4569   1.229   0.710  10.301  1.9329 -0.1780  0.1722
  303MPD2    N1 4570   1.421   0.340  10.689 -0.4791  0.8934  0.1051
  303MPD2    H7 4571   1.508   0.313  10.733 -0.1529  0.4530 -0.8218
  304TMC3    C1 4572   1.323   0.201  10.850  0.2351  0.1680 -0.7764
  304TMC3    C2 4573   1.236   0.209  10.949  0.0279  0.5337 -0.0412
  304TMC3    C3 4574   1.185   0.091  10.998 -0.0011 -0.4815 -0.2775
  304TMC3    C4 4575   1.364   0.080  10.795 -0.1148  0.1415  0.5236
  304TMC3    C5 4576   1.298   4.692  10.842  0.2692 -0.2135  0.2510
  304TMC3    C6 4577   1.216   4.697  10.947  0.5042 -1.2686  0.5472
  304TMC3     C 4578   1.303   0.295  10.755  0.3685  0.0818 -0.4722
  304TMC3     O 4579   1.189   0.339  10.752  0.3156  0.3565 -0.0704
  304TMC3     H 4580   1.209   0.305  10.991 -2.3742 -0.0102 -0.3919
  304TMC3    H1 4581   1.432   0.072  10.712 -0.1951  1.6147  0.3277
  304TMC3    H2 4582   1.171   4.607  10.988 -0.7122  0.3465  2.7402
  304TMC3    C7 4583   1.249   4.598  10.736 -0.1340 -0.1085  0.2415
  304TMC3    C8 4584   1.046   0.098  10.992 -0.8584 -0.3035 -0.2244
  304TMC3    O1 4585   1.328   4.588  10.642 -0.0060  0.6496 -0.0505
  304TMC3    O2 4586   0.986   0.018  10.924  0.2016  0.2737 -0.2929
  305MPD2     C 4587   3.715   2.063  13.806 -0.2248 -0.5749  0.3373
  305MPD2    C1 4588   3.842   2.113  13.783 -0.0498 -0.0811  0.1501
  305MPD2    C2 4589   3.899   2.084  13.660  0.2651  1.2775 -0.3420
  305MPD2    C3 4590   3.823   2.025  13.556 -1.0514 -0.1139  0.2701
  305MPD2    C4 4591   3.690   2.000  13.582  0.2239 -0.2693  0.2506
  305MPD2    C5 4592   3.639   2.009  13.706  0.2396  0.4673 -0.6506
  305MPD2     H 4593   4.006   2.096  13.646  0.5772  0.1321  1.0516
  305MPD2    H1 4594   3.633   1.949  13.505 -1.5377  2.9406 -0.5587
  305MPD2    H2 4595   3.674   2.064  13.906  1.0560  0.2022  0.8642
  305MPD2    H3 4596   3.544   1.958  13.721 -0.7294  2.1006 -1.1597
  305MPD2     N 4597   3.876   1.988  13.428  0.0159  0.0459  0.2215
  305MPD2    H5 4598   3.819   1.918  13.380 -0.4492  1.1499 -0.8180
  305MPD2    N1 4599   3.910   2.181  13.890 -0.1441  0.2326  0.7658
  305MPD2    H7 4600   3.864   2.198  13.979  0.3789 -2.2646  1.5153
  306TMC3    C1 4601   4.088   2.247  14.026 -0.0443 -0.0020 -0.1329
  306TMC3    C2 4602   4.208   2.204  14.075 -0.4011  0.4276 -0.2288
  306TMC3    C3 4603   4.266   2.279  14.178 -1.1841  0.3212  0.2271
  306TMC3    C4 4604   4.037   2.368  14.072  0.4253  0.5447  0.6402
  306TMC3    C5 4605   4.100   2.448  14.175  0.1986 -0.1616 -0.1117
  306TMC3    C6 4606   4.221   2.398  14.222  0.4401 -0.7602 -0.0903
  306TMC3     C 4607   4.045   2.192  13.898 -0.0179 -0.2427  0.6403
  306TMC3     O 4608   4.137   2.163  13.820 -0.2842  0.0775  0.1976
  306TMC3     H 4609   4.246   2.110  14.036 -0.2338  0.7670 -0.8927
  306TMC3    H1 4610   3.950   2.411  14.024 -0.3473 -2.3536 -0.5293
  306TMC3    H2 4611   4.292   2.461  14.275 -1.4700 -1.3289  3.1228
  306TMC3    C7 4612   4.033   2.556  14.237 -0.0648  0.4824 -0.0316
  306TMC3    C8 4613   4.334   2.196  14.273 -0.1903 -0.6031  0.1013
  306TMC3    O1 4614   3.927   2.589  14.186  0.2286  0.2705  0.3619
  306TMC3    O2 4615   4.353   2.080  14.237 -0.2356 -0.3654 -0.4962
  307MPD2     C 4616   1.342   4.170   0.774 -0.5748 -0.6777 -0.4554
  307MPD2    C1 4617   1.269   4.284   0.759 -0.6811  0.2733  0.4738
  307MPD2    C2 4618   1.137   4.283   0.731  0.1274 -0.1949  0.5353
  307MPD2    C3 4619   1.069   4.161   0.720  0.2555 -0.1061 -0.2709
  307MPD2    C4 4620   1.141   4.041   0.723 -1.1005  0.3367 -0.2759
  307MPD2    C5 4621   1.275   4.045   0.755 -0.4372  0.1272  0.4584
  307MPD2     H 4622   1.087   4.378   0.739 -2.4704 -1.3694 -1.9007
  307MPD2    H1 4623   1.098   3.943   0.706 -1.2488 -0.0043  2.0737
  307MPD2    H2 4624   1.445   4.156   0.804 -0.7071  0.6062  0.5815
  307MPD2    H3 4625   1.330   3.952   0.764 -2.4284 -0.8681  2.4279
  307MPD2     N 4626   0.934   4.164   0.699  0.1719 -0.0617  0.0330
  307MPD2    H5 4627   0.890   4.255   0.700  2.0375  0.8186  1.5675
  307MPD2    N1 4628   1.323   4.413   0.792 -0.6608 -0.4459 -0.2170
  307MPD2    H7 4629   1.264   4.495   0.783  0.5296  0.8928  4.4909
  308TMC3    C1 4630   0.523   4.142   0.514  0.2359  0.3292 -0.8420
  308TMC3    C2 4631   0.488   4.254   0.590 -0.1788 -0.1396 -0.6898
  308TMC3    C3 4632   0.557   4.267   0.709 -0.3916 -0.9711  0.2769
  308TMC3    C4 4633   0.640   4.077   0.540  0.2000  0.5927  0.2477
  308TMC3    C5 4634   0.713   4.111   0.646  0.2664  0.2856 -0.4731
  308TMC3    C6 4635   0.670   4.197   0.737  0.1564  0.1933 -0.3638
  308TMC3     C 4636   0.478   4.131   0.375  0.2079  0.8408 -0.2780
  308TMC3     O 4637   0.456   4.020   0.319  0.1771  0.0323 -0.0228
  308TMC3     H 4638   0.397   4.310   0.574  0.7475  2.0562  1.7097
  308TMC3    H1 4639   0.675   4.014   0.459 -0.1135  1.3732 -0.4930
  308TMC3    H2 4640   0.729   4.227   0.822  0.4658  1.6572 -1.0862
  308TMC3    C7 4641   0.845   4.063   0.659  0.1990 -0.2209  0.0627
  308TMC3    C8 4642   0.525   4.375   0.799 -0.0677 -0.0929  0.5319
  308TMC3    O1 4643   0.871   3.951   0.618  0.0180 -0.2350 -0.1860
  308TMC3    O2 4644   0.536   4.355   0.921 -0.0941  0.2132 -0.1215
  309MPD2     C 4645   0.658   0.290  16.975  0.1602 -0.1248 -0.3192
  309MPD2    C1 4646   0.601   0.336  16.863 -0.2276 -0.3200  0.3536
  309MPD2    C2 4647   0.492   0.425  16.865 -0.0166  0.4057 -1.1723
  309MPD2    C3 4648   0.450   0.475  16.989 -0.2350 -0.2054  0.2333
  309MPD2    C4 4649   0.499   0.413  17.108 -0.1883  0.4133  0.7421
  309MPD2    C5 4650   0.608   0.323  17.102  0.1806 -0.7351 -0.0024
  309MPD2     H 4651   0.460   0.462  16.769  0.9238  0.5792 -1.4217
  309MPD2    H1 4652   0.471   0.444  17.208  0.4880  0.5687  0.8851
  309MPD2    H2 4653   0.738   0.217  16.967  2.7819  2.8178 -1.1520
  309MPD2    H3 4654   0.632   0.263  17.189 -0.8320  1.4343  1.7777
  309MPD2     N 4655   0.357   0.581  17.000  0.5892  0.4732 -0.5484
  309MPD2    H5 4656   0.321   0.607  17.091 -0.5660 -1.2877 -0.5177
  309MPD2    N1 4657   0.651   0.314  16.728 -0.3764 -0.6265  0.5830
  309MPD2    H7 4658   0.602   0.368  16.658  0.5042 -0.5258  0.0477
  310TMC3    C1 4659   0.812   0.289  16.552 -0.5654 -0.2866 -0.5770
  310TMC3    C2 4660   0.770   0.407  16.510  0.4573  0.4035  0.0685
  310TMC3    C3 4661   0.814   0.440  16.388  0.8594  0.2259 -0.0754
  310TMC3    C4 4662   0.908   0.215  16.490  0.3867 -0.0706 -0.4037
  310TMC3    C5 4663   0.961   0.260  16.376 -0.2104 -0.6996  0.3727
  310TMC3    C6 4664   0.913   0.375  16.320 -0.5490 -0.1130  0.6580
  310TMC3     C 4665   0.765   0.240  16.688 -0.3132  0.4338 -0.6721
  310TMC3     O 4666   0.833   0.168  16.757 -0.2502  0.1414 -0.2214
  310TMC3     H 4667   0.730   0.482  16.577 -0.9670 -1.7316  1.6389
  310TMC3    H1 4668   0.957   0.132  16.540 -2.5560 -1.0261  0.9031
  310TMC3    H2 4669   0.962   0.416  16.233 -1.1837 -1.8542 -0.5114
  310TMC3    C7 4670   1.078   0.188  16.329  0.8014 -0.7625  0.3429
  310TMC3    C8 4671   0.774   0.571  16.329  0.3611  0.1063  0.4293
  310TMC3    O1 4672   1.082   0.069  16.353  0.3130  0.6772  0.3427
  310TMC3    O2 4673   0.816   0.605  16.222 -0.3603  0.1392  0.1787
  311MPD2     C 4674   3.134   1.934  12.480 -0.1397 -0.4835 -0.2278
  311MPD2    C1 4675   3.154   2.038  12.567  0.2790  0.2233 -0.4591
  311MPD2    C2 4676   3.044   2.089  12.633 -0.5294 -0.3661  0.0115
  311MPD2    C3 4677   2.916   2.055  12.594  0.4657  0.7972  0.7894
  311MPD2    C4 4678   2.900   1.965  12.497  0.1858 -0.1440 -0.4125
  311MPD2    C5 4679   3.007   1.895  12.452 -0.4798  0.0010  0.1245
  311MPD2     H 4680   3.056   2.161  12.713 -0.0243 -0.5340  0.0852
  311MPD2    H1 4681   2.803   1.938  12.457  0.1714  1.2864 -1.3478
  311MPD2    H2 4682   3.214   1.886  12.426 -0.9870 -1.7306 -0.3670
  311MPD2    H3 4683   2.983   1.812  12.387 -1.4197 -0.2076  0.7332
  311MPD2     N 4684   2.803   2.118  12.650  0.1514  0.1837  0.1383
  311MPD2    H5 4685   2.821   2.175  12.731  0.2736  0.4242 -0.0563
  311MPD2    N1 4686   3.278   2.093  12.586 -0.1539 -0.0669  0.1799
  311MPD2    H7 4687   3.287   2.162  12.661 -1.3709  1.4830 -1.1031
  312TMC3    C1 4688   2.592   2.196  12.691 -0.8228 -0.1470  0.5398
  312TMC3    C2 4689   2.472   2.147  12.730 -0.6662  0.9079 -0.5650
  312TMC3    C3 4690   2.400   2.191  12.838 -0.5515  0.3014  0.4193
  312TMC3    C4 4691   2.641   2.303  12.758 -0.4618  0.1878  0.0725
  312TMC3    C5 4692   2.571   2.341  12.871  0.2150  0.2722 -0.5070
  312TMC3    C6 4693   2.449   2.294  12.914 -0.0881  0.7802  0.2304
  312TMC3     C 4694   2.669   2.106  12.616  0.5017  0.9368 -0.6773
  312TMC3     O 4695   2.616   2.008  12.569 -0.3118  0.2730  0.1583
  312TMC3     H 4696   2.432   2.057  12.684  0.8840  0.8014 -1.7018
  312TMC3    H1 4697   2.737   2.348  12.736 -0.8005  1.0827  0.4448
  312TMC3    H2 4698   2.401   2.323  13.007  1.2899  0.9827  0.8783
  312TMC3    C7 4699   2.645   2.424  12.965 -0.1628 -0.0978  0.3571
  312TMC3    C8 4700   2.285   2.119  12.883  0.0456 -0.3138  0.0002
  312TMC3    O1 4701   2.711   2.515  12.917  0.2712 -0.0151  0.0863
  312TMC3    O2 4702   2.258   2.022  12.815 -0.0999 -0.1445 -0.0356
  313MPD2     C 4703   2.159   1.395  10.630 -0.1916 -0.3855 -0.1081
  313MPD2    C1 4704   2.231   1.500  10.574  0.5158 -0.1040 -0.4578
  313MPD2    C2 4705   2.294   1.471  10.453 -0.8029  0.5090 -0.0785
  313MPD2    C3 4706   2.283   1.346  10.391  0.2956 -0.0879 -0.0017
  313MPD2    C4 4707   2.203   1.251  10.445 -0.8386  0.2966 -0.2766
  313MPD2    C5 4708   2.144   1.278  10.565  0.1977 -0.2362 -0.0283
  313MPD2     H 4709   2.363   1.549  10.422  0.0096 -0.1756 -0.0116
  313MPD2    H1 4710   2.173   1.156  10.402 -2.6120  0.7419 -0.0241
  313MPD2    H2 4711   2.098   1.403  10.719 -0.4215  0.1298 -0.3118
  313MPD2    H3 4712   2.062   1.209  10.582  1.4296 -1.3864  1.2528
  313MPD2     N 4713   2.355   1.317  10.265  0.1073 -1.0971 -0.1954
  313MPD2    H5 4714   2.415   1.388  10.225  1.1131 -1.2835  0.9941
  313MPD2    N1 4715   2.244   1.630  10.623  0.1613 -0.6434 -0.6604
  313MPD2    H7 4716   2.283   1.694  10.555 -0.5391 -2.1184 -2.4793
  314TMC3    C1 4717   2.235   1.808  10.762 -0.5662  0.6635 -0.0474
  314TMC3    C2 4718   2.329   1.853  10.846 -0.1958  0.2614  0.2226
  314TMC3    C3 4719   2.395   1.971  10.811  0.5221  0.1721  0.2334
  314TMC3    C4 4720   2.187   1.882  10.666  0.3434  0.2441  0.1477
  314TMC3    C5 4721   2.251   2.000  10.638 -0.0761 -0.3191  0.3169
  314TMC3    C6 4722   2.353   2.048  10.706 -0.4430 -0.0763 -0.4599
  314TMC3     C 4723   2.217   1.669  10.752 -0.4460  0.5487  0.3337
  314TMC3     O 4724   2.228   1.604  10.859 -0.5740 -0.2312  0.1026
  314TMC3     H 4725   2.380   1.792  10.920 -0.7614 -1.1739 -0.5750
  314TMC3    H1 4726   2.124   1.845  10.586 -0.5529 -1.3875  1.5995
  314TMC3    H2 4727   2.407   2.138  10.678  1.0086 -1.5938 -2.4987
  314TMC3    C7 4728   2.210   2.066  10.516 -0.1159  0.1395  0.0714
  314TMC3    C8 4729   2.512   2.017  10.880 -0.1324 -0.4833  0.5880
  314TMC3    O1 4730   2.101   2.052  10.469  0.3412  0.6175 -0.1336
  314TMC3    O2 4731   2.589   2.081  10.806 -0.1096  0.0270  0.3023
  315MPD2     C 4732   1.975   0.418   0.204  0.1679  0.0430  0.5541
  315MPD2    C1 4733   2.089   0.337   0.192  1.2011  0.7290 -0.3881
  315MPD2    C2 4734   2.150   0.344   0.073 -0.9168  0.2469 -0.0811
  315MPD2    C3 4735   2.121   0.430  17.665  0.7110  0.7132 -0.0630
  315MPD2    C4 4736   2.005   0.501  17.676  0.5939  0.1540  0.1508
  315MPD2    C5 4737   1.932   0.498   0.099 -0.4063  0.2258  0.0955
  315MPD2     H 4738   2.236   0.280   0.058 -2.0946 -0.8884 -2.0732
  315MPD2    H1 4739   1.963   0.557  17.593 -3.3238  0.2870  2.1947
  315MPD2    H2 4740   1.920   0.425   0.298 -1.4760  1.1831 -0.4854
  315MPD2    H3 4741   1.844   0.558   0.119  0.6176  1.1119  2.0044
  315MPD2     N 4742   2.201   0.414  17.554  0.2673  0.2316  0.0656
  315MPD2    H5 4743   2.275   0.345  17.559 -2.0660 -2.4227 -2.1704
  315MPD2    N1 4744   2.131   0.236   0.280  0.2993  0.3210  0.5046
  315MPD2    H7 4745   2.211   0.182   0.247 -0.3327  0.2004 -0.8397
  316TMC3    C1 4746   2.272   0.418  17.334 -0.6287  0.8065 -0.0754
  316TMC3    C2 4747   2.367   0.332  17.373  0.3541 -0.1784 -0.4159
  316TMC3    C3 4748   2.407   0.240  17.285 -0.2696  0.2214 -0.0786
  316TMC3    C4 4749   2.226   0.422  17.206 -0.1222  0.0266  0.2335
  316TMC3    C5 4750   2.286   0.336  17.117  0.4520 -0.0803 -0.3708
  316TMC3    C6 4751   2.366   0.234  17.157  0.5538  0.2495  0.8925
  316TMC3     C 4752   2.180   0.465  17.432 -0.5557 -0.5058 -0.1975
  316TMC3     O 4753   2.095   0.545  17.401  0.3988  0.3234  0.0366
  316TMC3     H 4754   2.426   0.344  17.463  1.4151 -3.3032 -0.6859
  316TMC3    H1 4755   2.131   0.472  17.190 -1.2421 -1.6126  1.8270
  316TMC3    H2 4756   2.420   0.169  17.089 -0.3951  1.6291 -1.1682
  316TMC3    C7 4757   2.252   0.338  16.976  0.4642 -0.1419 -0.1031
  316TMC3    C8 4758   2.538   0.191  17.316 -0.2602 -0.2187  0.1737
  316TMC3    O1 4759   2.313   0.257  16.909  0.0405  0.5685 -0.0106
  316TMC3    O2 4760   2.617   0.212  17.225 -0.0874 -0.6063  0.0220
  317MPD2     C 4761   4.299   3.749  12.015  0.3272  0.9170  0.2142
  317MPD2    C1 4762   4.217   3.661  12.086 -0.3522 -0.7613  0.2637
  317MPD2    C2 4763   4.243   3.630  12.217 -0.0500  0.0075  0.2313
  317MPD2    C3 4764   4.353   3.686  12.280  0.1341  0.8694  0.4457
  317MPD2    C4 4765   4.429   3.783  12.215 -0.1958 -0.4825 -0.2578
  317MPD2    C5 4766   4.401   3.817  12.085 -1.1715 -0.0990 -0.0553
  317MPD2     H 4767   4.183   3.554  12.266  0.4887  0.5928  1.7987
  317MPD2    H1 4768   4.500   3.844  12.269 -0.9990 -0.1290  0.4124
  317MPD2    H2 4769   4.278   3.788  11.916 -0.3201 -1.2547 -0.5029
  317MPD2    H3 4770   4.452   3.899  12.036 -0.3995 -0.4663  0.1493
  317MPD2     N 4771   4.375   3.653  12.409 -0.3750  0.0596 -1.2109
  317MPD2    H5 4772   4.290   3.623  12.455  0.4897 -1.5653 -0.6739
  317MPD2    N1 4773   4.104   3.598  12.026 -0.1076  0.1878  0.6396
  317MPD2    H7 4774   4.048   3.543  12.092 -0.2304  0.1308  0.4871
  318TMC3    C1 4775   4.476   3.654  12.622 -0.8560  1.1346  0.4353
  318TMC3    C2 4776   4.351   3.664  12.678  0.2302 -0.1018 -0.3833
  318TMC3    C3 4777   4.341   3.609  12.803  0.1486  0.2688 -0.2797
  318TMC3    C4 4778   4.587   3.603  12.695  0.2480  0.3980  0.4589
  318TMC3    C5 4779   4.577   3.579  12.829 -0.5613  0.3366 -0.3977
  318TMC3    C6 4780   4.449   3.571  12.879 -0.3683  0.1891 -0.4254
  318TMC3     C 4781   4.490   3.673  12.477 -0.1428 -0.4126  0.3497
  318TMC3     O 4782   4.605   3.684  12.431 -0.1453 -0.2197 -0.1542
  318TMC3     H 4783   4.270   3.724  12.637 -0.5379 -0.2774  0.9048
  318TMC3    H1 4784   4.675   3.588  12.634  1.5459 -0.9714  2.6810
  318TMC3    H2 4785   4.437   3.529  12.978  0.2661  2.4855  0.6069
  318TMC3    C7 4786   4.681   3.521  12.908 -0.2864 -0.5820 -0.1860
  318TMC3    C8 4787   4.208   3.597  12.857 -0.0839 -0.2377 -0.4015
  318TMC3    O1 4788   0.049   3.472  12.840  0.1696 -0.5175  0.6155
  318TMC3    O2 4789   4.117   3.579  12.782  0.7827 -0.6544 -0.6405
  319MPD2     C 4790   0.372   4.687  16.446 -0.0455  0.3839  0.4570
  319MPD2    C1 4791   0.329   4.590  16.532 -0.5172 -0.1874 -0.7159
  319MPD2    C2 4792   0.202   4.540  16.517  0.0145  0.2816  0.6268
  319MPD2    C3 4793   0.129   4.568  16.404  0.4300  0.5552  0.3831
  319MPD2    C4 4794   0.171   4.667  16.323 -0.2972  0.8087  0.1006
  319MPD2    C5 4795   0.298   4.717  16.335  0.4542 -0.4396  0.0141
  319MPD2     H 4796   0.162   4.473  16.593  0.5528  0.6466  1.2298
  319MPD2    H1 4797   0.117   4.718  16.244  0.5394 -0.1355 -1.0857
  319MPD2    H2 4798   0.470   0.008  16.449  1.0011 -1.8268 -0.8917
  319MPD2    H3 4799   0.337   0.068  16.267  1.2955 -0.5464  0.3733
  319MPD2     N 4800   0.005   4.528  16.372 -0.1605 -0.0468 -0.1143
  319MPD2    H5 4801   4.683   4.572  16.292  2.1495  1.5871 -0.5338
  319MPD2    N1 4802   0.397   4.553  16.648  0.3946  0.4269  0.0917
  319MPD2    H7 4803   0.372   4.466  16.694  2.4060 -0.2563 -0.1179
  320TMC3    C1 4804   4.553   4.386  16.349  0.1718  0.5153  0.5263
  320TMC3    C2 4805   4.485   4.490  16.294  0.0110 -0.7371  0.3372
  320TMC3    C3 4806   4.381   4.477  16.202  0.0642 -1.2171  0.0776
  320TMC3    C4 4807   4.515   4.262  16.309 -0.3587  0.0954 -0.0407
  320TMC3    C5 4808   4.425   4.248  16.204  0.4250  0.7292  0.1220
  320TMC3    C6 4809   4.351   4.353  16.154  0.3356  0.5266 -0.4184
  320TMC3     C 4810   4.674   4.413  16.421 -0.2459  0.1402  0.6767
  320TMC3     O 4811   4.722   4.321  16.486 -0.3917 -0.0707  0.1790
  320TMC3     H 4812   4.513   4.590  16.323  0.0582 -0.4412 -0.7155
  320TMC3    H1 4813   4.576   4.177  16.336 -0.0926  0.6611  1.1501
  320TMC3    H2 4814   4.280   4.334  16.074  1.8946 -4.8463 -0.4693
  320TMC3    C7 4815   4.381   4.116  16.162 -0.5563  0.3281  0.4058
  320TMC3    C8 4816   4.343   4.594  16.128  0.5379 -0.1823  0.4661
  320TMC3    O1 4817   4.365   4.099  16.041 -0.3357 -0.5666 -0.1281
  320TMC3    O2 4818   4.382   4.703  16.172 -0.1892 -0.4349 -0.0498
  321TMC3    C1 4819   0.569   4.568  16.823  0.5403  0.6835  0.5301
  321TMC3    C2 4820   0.504   4.516  16.928 -0.3526  0.1102 -0.2617
  321TMC3    C3 4821   0.551   4.534  17.057  0.2501  0.3886  0.2351
  321TMC3    C4 4822   0.694   4.617  16.836 -0.0271  0.2337 -0.2371
  321TMC3    C5 4823   0.739   4.635  16.962  0.0246 -0.7188  0.4090
  321TMC3    C6 4824   0.665   4.604  17.078 -0.8179 -0.0623 -0.9590
  321TMC3     C 4825   0.499   4.627  16.703  0.0797  0.5521  0.1309
  321TMC3     O 4826   0.548   0.014  16.671 -0.0848 -0.0705  0.2396
  321TMC3     H 4827   0.407   4.470  16.913 -1.0049  1.7197 -0.9546
  321TMC3    H1 4828   0.755   4.660  16.757 -0.6668 -0.4920 -1.1114
  321TMC3    H2 4829   0.690   4.642  17.176 -0.1544 -2.4178 -0.2175
  321TMC3    C7 4830   0.884   4.615  16.994  0.6156  0.3408  0.3954
  321TMC3    C8 4831   0.564   4.399  17.121  0.0877 -0.2104  0.5753
  321TMC3    O1 4832   0.907   4.608  17.115  0.3111  0.4607 -0.1676
  321TMC3    O2 4833   0.466   4.322  17.095 -0.4122 -0.3024 -1.4481
  322MPD2     C 4834   4.446   1.443  13.478  0.3872 -0.2471 -0.2041
  322MPD2    C1 4835   4.343   1.408  13.569  1.0772  0.1777  0.2903
  322MPD2    C2 4836   4.275   1.290  13.546  0.0652 -0.5647 -0.3353
  322MPD2    C3 4837   4.286   1.218  13.429 -0.5276 -0.2207 -0.0328
  322MPD2    C4 4838   4.385   1.263  13.334 -0.2151  0.0327 -0.7281
  322MPD2    C5 4839   4.460   1.370  13.363 -0.0661  0.1579 -0.3442
  322MPD2     H 4840   4.209   1.266  13.629 -0.5768 -3.8550 -1.7823
  322MPD2    H1 4841   4.396   1.222  13.234 -0.4944 -0.0356 -0.7306
  322MPD2    H2 4842   4.511   1.525  13.504  0.9836 -1.2425  1.4181
  322MPD2    H3 4843   4.527   1.407  13.286  1.7283  2.2714  2.2616
  322MPD2     N 4844   4.205   1.102  13.406 -0.2388  0.4379  0.2917
  322MPD2    H5 4845   4.123   1.091  13.464  0.0662 -0.1566  0.6093
  322MPD2    N1 4846   4.328   1.491  13.688 -0.2200 -0.1684 -0.0030
  322MPD2    H7 4847   4.396   1.566  13.691 -0.0011 -0.4587  2.0934
  323TMC3    C1 4848   4.248   1.593  13.879  0.5995  0.2142 -0.4337
  323TMC3    C2 4849   4.337   1.691  13.853 -0.1481 -0.3477  0.3457
  323TMC3    C3 4850   4.368   1.772  13.957  0.3622 -0.2568 -0.0692
  323TMC3    C4 4851   4.198   1.559  14.000 -0.3876 -0.4119  0.2089
  323TMC3    C5 4852   4.251   1.634  14.102  0.2171 -0.1402  0.6771
  323TMC3    C6 4853   4.330   1.745  14.082 -0.1380 -0.5406  0.1640
  323TMC3     C 4854   4.219   1.491  13.776  0.2368  0.2961  0.3335
  323TMC3     O 4855   4.118   1.426  13.786  0.3422  0.1254 -0.0442
  323TMC3     H 4856   4.359   1.725  13.753  2.6459 -1.3340  0.6253
  323TMC3    H1 4857   4.141   1.468  14.011 -0.8450 -0.1423  0.0578
  323TMC3    H2 4858   4.364   1.807  14.164  0.4227 -0.9568  0.2472
  323TMC3    C7 4859   4.292   1.551  14.209 -0.3312  0.3468  0.1385
  323TMC3    C8 4860   4.436   1.900  13.933 -0.3133  0.1093  0.9365
  323TMC3    O1 4861   4.333   1.442  14.177 -0.1996  0.6280 -0.3291
  323TMC3    O2 4862   4.515   1.940  14.015  0.2125 -0.2767  0.1526
  324MPD2     C 4863   1.214   2.487  14.202  0.3658 -0.2810 -0.2483
  324MPD2    C1 4864   1.245   2.603  14.132  0.2358  0.1062 -0.0860
  324MPD2    C2 4865   1.144   2.676  14.083  0.1572 -0.4368  0.8145
  324MPD2    C3 4866   1.012   2.640  14.094  0.4479  0.7579  0.4533
  324MPD2    C4 4867   0.987   2.519  14.156 -0.0165 -0.0566 -0.3070
  324MPD2    C5 4868   1.087   2.444  14.211  0.4345  0.3020  0.0428
  324MPD2     H 4869   1.172   2.770  14.038 -0.7157  0.2147  1.6450
  324MPD2    H1 4870   0.888   2.481  14.175  1.1823 -2.7329  0.6122
  324MPD2    H2 4871   1.284   2.444  14.274  1.4159  3.4689  0.9512
  324MPD2    H3 4872   1.065   2.355  14.268 -0.4095 -0.4324 -1.4400
  324MPD2     N 4873   0.897   2.707  14.044  0.0170 -0.3867  0.1969
  324MPD2    H5 4874   0.810   2.656  14.042  0.6448 -1.5019  1.5738
  324MPD2    N1 4875   1.372   2.655  14.142 -0.0320  0.2124  0.2927
  324MPD2    H7 4876   1.436   2.617  14.210  1.0552  0.6468 -0.4842
  325TMC3    C1 4877   0.770   2.891  13.970  0.2075  0.3348  0.5532
  325TMC3    C2 4878   0.675   2.803  13.926 -0.2122 -0.2694 -0.2874
  325TMC3    C3 4879   0.543   2.830  13.935  0.0780  0.1009  0.4846
  325TMC3    C4 4880   0.734   2.998  14.046 -0.0436  0.6963 -0.1301
  325TMC3    C5 4881   0.603   3.011  14.064  0.4549  0.0708  0.0635
  325TMC3    C6 4882   0.500   2.942  13.998 -0.6893 -0.2518 -0.3121
  325TMC3     C 4883   0.903   2.836  14.004 -0.3211 -0.3921  0.1224
  325TMC3     O 4884   0.994   2.915  14.023 -0.1031 -0.5347 -0.5520
  325TMC3     H 4885   0.702   2.711  13.876 -0.9969 -1.2049  1.0255
  325TMC3    H1 4886   0.816   3.056  14.087  1.4694 -1.3176 -0.2957
  325TMC3    H2 4887   0.397   2.950  14.030 -0.0355  0.4435  1.5984
  325TMC3    C7 4888   0.579   3.105  14.166  0.0523 -0.4471  0.0185
  325TMC3    C8 4889   0.460   2.741  13.858  0.1027 -0.2438  0.3760
  325TMC3    O1 4890   0.676   3.147  14.223  0.1823  0.0781  0.0614
  325TMC3    O2 4891   0.519   2.675  13.770 -0.6580  0.4486  0.7260
  326MPD2     C 4892   2.059   3.957  11.185 -0.0675  0.0416  0.6214
  326MPD2    C1 4893   2.076   3.932  11.051 -0.2812  0.8039 -1.2164
  326MPD2    C2 4894   2.175   4.000  10.976 -0.3654  0.0791  0.2330
  326MPD2    C3 4895   2.243   4.108  11.039 -1.2905 -0.5540 -1.4092
  326MPD2    C4 4896   2.213   4.137  11.170 -0.0540 -0.1509 -0.3393
  326MPD2    C5 4897   2.128   4.059  11.238  0.3043  0.5753  0.7074
  326MPD2     H 4898   2.196   3.960  10.878  0.6598 -0.7119  0.7821
  326MPD2    H1 4899   2.247   4.230  11.214 -1.2896  0.0824  0.1398
  326MPD2    H2 4900   1.990   3.904  11.251  0.3149 -1.2396 -0.0048
  326MPD2    H3 4901   2.111   4.098  11.338 -1.8072 -0.1224  0.6121
  326MPD2     N 4902   2.314   4.202  10.961 -0.5033 -0.6872 -0.4998
  326MPD2    H5 4903   2.327   4.294  11.002 -0.4679  0.4525 -3.0478
  326MPD2    N1 4904   2.006   3.830  10.978 -0.0893  0.0752  0.2415
  326MPD2    H7 4905   2.027   3.818  10.879 -0.7676  1.1110 -0.0267
  327TMC3    C1 4906   1.881   3.636  10.959 -0.4051 -0.5270  0.1244
  327TMC3    C2 4907   1.880   3.666  10.827 -0.0723  0.4621 -0.7528
  327TMC3    C3 4908   1.895   3.556  10.738 -0.2945  0.0345 -0.5654
  327TMC3    C4 4909   1.917   3.514  11.005  0.2269 -0.2986  0.3900
  327TMC3    C5 4910   1.952   3.417  10.920  0.5377 -0.5096 -0.2215
  327TMC3    C6 4911   1.938   3.430  10.786 -0.0352  0.2726  0.6664
  327TMC3     C 4912   1.914   3.741  11.042 -0.3626 -0.1552  0.5683
  327TMC3     O 4913   1.893   3.720  11.160 -0.2805  0.1107  0.1275
  327TMC3     H 4914   1.861   3.766  10.791 -2.4713 -0.0121 -0.8257
  327TMC3    H1 4915   1.922   3.500  11.112  2.4053 -0.9201  0.2103
  327TMC3    H2 4916   1.961   3.355  10.711 -0.8841 -0.7056  1.3832
  327TMC3    C7 4917   2.029   3.307  10.968  0.2592  0.2020 -0.4606
  327TMC3    C8 4918   1.906   3.597  10.605  0.5675 -0.2265 -0.5089
  327TMC3    O1 4919   1.978   3.203  11.006 -0.3139 -0.7847  0.3221
  327TMC3    O2 4920   1.826   3.674  10.560  0.6826 -0.1643 -0.2852
  328MPD2     C 4921   4.350   3.312  17.237 -0.4686  0.0097  1.0909
  328MPD2    C1 4922   4.247   3.230  17.207  0.0586 -0.0221 -0.2965
  328MPD2    C2 4923   4.157   3.270  17.113 -1.5509 -0.0984  0.2655
  328MPD2    C3 4924   4.159   3.399  17.053 -0.3475  0.5187 -0.1985
  328MPD2    C4 4925   4.273   3.481  17.080  0.4439  0.2607  0.1901
  328MPD2    C5 4926   4.356   3.438  17.179  0.1806  0.6698 -0.0674
  328MPD2     H 4927   4.085   3.195  17.084 -3.0797  1.2702  0.5395
  328MPD2    H1 4928   4.283   3.583  17.045 -0.2337  0.8751  1.7464
  328MPD2    H2 4929   4.427   3.289  17.311 -1.6706 -1.1858  1.9555
  328MPD2    H3 4930   4.443   3.495  17.208 -0.3187  1.6400 -0.4801
  328MPD2     N 4931   4.058   3.446  16.973  0.4397  0.5206 -0.9098
  328MPD2    H5 4932   4.058   3.536  16.926 -2.6743  1.4656  0.8739
  328MPD2    N1 4933   4.226   3.105  17.262  0.3857  0.0108  0.0693
  328MPD2    H7 4934   4.142   3.053  17.236  0.0034 -0.3052  1.9255
  329TMC3    C1 4935   4.270   2.900  17.377 -0.8795 -0.3284  0.2703
  329TMC3    C2 4936   4.256   2.855  17.508 -0.1735  0.1017 -0.2105
  329TMC3    C3 4937   4.186   2.740  17.535  0.0219  0.0355  0.0013
  329TMC3    C4 4938   4.236   2.816  17.273 -0.1983  0.3935 -0.4813
  329TMC3    C5 4939   4.180   2.694  17.302 -0.0761 -0.7024 -0.3820
  329TMC3    C6 4940   4.152   2.659  17.429 -0.3528  0.2375  1.0242
  329TMC3     C 4941   4.308   3.046  17.349 -0.1201 -0.2980 -0.1729
  329TMC3     O 4942   4.408   3.086  17.411 -0.5708  0.1414  0.1577
  329TMC3     H 4943   4.282   2.922  17.590  0.3699 -1.8441  1.2110
  329TMC3    H1 4944   4.243   2.845  17.169 -0.2763 -0.7302 -0.7987
  329TMC3    H2 4945   4.122   2.557  17.453 -0.1572 -0.2322 -0.7109
  329TMC3    C7 4946   4.151   2.597  17.197 -0.6981 -0.3460 -0.8020
  329TMC3    C8 4947   4.125   2.735  17.669 -0.2024  0.0422  0.7261
  329TMC3    O1 4948   4.200   2.617  17.088 -0.1031 -0.1102  0.1370
  329TMC3    O2 4949   4.164   2.820   0.056 -0.2651 -0.0580  0.0390
  330TMC3    C1 4950   2.432   3.348   8.891  0.1339 -0.0358 -0.0974
  330TMC3    C2 4951   2.427   3.254   8.792 -0.5860 -0.1670 -0.4270
  330TMC3    C3 4952   2.490   3.136   8.814 -0.3486  0.0702  0.5203
  330TMC3    C4 4953   2.492   3.328   9.012 -0.1754 -0.4747  0.0516
  330TMC3    C5 4954   2.564   3.209   9.026  0.0697 -0.1533 -0.1582
  330TMC3    C6 4955   2.559   3.110   8.931 -0.3107  0.1171 -0.1617
  330TMC3     C 4956   2.336   3.461   8.877 -0.3022  0.3141  0.3675
  330TMC3     O 4957   2.343   3.516   8.767  0.4813 -0.2616 -0.0714
  330TMC3     H 4958   2.372   3.267   8.700 -1.1486 -1.9868 -0.3461
  330TMC3    H1 4959   2.498   3.405   9.087 -0.8613  1.6506 -2.0930
  330TMC3    H2 4960   2.618   3.020   8.947 -0.7158 -0.0177  0.5811
  330TMC3    C7 4961   2.705   3.211   9.081  0.8684 -0.1175  0.5073
  330TMC3    C8 4962   2.488   3.031   8.708 -0.7732 -0.2601 -0.3357
  330TMC3    O1 4963   2.777   3.125   9.039  0.2078  0.1068  0.0521
  330TMC3    O2 4964   2.441   3.061   8.598  0.2781  0.1807  0.5007
  331MPD2     C 4965   4.576   2.106  12.531 -0.3674  0.2170 -0.2188
  331MPD2    C1 4966   4.696   2.155  12.505  0.0351 -0.2739  0.4397
  331MPD2    C2 4967   0.080   2.066  12.522 -0.0329  0.7627 -0.0834
  331MPD2    C3 4968   0.077   1.927  12.540 -0.3635 -0.0206 -0.4512
  331MPD2    C4 4969   4.667   1.884  12.563 -0.1595  0.1041  0.5588
  331MPD2    C5 4970   4.559   1.970  12.561  0.0084 -0.2991 -0.3456
  331MPD2     H 4971   0.179   2.109  12.511 -0.5314  2.2712  1.3227
  331MPD2    H1 4972   4.662   1.780  12.593 -1.8329 -0.2311 -0.9220
  331MPD2    H2 4973   4.493   2.176  12.533 -1.6542 -1.2781 -0.7286
  331MPD2    H3 4974   4.465   1.932  12.598  0.7763 -2.7307 -0.8768
  331MPD2     N 4975   0.192   1.855  12.534 -0.5696  0.3628  0.0062
  331MPD2    H5 4976   0.268   1.922  12.544  2.3874 -2.7466 -1.4344
  331MPD2    N1 4977   4.720   2.289  12.460  0.2444 -0.3603  0.3247
  331MPD2    H7 4978   4.640   2.339  12.423  0.2180  0.4499  1.4605
  332TMC3    C1 4979   0.344   1.689  12.542 -0.5407 -0.1745 -0.3514
  332TMC3    C2 4980   0.402   1.633  12.427 -0.7050  0.5258  0.1257
  332TMC3    C3 4981   0.536   1.647  12.408 -0.1690  0.2271 -0.3570
  332TMC3    C4 4982   0.419   1.728  12.645  0.5484  0.5683 -1.3366
  332TMC3    C5 4983   0.550   1.733  12.621 -0.8496  0.6476  0.0421
  332TMC3    C6 4984   0.610   1.692  12.507 -0.2944  0.1630  0.0520
  332TMC3     C 4985   0.206   1.720  12.530 -0.1468  0.2669 -0.0121
  332TMC3     O 4986   0.128   1.632  12.496 -0.2245  0.1426 -0.4953
  332TMC3     H 4987   0.340   1.595  12.347 -0.8484  1.4042 -0.1866
  332TMC3    H1 4988   0.381   1.780  12.731  0.6471 -0.9835 -0.3523
  332TMC3    H2 4989   0.713   1.718  12.486 -0.9091  2.4464 -0.2304
  332TMC3    C7 4990   0.629   1.834  12.693  0.1750 -0.4348  0.7393
  332TMC3    C8 4991   0.586   1.684  12.276  0.7911  0.4105 -0.0341
  332TMC3    O1 4992   0.563   1.917  12.758 -0.2121 -0.2076  0.3434
  332TMC3    O2 4993   0.704   1.726  12.267  0.5657 -0.3057 -0.1653
  333MPD2     C 4994   0.817   2.234  11.172 -0.1175  0.3179 -0.1971
  333MPD2    C1 4995   0.932   2.160  11.179 -0.4078  0.4283  0.5310
  333MPD2    C2 4996   0.921   2.029  11.227  0.4255 -0.0629  0.4317
  333MPD2    C3 4997   0.799   1.975  11.266 -0.5073 -0.4124 -0.5386
  333MPD2    C4 4998   0.686   2.057  11.259  0.5411 -0.6005  0.3843
  333MPD2    C5 4999   0.690   2.182  11.216  0.8360 -0.0739  0.3528
  333MPD2     H 5000   1.006   1.963  11.240 -0.4877 -1.2784  0.2389
  333MPD2    H1 5001   0.586   2.019  11.276 -0.4488  1.9441  0.2350
  333MPD2    H2 5002   0.819   2.340  11.151  0.4759  0.2197 -0.6385
  333MPD2    H3 5003   0.601   2.243  11.220  0.1235 -1.1968  1.8550
  333MPD2     N 5004   0.789   1.838  11.300 -0.0774 -0.2207  0.4705
  333MPD2    H5 5005   0.871   1.778  11.293  0.7555  1.1881 -1.8837
  333MPD2    N1 5006   1.049   2.213  11.122  0.5747 -0.1187  0.5979
  333MPD2    H7 5007   1.038   2.294  11.061  0.3078 -1.3546 -1.0047
  334TMC3    C1 5008   1.283   2.232  11.059  0.4234  0.0742 -0.0675
  334TMC3    C2 5009   1.410   2.191  11.097 -0.3938 -0.7769 -0.1260
  334TMC3    C3 5010   1.511   2.253  11.031  0.3191 -0.0461 -0.0976
  334TMC3    C4 5011   1.255   2.323  10.965  1.1461  0.3258  0.7339
  334TMC3    C5 5012   1.364   2.387  10.910  0.2408 -0.5021 -0.0877
  334TMC3    C6 5013   1.489   2.361  10.946 -0.0686  0.2235 -0.3161
  334TMC3     C 5014   1.167   2.150  11.117 -0.3372 -0.3488 -0.0677
  334TMC3     O 5015   1.209   2.046  11.172 -0.2960 -0.0916  0.1769
  334TMC3     H 5016   1.434   2.116  11.172  1.3276 -0.7618 -0.6549
  334TMC3    H1 5017   1.154   2.354  10.940  0.6355 -1.0200  1.1265
  334TMC3    H2 5018   1.568   2.430  10.917  0.9378 -0.9524 -0.3596
  334TMC3    C7 5019   1.344   2.508  10.825  0.2133  0.3566  0.5349
  334TMC3    C8 5020   1.644   2.196  11.045 -0.6375 -0.2908  0.3117
  334TMC3    O1 5021   1.425   2.600  10.844  0.1653 -0.2772  0.1426
  334TMC3    O2 5022   1.664   2.111  11.132  0.2646 -0.2782  0.1639
  335TMC3    C1 5023   0.556   2.961  17.242  0.3813  0.0947  0.0583
  335TMC3    C2 5024   0.456   2.986  17.154 -0.4913 -0.0089 -0.0730
  335TMC3    C3 5025   0.476   3.080  17.057 -0.2115 -0.0907 -0.4098
  335TMC3    C4 5026   0.673   3.042  17.244 -0.2999 -0.4280 -0.3393
  335TMC3    C5 5027   0.684   3.142  17.154  0.1833  0.1159  0.6720
  335TMC3    C6 5028   0.582   3.167  17.060  0.2239 -0.3586  0.1327
  335TMC3     C 5029   0.539   2.848  17.336  0.2878 -0.2985 -0.6324
  335TMC3     O 5030   0.437   2.830  17.400  0.3616  0.0674  0.2165
  335TMC3     H 5031   0.366   2.926  17.164 -0.5757  0.2762  0.8185
  335TMC3    H1 5032   0.750   3.041  17.320 -0.2167 -1.1133 -0.4321
  335TMC3    H2 5033   0.581   3.246  16.985  2.0261  1.2532  1.8150
  335TMC3    C7 5034   0.801   3.232  17.145  0.1621  0.6952  0.7811
  335TMC3    C8 5035   0.376   3.108  16.955 -0.6211  0.5193  0.0042
  335TMC3    O1 5036   0.839   3.266  17.034  0.0421 -0.0035  0.5323
  335TMC3    O2 5037   0.414   3.158  16.851  0.3982  0.2007 -0.3488
  336MPD2     C 5038   0.088   1.367  16.214  0.1707 -0.2389 -0.7656
  336MPD2    C1 5039   0.104   1.323  16.087  0.7087  0.8088  0.4194
  336MPD2    C2 5040   0.117   1.189  16.060 -0.9397 -0.2972  1.3499
  336MPD2    C3 5041   0.109   1.092  16.158 -0.6074  0.2347 -0.2074
  336MPD2    C4 5042   0.087   1.138  16.282 -0.0029  0.5032 -0.5268
  336MPD2    C5 5043   0.069   1.273  16.309 -0.7134  0.3830 -0.1056
  336MPD2     H 5044   0.128   1.162  15.955  0.2944 -1.9478  1.9122
  336MPD2    H1 5045   0.085   1.071  16.367 -0.5577  0.3391 -0.6667
  336MPD2    H2 5046   0.073   1.473  16.233  0.2303 -0.3534 -0.0849
  336MPD2    H3 5047   0.046   1.293  16.413  1.1903 -2.0250  0.7767
  336MPD2     N 5048   0.143   0.959  16.140  0.3074 -0.4957  0.2230
  336MPD2    H5 5049   0.152   0.899  16.221 -1.8757  0.8355  1.4611
  336MPD2    N1 5050   0.111   1.413  15.978 -0.4035 -0.3625  0.8571
  336MPD2    H7 5051   0.126   1.372  15.886 -0.8998  1.8199 -0.1947
  337TMC3    C1 5052   0.125   1.603  15.849  0.6529 -0.4328  0.1872
  337TMC3    C2 5053   0.007   1.568  15.782  0.6225  0.5066 -0.5586
  337TMC3    C3 5054   4.679   1.652  15.687 -0.3293 -0.1220  0.0849
  337TMC3    C4 5055   0.184   1.724  15.822 -0.0562  0.4191  0.0327
  337TMC3    C5 5056   0.128   1.808  15.729  0.1129 -0.5306 -0.6574
  337TMC3    C6 5057   0.015   1.772  15.657  0.2678  0.0506  0.4209
  337TMC3     C 5058   0.135   1.547  15.984  0.1450 -0.0111 -0.1176
  337TMC3     O 5059   0.171   1.623  16.073  0.0354  0.0446 -0.4005
  337TMC3     H 5060   4.666   1.490  15.822 -0.7066  2.0136  0.2317
  337TMC3    H1 5061   0.282   1.752  15.860  0.0795 -1.5084  1.1060
  337TMC3    H2 5062   4.682   1.845  15.601  0.2562 -1.2467 -1.2686
  337TMC3    C7 5063   0.192   1.935  15.699 -0.0059  0.8022  0.4943
  337TMC3    C8 5064   4.540   1.650  15.678  0.4328 -0.2127  0.7302
  337TMC3    O1 5065   0.217   1.961  15.584  0.7819 -0.1553  0.0488
  337TMC3    O2 5066   4.491   1.637  15.791  0.1620 -0.2271  1.1517
  338MPD2     C 5067   0.188   0.298   0.697 -0.5544 -0.2954  0.0370
  338MPD2    C1 5068   0.128   0.381   0.601 -0.4070  0.9227  0.0461
  338MPD2    C2 5069   0.064   0.496   0.639 -0.5380  0.0462 -0.0727
  338MPD2    C3 5070   0.049   0.535   0.768  0.3111 -0.3697 -0.6835
  338MPD2    C4 5071   0.107   0.451   0.857 -0.2231 -0.0704 -0.4509
  338MPD2    C5 5072   0.171   0.332   0.832 -0.1479 -0.2023 -0.5568
  338MPD2     H 5073   0.025   0.568   0.568 -1.0140  1.2703  1.4416
  338MPD2    H1 5074   0.121   0.482   0.960 -4.0549 -1.9588  0.5994
  338MPD2    H2 5075   0.244   0.208   0.678  2.3128  1.2016  1.2845
  338MPD2    H3 5076   0.214   0.280   0.917  0.3886 -0.2504 -0.8650
  338MPD2     N 5077   4.715   0.664   0.798  0.3383 -0.5846 -0.3290
  338MPD2    H5 5078   4.695   0.710   0.710  1.3817  0.2061 -0.1517
  338MPD2    N1 5079   0.133   0.354   0.465  0.1033 -0.6413 -0.9869
  338MPD2    H7 5080   0.088   0.419   0.401 -0.8764  0.7415  1.1232
  339TMC3    C1 5081   4.637   0.838   0.944 -0.4291  0.1317  0.5483
  339TMC3    C2 5082   4.571   0.859   1.052  0.1479  0.2678  0.6497
  339TMC3    C3 5083   4.492   0.969   1.060  0.8265 -0.3715 -1.1363
  339TMC3    C4 5084   4.633   0.920   0.833  0.6792  0.7066 -0.0812
  339TMC3    C5 5085   4.543   1.029   0.836 -0.5443 -0.4671 -0.2075
  339TMC3    C6 5086   4.484   1.051   0.953 -0.0814 -0.0219  0.8803
  339TMC3     C 5087   4.707   0.714   0.927  0.0458 -0.0802  0.4883
  339TMC3     O 5088   0.011   0.675   1.040  0.0315 -0.1655 -0.1578
  339TMC3     H 5089   4.579   0.782   1.129  0.3199  0.9309  1.2906
  339TMC3    H1 5090   4.707   0.915   0.754  0.8717  2.6047 -0.0260
  339TMC3    H2 5091   4.425   1.142   0.956 -1.2717 -0.7898  0.9288
  339TMC3    C7 5092   4.590   1.156   0.781 -0.3741 -0.6795 -0.4438
  339TMC3    C8 5093   4.426   1.015   1.176 -0.4350  0.1824  0.6863
  339TMC3    O1 5094   4.516   1.225   0.713 -0.3840  0.0179 -0.9218
  339TMC3    O2 5095   4.386   1.127   1.169  0.2345 -0.0827 -0.2736
  340MPD2     C 5096   1.056   2.995   9.949 -0.1557 -0.0908 -0.1312
  340MPD2    C1 5097   1.081   3.132   9.932 -1.0479  0.1810  0.2582
  340MPD2    C2 5098   1.181   3.193  10.001 -0.0096 -0.1816  0.5737
  340MPD2    C3 5099   1.258   3.112  10.092  0.0519  0.5375 -0.1149
  340MPD2    C4 5100   1.223   2.979  10.112  0.3973 -0.1090 -0.1150
  340MPD2    C5 5101   1.117   2.923  10.044  0.0564 -0.9690  0.2994
  340MPD2     H 5102   1.223   3.289   9.974  4.2392 -2.9000 -2.5922
  340MPD2    H1 5103   1.293   2.922  10.172 -2.2151 -2.0317  1.1163
  340MPD2    H2 5104   0.993   2.935   9.885 -0.5498  2.1283 -1.8245
  340MPD2    H3 5105   1.086   2.819  10.044  1.6935 -1.4552  0.4069
  340MPD2     N 5106   1.380   3.149  10.158 -0.6346 -0.4315 -0.6831
  340MPD2    H5 5107   1.445   3.079  10.190  1.1586  1.9811  0.9574
  340MPD2    N1 5108   1.019   3.199   9.823  0.0013  0.3348 -0.3028
  340MPD2    H7 5109   0.942   3.146   9.781 -0.5023  1.1099 -0.3575
  341TMC3    C1 5110   1.019   3.340   9.628  0.3066 -0.7697 -0.0728
  341TMC3    C2 5111   0.918   3.256   9.582  0.3791 -0.0106 -0.0682
  341TMC3    C3 5112   0.916   3.241   9.444  0.5091  0.4136  0.5898
  341TMC3    C4 5113   1.102   3.416   9.548 -0.2039  0.2117 -0.1862
  341TMC3    C5 5114   1.091   3.400   9.408  0.8096  0.2515  0.3786
  341TMC3    C6 5115   1.000   3.312   9.357 -0.0474 -0.2943 -0.4628
  341TMC3     C 5116   1.073   3.310   9.760  0.1607 -0.3431 -0.6068
  341TMC3     O 5117   1.166   3.387   9.780  0.0873  0.7827  0.3776
  341TMC3     H 5118   0.853   3.205   9.653 -1.5460  2.4941 -0.0151
  341TMC3    H1 5119   1.182   3.480   9.583  0.1287 -0.2751 -0.0655
  341TMC3    H2 5120   0.988   3.310   9.249 -2.3822  1.6680 -0.2313
  341TMC3    C7 5121   1.168   3.481   9.318 -0.0264  1.1415 -0.2082
  341TMC3    C8 5122   0.809   3.161   9.398  0.2095 -0.0177  0.2219
  341TMC3    O1 5123   1.178   3.439   9.202  0.3936 -0.1853 -0.5497
  341TMC3    O2 5124   0.742   3.110   9.485  0.8017  0.2603  0.4840
  342MPD2     C 5125   2.476   0.899  16.613 -0.6516  0.2733  0.0633
  342MPD2    C1 5126   2.608   0.926  16.637 -0.1990 -0.3184 -0.4687
  342MPD2    C2 5127   2.652   1.042  16.700 -0.1836 -0.6846  0.1140
  342MPD2    C3 5128   2.550   1.124  16.751  0.4698 -0.3159 -0.0555
  342MPD2    C4 5129   2.417   1.106  16.709  0.8884 -0.1225  0.9852
  342MPD2    C5 5130   2.378   0.985  16.654  0.1702 -0.3028  1.0395
  342MPD2     H 5131   2.756   1.048  16.730  0.0296 -2.7227 -0.2150
  342MPD2    H1 5132   2.347   1.185  16.732 -1.5465 -1.8581 -0.3588
  342MPD2    H2 5133   2.438   0.801  16.584 -0.1202  0.1168 -0.0947
  342MPD2    H3 5134   2.273   0.970  16.631  0.4781 -0.7093 -0.1206
  342MPD2     N 5135   2.567   1.244  16.821  0.2468  0.7322  0.0471
  342MPD2    H5 5136   2.484   1.296  16.848 -1.8803 -3.2252  1.0206
  342MPD2    N1 5137   2.713   0.836  16.612 -0.0457 -0.0304 -0.6130
  342MPD2    H7 5138   2.808   0.856  16.643 -0.4058  0.2067  0.3475
  343TMC3    C1 5139   2.817   0.617  16.573  0.1116 -0.0272  0.3557
  343TMC3    C2 5140   2.939   0.681  16.553 -0.1461  0.4331  0.6212
  343TMC3    C3 5141   3.044   0.592  16.580  0.4243  0.0180 -0.1748
  343TMC3    C4 5142   2.796   0.485  16.617 -0.3836 -0.0395  0.3983
  343TMC3    C5 5143   2.910   0.407  16.640 -0.1014  1.2171 -0.8594
  343TMC3    C6 5144   3.033   0.457  16.616 -0.2644 -0.1463  0.5353
  343TMC3     C 5145   2.697   0.704  16.565  0.4524  0.2655  0.0799
  343TMC3     O 5146   2.592   0.648  16.527 -0.4595  0.1334 -0.1195
  343TMC3     H 5147   2.966   0.783  16.529  1.6236 -0.1849 -0.0457
  343TMC3    H1 5148   2.693   0.456  16.634 -0.4614  1.9806  3.5406
  343TMC3    H2 5149   3.124   0.404  16.642 -0.1606 -0.6697 -0.9256
  343TMC3    C7 5150   2.884   0.290  16.724  0.0819 -0.1834  0.6050
  343TMC3    C8 5151   3.162   0.664  16.612  0.4431 -0.6558 -0.0307
  343TMC3    O1 5152   2.767   0.261  16.746 -0.1863 -0.3838 -0.0249
  343TMC3    O2 5153   3.149   0.777  16.657  0.0166  0.1514  0.2630
  344MPD2     C 5154   4.697   1.344  10.475 -0.3145  0.4140 -0.1343
  344MPD2    C1 5155   4.608   1.345  10.377  0.2571  0.5439 -0.4915
  344MPD2    C2 5156   4.630   1.418  10.265  0.5074 -0.0006  0.3949
  344MPD2    C3 5157   0.029   1.480  10.248 -0.0398 -0.2107 -0.0486
  344MPD2    C4 5158   0.126   1.466  10.349  0.2197 -0.3694  0.0829
  344MPD2    C5 5159   0.085   1.403  10.462  0.1459 -0.0230  0.2855
  344MPD2     H 5160   4.559   1.415  10.182  1.8069 -0.1219 -0.7106
  344MPD2    H1 5161   0.216   1.526  10.347 -0.0208 -0.0206 -0.1390
  344MPD2    H2 5162   4.684   1.288  10.566 -0.6795  1.2834  0.3531
  344MPD2    H3 5163   0.144   1.396  10.553  0.0771  0.8947  0.3965
  344MPD2     N 5164   0.066   1.558  10.132  0.1544 -0.1555  0.2607
  344MPD2    H5 5165   0.155   1.607  10.137 -1.2578  2.3976  0.3950
  344MPD2    N1 5166   4.490   1.268  10.386 -0.4891  0.5647  0.6594
  344MPD2    H7 5167   4.436   1.275  10.300  2.2158 -1.6020 -1.2450
  345TMC3    C1 5168   0.057   1.687   9.941  0.0831  0.9970  0.7579
  345TMC3    C2 5169   0.196   1.705   9.938  0.3614  0.1494  0.1764
  345TMC3    C3 5170   0.239   1.812   9.870 -0.0382 -0.4435  0.1676
  345TMC3    C4 5171   4.699   1.759   9.862 -0.6983 -0.3855 -0.8358
  345TMC3    C5 5172   0.025   1.856   9.782 -0.2155 -0.7911  0.0847
  345TMC3    C6 5173   0.157   1.885   9.787  0.6823 -0.1931  0.5442
  345TMC3     C 5174   4.709   1.588  10.026  0.1668 -0.8453 -1.0671
  345TMC3     O 5175   4.599   1.550   9.992 -0.3795 -0.7007  0.5449
  345TMC3     H 5176   0.266   1.659  10.008  1.5608  0.6398 -0.6893
  345TMC3    H1 5177   4.594   1.732   9.859 -0.5351 -1.0388 -0.5668
  345TMC3    H2 5178   0.194   1.961   9.719 -1.8307  0.4824 -0.0815
  345TMC3    C7 5179   4.664   1.966   9.740 -0.2221  0.2271  0.0678
  345TMC3    C8 5180   0.329   1.902   9.942  0.8920  0.3980  0.1213
  345TMC3    O1 5181   4.703   2.081   9.737  0.0172  0.2606 -0.5827
  345TMC3    O2 5182   0.319   2.023   9.914  0.3208  0.0638 -0.2273
  346MPD2     C 5183   4.091   3.145  13.853 -0.5526  0.3447 -0.2214
  346MPD2    C1 5184   4.228   3.122  13.868  0.0184 -0.0519 -0.3065
  346MPD2    C2 5185   4.298   3.199  13.962 -1.1936  0.7759 -0.3005
  346MPD2    C3 5186   4.239   3.302  14.029  0.4090 -0.1334  0.2111
  346MPD2    C4 5187   4.104   3.315  14.020  0.4397  0.1469  0.3499
  346MPD2    C5 5188   4.035   3.241  13.928 -0.2199 -0.6049 -1.0524
  346MPD2     H 5189   4.403   3.187  13.987 -1.7847  0.8367  2.1958
  346MPD2    H1 5190   4.050   3.397  14.065 -0.7467  0.9936 -2.5897
  346MPD2    H2 5191   4.034   3.094  13.776  0.1373 -0.3308 -0.2856
  346MPD2    H3 5192   3.928   3.250  13.912 -0.4321  0.4273  1.0806
  346MPD2     N 5193   4.319   3.364  14.123 -0.5259 -0.4318  0.0066
  346MPD2    H5 5194   4.419   3.344  14.125 -0.5285 -0.4194  0.3262
  346MPD2    N1 5195   4.295   3.017  13.802  0.1008  0.1362 -0.4876
  346MPD2    H7 5196   4.387   2.996  13.841 -0.1557  1.5482  0.9075
  347TMC3    C1 5197   4.368   3.467  14.322  0.0007  0.1041  0.3542
  347TMC3    C2 5198   4.500   3.448  14.282 -0.5482 -0.1953  0.1141
  347TMC3    C3 5199   4.590   3.407  14.372  0.2743  0.0633 -0.2737
  347TMC3    C4 5200   4.331   3.462  14.453 -0.9390  0.1040  0.1776
  347TMC3    C5 5201   4.429   3.428  14.543  0.8966 -0.4677 -0.3742
  347TMC3    C6 5202   4.561   3.398  14.502  0.1675  0.8039 -0.0587
  347TMC3     C 5203   4.267   3.436  14.224  0.0511 -0.2956  0.2980
  347TMC3     O 5204   4.155   3.460  14.262 -0.0795 -0.2122  0.9222
  347TMC3     H 5205   4.536   3.476  14.183 -0.5221  2.0777  0.7731
  347TMC3    H1 5206   4.235   3.491  14.494 -0.8141 -0.2171  0.6870
  347TMC3    H2 5207   4.643   3.377  14.570  1.3799  0.7864 -1.5184
  347TMC3    C7 5208   4.408   3.446  14.688 -0.7318  0.5859 -0.6307
  347TMC3    C8 5209   4.716   3.358  14.323 -0.3942  0.4139 -0.2495
  347TMC3    O1 5210   4.302   3.442  14.749  0.0879  0.2396  0.2463
  347TMC3    O2 5211   4.707   3.299  14.216  0.2962 -0.4143  0.4924
  348MPD2     C 5212   3.221   2.943  11.926 -0.0624 -0.1461  0.0690
  348MPD2    C1 5213   3.354   2.983  11.926  0.3414 -0.3747 -0.0082
  348MPD2    C2 5214   3.389   3.070  11.824  0.3216  0.2427 -0.1485
  348MPD2    C3 5215   3.300   3.108  11.727  1.4456 -0.3300 -0.2459
  348MPD2    C4 5216   3.171   3.067  11.729  0.6896 -0.7360 -0.0376
  348MPD2    C5 5217   3.130   2.989  11.833 -0.0890  0.6259  0.7153
  348MPD2     H 5218   3.495   3.090  11.815 -0.0633  1.1614 -2.5477
  348MPD2    H1 5219   3.103   3.090  11.647 -0.9835  0.2312  1.6155
  348MPD2    H2 5220   3.185   2.876  12.003  0.0184 -0.3414 -0.0654
  348MPD2    H3 5221   3.034   2.941  11.841  0.5127 -0.7367 -0.2035
  348MPD2     N 5222   3.337   3.188  11.621  0.3417  0.5221  0.2331
  348MPD2    H5 5223   3.282   3.191  11.535  1.3664 -1.8454 -0.5359
  348MPD2    N1 5224   3.447   2.927  12.016  0.3408 -0.1644 -0.4189
  348MPD2    H7 5225   3.540   2.968  12.006  0.8667 -1.5363 -1.2019
  349TMC3    C1 5226   3.549   2.776  12.174 -0.6628 -0.2566  0.1610
  349TMC3    C2 5227   3.537   2.652  12.228 -0.1370 -0.2813 -0.2273
  349TMC3    C3 5228   3.645   2.571  12.211  0.0362  0.1764 -0.4485
  349TMC3    C4 5229   3.671   2.825  12.136  0.2850 -0.1066 -0.4834
  349TMC3    C5 5230   3.775   2.738  12.111  0.3164  0.4223  0.6901
  349TMC3    C6 5231   3.766   2.608  12.153 -0.4051  0.2256  1.1191
  349TMC3     C 5232   3.425   2.827  12.110 -0.4551  0.3777 -0.0469
  349TMC3     O 5233   3.321   2.769  12.136 -0.2759  0.0863 -0.4195
  349TMC3     H 5234   3.441   2.618  12.266 -1.0461  1.7023 -0.7859
  349TMC3    H1 5235   3.686   2.932  12.128 -1.0780  0.0755 -0.6575
  349TMC3    H2 5236   3.846   2.541  12.125 -1.7721 -1.7586  2.0137
  349TMC3    C7 5237   3.781   2.721  11.965  0.0680 -0.7941  0.6905
  349TMC3    C8 5238   3.603   2.435  12.198  0.2575  0.0467  0.1536
  349TMC3    O1 5239   3.755   2.609  11.917  0.0734 -0.2608  0.0886
  349TMC3    O2 5240   3.534   2.387  12.291  0.1042  0.1757 -0.0135
  350MPD2     C 5241   1.843   0.776   9.817  0.1193 -0.1622  0.1894
  350MPD2    C1 5242   1.967   0.713   9.840  0.5426 -0.3587 -0.2164
  350MPD2    C2 5243   2.079   0.783   9.841  0.0489 -0.9999 -0.1743
  350MPD2    C3 5244   2.076   0.923   9.828  0.6144  0.9561 -0.3518
  350MPD2    C4 5245   1.950   0.987   9.811 -0.2172 -0.6246 -0.8909
  350MPD2    C5 5246   1.839   0.911   9.813  0.5901 -0.7578 -0.6798
  350MPD2     H 5247   2.172   0.734   9.866  0.5530  0.2012  0.3237
  350MPD2    H1 5248   1.946   1.095   9.800 -0.4199 -0.7206 -1.7730
  350MPD2    H2 5249   1.751   0.720   9.802 -0.4635  0.8575 -0.0134
  350MPD2    H3 5250   1.741   0.955   9.798  0.9328  0.5217  0.9007
  350MPD2     N 5251   2.199   0.988   9.836 -0.1979  0.1799  0.1448
  350MPD2    H5 5252   2.276   0.923   9.854  0.1809  0.5555 -0.1127
  350MPD2    N1 5253   1.983   0.568   9.859  0.1255  0.1108 -0.0342
  350MPD2    H7 5254   2.079   0.538   9.854 -0.2399 -0.8884 -1.1642
  351TMC3    C1 5255   1.903   0.339   9.891  0.3657 -0.0263 -1.0987
  351TMC3    C2 5256   2.028   0.297   9.880  0.2553  0.6906 -0.0846
  351TMC3    C3 5257   2.050   0.162   9.893  0.5738 -0.1686 -0.2884
  351TMC3    C4 5258   1.801   0.257   9.929  0.7774 -0.1060  0.3365
  351TMC3    C5 5259   1.831   0.120   9.937 -0.0517  0.1361 -0.6911
  351TMC3    C6 5260   1.954   0.065   9.909 -0.9236  0.0233 -0.3493
  351TMC3     C 5261   1.880   0.484   9.889 -0.0046  0.0805  0.0362
  351TMC3     O 5262   1.766   0.521   9.902 -0.2659 -0.1473  0.0791
  351TMC3     H 5263   2.107   0.369   9.860 -0.4535  1.2978 -0.6931
  351TMC3    H1 5264   1.703   0.300   9.945  0.9973  0.4047  0.3080
  351TMC3    H2 5265   1.975   4.683   9.924  1.2069  1.0415  3.8860
  351TMC3    C7 5266   1.724   0.037   9.980 -0.6336  0.9541 -0.2166
  351TMC3    C8 5267   2.182   0.115   9.887 -1.0288 -0.2189  0.0666
  351TMC3    O1 5268   1.618   0.087  10.023 -0.6879 -0.1870  0.0575
  351TMC3    O2 5269   2.266   0.184   9.831  0.2136  0.2970 -0.0048
  352MPD2     C 5270   0.797   3.101   1.120 -0.0229  0.4907  0.7983
  352MPD2    C1 5271   0.671   3.048   1.093 -0.0660 -0.4662  0.1517
  352MPD2    C2 5272   0.613   2.956   1.175 -0.2579 -0.5000 -0.3257
  352MPD2    C3 5273   0.670   2.914   1.292 -0.3180  0.2500  0.2694
  352MPD2    C4 5274   0.793   2.975   1.321  0.7118  0.5893 -0.1973
  352MPD2    C5 5275   0.853   3.068   1.240  0.3940 -0.4826  0.5692
  352MPD2     H 5276   0.527   2.904   1.135 -2.1355  1.3606  1.2438
  352MPD2    H1 5277   0.839   2.943   1.414 -1.9266 -2.6726  0.0033
  352MPD2    H2 5278   0.843   3.170   1.050  2.0162  1.5275  3.1848
  352MPD2    H3 5279   0.944   3.114   1.276 -0.6133  1.4779  0.5822
  352MPD2     N 5280   0.623   2.804   1.373  0.3317  0.3247 -0.3536
  352MPD2    H5 5281   0.666   2.768   1.457 -1.3172  3.1178  1.6871
  352MPD2    N1 5282   0.603   3.094   0.980  0.0538 -0.0549  0.5801
  352MPD2    H7 5283   0.650   3.148   0.908  1.1616  0.4823  1.7199
  353TMC3    C1 5284   0.477   2.618   1.412  0.3257  0.3734  0.1473
  353TMC3    C2 5285   0.570   2.547   1.489 -0.0877 -0.5201 -0.1562
  353TMC3    C3 5286   0.532   2.428   1.550  0.5126  0.2091 -0.5295
  353TMC3    C4 5287   0.345   2.570   1.403  0.2104 -0.6078  0.0159
  353TMC3    C5 5288   0.316   2.449   1.465 -0.1429  0.4807 -0.7291
  353TMC3    C6 5289   0.405   2.382   1.546 -0.4720  0.3425 -0.2654
  353TMC3     C 5290   0.508   2.730   1.338  0.4594 -0.0875 -0.1092
  353TMC3     O 5291   0.438   2.742   1.234  0.3413 -0.6769 -0.2395
  353TMC3     H 5292   0.667   2.592   1.508  0.1945 -1.3389  0.3174
  353TMC3    H1 5293   0.270   2.624   1.346  0.3341  0.1977  0.6126
  353TMC3    H2 5294   0.371   2.298   1.605  2.0002  0.2994  1.1161
  353TMC3    C7 5295   0.189   2.382   1.442 -1.0283 -0.1790 -0.5246
  353TMC3    C8 5296   0.649   2.349   1.596 -0.5396 -0.5581 -0.2368
  353TMC3    O1 5297   0.171   2.274   1.494 -0.5257  0.2370 -0.3892
  353TMC3    O2 5298   0.759   2.402   1.588  0.0824 -0.1614 -0.8370
  354TMC3    C1 5299   1.960   3.833  13.387 -0.0407 -0.2451  0.1776
  354TMC3    C2 5300   1.968   3.969  13.389 -0.5943 -0.1239 -0.0354
  354TMC3    C3 5301   2.001   4.033  13.277 -0.1542  0.0626  0.1284
  354TMC3    C4 5302   1.970   3.761  13.270  0.6760 -0.1766  0.3623
  354TMC3    C5 5303   2.001   3.828  13.154  0.4626  0.0864  0.0118
  354TMC3    C6 5304   2.009   3.963  13.159  0.1252  0.2481 -0.5920
  354TMC3     C 5305   1.894   3.765  13.500  0.5303  0.2549  0.6655
  354TMC3     O 5306   1.810   3.680  13.478  0.5601 -0.2770 -0.1920
  354TMC3     H 5307   1.930   4.024  13.474  1.6474  1.8608 -0.3387
  354TMC3    H1 5308   1.939   3.658  13.255  0.1898 -0.1866  1.4692
  354TMC3    H2 5309   2.013   4.015  13.064 -0.8295 -1.5358 -1.6174
  354TMC3    C7 5310   2.067   3.758  13.045 -0.2548  0.3749 -0.1001
  354TMC3    C8 5311   1.968   4.167  13.273  0.5388  0.6415 -0.1401
  354TMC3    O1 5312   2.048   3.639  13.044  0.0178  0.4256  0.1332
  354TMC3    O2 5313   1.883   4.208  13.354  0.2469  0.5043  0.2495
  355MPD2     C 5314   2.081   0.296  11.526  0.6044  0.1021  0.7297
  355MPD2    C1 5315   2.142   0.307  11.406  0.2071  0.1671  0.2160
  355MPD2    C2 5316   2.260   0.241  11.380  0.5407  0.4829 -0.9176
  355MPD2    C3 5317   2.313   0.171  11.482 -0.5885  0.5233  0.2412
  355MPD2    C4 5318   2.255   0.173  11.604 -0.2305  0.0873 -0.7673
  355MPD2    C5 5319   2.146   0.243  11.629 -0.2501  0.0541  0.7910
  355MPD2     H 5320   2.299   0.248  11.279 -0.8374  3.7550 -1.2295
  355MPD2    H1 5321   2.295   0.113  11.685 -0.6861 -1.2978 -1.5716
  355MPD2    H2 5322   2.000   0.363  11.556  0.1818  0.2050 -0.6455
  355MPD2    H3 5323   2.101   0.248  11.727 -0.5880  0.2182  0.6275
  355MPD2     N 5324   2.443   0.120  11.475  1.0119 -0.1052 -0.4968
  355MPD2    H5 5325   2.486   0.090  11.562 -0.1147  0.3783  0.2278
  355MPD2    N1 5326   2.093   0.398  11.315  0.6452  0.4368 -0.0398
  355MPD2    H7 5327   1.992   0.405  11.310  0.6704  1.5219  0.8648
  356TMC3    C1 5328   2.653   0.197  11.414  0.2725 -0.0080 -0.8445
  356TMC3    C2 5329   2.753   0.204  11.319  0.4100  0.1366 -0.8234
  356TMC3    C3 5330   2.852   0.293  11.348 -0.0235  0.3841  0.0817
  356TMC3    C4 5331   2.649   0.283  11.525  0.3284  0.1520  0.5151
  356TMC3    C5 5332   2.750   0.376  11.534 -0.7857 -0.6767  0.2334
  356TMC3    C6 5333   2.856   0.376  11.452 -0.3210  0.7332  0.4967
  356TMC3     C 5334   2.526   0.150  11.370  0.1143 -0.2912  0.2592
  356TMC3     O 5335   2.496   0.155  11.252  0.5439  0.2543 -1.1065
  356TMC3     H 5336   2.750   0.145  11.228 -2.2129  1.1785 -1.4198
  356TMC3    H1 5337   2.567   0.277  11.595 -1.3144 -2.5664 -1.6225
  356TMC3    H2 5338   2.945   0.434  11.473 -0.9121  1.7662  0.1278
  356TMC3    C7 5339   2.760   0.430  11.671 -0.4341  0.7582 -1.1946
  356TMC3    C8 5340   2.953   0.299  11.243  0.7591 -0.9435  0.2973
  356TMC3    O1 5341   2.723   0.350  11.757  0.0455 -0.4687  0.8483
  356TMC3    O2 5342   3.005   0.196  11.206 -0.0357  0.5422  0.4051
  357MPD2     C 5343   1.843   0.210   1.508  0.0667 -0.2262 -0.2482
  357MPD2    C1 5344   1.774   0.112   1.432  0.3693  0.1015  0.3373
  357MPD2    C2 5345   1.661   0.143   1.357  0.0282 -0.6280 -0.2417
  357MPD2    C3 5346   1.605   0.268   1.363  0.0185  0.0322  0.1423
  357MPD2    C4 5347   1.674   0.364   1.438 -0.1610 -0.0335 -0.3164
  357MPD2    C5 5348   1.788   0.331   1.508 -1.0364 -0.1430 -0.5125
  357MPD2     H 5349   1.604   0.064   1.308 -0.1909 -1.3705  1.1991
  357MPD2    H1 5350   1.633   0.465   1.437 -0.6532 -0.2413 -0.8942
  357MPD2    H2 5351   1.925   0.176   1.570 -0.3935  0.9553  1.0086
  357MPD2    H3 5352   1.832   0.409   1.569 -0.7524 -0.2929 -0.5263
  357MPD2     N 5353   1.488   0.306   1.296 -0.1181  0.0941  0.4869
  357MPD2    H5 5354   1.468   0.405   1.284 -1.7584 -0.1236  1.4907
  357MPD2    N1 5355   1.827   4.704   1.429 -0.1186 -0.5164  0.5090
  357MPD2    H7 5356   1.911   4.684   1.481  0.8135  2.6699  0.1980
  358TMC3    C1 5357   1.891   4.489   1.339 -0.5626 -1.0412  0.0584
  358TMC3    C2 5358   1.910   4.434   1.219 -0.1109  0.8037 -0.1160
  358TMC3    C3 5359   2.028   4.358   1.198  0.4420  0.5085 -0.7314
  358TMC3    C4 5360   1.971   4.450   1.447  0.0412 -0.5128 -0.8951
  358TMC3    C5 5361   2.083   4.381   1.420 -0.4775 -0.1947  0.1413
  358TMC3    C6 5362   2.116   4.325   1.299  0.3222 -0.4345 -0.5319
  358TMC3     C 5363   1.795   4.598   1.341 -0.3566 -0.3533  0.5763
  358TMC3     O 5364   1.700   4.586   1.267 -0.0592  0.4902 -0.5982
  358TMC3     H 5365   1.842   4.451   1.136 -0.6978 -0.0856  0.1853
  358TMC3    H1 5366   1.953   4.488   1.547 -1.0541 -3.0855 -0.1259
  358TMC3    H2 5367   2.215   4.289   1.274  0.6118 -1.3104  1.9466
  358TMC3    C7 5368   2.173   4.361   1.533 -0.1646  0.8036  0.4328
  358TMC3    C8 5369   2.057   4.299   1.065  0.6730 -0.3434 -0.4027
  358TMC3    O1 5370   2.174   4.438   1.627 -0.1881  0.9072  0.2168
  358TMC3    O2 5371   2.171   4.266   1.042  0.2927  0.2199 -0.3147
  359MPD2     C 5372   2.741   4.065  12.283 -0.0732 -0.7915 -0.3028
  359MPD2    C1 5373   2.775   3.936  12.284 -0.6262  0.2359 -0.1962
  359MPD2    C2 5374   2.677   3.840  12.310  0.0077  0.3544 -0.2921
  359MPD2    C3 5375   2.547   3.878  12.331 -0.1439 -0.3289  0.1468
  359MPD2    C4 5376   2.507   4.012  12.316 -0.2681  0.2286  0.6365
  359MPD2    C5 5377   2.610   4.101  12.290  0.9633  0.1071  0.3762
  359MPD2     H 5378   2.711   3.737  12.304  0.7413  0.3333  3.9614
  359MPD2    H1 5379   2.408   4.054  12.306  0.9964  3.3233  1.0039
  359MPD2    H2 5380   2.808   4.142  12.247  0.4527 -0.4109  1.5187
  359MPD2    H3 5381   2.585   4.200  12.256  0.5896 -0.7979 -2.0164
  359MPD2     N 5382   2.441   3.787  12.348 -0.5642  1.0326  0.1679
  359MPD2    H5 5383   2.354   3.840  12.354 -0.8274  0.7848 -1.2974
  359MPD2    N1 5384   2.906   3.892  12.255 -0.4878  0.8344 -0.0421
  359MPD2    H7 5385   2.924   3.792  12.261 -2.7933  0.4828  0.8106
  360TMC3    C1 5386   3.117   3.879  12.167 -1.0109 -0.3790  0.0961
  360TMC3    C2 5387   3.238   3.936  12.154 -0.0053 -0.0319 -0.1499
  360TMC3    C3 5388   3.328   3.888  12.062 -0.4435  0.3335 -0.3499
  360TMC3    C4 5389   3.083   3.773  12.091 -0.3033 -0.1273 -0.1587
  360TMC3    C5 5390   3.184   3.717  12.021  1.0462  0.0977 -0.3358
  360TMC3    C6 5391   3.306   3.776  11.990  0.3462 -0.3073  0.6822
  360TMC3     C 5392   3.013   3.964  12.214  0.3773 -0.6199  0.3721
  360TMC3     O 5393   3.035   4.085  12.224  0.3162 -0.0029 -0.6758
  360TMC3     H 5394   3.259   4.036  12.190 -0.0619 -0.9024  2.3382
  360TMC3    H1 5395   2.979   3.742  12.082 -0.9021  2.5834 -2.4720
  360TMC3    H2 5396   3.377   3.708  11.946 -1.1778 -0.6668 -1.1900
  360TMC3    C7 5397   3.143   3.621  11.919 -0.5313 -0.3648  0.2517
  360TMC3    C8 5398   3.435   3.980  12.028  0.3718 -0.1762  0.5550
  360TMC3    O1 5399   3.196   3.637  11.809  0.2909 -0.1711 -0.7119
  360TMC3    O2 5400   3.429   4.098  12.069 -0.3137 -0.0836 -0.2080
  361MPD2     C 5401   3.510   1.935  17.426 -0.3336  0.5317  0.4914
  361MPD2    C1 5402   3.507   1.883  17.300 -0.0603 -0.4073 -0.4102
  361MPD2    C2 5403   3.616   1.836  17.236  0.5261 -0.8337  0.0831
  361MPD2    C3 5404   3.737   1.837  17.299 -0.6902 -0.0349 -0.1380
  361MPD2    C4 5405   3.738   1.890  17.430 -0.0188  0.0166  0.0437
  361MPD2    C5 5406   3.629   1.952  17.486 -0.5517 -0.3221 -0.4098
  361MPD2     H 5407   3.601   1.803  17.134 -0.6217  1.5740 -0.5439
  361MPD2    H1 5408   3.825   1.891  17.494  1.1387  0.0233 -1.5385
  361MPD2    H2 5409   3.426   1.977  17.479 -1.3132 -0.5836 -0.1821
  361MPD2    H3 5410   3.638   1.984  17.589  0.3216 -1.3115 -0.1761
  361MPD2     N 5411   3.865   1.793  17.255  0.1237  0.5912  0.5067
  361MPD2    H5 5412   3.944   1.815  17.316  0.0352  1.9182  0.1329
  361MPD2    N1 5413   3.390   1.885  17.223 -0.4316  1.1317  0.0383
  361MPD2    H7 5414   3.399   1.848  17.128  0.4198  3.5489 -0.8279
  362TMC3    C1 5415   3.172   1.921  17.154 -0.6047  0.1390 -0.5241
  362TMC3    C2 5416   3.042   1.922  17.198 -0.7842  0.0385 -0.6144
  362TMC3    C3 5417   2.946   1.942  17.104 -0.1691  0.7279  0.1971
  362TMC3    C4 5418   3.207   1.927  17.019 -0.5829 -0.1332 -0.3107
  362TMC3    C5 5419   3.105   1.923  16.930 -0.3103  0.1309 -0.1725
  362TMC3    C6 5420   2.972   1.926  16.973  0.0502 -0.2710 -0.2157
  362TMC3     C 5421   3.270   1.955  17.254  0.6358  0.5214  0.4054
  362TMC3     O 5422   3.241   2.027  17.351  0.4259 -0.8914  0.2757
  362TMC3     H 5423   3.022   1.917  17.305 -0.7999  1.4062 -0.5563
  362TMC3    H1 5424   3.311   1.937  16.990 -0.3538 -2.2056 -0.1973
  362TMC3    H2 5425   2.902   1.969  16.903 -1.9055 -0.5688  1.5534
  362TMC3    C7 5426   3.139   1.972  16.795 -0.3461 -0.6843  0.2064
  362TMC3    C8 5427   2.838   2.030  17.149 -0.8225  0.7062  0.0815
  362TMC3    O1 5428   3.051   2.032  16.734  0.1523 -0.1976 -0.1478
  362TMC3    O2 5429   2.742   2.030  17.071  0.0455  0.7337 -0.2476
  363TMC3    C1 5430   3.132   0.362   9.272 -0.1193  0.0711  0.8125
  363TMC3    C2 5431   3.087   0.254   9.346  0.4180 -0.6034  0.2161
  363TMC3    C3 5432   2.985   0.271   9.439 -0.5646  0.2592  0.4852
  363TMC3    C4 5433   3.070   0.482   9.291  1.1317  0.5446  0.3340
  363TMC3    C5 5434   2.966   0.494   9.377  0.1956  0.1271 -0.0815
  363TMC3    C6 5435   2.925   0.390   9.461 -0.8933 -0.3909 -0.5912
  363TMC3     C 5436   3.236   0.346   9.170  0.0125  0.2592 -0.2388
  363TMC3     O 5437   3.253   0.445   9.096 -0.5405 -0.4285 -0.0394
  363TMC3     H 5438   3.147   0.164   9.353 -0.9558 -1.6902 -2.3210
  363TMC3    H1 5439   3.117   0.567   9.242 -0.3144  1.1567  0.0226
  363TMC3    H2 5440   2.858   0.412   9.544 -0.7731  0.3897 -0.7015
  363TMC3    C7 5441   2.919   0.630   9.401 -0.0054 -0.0605  0.2136
  363TMC3    C8 5442   2.955   0.165   9.539 -0.2912 -0.9333 -0.3820
  363TMC3    O1 5443   2.998   0.720   9.374 -0.0589 -0.3951 -0.0296
  363TMC3    O2 5444   2.859   0.187   9.612 -0.2162 -0.4996  0.3232
  364MPD2     C 5445   2.223   3.710  10.217  0.0132 -0.3359 -0.2064
  364MPD2    C1 5446   2.107   3.776  10.257  0.0554 -0.9180  0.1658
  364MPD2    C2 5447   2.039   3.724  10.373  0.0656  0.3260 -0.1030
  364MPD2    C3 5448   2.083   3.604  10.434 -0.0928 -0.0998 -0.2711
  364MPD2    C4 5449   2.190   3.539  10.384 -0.2353  0.0384 -0.0957
  364MPD2    C5 5450   2.257   3.592  10.276  1.1661 -0.0879 -0.2796
  364MPD2     H 5451   1.952   3.778  10.407 -2.0118 -3.2582  0.3102
  364MPD2    H1 5452   2.241   3.460  10.438 -0.2823 -0.5507 -0.9072
  364MPD2    H2 5453   2.270   3.749  10.127 -2.8364  1.4302 -0.9274
  364MPD2    H3 5454   2.346   3.538  10.245  0.5818 -1.6689  0.7444
  364MPD2     N 5455   2.023   3.552  10.548 -0.1842 -0.0714  0.5217
  364MPD2    H5 5456   2.075   3.480  10.598  1.8140  1.2809  0.3698
  364MPD2    N1 5457   2.080   3.889  10.184 -0.3036 -0.1136 -0.3849
  364MPD2    H7 5458   2.135   3.904  10.101  2.2371 -1.4797  1.0274
  365TMC3    C1 5459   2.016   4.111  10.151  0.9124  0.4206  0.1308
  365TMC3    C2 5460   2.078   4.118  10.026 -0.3504  0.0139  0.6435
  365TMC3    C3 5461   2.103   4.238   9.969 -1.2409  0.7150 -0.0863
  365TMC3    C4 5462   1.985   4.234  10.214 -1.0416 -0.7135 -0.3298
  365TMC3    C5 5463   2.030   4.350  10.151 -0.1174  0.7694  0.0314
  365TMC3    C6 5464   2.085   4.357  10.029  0.7240 -0.0188 -0.4219
  365TMC3     C 5465   1.998   3.990  10.228 -0.0858 -0.6037 -0.0012
  365TMC3     O 5466   1.929   3.989  10.326  0.1365 -0.1598 -0.4093
  365TMC3     H 5467   2.117   4.031   9.976  0.3284  0.5367  0.2686
  365TMC3    H1 5468   1.932   4.231  10.309  1.6142 -2.2576  1.1142
  365TMC3    H2 5469   2.096   4.450   9.974 -0.0984 -0.0899 -0.7057
  365TMC3    C7 5470   1.979   4.477  10.206  0.1030  0.5219  0.2721
  365TMC3    C8 5471   2.200   4.244   9.857 -0.2812  0.1847  0.6298
  365TMC3    O1 5472   1.983   4.574  10.137 -0.0537 -0.2248 -0.2322
  365TMC3    O2 5473   2.182   4.336   9.777 -0.0901 -0.0454 -0.4439
  366MPD2     C 5474   0.168   0.256  14.992 -0.0764 -0.4555  0.2402
  366MPD2    C1 5475   0.188   0.370  15.066 -0.0622  0.0973 -0.1276
  366MPD2    C2 5476   0.312   0.422  15.085  0.6037 -0.0352  0.4187
  366MPD2    C3 5477   0.420   0.367  15.022 -0.1437  0.8186  0.7570
  366MPD2    C4 5478   0.398   0.253  14.947  0.0664  0.6816  0.6840
  366MPD2    C5 5479   0.276   0.206  14.928  0.0614 -0.1222  0.4138
  366MPD2     H 5480   0.322   0.510  15.147 -1.5638  0.1781  0.4586
  366MPD2    H1 5481   0.466   0.221  14.869  0.7003  0.5218  1.2958
  366MPD2    H2 5482   0.071   0.210  14.979  0.8762 -2.6876  1.0997
  366MPD2    H3 5483   0.274   0.132  14.850 -1.0668  0.2473  0.1015
  366MPD2     N 5484   0.544   0.434  15.037  0.6571 -0.2303  0.5406
  366MPD2    H5 5485   0.538   0.508  15.106  0.6005  1.1610 -0.9540
  366MPD2    N1 5486   0.077   0.443  15.119 -0.1220 -0.2440 -0.0492
  366MPD2    H7 5487   0.104   0.536  15.150 -0.1954 -0.2762  0.1137
  367TMC3    C1 5488   4.582   0.518  15.188  0.2988 -0.4088  0.0387
  367TMC3    C2 5489   4.651   0.595  15.274 -0.1193  0.2717 -0.6695
  367TMC3    C3 5490   4.590   0.714  15.305 -0.2778  0.5063 -0.4071
  367TMC3    C4 5491   4.458   0.545  15.138  0.1622 -0.6535  0.0702
  367TMC3    C5 5492   4.401   0.663  15.182 -0.0750  0.4820 -0.4916
  367TMC3    C6 5493   4.471   0.756  15.258  0.0619 -0.5704 -0.3158
  367TMC3     C 5494   4.665   0.419  15.113 -0.0585  0.8911 -0.2734
  367TMC3     O 5495   4.609   0.318  15.070 -0.6806 -0.3539 -0.3184
  367TMC3     H 5496   0.016   0.559  15.325 -2.1676 -1.4462  1.7231
  367TMC3    H1 5497   4.399   0.490  15.065 -1.0171 -2.2551  2.2253
  367TMC3    H2 5498   4.419   0.846  15.289 -0.3516 -0.8662 -0.1604
  367TMC3    C7 5499   4.333   0.733  15.083  0.4252  0.4365  0.7783
  367TMC3    C8 5500   4.649   0.798  15.400 -0.0226  0.2964 -0.5311
  367TMC3    O1 5501   4.380   0.849  15.069  0.2583  0.2609  0.6376
  367TMC3    O2 5502   0.020   0.755  15.466 -0.3331  0.2567  0.2448
  368MPD2     C 5503   1.349   2.613  12.542 -0.1583 -0.1413 -0.4105
  368MPD2    C1 5504   1.320   2.720  12.463 -0.2315  1.1295  0.4550
  368MPD2    C2 5505   1.412   2.748  12.361 -0.5979  0.4366  0.3055
  368MPD2    C3 5506   1.519   2.664  12.327  0.0397  0.2234 -0.4704
  368MPD2    C4 5507   1.542   2.559  12.411 -0.0410 -0.2475 -0.7973
  368MPD2    C5 5508   1.453   2.529  12.512  0.0684 -0.3999 -0.4388
  368MPD2     H 5509   1.374   2.834  12.307  0.4636  1.4333  1.1517
  368MPD2    H1 5510   1.622   2.488  12.396  1.0094  1.0408 -1.2789
  368MPD2    H2 5511   1.296   2.585  12.632 -0.4730 -1.6185 -1.0624
  368MPD2    H3 5512   1.478   2.447  12.578  0.3095 -0.4052 -0.5366
  368MPD2     N 5513   1.603   2.680  12.211 -0.0221  0.2943 -0.3059
  368MPD2    H5 5514   1.688   2.625  12.212 -0.9659 -1.1705  0.2190
  368MPD2    N1 5515   1.214   2.813  12.470  0.2023 -0.0648 -0.5160
  368MPD2    H7 5516   1.214   2.887  12.402 -0.1281  0.6551  0.2691
  369TMC3    C1 5517   1.004   2.896  12.537 -0.3139  0.2850  0.1197
  369TMC3    C2 5518   1.004   2.982  12.431  0.2000  0.2335  0.1289
  369TMC3    C3 5519   0.895   3.057  12.407 -0.4944 -0.0493 -0.0171
  369TMC3    C4 5520   0.891   2.885  12.615 -0.5564  0.1097  0.6483
  369TMC3    C5 5521   0.780   2.953  12.574  0.3415 -0.4028 -1.2020
  369TMC3    C6 5522   0.775   3.036  12.471  0.3859  0.1488  0.3915
  369TMC3     C 5523   1.105   2.797  12.561 -0.0592  0.7001 -0.7110
  369TMC3     O 5524   1.090   2.714  12.649 -0.7537  0.5580 -0.3165
  369TMC3     H 5525   1.097   2.998  12.378  0.4104 -3.2918 -0.6109
  369TMC3    H1 5526   0.886   2.808  12.691 -2.2802  1.1814  1.6299
  369TMC3    H2 5527   0.677   3.078  12.452  0.8722  1.9759  1.9126
  369TMC3    C7 5528   0.658   2.930  12.648 -0.0818  0.0744  0.1794
  369TMC3    C8 5529   0.894   3.142  12.293 -0.1193 -0.1196 -0.3397
  369TMC3    O1 5530   0.677   2.891  12.767  0.2483 -0.3223 -0.1133
  369TMC3    O2 5531   0.983   3.127  12.208  0.6033  0.1198  0.0482
  370TMC3    C1 5532   0.538   3.025  16.101  0.4177 -0.1846 -0.1069
  370TMC3    C2 5533   0.488   2.932  16.189 -0.4198  0.0199 -0.0354
  370TMC3    C3 5534   0.457   2.808  16.133 -0.1136 -0.2377 -0.2568
  370TMC3    C4 5535   0.561   2.993  15.968  0.0465 -0.1140 -0.1994
  370TMC3    C5 5536   0.519   2.867  15.929  0.1144  0.1366  0.2755
  370TMC3    C6 5537   0.473   2.773  16.008 -0.2387 -0.1636  0.5043
  370TMC3     C 5538   0.619   3.134  16.152  0.2252 -1.8621 -0.2189
  370TMC3     O 5539   0.645   3.139  16.271  0.4317 -0.1996 -0.3925
  370TMC3     H 5540   0.484   2.942  16.297  0.0141  2.3913 -0.2406
  370TMC3    H1 5541   0.617   3.050  15.894 -1.2450  0.6497 -0.5942
  370TMC3    H2 5542   0.439   2.677  15.971 -1.5656  0.9184 -1.1334
  370TMC3    C7 5543   0.576   2.824  15.803 -0.2346 -0.1853 -0.4811
  370TMC3    C8 5544   0.414   2.703  16.221 -0.7057 -0.5723  0.2487
  370TMC3    O1 5545   0.539   2.878  15.702  0.2348 -0.0189  0.6294
  370TMC3    O2 5546   0.445   2.590  16.187 -0.2056  0.2942 -0.1488
  371TMC3    C1 5547   1.709   1.260  15.360 -0.1889 -0.3530  0.6368
  371TMC3    C2 5548   1.576   1.240  15.371  1.1357  0.0739  0.6790
  371TMC3    C3 5549   1.497   1.355  15.370  1.1097  0.0478 -0.0113
  371TMC3    C4 5550   1.769   1.387  15.336  0.4486  0.3970  0.1859
  371TMC3    C5 5551   1.685   1.501  15.358 -1.4412 -0.3878  0.0601
  371TMC3    C6 5552   1.546   1.483  15.365  0.3037  0.1456  0.3375
  371TMC3     C 5553   1.792   1.146  15.383  0.4890  0.3039  0.2665
  371TMC3     O 5554   1.903   1.146  15.332 -0.2788 -0.0105  0.4136
  371TMC3     H 5555   1.534   1.141  15.361 -2.6746  1.9608 -2.0423
  371TMC3    H1 5556   1.877   1.397  15.329  0.6060 -1.0033  0.6870
  371TMC3    H2 5557   1.473   1.562  15.359 -0.9138 -0.9423  0.8352
  371TMC3    C7 5558   1.741   1.640  15.361  0.3687 -0.1866 -0.1209
  371TMC3    C8 5559   1.367   1.330  15.432 -0.1988 -1.1120 -0.2668
  371TMC3    O1 5560   1.675   1.735  15.403 -0.6620 -0.3832 -0.6447
  371TMC3    O2 5561   1.326   1.219  15.426 -0.4172  0.5217  0.3885
  372MPD2     C 5562   1.788   2.357  12.601 -0.4424 -0.2770 -0.0899
  372MPD2    C1 5563   1.733   2.457  12.681  0.2572  0.3631 -0.4603
  372MPD2    C2 5564   1.668   2.427  12.798  0.3303 -0.4557  0.6678
  372MPD2    C3 5565   1.616   2.305  12.813 -0.3419  0.8643 -0.4813
  372MPD2    C4 5566   1.663   2.203  12.736  0.3069  0.2101 -0.0119
  372MPD2    C5 5567   1.750   2.230  12.637  0.0083  0.8822  0.1210
  372MPD2     H 5568   1.633   2.509  12.861  0.4300 -0.8531  1.2407
  372MPD2    H1 5569   1.626   2.102  12.743 -0.4617  0.6243  2.0028
  372MPD2    H2 5570   1.843   2.377  12.510  0.4177  1.1293  0.7497
  372MPD2    H3 5571   1.793   2.159  12.567  0.3120 -3.2693  4.4435
  372MPD2     N 5572   1.524   2.291  12.919  0.2611 -0.6558 -0.4903
  372MPD2    H5 5573   1.527   2.358  12.995 -2.9021 -2.0325  0.8316
  372MPD2    N1 5574   1.778   2.596  12.674  0.2719  0.9713 -0.0117
  372MPD2    H7 5575   1.761   2.651  12.758 -0.2620  1.5323 -0.4921
  373TMC3    C1 5576   1.351   2.188  13.034  0.4123  0.1546  0.8599
  373TMC3    C2 5577   1.329   2.302  13.107 -0.2037  0.0138 -0.0370
  373TMC3    C3 5578   1.282   2.296  13.233  0.9939 -0.5499  0.2453
  373TMC3    C4 5579   1.332   2.070  13.097 -0.7749 -0.0224 -0.6113
  373TMC3    C5 5580   1.300   2.062  13.234 -0.2586 -0.3241 -0.2453
  373TMC3    C6 5581   1.283   2.181  13.303  0.2150 -0.1704 -0.4591
  373TMC3     C 5582   1.427   2.194  12.915 -0.7526  0.3446 -0.0941
  373TMC3     O 5583   1.417   2.094  12.843  0.1862 -0.1550  0.4883
  373TMC3     H 5584   1.330   2.399  13.057 -0.5290 -0.1869 -0.4369
  373TMC3    H1 5585   1.374   1.990  13.036  0.0279 -0.6192  0.7085
  373TMC3    H2 5586   1.247   2.184  13.406 -0.0726  1.5912 -0.6191
  373TMC3    C7 5587   1.416   1.992  13.287  0.3068  0.6384  0.3124
  373TMC3    C8 5588   1.270   2.418  13.308  0.3598 -0.0326 -0.3443
  373TMC3    O1 5589   1.429   1.874  13.254 -0.2646 -0.9780  0.0378
  373TMC3    O2 5590   1.320   2.516  13.262 -0.4205  0.1053  0.1539
  374TMC3    C1 5591   2.234   2.574   9.932  0.3129 -0.3565  0.6354
  374TMC3    C2 5592   2.339   2.657   9.904  0.5103 -0.0491  0.0738
  374TMC3    C3 5593   2.404   2.631   9.780  0.7117  0.3498  0.1726
  374TMC3    C4 5594   2.190   2.476   9.851  0.5890  0.9419  0.7032
  374TMC3    C5 5595   2.256   2.461   9.733 -0.2486  0.2785  0.1783
  374TMC3    C6 5596   2.359   2.540   9.689 -0.0610 -0.8093  0.0858
  374TMC3     C 5597   2.178   2.590  10.067 -0.3497 -0.6179  0.0748
  374TMC3     O 5598   2.233   2.675  10.133  0.2018 -0.0301 -0.3978
  374TMC3     H 5599   2.367   2.744   9.962 -0.8712 -0.9959  2.1640
  374TMC3    H1 5600   2.112   2.403   9.874  2.2121 -1.3304 -0.9473
  374TMC3    H2 5601   2.417   2.517   9.600 -0.1628  0.6917 -0.3590
  374TMC3    C7 5602   2.189   2.370   9.643 -0.4330  0.4818 -0.0253
  374TMC3    C8 5603   2.525   2.700   9.751 -0.2225  0.4583  0.3842
  374TMC3    O1 5604   2.129   2.280   9.697 -0.3640 -0.5127 -0.1662
  374TMC3    O2 5605   2.568   2.700   9.637 -0.5233  0.2640 -0.2068
  375MPD2     C 5606   2.130   3.146  17.059  0.6162  0.0717 -0.9437
  375MPD2    C1 5607   2.061   3.157  16.936 -0.4774  0.0934  0.5455
  375MPD2    C2 5608   2.107   3.090  16.830  0.0227 -0.1500 -0.2140
  375MPD2    C3 5609   2.221   3.013  16.844 -0.3529  0.0396  0.8032
  375MPD2    C4 5610   2.286   2.998  16.958 -0.1937  0.6226 -0.3267
  375MPD2    C5 5611   2.230   3.058  17.073 -0.5584  0.0964  0.4128
  375MPD2     H 5612   2.056   3.104  16.735  0.4883 -0.5419 -0.5239
  375MPD2    H1 5613   2.373   2.933  16.966 -0.7749  0.2540  3.0010
  375MPD2    H2 5614   2.095   3.198  17.147  0.2976 -3.0547  0.8011
  375MPD2    H3 5615   2.276   3.040  17.169 -1.2281  0.1572  0.7419
  375MPD2     N 5616   2.268   2.942  16.730  0.6250 -0.4103 -0.1201
  375MPD2    H5 5617   2.361   2.901  16.730 -0.5231 -3.0316 -2.7156
  375MPD2    N1 5618   1.933   3.219  16.920 -0.2005 -0.1913  0.3964
  375MPD2    H7 5619   1.890   3.220  16.828 -0.1265  0.4625  0.3728
  376TMC3    C1 5620   2.283   2.892  16.495  0.4535 -0.4393 -0.4287
  376TMC3    C2 5621   2.415   2.920  16.485 -0.2208  0.0660  1.0002
  376TMC3    C3 5622   2.488   2.877  16.374 -0.0067 -0.4697 -0.5556
  376TMC3    C4 5623   2.224   2.823  16.393  1.1616 -0.1725 -0.0778
  376TMC3    C5 5624   2.306   2.778  16.293  0.0755 -0.5153 -0.0117
  376TMC3    C6 5625   2.440   2.799  16.278  0.1367 -0.0122 -0.3187
  376TMC3     C 5626   2.198   2.934  16.609 -0.1412  0.1227  0.0519
  376TMC3     O 5627   2.078   2.928  16.590 -0.1313 -0.1873  0.2198
  376TMC3     H 5628   2.449   2.999  16.552 -2.0132  0.6922  1.1587
  376TMC3    H1 5629   2.117   2.807  16.404  1.1364  0.0133 -0.0477
  376TMC3    H2 5630   2.510   2.761  16.204 -2.1283 -0.1630 -2.3692
  376TMC3    C7 5631   2.226   2.776  16.165 -0.2821 -0.2121 -0.0573
  376TMC3    C8 5632   2.619   2.933  16.349  0.6616 -0.7926  0.0821
  376TMC3    O1 5633   2.133   2.855  16.149  0.2234  0.3091 -0.1907
  376TMC3    O2 5634   2.670   2.919  16.237  0.2322  0.2015 -0.6431
  377MPD2     C 5635   4.577   3.072  12.043 -0.2576  0.2384  0.0450
  377MPD2    C1 5636   4.682   3.027  12.117 -0.1087  0.5082  0.0431
  377MPD2    C2 5637   4.648   2.969  12.241 -0.3027  0.4451 -0.3126
  377MPD2    C3 5638   4.514   2.961  12.279 -1.1116 -0.0589  0.4804
  377MPD2    C4 5639   4.415   3.016  12.206  0.7326  0.0772 -1.0221
  377MPD2    C5 5640   4.451   3.069  12.089 -0.0801 -0.3787 -0.0529
  377MPD2     H 5641   4.723   2.924  12.306 -0.9818  1.6112  1.2734
  377MPD2    H1 5642   4.309   3.011  12.227  0.7222 -1.4335 -1.3824
  377MPD2    H2 5643   4.592   3.114  11.944 -2.6959  0.4923 -0.2314
  377MPD2    H3 5644   4.375   3.110  12.024 -0.9981  0.9238  1.8509
  377MPD2     N 5645   4.475   2.899  12.401 -0.0229  0.6275 -0.1457
  377MPD2    H5 5646   4.377   2.917  12.423 -0.4137 -0.3513 -1.0486
  377MPD2    N1 5647   0.088   3.028  12.057 -0.2595  0.6215  0.2982
  377MPD2    H7 5648   0.097   3.072  11.966 -1.9155 -2.9820 -1.6202
  378TMC3    C1 5649   0.443   3.057  11.861 -0.2830 -0.4914 -0.7502
  378TMC3    C2 5650   0.324   3.032  11.924 -0.3253  0.3201  0.2916
  378TMC3    C3 5651   0.327   3.009  12.059 -0.0073  0.0974  0.3914
  378TMC3    C4 5652   0.562   3.056  11.925  0.8298 -0.2318  0.1606
  378TMC3    C5 5653   0.564   3.018  12.055 -0.0191  0.4534 -0.2792
  378TMC3    C6 5654   0.450   2.993  12.122  0.1974 -0.7018  0.3285
  378TMC3     C 5655   0.439   3.101  11.728 -0.1131 -0.5868  0.4284
  378TMC3     O 5656   0.343   3.172  11.699  0.2561 -0.3280  0.0858
  378TMC3     H 5657   0.238   3.021  11.859  0.0277  1.3994 -0.3852
  378TMC3    H1 5658   0.652   3.085  11.873  0.2439 -0.8114 -1.1685
  378TMC3    H2 5659   0.455   2.996  12.230 -1.0382  0.1289  0.3597
  378TMC3    C7 5660   0.683   2.963  12.113  0.4855  0.2702  0.3125
  378TMC3    C8 5661   0.200   3.006  12.134  0.6971  0.2560  0.0484
  378TMC3    O1 5662   0.662   2.919  12.225 -0.3765  1.2740 -0.1338
  378TMC3    O2 5663   0.211   2.971  12.251 -0.4702 -0.1491  0.3508
  379MPD2     C 5664   0.436   0.957  16.296  0.4739  0.2626 -0.1382
  379MPD2    C1 5665   0.533   0.918  16.212  0.1367 -0.1192 -0.3013
  379MPD2    C2 5666   0.620   0.817  16.245  0.3702 -0.5671 -0.4037
  379MPD2    C3 5667   0.596   0.749  16.363 -0.8288  0.5856 -0.4374
  379MPD2    C4 5668   0.499   0.788  16.446 -0.5135  0.6300 -0.1447
  379MPD2    C5 5669   0.420   0.895  16.420  0.1704 -0.2347 -0.7526
  379MPD2     H 5670   0.688   0.768  16.177 -2.0381  0.0252 -3.2604
  379MPD2    H1 5671   0.488   0.736  16.540  0.9636  0.0660 -0.2825
  379MPD2    H2 5672   0.368   1.033  16.258  0.7449 -0.7441 -2.6217
  379MPD2    H3 5673   0.352   0.921  16.500 -0.4603  1.5914 -1.8641
  379MPD2     N 5674   0.668   0.629  16.400  0.0675 -0.2146  0.0782
  379MPD2    H5 5675   0.632   0.586  16.484 -0.6221 -0.0853 -0.1519
  379MPD2    N1 5676   0.540   0.988  16.087  0.6143 -0.3438 -0.4160
  379MPD2    H7 5677   0.486   1.074  16.084  0.3309 -0.5568 -1.8169
  380TMC3    C1 5678   0.588   1.026  15.856 -0.6866  0.3684  0.2379
  380TMC3    C2 5679   0.670   0.997  15.744 -0.3753  0.1096 -0.3001
  380TMC3    C3 5680   0.635   1.054  15.624 -0.0681 -0.8181 -1.0222
  380TMC3    C4 5681   0.490   1.128  15.851 -0.3329  0.8443  0.2056
  380TMC3    C5 5682   0.456   1.171  15.724  0.0124  0.1433  0.4961
  380TMC3    C6 5683   0.531   1.141  15.612  0.0976 -0.0385  0.7287
  380TMC3     C 5684   0.615   0.954  15.983  0.3366 -1.0082  0.2639
  380TMC3     O 5685   0.700   0.867  15.973 -0.5312 -0.4525 -0.1647
  380TMC3     H 5686   0.743   0.919  15.761 -1.5310 -0.7582  0.7415
  380TMC3    H1 5687   0.407   1.127  15.922  0.8594 -2.5067  1.5242
  380TMC3    H2 5688   0.497   1.193  15.523  0.1492 -0.2848  0.5687
  380TMC3    C7 5689   0.323   1.218  15.696  0.7284  0.4487 -0.1293
  380TMC3    C8 5690   0.730   1.048  15.523 -0.6903  0.7182 -0.1679
  380TMC3    O1 5691   0.286   1.320  15.751 -0.1293  0.3718  0.0319
  380TMC3    O2 5692   0.715   1.104  15.413  0.1736 -0.0424 -0.2294
  381TMC3    C1 5693   0.527   1.987  16.069 -0.0747  0.7450 -0.0852
  381TMC3    C2 5694   0.622   2.085  16.049 -0.5186  0.0951  0.1379
  381TMC3    C3 5695   0.633   2.179  16.155  0.5518 -0.2134  0.6160
  381TMC3    C4 5696   0.463   1.964  16.184  0.1537  0.1805 -0.0314
  381TMC3    C5 5697   0.478   2.058  16.289  0.1976  0.4058  1.0728
  381TMC3    C6 5698   0.556   2.175  16.271 -0.7186 -0.2643 -0.1587
  381TMC3     C 5699   0.519   1.886  15.964 -0.7965 -0.1016  0.2733
  381TMC3     O 5700   0.532   1.769  16.001 -0.3032  0.8026 -0.4280
  381TMC3     H 5701   0.672   2.092  15.952 -1.0978 -0.4858 -0.1988
  381TMC3    H1 5702   0.414   1.869  16.198  2.9769 -1.2413  0.1076
  381TMC3    H2 5703   0.566   2.249  16.350  1.6963 -2.5558  1.6525
  381TMC3    C7 5704   0.450   2.015  16.415  0.0440  0.2258 -0.0182
  381TMC3    C8 5705   0.714   2.290  16.121  0.0381  0.2156  0.1858
  381TMC3    O1 5706   0.462   1.895  16.432 -0.1937  0.2752 -0.0425
  381TMC3    O2 5707   0.751   2.289  16.003 -0.2413 -0.5314 -0.5476
  382MPD2     C 5708   4.592   4.368  16.813  1.0715 -0.7471 -0.3178
  382MPD2    C1 5709   4.642   4.354  16.941 -0.5384  0.3654  0.3475
  382MPD2    C2 5710   4.605   4.241  17.012  0.2484  0.3506  0.6085
  382MPD2    C3 5711   4.534   4.140  16.952 -0.2730  0.2305  0.6842
  382MPD2    C4 5712   4.494   4.150  16.822 -0.6232 -0.4897  0.0126
  382MPD2    C5 5713   4.521   4.267  16.758 -0.0846  0.5640  0.1793
  382MPD2     H 5714   4.637   4.229  17.114 -1.9072 -1.1489  1.1083
  382MPD2    H1 5715   4.437   4.071  16.774  0.8005 -1.8220  0.4836
  382MPD2    H2 5716   4.615   4.452  16.748 -1.3000  1.9636  2.3704
  382MPD2    H3 5717   4.491   4.281  16.654  1.5935  1.8748 -0.1321
  382MPD2     N 5718   4.485   4.031  17.020  0.7046  0.8253 -0.3203
  382MPD2    H5 5719   4.410   3.983  16.972  0.4162  2.1217 -1.1528
  382MPD2    N1 5720   4.706   4.470  16.993 -0.0532 -0.5722  0.1245
  382MPD2    H7 5721   4.719   4.556  16.942  0.9690 -2.3229 -2.5500
  383TMC3    C1 5722   4.437   3.879  17.197  0.0496 -0.5679 -0.1083
  383TMC3    C2 5723   4.302   3.874  17.173 -0.1480 -0.2580 -0.0788
  383TMC3    C3 5724   4.232   3.783  17.243 -0.1408  0.1692  0.2739
  383TMC3    C4 5725   4.493   3.811  17.302  0.0979  0.3213 -0.5139
  383TMC3    C5 5726   4.417   3.731  17.379  0.6046 -0.1157 -0.8162
  383TMC3    C6 5727   4.281   3.711  17.347  0.7988 -0.5427 -0.1273
  383TMC3     C 5728   4.523   3.989  17.143 -0.0253 -0.5782 -0.3039
  383TMC3     O 5729   4.610   4.035  17.214  0.7131  0.4285  0.1156
  383TMC3     H 5730   4.243   3.948  17.118  0.3309 -0.6594 -1.1223
  383TMC3    H1 5731   4.599   3.829  17.317 -0.5272  2.5453  1.2229
  383TMC3    H2 5732   4.221   3.671  17.428  0.2485  1.1693  0.3176
  383TMC3    C7 5733   4.466   3.687  17.506  0.3148  0.7728 -0.8275
  383TMC3    C8 5734   4.093   3.749  17.206 -0.0756  0.3428 -0.1281
  383TMC3    O1 5735   4.421   3.578  17.539 -0.6623  0.4689  0.7978
  383TMC3    O2 5736   4.045   3.806  17.113 -0.0480  0.1016 -0.3154
  384MPD2     C 5737   1.558   0.968  11.841 -0.3084 -0.3528  0.3792
  384MPD2    C1 5738   1.572   0.902  11.964  0.2310 -0.5244  0.2406
  384MPD2    C2 5739   1.656   0.795  11.977 -0.0685  0.4152  0.0670
  384MPD2    C3 5740   1.714   0.736  11.870  0.1710  0.1160  0.7305
  384MPD2    C4 5741   1.692   0.787  11.744  0.3151 -0.0429 -0.7705
  384MPD2    C5 5742   1.619   0.905  11.731  0.6256 -0.6748  0.5547
  384MPD2     H 5743   1.663   0.735  12.067  0.6146 -0.3365 -0.4829
  384MPD2    H1 5744   1.737   0.740  11.657  0.5769  0.7100 -1.0334
  384MPD2    H2 5745   1.504   1.061  11.828  0.3657 -0.1022 -0.6167
  384MPD2    H3 5746   1.608   0.949  11.633  0.4070 -0.7136  0.5635
  384MPD2     N 5747   1.779   0.610  11.889 -0.3666  0.5926 -0.2684
  384MPD2    H5 5748   1.793   0.588  11.987 -1.0940  1.3145 -0.0035
  384MPD2    N1 5749   1.523   0.947  12.088  0.4286  0.3650  0.4921
  384MPD2    H7 5750   1.546   0.894  12.171  0.0122 -1.4639 -0.5595
  385TMC3    C1 5751   1.899   0.410  11.856  1.0271 -0.5103 -0.4781
  385TMC3    C2 5752   1.829   0.301  11.814 -0.1655  0.3691  0.3091
  385TMC3    C3 5753   1.770   0.223  11.917 -0.4900 -0.5306 -0.2153
  385TMC3    C4 5754   1.918   0.443  11.990  0.1683  0.2315  0.1040
  385TMC3    C5 5755   1.856   0.362  12.086 -0.2576 -0.1483  0.7987
  385TMC3    C6 5756   1.781   0.261  12.048  0.3356 -0.3080  0.0685
  385TMC3     C 5757   1.843   0.532  11.792 -0.2277 -0.2385  0.3519
  385TMC3     O 5758   1.834   0.535  11.671 -1.1013 -0.7145  0.3121
  385TMC3     H 5759   1.835   0.279  11.708  0.4998  0.6318  0.2890
  385TMC3    H1 5760   1.980   0.531  12.005 -0.4706  1.2766 -3.1441
  385TMC3    H2 5761   1.735   0.194  12.120 -0.2268 -0.7573 -0.7037
  385TMC3    C7 5762   1.818   0.442  12.202  0.0839  0.3522  0.7105
  385TMC3    C8 5763   1.724   0.087  11.898 -0.1467  0.0937  0.1080
  385TMC3    O1 5764   1.825   0.562  12.179  0.3005 -0.2083 -0.1053
  385TMC3    O2 5765   1.729   0.013  11.990 -0.8400  0.2963 -0.0178
  386TMC3    C1 5766   1.803   2.551  11.232 -0.4794 -0.2374  0.6337
  386TMC3    C2 5767   1.859   2.566  11.104 -0.1005 -0.4036 -0.9220
  386TMC3    C3 5768   1.783   2.628  11.011 -0.1819  0.0921 -0.7696
  386TMC3    C4 5769   1.686   2.600  11.270 -0.4220 -0.6120 -0.0111
  386TMC3    C5 5770   1.609   2.650  11.171 -0.7916  0.2736  0.0471
  386TMC3    C6 5771   1.657   2.671  11.044  0.4717  0.0244 -0.0985
  386TMC3     C 5772   1.884   2.476  11.321 -0.0773  0.2081  0.0098
  386TMC3     O 5773   1.827   2.418  11.412  0.1626  0.3379 -0.0236
  386TMC3     H 5774   1.944   2.512  11.065 -0.5821 -2.1837  0.4652
  386TMC3    H1 5775   1.652   2.596  11.373  2.2582  3.7424  1.0388
  386TMC3    H2 5776   1.609   2.730  10.967  1.6661 -0.2688 -1.0660
  386TMC3    C7 5777   1.491   2.722  11.215  0.1212  0.8408 -0.3790
  386TMC3    C8 5778   1.827   2.654  10.878 -0.0831  0.3734 -0.2647
  386TMC3    O1 5779   1.466   2.734  11.335  0.1744 -0.1902  0.0611
  386TMC3    O2 5780   1.740   2.639  10.792  0.0685  0.2911  0.3386
  387MPD2     C 5781   4.396   3.357   9.192  0.5096  0.4239  0.5516
  387MPD2    C1 5782   4.441   3.345   9.317  0.5377  0.0778 -0.6490
  387MPD2    C2 5783   4.454   3.227   9.379 -0.5117  0.5508  0.0194
  387MPD2    C3 5784   4.409   3.115   9.326  0.8245 -0.2192 -0.9356
  387MPD2    C4 5785   4.360   3.128   9.194 -0.1206 -0.1155 -0.6057
  387MPD2    C5 5786   4.364   3.246   9.128  0.3640  1.2549  0.2803
  387MPD2     H 5787   4.489   3.226   9.482  0.0635  0.1196 -0.1799
  387MPD2    H1 5788   4.315   3.046   9.138  0.6350 -0.5322 -0.6072
  387MPD2    H2 5789   4.401   3.456   9.148  0.4775  0.1458 -0.0678
  387MPD2    H3 5790   4.332   3.253   9.024  0.6713  1.4380  0.1994
  387MPD2     N 5791   4.403   3.002   9.415  0.4148 -0.5772 -0.1409
  387MPD2    H5 5792   4.460   3.008   9.499  1.0907  0.9756 -0.7141
  387MPD2    N1 5793   4.476   3.454   9.403 -0.2485 -0.2646 -0.3930
  387MPD2    H7 5794   4.496   3.430   9.500  2.6849  0.0052 -0.9476
  388TMC3    C1 5795   4.449   3.650   9.496  0.2890 -0.0992 -0.1489
  388TMC3    C2 5796   4.526   3.754   9.513 -0.1965 -0.4373  0.0089
  388TMC3    C3 5797   4.554   3.801   9.636  0.1751  0.3440 -0.1881
  388TMC3    C4 5798   4.394   3.585   9.600 -0.4160  0.2665 -0.2423
  388TMC3    C5 5799   4.419   3.637   9.730  0.0784  0.5180 -0.8849
  388TMC3    C6 5800   4.499   3.746   9.751 -0.1825 -0.0793 -0.0581
  388TMC3     C 5801   4.460   3.587   9.375  0.7233  0.0018  0.0421
  388TMC3     O 5802   4.466   3.651   9.268 -0.0918  0.2037 -0.4160
  388TMC3     H 5803   4.569   3.800   9.424 -0.5020 -0.5093 -0.1741
  388TMC3    H1 5804   4.326   3.502   9.590 -1.1139  1.0207 -1.6859
  388TMC3    H2 5805   4.521   3.781   9.851  2.2961 -1.3535 -0.1777
  388TMC3    C7 5806   4.402   3.552   9.845 -0.2317 -0.0065 -0.3206
  388TMC3    C8 5807   4.676   3.878   9.641  0.6314 -0.4684  0.0237
  388TMC3    O1 5808   4.430   3.593   9.957 -0.2342 -0.0844  0.1703
  388TMC3    O2 5809   0.032   3.886   9.547 -0.0468  0.2106  0.1507
  389MPD2     C 5810   3.436   1.730  10.977 -0.4602  0.1113 -0.5647
  389MPD2    C1 5811   3.312   1.722  10.907  0.4773 -0.5817  0.0107
  389MPD2    C2 5812   3.205   1.649  10.962 -0.2781 -0.3776 -0.0231
  389MPD2    C3 5813   3.212   1.602  11.087  0.7265  0.2798 -1.1520
  389MPD2    C4 5814   3.336   1.596  11.148  0.0916 -0.4966  0.5686
  389MPD2    C5 5815   3.444   1.662  11.095 -0.1604  0.3038 -0.1023
  389MPD2     H 5816   3.115   1.635  10.903  0.3648  2.8404 -1.7697
  389MPD2    H1 5817   3.342   1.551  11.247  0.5741 -0.0806  0.7277
  389MPD2    H2 5818   3.524   1.779  10.938  0.5010  0.7886  2.4722
  389MPD2    H3 5819   3.542   1.651  11.141  0.4763  0.7968 -1.3636
  389MPD2     N 5820   3.107   1.526  11.151 -0.0833 -0.8515 -0.5729
  389MPD2    H5 5821   3.115   1.498  11.248  2.0164  0.8405 -0.2629
  389MPD2    N1 5822   3.309   1.779  10.776 -1.0224 -0.5683  0.5345
  389MPD2    H7 5823   3.397   1.819  10.745 -0.7959 -0.8914  0.7690
  390TMC3    C1 5824   2.914   1.382  11.165 -0.3133  0.2353  0.0295
  390TMC3    C2 5825   2.943   1.361  11.298  0.3912 -0.0873 -0.6372
  390TMC3    C3 5826   2.841   1.324  11.380 -0.4779  0.3416 -0.4238
  390TMC3    C4 5827   2.795   1.339  11.109  0.4021 -0.1916 -0.4256
  390TMC3    C5 5828   2.695   1.315  11.197 -0.1045 -0.0201  0.1808
  390TMC3    C6 5829   2.712   1.321  11.333  0.1006  0.0610 -0.1883
  390TMC3     C 5830   3.011   1.458  11.083  0.6918 -0.5765 -0.1587
  390TMC3     O 5831   2.991   1.467  10.959  0.3691 -0.4068 -0.3360
  390TMC3     H 5832   3.035   1.383  11.350 -0.0164  0.3937 -0.1177
  390TMC3    H1 5833   2.781   1.331  11.002 -0.4965 -1.5396 -0.2098
  390TMC3    H2 5834   2.625   1.302  11.394 -1.4856  2.0826 -1.8145
  390TMC3    C7 5835   2.609   1.210  11.144  0.0790 -0.3845  0.4556
  390TMC3    C8 5836   2.865   1.209  11.464  0.1281 -0.2987  0.3423
  390TMC3    O1 5837   2.624   1.166  11.034 -0.2277  0.6847  0.1960
  390TMC3    O2 5838   2.922   1.113  11.415  0.1089 -0.0599 -0.3469
  391MPD2     C 5839   3.169   2.854  11.137 -0.6946  0.5610 -0.1540
  391MPD2    C1 5840   3.265   2.942  11.084  0.7050 -0.4141 -0.1088
  391MPD2    C2 5841   3.259   2.975  10.948 -0.0457 -0.1847 -0.1943
  391MPD2    C3 5842   3.154   2.924  10.873  0.5564  0.9660  0.4589
  391MPD2    C4 5843   3.074   2.818  10.919 -1.0268  0.2805  0.3402
  391MPD2    C5 5844   3.087   2.784  11.051 -0.1968  0.1456  0.5189
  391MPD2     H 5845   3.314   3.061  10.912  1.3689 -0.0498  2.2989
  391MPD2    H1 5846   3.010   2.751  10.862 -0.5512 -0.6095  0.8558
  391MPD2    H2 5847   3.171   2.829  11.242  1.7652  1.3988 -0.0145
  391MPD2    H3 5848   3.020   2.708  11.089 -0.3978 -0.5066 -1.1112
  391MPD2     N 5849   3.145   2.959  10.739  0.5524 -0.0348  0.0997
  391MPD2    H5 5850   3.223   3.010  10.700  1.1332 -0.0943  1.1774
  391MPD2    N1 5851   3.350   3.005  11.180 -0.5169 -0.0329  0.4550
  391MPD2    H7 5852   3.337   2.978  11.277 -0.3761  1.8398  0.9981
  392TMC3    C1 5853   3.055   2.963  10.528  0.2102 -0.0023  0.8304
  392TMC3    C2 5854   2.952   2.954  10.446 -0.3125  0.2909  0.6840
  392TMC3    C3 5855   2.950   3.036  10.339 -0.1703  0.2819 -0.2702
  392TMC3    C4 5856   3.168   3.029  10.490 -0.2361 -0.0206 -0.0496
  392TMC3    C5 5857   3.164   3.110  10.377  0.7222 -0.5784  0.0087
  392TMC3    C6 5858   3.046   3.123  10.310  0.1554  0.1827  1.2306
  392TMC3     C 5859   3.033   2.929  10.663  0.0178  0.4765 -0.4481
  392TMC3     O 5860   2.939   2.855  10.690  0.1108 -0.0457 -0.9462
  392TMC3     H 5861   2.879   2.877  10.466 -0.9303  0.5361 -0.5792
  392TMC3    H1 5862   3.263   3.025  10.542  0.0459  1.1262 -0.4654
  392TMC3    H2 5863   3.036   3.210  10.246  1.8619  1.1349  2.2484
  392TMC3    C7 5864   3.230   3.233  10.393 -0.0300  0.0318 -0.0564
  392TMC3    C8 5865   2.851   3.005  10.238 -0.0281  0.4833 -0.3972
  392TMC3    O1 5866   3.266   3.258  10.506 -0.2603  0.7633  0.0625
  392TMC3    O2 5867   2.746   2.947  10.267 -0.2002 -0.5959  0.4206
  393TMC3    C1 5868   1.893   1.078  10.249 -0.1051  0.8319 -0.1949
  393TMC3    C2 5869   1.801   1.054  10.344 -0.0226 -0.5392 -0.4475
  393TMC3    C3 5870   1.821   0.949  10.433 -0.1278  0.3095  0.2446
  393TMC3    C4 5871   2.000   0.994  10.225 -0.3655  0.3815  0.2698
  393TMC3    C5 5872   2.004   0.887  10.303  0.6291  0.2196  0.6599
  393TMC3    C6 5873   1.928   0.865  10.412 -0.5438  0.5571  0.7023
  393TMC3     C 5874   1.847   1.137  10.126  0.1999 -0.0845 -0.0693
  393TMC3     O 5875   1.928   1.192  10.055  0.0763  0.1748 -0.0642
  393TMC3     H 5876   1.723   1.127  10.366 -0.8377 -2.0241  1.4771
  393TMC3    H1 5877   2.050   0.991  10.129 -0.4920 -2.0122  0.2961
  393TMC3    H2 5878   1.938   0.774  10.469  0.6634  0.7745  0.8513
  393TMC3    C7 5879   2.092   0.775  10.261 -0.4913 -0.1777  0.0494
  393TMC3    C8 5880   1.702   0.903  10.491 -0.4634 -0.2420 -0.6931
  393TMC3    O1 5881   2.046   0.660  10.267 -0.6570  0.3767  1.0830
  393TMC3    O2 5882   1.596   0.941  10.440  0.2129 -0.1333 -0.5872
  394TMC3    C1 5883   3.220   1.833  10.561  0.1321 -0.2238 -0.2033
  394TMC3    C2 5884   3.111   1.824  10.478  0.4566  0.0265 -0.5266
  394TMC3    C3 5885   3.140   1.822  10.345 -0.3421  0.0373 -0.8681
  394TMC3    C4 5886   3.351   1.835  10.515 -0.1609  0.0570 -1.0560
  394TMC3    C5 5887   3.366   1.848  10.380  0.2707  0.2842 -0.1182
  394TMC3    C6 5888   3.263   1.835  10.295 -0.1196  0.4669 -0.1066
  394TMC3     C 5889   3.197   1.778  10.693 -0.5314 -0.2009 -0.3054
  394TMC3     O 5890   3.082   1.754  10.726 -0.4061  0.3513 -0.1137
  394TMC3     H 5891   3.012   1.800  10.516 -0.5709  0.4208 -2.9642
  394TMC3    H1 5892   3.436   1.864  10.576 -0.2453 -0.8146 -0.5148
  394TMC3    H2 5893   3.270   1.855  10.189 -1.3061  1.6349  0.0357
  394TMC3    C7 5894   3.497   1.844  10.332  0.2151  0.1152  0.4258
  394TMC3    C8 5895   3.034   1.760  10.265  0.0661  0.0807 -0.5003
  394TMC3    O1 5896   3.517   1.881  10.217 -1.3831  0.7363 -0.3722
  394TMC3    O2 5897   2.918   1.789  10.293  0.1538  0.0525 -0.3689
  395TMC3    C1 5898   2.461   2.956  14.277 -0.8206 -0.1627 -0.0594
  395TMC3    C2 5899   2.382   2.899  14.371 -0.4861 -0.1746  0.4321
  395TMC3    C3 5900   2.403   2.929  14.503  0.3610  0.2368 -0.3508
  395TMC3    C4 5901   2.541   3.062  14.309  0.6221  0.4502 -0.3136
  395TMC3    C5 5902   2.550   3.091  14.442  0.7092  0.6565 -0.1277
  395TMC3    C6 5903   2.474   3.035  14.547  1.1029  0.0439  0.2597
  395TMC3     C 5904   2.451   2.911  14.135  0.5600  0.0054 -0.1147
  395TMC3     O 5905   2.338   2.891  14.096  0.2840  0.0462 -0.0046
  395TMC3     H 5906   2.306   2.835  14.328  0.2926 -1.1286  0.4926
  395TMC3    H1 5907   2.599   3.121  14.239  0.1127 -0.6691 -1.6703
  395TMC3    H2 5908   2.487   3.045  14.654 -1.6552  0.5891  0.5468
  395TMC3    C7 5909   2.660   3.172  14.484  0.4487  0.0941 -0.1035
  395TMC3    C8 5910   2.321   2.867  14.599 -0.0415  0.1785 -0.1494
  395TMC3    O1 5911   2.642   3.233  14.586 -0.1265  0.2685  0.4230
  395TMC3    O2 5912   2.301   2.922  14.707  0.2698  0.5282  0.1923
  396MPD2     C 5913   2.491   4.070  17.255 -0.1754 -0.8108  0.0180
  396MPD2    C1 5914   2.620   4.107  17.292  0.0487  0.3240  0.2290
  396MPD2    C2 5915   2.699   4.176  17.203  0.6560 -0.2628 -0.0912
  396MPD2    C3 5916   2.637   4.219  17.087  0.9409 -0.2214 -0.7144
  396MPD2    C4 5917   2.501   4.200  17.063  0.2659  0.8469  0.5343
  396MPD2    C5 5918   2.428   4.125  17.154 -0.3191  0.5746 -0.6300
  396MPD2     H 5919   2.800   4.202  17.231  0.9103 -1.2464 -0.1101
  396MPD2    H1 5920   2.455   4.240  16.973  0.1332 -0.0670  0.1960
  396MPD2    H2 5921   2.436   4.004  17.321  0.5802 -2.8194 -1.3611
  396MPD2    H3 5922   2.325   4.092  17.143 -0.0474  0.3714 -2.5202
  396MPD2     N 5923   2.728   4.284  16.996  0.3676 -0.3161  0.1725
  396MPD2    H5 5924   2.817   4.306  17.038 -0.8006  1.8320  1.5388
  396MPD2    N1 5925   2.672   4.040  17.403  0.3728 -0.5879  0.1473
  396MPD2    H7 5926   2.618   3.958  17.427  0.6022 -1.2749 -1.7169
  397TMC3    C1 5927   2.856   3.944  17.500 -0.4261  0.4337  0.0241
  397TMC3    C2 5928   2.934   3.908  17.392 -0.5740 -0.2481  0.5692
  397TMC3    C3 5929   2.900   3.810  17.305 -0.0521 -0.4969 -0.9570
  397TMC3    C4 5930   2.750   3.849  17.529  0.4569  0.1960  0.6197
  397TMC3    C5 5931   2.730   3.736  17.447  0.8313 -0.1903 -0.4827
  397TMC3    C6 5932   2.809   3.713  17.339  0.1395  0.1620 -1.3655
  397TMC3     C 5933   2.787   4.066  17.472  0.0668  0.9272  0.5415
  397TMC3     O 5934   2.849   4.168  17.456 -0.6864  0.5909  0.2513
  397TMC3     H 5935   2.986   3.999  17.367  0.3077 -1.0090 -0.3794
  397TMC3    H1 5936   2.675   3.878  17.601  1.2091  0.1156  1.4398
  397TMC3    H2 5937   2.790   3.630  17.272 -1.4835 -1.1028  0.6420
  397TMC3    C7 5938   2.613   3.646  17.486  0.2244 -0.0689  0.1079
  397TMC3    C8 5939   2.910   3.844  17.164 -0.7178  0.5037  0.1792
  397TMC3    O1 5940   2.577   3.573  17.395  0.4674 -0.4034 -0.2077
  397TMC3    O2 5941   2.834   3.794  17.082 -0.4238  0.3552 -0.0314
  398MPD2     C 5942   0.520   0.130  17.483  0.0438  0.8819  0.1759
  398MPD2    C1 5943   0.563   0.065  17.599 -0.0022  0.5086  0.4708
  398MPD2    C2 5944   0.599   0.139   0.009  0.3002  0.4049 -0.1887
  398MPD2    C3 5945   0.577   0.275   0.012 -0.2159 -0.5358  0.6277
  398MPD2    C4 5946   0.528   0.338  17.596  0.3736  0.0740 -0.1255
  398MPD2    C5 5947   0.501   0.262  17.488 -0.0827  0.1485  0.6560
  398MPD2     H 5948   0.655   0.097   0.092 -2.1588 -0.7184  0.8869
  398MPD2    H1 5949   0.492   0.440  17.603 -0.7727 -0.4450  1.5963
  398MPD2    H2 5950   0.487   0.069  17.400  0.4807  0.2378  0.4686
  398MPD2    H3 5951   0.450   0.310  17.406 -1.1836 -0.3322  1.0639
  398MPD2     N 5952   0.593   0.339   0.131 -0.4346 -0.2996  1.0741
  398MPD2    H5 5953   0.603   0.279   0.213 -2.3647 -0.6712  1.0368
  398MPD2    N1 5954   0.599   4.653  17.604 -0.3581 -0.4628  0.6838
  398MPD2    H7 5955   0.652   4.630  17.687 -0.9463  2.3295  1.8675
  399TMC3    C1 5956   0.633   4.437  17.547  0.0095 -0.5763 -0.1131
  399TMC3    C2 5957   0.757   4.428  17.608 -0.3700 -0.0842  1.0051
  399TMC3    C3 5958   0.803   4.309  17.661  0.1049  0.5120  0.2929
  399TMC3    C4 5959   0.551   4.327  17.554 -0.1047  0.1411  0.0603
  399TMC3    C5 5960   0.594   4.211  17.607 -0.5195  0.3052  0.4236
  399TMC3    C6 5961   0.720   4.198  17.660  0.0024  0.0861  0.4258
  399TMC3     C 5962   0.564   4.557  17.516  1.0137 -0.1988 -0.1344
  399TMC3     O 5963   0.479   4.555  17.427  0.1359  0.0884 -0.1482
  399TMC3     H 5964   0.832   4.505  17.591  1.7007 -2.2023  0.5661
  399TMC3    H1 5965   0.447   4.334  17.525  0.6090  1.1351 -2.2372
  399TMC3    H2 5966   0.754   4.101  17.693 -1.8578 -1.6100 -2.6827
  399TMC3    C7 5967   0.532   4.084  17.589 -0.0347 -0.5026  0.6116
  399TMC3    C8 5968   0.950   4.289  17.663  0.0179  0.5218 -0.4359
  399TMC3    O1 5969   0.580   3.986  17.643  0.6155  0.2932  0.4386
  399TMC3    O2 5970   1.016   4.386  17.623 -0.6535  0.0098 -0.2674
  400TMC3    C1 5971   3.831   3.448  16.879  0.4166  0.4195  0.3226
  400TMC3    C2 5972   3.717   3.375  16.888  0.4635 -0.3365 -0.4527
  400TMC3    C3 5973   3.629   3.383  16.785 -0.0844  0.6712  0.3950
  400TMC3    C4 5974   3.861   3.524  16.768 -0.5980 -0.0860  0.6800
  400TMC3    C5 5975   3.766   3.532  16.671 -0.5935 -0.4245  0.0209
  400TMC3    C6 5976   3.643   3.463  16.678 -0.2544  0.0199 -0.9492
  400TMC3     C 5977   3.942   3.377  16.943  0.5130 -0.0279 -0.1601
  400TMC3     O 5978   3.909   3.264  16.982 -0.2893  0.5665  0.4339
  400TMC3     H 5979   3.688   3.317  16.975 -0.4558  2.2111  0.9553
  400TMC3    H1 5980   3.966   3.550  16.756 -0.7191  1.1641  2.2695
  400TMC3    H2 5981   3.563   3.486  16.608 -0.7650  1.5782  0.1581
  400TMC3    C7 5982   3.779   3.655  16.599  0.1007  0.5235  0.1731
  400TMC3    C8 5983   3.501   3.330  16.817  0.1808  0.9649 -0.4241
  400TMC3    O1 5984   3.704   3.660  16.505  0.5413 -0.2101  0.0612
  400TMC3    O2 5985   3.470   3.328  16.933 -0.0821 -0.1617  0.1433
  401MPD2     C 5986   2.134   1.325   0.056 -0.2753  0.4672  0.4043
  401MPD2    C1 5987   2.115   1.292   0.188 -0.0311 -0.0994  0.1794
  401MPD2    C2 5988   2.213   1.243   0.269 -0.3000  0.0135  0.3300
  401MPD2    C3 5989   2.340   1.214   0.217 -1.0414 -0.1787 -0.7466
  401MPD2    C4 5990   2.365   1.257   0.089  0.2295 -0.5789  0.0907
  401MPD2    C5 5991   2.263   1.306   0.016 -0.4232  0.2908 -0.0732
  401MPD2     H 5992   2.191   1.224   0.374  0.0632 -0.0047  0.4027
  401MPD2    H1 5993   2.468   1.255   0.054 -0.9973 -1.8855 -3.4179
  401MPD2    H2 5994   2.059   1.360  17.681 -0.4505 -0.8755 -0.0607
  401MPD2    H3 5995   2.290   1.320  17.608 -0.3857  1.6491  0.1194
  401MPD2     N 5996   2.454   1.180   0.301  0.0137  0.4411 -0.2763
  401MPD2    H5 5997   2.544   1.165   0.257 -1.9359 -0.4223 -4.0564
  401MPD2    N1 5998   1.995   1.311   0.259 -0.7402 -1.3385  0.0460
  401MPD2    H7 5999   2.002   1.299   0.359 -1.5313  2.0267  0.4902
  402TMC3    C1 6000   2.580   1.142   0.490 -0.5061 -0.3134 -0.2855
  402TMC3    C2 6001   2.594   1.159   0.622 -0.2649 -0.0474  0.1768
  402TMC3    C3 6002   2.721   1.147   0.672 -0.6520  0.3802  0.0189
  402TMC3    C4 6003   2.681   1.101   0.405 -0.8242 -0.2111 -0.7066
  402TMC3    C5 6004   2.799   1.076   0.463 -0.1530 -0.1609  0.1064
  402TMC3    C6 6005   2.822   1.100   0.598  1.0221 -0.2206 -0.1981
  402TMC3     C 6006   2.444   1.167   0.439 -0.7630  0.5474  0.4689
  402TMC3     O 6007   2.357   1.187   0.522 -0.3986 -0.6554 -0.6371
  402TMC3     H 6008   2.514   1.197   0.683 -0.8242 -2.5597  0.9854
  402TMC3    H1 6009   2.675   1.067   0.302  0.2423 -1.4881 -0.3446
  402TMC3    H2 6010   2.921   1.110   0.640  0.7856 -1.0826  0.5540
  402TMC3    C7 6011   2.892   0.993   0.393 -0.1848  0.5854 -0.2436
  402TMC3    C8 6012   2.748   1.183   0.809 -0.6174 -0.7779  0.2384
  402TMC3    O1 6013   2.874   0.972   0.273 -0.1127 -0.3872 -0.7899
  402TMC3    O2 6014   2.868   1.185   0.846  0.3735  0.6541 -0.4794
  403MPD2     C 6015   0.980   1.245  13.385 -0.4211  0.2640 -0.0134
  403MPD2    C1 6016   0.998   1.114  13.418  0.4672  0.7580 -0.0371
  403MPD2    C2 6017   1.105   1.089  13.509 -0.1127 -0.3301 -0.1593
  403MPD2    C3 6018   1.169   1.192  13.577  0.3238  0.4468 -0.2180
  403MPD2    C4 6019   1.136   1.319  13.548  0.9019  0.1990  0.4092
  403MPD2    C5 6020   1.048   1.349  13.452 -0.1297 -0.2221 -0.2243
  403MPD2     H 6021   1.143   0.989  13.526  1.0162  0.0771 -0.2956
  403MPD2    H1 6022   1.193   1.403  13.588  1.2344  0.4943 -0.6788
  403MPD2    H2 6023   0.903   1.277  13.315 -0.9987 -2.1480 -0.4885
  403MPD2    H3 6024   1.037   1.452  13.420 -2.1741  0.3151  2.2138
  403MPD2     N 6025   1.272   1.158  13.665  1.2016 -0.5587  0.1063
  403MPD2    H5 6026   1.301   1.061  13.669  1.3024 -0.5477 -0.3508
  403MPD2    N1 6027   0.918   1.018  13.350 -0.4939 -0.2585 -0.0832
  403MPD2    H7 6028   0.847   1.050  13.284 -0.0364 -0.7260 -0.8107
  404TMC3    C1 6029   0.819   0.803  13.289  0.4863 -0.5940  0.6076
  404TMC3    C2 6030   0.794   0.675  13.332  0.1784  0.8379  0.1302
  404TMC3    C3 6031   0.778   0.580  13.236  0.0948  0.2367  0.2510
  404TMC3    C4 6032   0.798   0.834  13.157 -0.3282  0.1635  0.0675
  404TMC3    C5 6033   0.756   0.740  13.069  0.1802  0.6175 -0.0837
  404TMC3    C6 6034   0.753   0.607  13.104 -0.8006 -0.5777  0.1117
  404TMC3     C 6035   0.913   0.881  13.375 -0.3269  0.2316 -0.0865
  404TMC3     O 6036   0.990   0.821  13.447 -0.4302 -0.3274  0.2433
  404TMC3     H 6037   0.839   0.651  13.428  0.9493  0.6589 -0.2801
  404TMC3    H1 6038   0.785   0.938  13.130  0.8509  0.6215  1.2956
  404TMC3    H2 6039   0.732   0.526  13.034  0.5752  1.2101 -2.3731
  404TMC3    C7 6040   0.765   0.778  12.933  0.5355  0.5129  0.0201
  404TMC3    C8 6041   0.819   0.447  13.266  0.1261 -0.4544 -0.7655
  404TMC3    O1 6042   0.810   0.886  12.907 -0.1189 -0.5069 -0.2311
  404TMC3    O2 6043   0.862   0.375  13.178  0.1931  0.4368 -0.8485
  405MPD2     C 6044   1.128   1.534  14.422 -0.0956 -0.3180  0.1175
  405MPD2    C1 6045   1.165   1.446  14.322 -0.2059 -1.5854  0.1859
  405MPD2    C2 6046   1.096   1.459  14.204 -0.3820  0.5126  0.5538
  405MPD2    C3 6047   1.002   1.555  14.180 -1.0873  0.2926  0.2155
  405MPD2    C4 6048   0.971   1.644  14.284  0.3226  0.1705  0.3341
  405MPD2    C5 6049   1.029   1.629  14.406  0.2450  0.3770  0.2520
  405MPD2     H 6050   1.120   1.386  14.128 -2.2884 -1.0589  1.4898
  405MPD2    H1 6051   0.896   1.721  14.268 -1.5929 -1.8463 -0.3485
  405MPD2    H2 6052   1.169   1.519  14.522 -1.5613 -1.4105  0.5542
  405MPD2    H3 6053   1.013   1.700  14.486 -0.3125  0.4264  0.1012
  405MPD2     N 6054   0.962   1.572  14.046  0.0316  0.0550  0.3064
  405MPD2    H5 6055   1.007   1.512  13.978 -1.2835 -2.4530  1.6625
  405MPD2    N1 6056   1.262   1.344  14.346  0.0271  0.1222 -0.5200
  405MPD2    H7 6057   1.294   1.332  14.441 -1.2235 -2.2996 -0.4059
  406TMC3    C1 6058   0.573   1.531  13.799  0.1635  0.0762  1.2397
  406TMC3    C2 6059   0.619   1.431  13.726 -0.5362  0.3164 -0.1580
  406TMC3    C3 6060   0.755   1.402  13.748  0.1237 -0.4641  0.8684
  406TMC3    C4 6061   0.651   1.610  13.879  0.0590  0.2108 -0.1238
  406TMC3    C5 6062   0.785   1.580  13.898 -1.0560  0.2700 -0.2866
  406TMC3    C6 6063   0.844   1.477  13.826 -0.0366  0.3345  0.0788
  406TMC3     C 6064   0.442   1.570  13.790  0.1434  0.3082 -0.4740
  406TMC3     O 6065   0.383   1.584  13.685 -0.0142 -0.3935  0.0537
  406TMC3     H 6066   0.549   1.359  13.685  1.1611 -1.0798 -0.6185
  406TMC3    H1 6067   0.608   1.701  13.917  0.0226  0.6939 -1.3174
  406TMC3    H2 6068   0.951   1.456  13.826 -0.0974  0.0314 -1.8309
  406TMC3    C7 6069   0.856   1.650  14.008 -0.1132 -0.0589 -0.9408
  406TMC3    C8 6070   0.794   1.272  13.714  0.1234  0.8010  0.3342
  406TMC3    O1 6071   0.791   1.736  14.065  0.8363 -0.5029 -0.0861
  406TMC3    O2 6072   0.705   1.205  13.668 -0.3803  0.2795 -0.2093
  407MPD2     C 6073   3.832   2.926   9.144  0.0594 -0.4495  0.6714
  407MPD2    C1 6074   3.957   2.921   9.199  0.7592  1.6392  0.0690
  407MPD2    C2 6075   3.981   2.966   9.328 -0.1476 -0.3492 -0.1416
  407MPD2    C3 6076   3.877   3.023   9.408  0.1917 -0.1456  0.0487
  407MPD2    C4 6077   3.750   3.029   9.350 -0.5790  0.3220 -0.3806
  407MPD2    C5 6078   3.733   2.983   9.217  0.1953 -0.0845 -0.8095
  407MPD2     H 6079   4.079   2.962   9.375 -0.5996 -2.0327  0.6414
  407MPD2    H1 6080   3.665   3.071   9.402 -0.1955  0.7930 -0.1285
  407MPD2    H2 6081   3.799   2.882   9.050  3.5135  0.2082 -0.8600
  407MPD2    H3 6082   3.637   2.999   9.170 -0.1741  0.9097  0.2826
  407MPD2     N 6083   3.884   3.066   9.542 -0.5507 -0.2105  0.4503
  407MPD2    H5 6084   3.793   3.090   9.580 -0.9894  0.5100 -1.0578
  407MPD2    N1 6085   4.061   2.871   9.124  0.2678 -0.5842  1.2260
  407MPD2    H7 6086   4.153   2.872   9.165 -0.1125  2.1565  1.9653
  408TMC3    C1 6087   4.188   2.829   8.932  0.3573  1.0923  0.3978
  408TMC3    C2 6088   4.248   2.722   8.993 -0.3008  0.8136  0.0542
  408TMC3    C3 6089   4.373   2.687   8.957 -0.0506 -0.9263  0.1137
  408TMC3    C4 6090   4.250   2.909   8.849  1.0101  0.5399  0.0305
  408TMC3    C5 6091   4.371   2.869   8.802  0.0357  0.3543 -0.3993
  408TMC3    C6 6092   4.433   2.764   8.863  0.4621  0.0165 -0.8253
  408TMC3     C 6093   4.063   2.872   8.985  0.1367  0.6151  0.5110
  408TMC3     O 6094   3.977   2.909   8.900 -0.0902 -0.5841  0.3549
  408TMC3     H 6095   4.194   2.667   9.069  1.6475 -0.5538  0.4529
  408TMC3    H1 6096   4.202   2.991   8.797 -1.1020 -0.6081  0.1861
  408TMC3    H2 6097   4.535   2.745   8.831  0.4822 -0.4547 -0.4857
  408TMC3    C7 6098   4.466   2.974   8.802  0.1825 -0.5223 -0.6785
  408TMC3    C8 6099   4.448   2.665   9.079 -0.7232  0.2088  0.5485
  408TMC3    O1 6100   4.544   2.960   8.890  0.0805  0.8343 -0.4408
  408TMC3    O2 6101   4.403   2.588   9.165 -0.6041 -0.4589 -0.6436
  409MPD2     C 6102   2.841   3.195  16.976  0.0281  0.0737 -0.1005
  409MPD2    C1 6103   2.956   3.209  17.048 -0.3039 -0.4120  0.3633
  409MPD2    C2 6104   3.032   3.322  17.027  0.0901  0.1801  0.0601
  409MPD2    C3 6105   3.003   3.416  16.938 -1.0003 -0.5058 -0.3878
  409MPD2    C4 6106   2.885   3.404  16.865 -0.2969  0.2244  0.4826
  409MPD2    C5 6107   2.805   3.294  16.891 -0.5087  0.8343 -0.0845
  409MPD2     H 6108   3.125   3.319  17.082 -0.0751 -0.6975  0.2980
  409MPD2    H1 6109   2.846   3.471  16.790  2.1952 -0.2604 -1.2154
  409MPD2    H2 6110   2.772   3.112  16.974 -0.6851  0.6711 -0.0318
  409MPD2    H3 6111   2.714   3.286  16.832  1.4620 -1.2456 -2.8016
  409MPD2     N 6112   3.084   3.528  16.904  0.1197  0.3950 -0.3279
  409MPD2    H5 6113   3.049   3.588  16.830  1.3825  0.8988 -0.5272
  409MPD2    N1 6114   2.995   3.124  17.150 -0.0591 -0.0322  0.3085
  409MPD2    H7 6115   3.079   3.145  17.203  0.4087  2.2615 -1.3342
  410TMC3    C1 6116   3.280   3.677  16.912  0.2036  0.0389  0.3527
  410TMC3    C2 6117   3.383   3.721  16.995  0.1778 -1.0195 -0.0113
  410TMC3    C3 6118   3.480   3.789  16.938 -0.4753 -0.3109  0.4844
  410TMC3    C4 6119   3.268   3.711  16.777  0.4943 -0.1678 -0.1696
  410TMC3    C5 6120   3.374   3.778  16.719 -0.5463  0.1941  0.9452
  410TMC3    C6 6121   3.475   3.811  16.802 -0.1531 -0.5749  0.2976
  410TMC3     C 6122   3.194   3.575  16.976  0.3020 -0.0985  0.3969
  410TMC3     O 6123   3.237   3.541  17.088 -0.1983  0.7731  1.2386
  410TMC3     H 6124   3.381   3.706  17.102 -1.3941 -0.6307  0.0197
  410TMC3    H1 6125   3.190   3.676  16.710  1.0651 -0.5769 -0.6267
  410TMC3    H2 6126   3.562   3.857  16.758  1.3542 -3.4069  0.3289
  410TMC3    C7 6127   3.382   3.803  16.576 -0.4119  0.3559 -0.0603
  410TMC3    C8 6128   3.608   3.755  16.986  0.2280  0.0979  0.7519
  410TMC3    O1 6129   3.315   3.718  16.516  0.5007  0.8423  0.4754
  410TMC3    O2 6130   3.711   3.809  16.942 -0.9306 -0.1016  0.0017
  411MPD2     C 6131   3.353   4.198  14.422 -0.6238 -0.1177 -0.1299
  411MPD2    C1 6132   3.216   4.214  14.408 -0.0784  0.2923  0.4038
  411MPD2    C2 6133   3.129   4.109  14.427  0.4860 -0.2113 -0.1113
  411MPD2    C3 6134   3.189   3.987  14.467 -0.1700  0.6969  0.3265
  411MPD2    C4 6135   3.328   3.972  14.461  0.4510 -0.7151 -0.9372
  411MPD2    C5 6136   3.410   4.075  14.448  0.1710 -0.3370  0.0281
  411MPD2     H 6137   3.021   4.118  14.418  0.7087  0.5268 -2.1131
  411MPD2    H1 6138   3.378   3.878  14.479 -0.7688 -0.9992  0.9267
  411MPD2    H2 6139   3.407   4.289  14.397 -2.4537  1.0647  0.2236
  411MPD2    H3 6140   3.518   4.062  14.447 -0.0841 -2.2202 -0.9543
  411MPD2     N 6141   3.112   3.872  14.487 -0.1323  0.0868 -0.3468
  411MPD2    H5 6142   3.159   3.782  14.490 -0.9321 -0.4594 -4.5885
  411MPD2    N1 6143   3.175   4.344  14.379  0.2163  0.0265  0.2090
  411MPD2    H7 6144   3.243   4.420  14.384 -0.0474  0.0352  3.4004
  412TMC3    C1 6145   2.946   3.721  14.474 -0.8228  0.1933 -0.2757
  412TMC3    C2 6146   2.827   3.687  14.537 -0.3834  0.0802 -0.3203
  412TMC3    C3 6147   2.741   3.613  14.458 -0.3685  0.2314 -0.0753
  412TMC3    C4 6148   2.983   3.688  14.352  0.1443  0.1860  0.1416
  412TMC3    C5 6149   2.894   3.612  14.280  0.4619  0.3434 -0.3951
  412TMC3    C6 6150   2.772   3.582  14.332  0.8846  0.5068  0.2611
  412TMC3     C 6151   2.976   3.858  14.502  0.4228  0.5041 -0.3961
  412TMC3     O 6152   2.888   3.942  14.500  0.1387 -0.9562  0.0390
  412TMC3     H 6153   2.806   3.735  14.632  0.2439 -0.1768 -0.0583
  412TMC3    H1 6154   3.074   3.719  14.302 -1.4065  2.7677 -1.0621
  412TMC3    H2 6155   2.703   3.523  14.273  0.5193  0.8281  0.3665
  412TMC3    C7 6156   2.864   3.683  14.161  0.3819 -0.4648  0.1847
  412TMC3    C8 6157   2.607   3.666  14.464 -0.1024 -0.2279  0.2393
  412TMC3    O1 6158   2.748   3.709  14.139 -0.0892  0.0701 -0.2754
  412TMC3    O2 6159   2.566   3.711  14.569  0.3818  0.3681  0.0240
  413MPD2     C 6160   0.242   2.741  15.247  1.0142  0.3400  0.0408
  413MPD2    C1 6161   0.174   2.675  15.147  0.7815 -0.6966 -0.6880
  413MPD2    C2 6162   0.231   2.562  15.084  0.6832  0.4077  0.1769
  413MPD2    C3 6163   0.349   2.508  15.132 -0.4295  0.0438  0.1875
  413MPD2    C4 6164   0.419   2.582  15.228 -0.1340 -0.2961 -0.1323
  413MPD2    C5 6165   0.365   2.692  15.284  0.6660 -0.1622 -0.1813
  413MPD2     H 6166   0.176   2.494  15.020  1.4950 -0.6026  0.5383
  413MPD2    H1 6167   0.511   2.537  15.264 -0.6437 -1.6790 -0.5554
  413MPD2    H2 6168   0.191   2.818  15.304  0.9882  0.3086  0.0599
  413MPD2    H3 6169   0.421   2.751  15.355  1.8860 -0.2645 -1.0640
  413MPD2     N 6170   0.397   2.382  15.080 -0.0770 -0.1318 -0.7028
  413MPD2    H5 6171   0.347   2.341  15.002  0.1673  0.8424 -1.3778
  413MPD2    N1 6172   0.038   2.713  15.120  0.4717  0.3985  0.3252
  413MPD2    H7 6173   0.009   2.799  15.164 -3.0222 -0.6205  0.0081
  414TMC3    C1 6174   0.543   2.219  15.033 -0.6593 -0.0521 -0.6053
  414TMC3    C2 6175   0.585   2.100  15.086  0.2177  0.4011  0.4814
  414TMC3    C3 6176   0.610   1.993  15.004  0.5058  0.0392  0.3071
  414TMC3    C4 6177   0.545   2.240  14.901 -0.1213 -0.8310 -0.5481
  414TMC3    C5 6178   0.600   2.147  14.819 -0.7248 -0.3150  0.0371
  414TMC3    C6 6179   0.628   2.016  14.869  0.4220 -1.4188  0.1065
  414TMC3     C 6180   0.502   2.314  15.133  0.3348 -0.1945 -0.2760
  414TMC3     O 6181   0.567   2.318  15.237  0.6414 -0.2039 -0.1502
  414TMC3     H 6182   0.583   2.086  15.193 -0.5432  0.8653  0.5254
  414TMC3    H1 6183   0.522   2.339  14.861 -1.3328 -0.8304  0.1413
  414TMC3    H2 6184   0.652   1.934  14.803 -0.0718  0.2070 -2.0955
  414TMC3    C7 6185   0.673   2.185  14.699 -0.1372 -0.2920  0.4123
  414TMC3    C8 6186   0.694   1.881  15.042 -0.3556  1.0220  0.4500
  414TMC3    O1 6187   0.681   2.301  14.670  0.4825  0.0596  0.4517
  414TMC3    O2 6188   0.707   1.791  14.962  0.2684 -0.4486  0.0834
  415TMC3    C1 6189   0.987   0.710  10.357 -0.0138 -0.5490 -0.1672
  415TMC3    C2 6190   1.021   0.780  10.244  0.1191 -0.1272  0.8639
  415TMC3    C3 6191   0.921   0.853  10.185 -0.1663  0.6072  0.0633
  415TMC3    C4 6192   0.859   0.697  10.399  0.1708 -0.2101  0.1553
  415TMC3    C5 6193   0.758   0.769  10.334 -0.4987  1.0017  0.2884
  415TMC3    C6 6194   0.793   0.856  10.229 -0.5938 -0.4200  0.5659
  415TMC3     C 6195   1.087   0.637  10.429 -0.3979  0.0993 -0.8184
  415TMC3     O 6196   1.042   0.567  10.519  0.0235  0.1664 -0.1307
  415TMC3     H 6197   1.120   0.804  10.209  0.1265  0.3467  1.2011
  415TMC3    H1 6198   0.835   0.628  10.479  0.3932 -0.2628  0.1779
  415TMC3    H2 6199   0.722   0.925  10.185 -1.0368 -0.1957  1.6368
  415TMC3    C7 6200   0.632   0.709  10.304  0.5539 -0.8091 -0.1183
  415TMC3    C8 6201   0.957   0.948  10.086 -0.7076  0.3810 -0.7346
  415TMC3    O1 6202   0.589   0.732  10.191 -0.5562 -0.3389  0.1099
  415TMC3    O2 6203   0.895   1.053  10.088 -0.2504  0.2794 -0.2685
  416MPD2     C 6204   3.000   4.231  11.494 -0.2099  0.3748  0.0737
  416MPD2    C1 6205   2.878   4.176  11.453  0.6454  0.5085 -0.2640
  416MPD2    C2 6206   2.889   4.071  11.357 -0.2362  0.0158 -0.1924
  416MPD2    C3 6207   3.008   4.012  11.324 -0.4635 -0.5188 -0.0338
  416MPD2    C4 6208   3.123   4.068  11.366 -0.7898  0.3833 -0.6007
  416MPD2    C5 6209   3.117   4.180  11.445 -0.0133  0.2826 -0.3623
  416MPD2     H 6210   2.798   4.028  11.318  0.9520 -2.3197 -0.3869
  416MPD2    H1 6211   3.215   4.019  11.340  1.2216  3.5291  0.5615
  416MPD2    H2 6212   3.007   4.321  11.555 -0.4155 -0.6361  1.5716
  416MPD2    H3 6213   3.211   4.226  11.474 -1.5377  1.8599  2.1113
  416MPD2     N 6214   3.013   3.888  11.260 -0.4153 -0.4481  0.3435
  416MPD2    H5 6215   3.107   3.854  11.246  0.0224  1.4610 -1.2563
  416MPD2    N1 6216   2.763   4.218  11.515  0.0846 -0.0589  0.4652
  416MPD2    H7 6217   2.777   4.278  11.596  0.6523 -0.6532  0.7984
  417TMC3    C1 6218   2.544   4.286  11.545  0.3146 -0.3348 -0.2455
  417TMC3    C2 6219   2.552   4.300  11.679 -0.5830  0.2821  0.1251
  417TMC3    C3 6220   2.438   4.360  11.738 -0.4859  0.0107  0.3884
  417TMC3    C4 6221   2.430   4.329  11.470  1.2241 -0.4218  0.0092
  417TMC3    C5 6222   2.330   4.396  11.534 -0.3741  0.7869 -0.3167
  417TMC3    C6 6223   2.336   4.417  11.670 -0.4318 -0.0671 -0.3924
  417TMC3     C 6224   2.637   4.199  11.476 -0.8035  0.1051 -0.0041
  417TMC3     O 6225   2.599   4.160  11.366  0.5419  0.4737  0.3986
  417TMC3     H 6226   2.638   4.256  11.728  0.4244 -0.1195 -1.9933
  417TMC3    H1 6227   2.428   4.304  11.365 -2.0226 -1.3086  0.3033
  417TMC3    H2 6228   2.261   4.472  11.726 -0.3099  1.1987 -1.4656
  417TMC3    C7 6229   2.253   4.491  11.452  0.5208 -0.0723 -0.3857
  417TMC3    C8 6230   2.453   4.394  11.880  0.2701  0.7836  0.2062
  417TMC3    O1 6231   2.288   4.491  11.332 -0.0610  0.5264  0.0834
  417TMC3    O2 6232   2.349   4.419  11.945  0.5430  0.6145 -0.0046
  418TMC3    C1 6233   0.776   0.548   0.452 -0.7796  0.0045 -0.5950
  418TMC3    C2 6234   0.730   0.570   0.326  0.2130  0.0394  0.7666
  418TMC3    C3 6235   0.617   0.504   0.285 -0.5856  0.1973  0.3279
  418TMC3    C4 6236   0.709   0.455   0.539  0.1922 -0.6035  0.1682
  418TMC3    C5 6237   0.583   0.405   0.497 -0.2812 -0.0045 -0.2500
  418TMC3    C6 6238   0.541   0.422   0.364  0.4784 -0.1785 -0.7422
  418TMC3     C 6239   0.908   0.600   0.474  0.1196  0.1969  0.2761
  418TMC3     O 6240   0.954   0.681   0.395 -0.3987 -0.3082  0.1098
  418TMC3     H 6241   0.783   0.629   0.253  0.5008 -1.8220 -0.5303
  418TMC3    H1 6242   0.748   0.448   0.640  0.2079 -3.2425 -0.0234
  418TMC3    H2 6243   0.443   0.382   0.337  0.4081 -2.1782  2.4732
  418TMC3    C7 6244   0.533   0.277   0.550 -0.4961 -0.4510  0.5353
  418TMC3    C8 6245   0.605   0.477   0.149  0.8783 -0.3499  0.1423
  418TMC3    O1 6246   0.513   0.195   0.462  0.1373 -0.5153  1.3716
  418TMC3    O2 6247   0.627   0.563   0.064  0.4101 -0.1319 -0.2578
  419MPD2     C 6248   4.647   3.964  12.625  0.3690  0.3242  0.3302
  419MPD2    C1 6249   4.566   4.037  12.546 -0.6566 -0.5479  0.2156
  419MPD2    C2 6250   4.442   4.068  12.587  0.2643 -0.4995 -0.2823
  419MPD2    C3 6251   4.389   4.025  12.711 -0.3439  0.6328  1.0129
  419MPD2    C4 6252   4.475   3.976  12.799  0.0474 -0.1742 -0.2011
  419MPD2    C5 6253   4.605   3.940  12.757  0.0935 -0.7602 -0.5112
  419MPD2     H 6254   4.377   4.124  12.520 -0.0440 -1.1038 -0.4872
  419MPD2    H1 6255   4.444   3.962  12.902 -2.3352  0.9815 -0.7462
  419MPD2    H2 6256   0.021   3.933  12.591 -0.5479 -0.5131 -1.5179
  419MPD2    H3 6257   4.673   3.899  12.831  1.3701 -0.2288 -1.4054
  419MPD2     N 6258   4.252   4.057  12.732 -0.7957  0.1691 -0.2869
  419MPD2    H5 6259   4.191   4.093  12.660 -0.8771 -0.1540 -0.3764
  419MPD2    N1 6260   4.592   4.084  12.416 -0.0211  0.0966 -0.2929
  419MPD2    H7 6261   4.520   4.133  12.366  0.7513  2.0813  0.5378
  420TMC3    C1 6262   4.044   4.014  12.814 -0.2204 -0.1747  0.5556
  420TMC3    C2 6263   3.987   4.116  12.750  0.0386 -0.0815 -0.0575
  420TMC3    C3 6264   3.854   4.135  12.751  0.6202  0.2000  0.2847
  420TMC3    C4 6265   3.968   3.926  12.887  0.4816  0.3414 -0.3948
  420TMC3    C5 6266   3.836   3.935  12.874  0.0441  0.5899 -0.2769
  420TMC3    C6 6267   3.769   4.036  12.808  0.2653 -0.1322 -0.9423
  420TMC3     C 6268   4.187   4.018  12.843  0.0302 -0.8497  0.8068
  420TMC3     O 6269   4.221   3.962  12.945 -0.1819  0.1776  0.0675
  420TMC3     H 6270   4.049   4.202  12.725  0.0060 -0.6652 -2.1444
  420TMC3    H1 6271   4.011   3.842  12.941 -0.5510  0.3723  0.4844
  420TMC3    H2 6272   3.664   4.051  12.832 -0.0041 -0.6864 -1.7760
  420TMC3    C7 6273   3.772   3.866  12.980 -0.1266  0.1365  0.2006
  420TMC3    C8 6274   3.804   4.262  12.716 -0.2773  0.4767 -0.5163
  420TMC3    O1 6275   3.837   3.822  13.073  0.2070  0.0822  0.0976
  420TMC3    O2 6276   3.880   4.361  12.720 -0.0024 -0.3326  0.1386
  421TMC3    C1 6277   1.462   1.186  13.788 -0.0086  0.5613  0.0909
  421TMC3    C2 6278   1.542   1.258  13.869  0.1733  0.0210  0.3318
  421TMC3    C3 6279   1.667   1.203  13.906 -0.3073 -0.2134 -0.0861
  421TMC3    C4 6280   1.506   1.067  13.736  0.6629  0.7063  0.3547
  421TMC3    C5 6281   1.622   1.011  13.786  0.6947  0.3017 -0.3119
  421TMC3    C6 6282   1.706   1.078  13.871 -0.5610 -0.8567  0.4837
  421TMC3     C 6283   1.344   1.242  13.744  0.4971 -0.2052 -0.5900
  421TMC3     O 6284   1.317   1.355  13.785  0.0045 -0.2305 -0.3896
  421TMC3     H 6285   1.508   1.353  13.908 -1.5148 -1.1109  1.6453
  421TMC3    H1 6286   1.458   1.027  13.647 -1.1016  1.7505  0.8401
  421TMC3    H2 6287   1.806   1.040  13.894  0.9944  1.9283 -1.7921
  421TMC3    C7 6288   1.673   0.884  13.736  0.1289  0.1295  0.0282
  421TMC3    C8 6289   1.740   1.271  14.015  0.0234 -0.9018 -0.6441
  421TMC3    O1 6290   1.795   0.870  13.747  0.4032 -0.2557 -0.6734
  421TMC3    O2 6291   1.791   1.209  14.108 -0.5075  0.2316  0.0372
  422TMC3    C1 6292   3.730   2.175  12.511  0.7293 -0.1831 -0.2326
  422TMC3    C2 6293   3.728   2.292  12.575 -0.3574 -0.2709  0.2922
  422TMC3    C3 6294   3.613   2.332  12.634  0.4967 -1.2264  0.8396
  422TMC3    C4 6295   3.621   2.101  12.492 -0.2638  0.1809  0.8157
  422TMC3    C5 6296   3.507   2.137  12.550 -0.0171  0.0682 -0.6350
  422TMC3    C6 6297   3.503   2.256  12.616 -0.0590 -0.0357  0.1624
  422TMC3     C 6298   3.828   2.159  12.405  0.7675 -0.2133  0.1766
  422TMC3     O 6299   3.866   2.260  12.349 -1.0008 -0.3574 -0.5433
  422TMC3     H 6300   3.817   2.352  12.584 -1.3435  1.2391 -0.1273
  422TMC3    H1 6301   3.622   2.022  12.418 -0.3484  0.9727 -0.0308
  422TMC3    H2 6302   3.408   2.298  12.648  0.2541  0.6251  0.2327
  422TMC3    C7 6303   3.380   2.084  12.498 -0.3423  1.0115  0.2687
  422TMC3    C8 6304   3.618   2.436  12.728 -0.0290  0.0976 -0.2777
  422TMC3    O1 6305   3.394   2.022  12.396 -0.2227 -0.4469 -0.4605
  422TMC3    O2 6306   3.711   2.518  12.723  0.5426  0.0138  0.1851
  423MPD2     C 6307   0.427   3.074   0.202 -0.2426 -0.5009  0.1975
  423MPD2    C1 6308   0.379   2.957   0.263  0.2461  0.0822  0.5972
  423MPD2    C2 6309   0.318   2.854   0.189 -0.2116  0.1894 -0.0446
  423MPD2    C3 6310   0.333   2.873   0.053  0.4749 -0.5753  0.0093
  423MPD2    C4 6311   0.387   2.985  17.687  1.0018  0.8890  0.5840
  423MPD2    C5 6312   0.417   3.092   0.067 -0.4359 -0.2082 -0.3736
  423MPD2     H 6313   0.276   2.766   0.237  0.3909 -0.4339 -0.6481
  423MPD2    H1 6314   0.388   2.992  17.578  4.2966 -2.9808  0.3622
  423MPD2    H2 6315   0.461   3.152   0.269  0.3164 -0.7528  0.2054
  423MPD2    H3 6316   0.461   3.176   0.014 -0.9062  0.6713  0.6443
  423MPD2     N 6317   0.281   2.780  17.655  0.6895 -0.2641  0.4575
  423MPD2    H5 6318   0.286   2.810  17.557  0.0515  1.1421  0.8417
  423MPD2    N1 6319   0.385   2.947   0.404  0.1317  0.9113 -0.0595
  423MPD2    H7 6320   0.333   2.875   0.454  2.9487 -0.0290  1.4713
  424TMC3    C1 6321   0.387   3.050   0.615 -0.2283  0.2229 -0.1241
  424TMC3    C2 6322   0.470   3.089   0.721  0.1632 -0.2471  0.4277
  424TMC3    C3 6323   0.413   3.129   0.840 -0.7202 -0.0374  0.2854
  424TMC3    C4 6324   0.248   3.037   0.623  0.3537 -0.7385 -0.1040
  424TMC3    C5 6325   0.197   3.077   0.745  0.0402 -0.2253 -0.4943
  424TMC3    C6 6326   0.277   3.122   0.845  0.0079 -0.1352  0.1817
  424TMC3     C 6327   0.456   3.026   0.486  0.4397 -0.5420  0.3863
  424TMC3     O 6328   0.563   3.084   0.466 -0.9121  1.1085 -0.2333
  424TMC3     H 6329   0.575   3.070   0.702 -0.0870 -0.4955 -0.7160
  424TMC3    H1 6330   0.188   3.019   0.535 -0.5430 -3.0485  0.9854
  424TMC3    H2 6331   0.231   3.152   0.938  0.4598  2.5930 -0.4663
  424TMC3    C7 6332   0.067   3.026   0.776  0.2738  0.2490 -0.2311
  424TMC3    C8 6333   0.468   3.073   0.959  0.7394  0.6299  0.0293
  424TMC3    O1 6334   0.014   2.962   0.687 -0.3374  0.0169 -0.5014
  424TMC3    O2 6335   0.381   3.039   1.039 -0.1517 -0.4383  0.0264
  425MPD2     C 6336   3.277   1.624  17.467 -0.9879 -0.1668 -0.1634
  425MPD2    C1 6337   3.302   1.554  17.352  0.7428 -0.0006  0.9056
  425MPD2    C2 6338   3.206   1.547  17.257 -0.0258  0.0632 -0.0619
  425MPD2    C3 6339   3.077   1.591  17.284  0.8342  0.6656  0.4927
  425MPD2    C4 6340   3.048   1.658  17.401  0.7750 -0.3889  0.2819
  425MPD2    C5 6341   3.153   1.676  17.485  0.6161 -0.3109  1.2055
  425MPD2     H 6342   3.226   1.496  17.163  2.2298 -0.4546  0.6904
  425MPD2    H1 6343   2.954   1.711  17.419  0.7423 -0.6352  0.8240
  425MPD2    H2 6344   3.359   1.651  17.531 -0.8630 -0.9044 -0.0094
  425MPD2    H3 6345   3.142   1.739  17.573 -2.4976 -1.8700  1.9297
  425MPD2     N 6346   2.978   1.580  17.183 -1.0667 -0.4788  0.6481
  425MPD2    H5 6347   3.011   1.530  17.101  0.7979  1.4061  0.2335
  425MPD2    N1 6348   3.436   1.506  17.327  0.3240  0.1062  0.3346
  425MPD2    H7 6349   3.502   1.509  17.404  0.3261 -0.9855  0.3816
  426TMC3    C1 6350   3.611   1.395  17.232  0.8950  0.1704 -0.6196
  426TMC3    C2 6351   3.705   1.401  17.134 -0.0941 -0.3654  0.6223
  426TMC3    C3 6352   3.821   1.330  17.143 -0.1875 -0.7503 -0.2668
  426TMC3    C4 6353   3.623   1.318  17.341 -0.4918  0.6757  0.0812
  426TMC3    C5 6354   3.740   1.245  17.351  0.5438 -0.3094  0.4440
  426TMC3    C6 6355   3.841   1.256  17.264 -0.4649  0.0697  0.2467
  426TMC3     C 6356   3.483   1.462  17.208  1.3254 -0.1355  0.7216
  426TMC3     O 6357   3.443   1.473  17.090  0.3630  0.6920  0.8297
  426TMC3     H 6358   3.685   1.467  17.050 -3.5310 -0.7147  1.1802
  426TMC3    H1 6359   3.542   1.301  17.412 -1.7130 -0.9106 -1.6880
  426TMC3    H2 6360   3.931   1.198  17.274 -0.7645 -0.5800 -0.8438
  426TMC3    C7 6361   3.783   1.192  17.480  0.1999 -0.5016 -0.5691
  426TMC3    C8 6362   3.898   1.312  17.015  0.5621  0.1662  0.0257
  426TMC3    O1 6363   3.877   1.113  17.481  0.0066  0.3501 -0.1989
  426TMC3    O2 6364   3.841   1.343  16.912  0.3737  0.1216  0.0656
  427MPD2     C 6365   2.092   3.604  15.226  0.2055 -0.2337 -0.5158
  427MPD2    C1 6366   2.152   3.725  15.207 -0.0540  0.6219  0.0148
  427MPD2    C2 6367   2.093   3.837  15.268 -0.2843  0.5732  0.2697
  427MPD2    C3 6368   1.974   3.835  15.333 -0.1066 -0.1499 -0.4198
  427MPD2    C4 6369   1.918   3.713  15.348  0.3063  0.2943  0.7083
  427MPD2    C5 6370   1.970   3.605  15.286 -0.9084  0.0661  0.6740
  427MPD2     H 6371   2.145   3.932  15.264  1.9846 -0.6849  0.4850
  427MPD2    H1 6372   1.812   3.705  15.372  0.3640 -0.4332  0.7226
  427MPD2    H2 6373   2.143   3.512  15.200  1.3704  0.5714 -1.0900
  427MPD2    H3 6374   1.919   3.509  15.288 -1.8168  0.5022 -1.5486
  427MPD2     N 6375   1.918   3.955  15.385 -0.5661  0.1680  0.0586
  427MPD2    H5 6376   1.833   3.945  15.440  0.2224  0.0903  1.2529
  427MPD2    N1 6377   2.281   3.726  15.149 -0.1963  0.8882 -0.0852
  427MPD2    H7 6378   2.320   3.632  15.144  2.0587  1.9931 -3.1538
  428TMC3    C1 6379   2.483   3.797  15.056  0.0068 -0.1117  0.2387
  428TMC3    C2 6380   2.495   3.685  14.975  0.5095 -0.2457 -0.0339
  428TMC3    C3 6381   2.613   3.662  14.911  0.2551 -0.7903 -0.5533
  428TMC3    C4 6382   2.573   3.899  15.057  0.2333 -0.1626 -0.0417
  428TMC3    C5 6383   2.685   3.873  14.975  0.8845 -0.2821 -0.3288
  428TMC3    C6 6384   2.709   3.762  14.894  0.2925  1.0578 -0.0984
  428TMC3     C 6385   2.358   3.830  15.121 -0.8630 -0.1456  0.5770
  428TMC3     O 6386   2.338   3.946  15.157  0.4592  0.0048  0.3472
  428TMC3     H 6387   2.416   3.610  14.970 -1.6403  2.0998 -1.0787
  428TMC3    H1 6388   2.577   3.978  15.131 -2.1278 -0.1500  0.0837
  428TMC3    H2 6389   2.804   3.747  14.845  0.8825 -3.3104  2.3485
  428TMC3    C7 6390   2.792   3.968  14.984  0.6011  0.1975 -0.4281
  428TMC3    C8 6391   2.655   3.526  14.875 -0.5167  0.1740  0.0278
  428TMC3    O1 6392   2.843   3.992  15.086 -0.5567 -0.3296 -0.1415
  428TMC3    O2 6393   2.766   3.510  14.825  0.2587  0.7975  0.2886
  429MPD2     C 6394   3.661   3.937  17.331 -0.6085  0.3680  0.1701
  429MPD2    C1 6395   3.787   3.917  17.381 -0.6977 -0.8592  0.0014
  429MPD2    C2 6396   3.892   3.998  17.341 -0.0128 -0.4321 -0.0777
  429MPD2    C3 6397   3.875   4.094  17.241  0.1477 -0.0512 -0.5971
  429MPD2    C4 6398   3.746   4.109  17.188  0.2307  0.9619  0.2492
  429MPD2    C5 6399   3.645   4.025  17.225 -0.1082  0.1433  0.4896
  429MPD2     H 6400   3.990   3.980  17.384 -0.2524 -0.6296  0.3895
  429MPD2    H1 6401   3.719   4.179  17.110  1.5661 -1.1724 -2.1445
  429MPD2    H2 6402   3.580   3.873  17.365 -0.1408 -0.2101  0.1906
  429MPD2    H3 6403   3.546   4.051  17.190  0.3800  0.6456 -0.5255
  429MPD2     N 6404   3.983   4.186  17.213  0.9010  0.0787  0.0850
  429MPD2    H5 6405   4.069   4.184  17.267  0.4070 -0.4276  0.8446
  429MPD2    N1 6406   3.812   3.827  17.492  0.0962 -0.1686 -0.5397
  429MPD2    H7 6407   3.911   3.830  17.513 -0.3206 -2.1047  1.6499
  430TMC3    C1 6408   4.104   4.355  17.082 -0.1415  0.1843  0.0660
  430TMC3    C2 6409   4.075   4.477  17.015  0.3207 -0.4379 -0.1809
  430TMC3    C3 6410   4.105   4.491  16.886 -0.1012 -0.4949  0.4995
  430TMC3    C4 6411   4.191   4.265  17.027 -0.3490  0.3060  0.4518
  430TMC3    C5 6412   4.210   4.280  16.892 -0.5976 -0.1912 -0.0585
  430TMC3    C6 6413   4.173   4.392  16.822 -1.2018  0.3923 -0.3978
  430TMC3     C 6414   3.977   4.295  17.122 -0.9922  0.3328  0.0816
  430TMC3     O 6415   3.884   4.323  17.048 -0.2124 -0.1599  0.4855
  430TMC3     H 6416   4.005   4.539  17.069  1.9048  1.3929 -0.2414
  430TMC3    H1 6417   4.215   4.172  17.076 -1.2402 -0.4295 -0.5059
  430TMC3    H2 6418   4.195   4.404  16.717  1.0323  0.1168  0.0229
  430TMC3    C7 6419   4.151   4.169  16.820 -0.0294 -0.5722  0.5474
  430TMC3    C8 6420   4.016   4.554  16.796 -0.1559 -0.4565  0.3025
  430TMC3    O1 6421   4.211   4.064  16.834  0.0449  0.0317 -0.1233
  430TMC3    O2 6422   3.986   4.482  16.704 -0.2934  0.3464 -0.2357
  431MPD2     C 6423   4.601   0.213  12.307 -0.2283 -0.7459 -0.2284
  431MPD2    C1 6424   4.706   0.179  12.228  0.2135 -0.3119 -0.3838
  431MPD2    C2 6425   4.722   0.044  12.183  0.4404 -0.4928  0.4701
  431MPD2    C3 6426   4.646   4.667  12.237 -0.4840 -0.4715 -0.3059
  431MPD2    C4 6427   4.547   4.705  12.322 -0.4197  0.0300 -0.3175
  431MPD2    C5 6428   4.518   0.112  12.347  0.0284  0.3522  0.2757
  431MPD2     H 6429   0.086   0.019  12.123 -1.1034 -0.8509 -1.6205
  431MPD2    H1 6430   4.482   4.633  12.371  2.6282 -1.3650  1.6809
  431MPD2    H2 6431   4.581   0.314  12.339 -0.7089  0.1738 -3.4650
  431MPD2    H3 6432   4.439   0.139  12.415 -0.0074 -0.8241  0.7035
  431MPD2     N 6433   4.679   4.533  12.222 -0.4918  0.3807 -0.3551
  431MPD2    H5 6434   4.618   4.471  12.274  0.0806  0.1524  0.0339
  431MPD2    N1 6435   0.070   0.279  12.177  0.0207  0.1886  0.9955
  431MPD2    H7 6436   0.151   0.239  12.130  0.6182 -0.4234  2.5256
  432TMC3    C1 6437   0.064   4.346  12.140 -0.6339 -0.4154  0.1822
  432TMC3    C2 6438   0.111   4.283  12.030  0.5271  0.7155  0.0921
  432TMC3    C3 6439   0.084   4.150  12.030  0.4138 -0.2052 -0.1370
  432TMC3    C4 6440   0.011   4.281  12.254  0.2691 -0.6513 -0.5224
  432TMC3    C5 6441   4.715   4.147  12.241 -0.7718 -1.1624  0.1303
  432TMC3    C6 6442   0.037   4.075  12.136  0.1172  0.0300  0.4204
  432TMC3     C 6443   0.047   4.486  12.130 -0.2288 -0.3460  0.5745
  432TMC3     O 6444   0.117   4.539  12.049  0.5492 -0.2401 -0.9265
  432TMC3     H 6445   0.129   4.344  11.942  0.1403  0.9077  0.1435
  432TMC3    H1 6446   4.711   4.327  12.349 -1.1976 -2.5785  0.0557
  432TMC3    H2 6447   0.011   3.971  12.127 -0.5358  0.1773  0.5978
  432TMC3    C7 6448   4.712   4.067  12.355  0.1225  0.0859  0.4465
  432TMC3    C8 6449   0.130   4.073  11.912  0.1575 -0.2785 -0.6757
  432TMC3    O1 6450   0.087   4.005  12.385 -0.1108 -0.1934  0.5560
  432TMC3    O2 6451   0.068   3.967  11.891 -0.2228 -0.1991  0.6067
  433MPD2     C 6452   3.821   3.653  10.603  0.5105  0.5011  0.7596
  433MPD2    C1 6453   3.760   3.560  10.678  0.4195  0.8035  0.8020
  433MPD2    C2 6454   3.778   3.573  10.815 -0.5816  0.0236 -0.1665
  433MPD2    C3 6455   3.847   3.680  10.880  0.0276  0.5718 -0.5350
  433MPD2    C4 6456   3.893   3.779  10.799 -0.8160 -0.0059  0.0962
  433MPD2    C5 6457   3.872   3.762  10.661  0.2073  0.0878  0.4132
  433MPD2     H 6458   3.739   3.498  10.882 -0.1552 -0.5902 -0.6011
  433MPD2    H1 6459   3.945   3.867  10.833  0.2778 -0.8607  0.6212
  433MPD2    H2 6460   3.808   3.638  10.496  0.6875  1.0127  0.6659
  433MPD2    H3 6461   3.904   3.843  10.596  1.7315 -0.1910  0.8283
  433MPD2     N 6462   3.865   3.679  11.020 -0.0995  0.1899  0.5249
  433MPD2    H5 6463   3.829   3.598  11.070 -0.5477  0.0262 -0.0535
  433MPD2    N1 6464   3.690   3.451  10.617 -0.3397 -0.2906 -0.2877
  433MPD2    H7 6465   3.695   3.449  10.515  1.4731  0.2211 -0.2034
  434TMC3    C1 6466   3.573   3.239  10.599 -0.6012 -0.2629 -0.2630
  434TMC3    C2 6467   3.570   3.135  10.687  0.4750  0.1565 -0.2394
  434TMC3    C3 6468   3.585   3.007  10.638 -0.5932 -0.1893  0.2665
  434TMC3    C4 6469   3.605   3.225  10.467 -0.3005  0.6958 -0.1729
  434TMC3    C5 6470   3.627   3.096  10.422  0.2992  0.0081  0.7769
  434TMC3    C6 6471   3.620   2.986  10.510 -0.1026 -0.8756  0.3363
  434TMC3     C 6472   3.609   3.366  10.681  0.2716  0.6215  0.1373
  434TMC3     O 6473   3.587   3.360  10.799  0.4315 -0.5381  0.0186
  434TMC3     H 6474   3.542   3.151  10.790  2.4206 -2.0459  0.6295
  434TMC3    H1 6475   3.603   3.306  10.395 -0.8973  0.2789 -0.6268
  434TMC3    H2 6476   3.643   2.885  10.478 -0.3060 -0.2275 -1.9016
  434TMC3    C7 6477   3.632   3.065  10.285 -0.2398  0.0329  0.7827
  434TMC3    C8 6478   3.630   2.917  10.741  0.1375 -0.6640  0.1713
  434TMC3    O1 6479   3.573   3.139  10.201  0.0956  0.0293 -0.0890
  434TMC3    O2 6480   3.663   2.962  10.851 -0.4288 -0.2181 -0.7581
  435MPD2     C 6481   0.652   3.007  15.246  0.8317  0.6160 -0.1709
  435MPD2    C1 6482   0.635   2.996  15.383  0.0651 -0.8116  0.4441
  435MPD2    C2 6483   0.742   2.949  15.456 -0.0716 -0.0693 -0.4894
  435MPD2    C3 6484   0.856   2.901  15.400 -1.0022 -0.1803 -0.5166
  435MPD2    C4 6485   0.878   2.929  15.270 -0.0057  0.4093  0.1859
  435MPD2    C5 6486   0.782   2.986  15.195 -1.2230  0.4247  0.0504
  435MPD2     H 6487   0.732   2.933  15.563 -0.9071  0.8664 -0.4315
  435MPD2    H1 6488   0.957   2.891  15.207 -2.0173  1.1786 -2.8248
  435MPD2    H2 6489   0.569   3.044  15.186  0.1610  1.7902  1.4765
  435MPD2    H3 6490   0.791   3.006  15.089 -0.4754 -1.7270 -0.2882
  435MPD2     N 6491   0.953   2.834  15.474  0.0421  0.1827 -0.4646
  435MPD2    H5 6492   0.938   2.826  15.574  0.4929 -0.6966 -0.4663
  435MPD2    N1 6493   0.517   3.032  15.457  0.0952  0.0506 -0.1467
  435MPD2    H7 6494   0.514   3.006  15.555 -2.4018 -0.9071 -0.4760
  436TMC3    C1 6495   0.245   3.182  15.724  0.1633  0.0057 -0.0386
  436TMC3    C2 6496   0.337   3.135  15.634 -0.5234 -0.1332 -0.1252
  436TMC3    C3 6497   0.304   3.116  15.504 -0.2478  0.5999 -1.0730
  436TMC3    C4 6498   0.129   3.237  15.671  0.1661  0.8761 -0.0331
  436TMC3    C5 6499   0.093   3.202  15.541 -0.4460  0.0872  0.4083
  436TMC3    C6 6500   0.185   3.156  15.453 -0.2667  0.5893 -0.5066
  436TMC3     C 6501   0.293   3.221  15.846  0.2398  0.6032  0.4945
  436TMC3     O 6502   0.406   3.263  15.841  0.6398 -0.3237  0.0069
  436TMC3     H 6503   0.431   3.095  15.670 -0.5662  0.2497  0.4142
  436TMC3    H1 6504   0.055   3.283  15.736 -0.9022  3.0215 -2.7444
  436TMC3    H2 6505   0.169   3.153  15.346  2.0501  1.5209 -0.8798
  436TMC3    C7 6506   4.683   3.241  15.494  0.2005  0.3376 -0.7350
  436TMC3    C8 6507   0.408   3.091  15.405  0.0156  0.1952 -0.0423
  436TMC3    O1 6508   4.665   3.254  15.374  0.2786 -0.0159  0.1350
  436TMC3    O2 6509   0.391   3.131  15.292  0.3713  0.1259  0.1932
  437TMC3    C1 6510   4.078   0.799  12.338 -0.7847  0.4008  0.3236
  437TMC3    C2 6511   3.971   0.789  12.253 -0.2993 -0.1876  0.1217
  437TMC3    C3 6512   3.992   0.795  12.117 -0.3248 -0.3032  0.8780
  437TMC3    C4 6513   4.203   0.819  12.290 -0.6329  0.1560 -0.4755
  437TMC3    C5 6514   4.220   0.828  12.154  0.5569 -0.4873 -0.8676
  437TMC3    C6 6515   4.119   0.806  12.064  0.2397 -0.0433  0.9251
  437TMC3     C 6516   4.065   0.775  12.486 -0.1685 -0.2402 -0.1146
  437TMC3     O 6517   4.168   0.752  12.550 -0.2145  0.0373  0.2152
  437TMC3     H 6518   3.871   0.775  12.291 -0.7441  1.6980 -0.3839
  437TMC3    H1 6519   4.289   0.825  12.356 -2.0822  1.8651  1.2513
  437TMC3    H2 6520   4.139   0.786  11.959 -1.0691  0.1954  0.6273
  437TMC3    C7 6521   4.352   0.862  12.100 -0.0602  0.0384 -0.3461
  437TMC3    C8 6522   3.888   0.737  12.033  0.8687  0.2236 -0.1758
  437TMC3    O1 6523   4.345   0.887  11.982 -0.3425 -0.0840  0.0418
  437TMC3    O2 6524   3.811   0.663  12.093  0.4374 -0.3182 -0.2934
  438MPD2     C 6525   1.210   0.532  17.031  0.8683  0.5070 -0.2252
  438MPD2    C1 6526   1.330   0.512  17.088 -0.6111  0.4720  0.0827
  438MPD2    C2 6527   1.343   0.502  17.226  0.3134 -0.2822  0.5490
  438MPD2    C3 6528   1.241   0.543  17.309 -0.0585 -0.2243  0.0234
  438MPD2    C4 6529   1.123   0.570  17.259  0.6895 -0.2908 -0.3036
  438MPD2    C5 6530   1.111   0.564  17.120 -0.1207 -0.6601  0.2061
  438MPD2     H 6531   1.442   0.501  17.269  0.4405 -0.1002  0.2603
  438MPD2    H1 6532   1.048   0.616  17.323  1.8501  0.5730  0.4204
  438MPD2    H2 6533   1.209   0.536  16.923 -1.4973  1.0332 -0.1765
  438MPD2    H3 6534   1.025   0.598  17.065 -0.5021 -2.0561 -0.0510
  438MPD2     N 6535   1.253   0.553  17.454 -0.2590  0.3231 -0.0393
  438MPD2    H5 6536   1.165   0.577  17.498  0.4338  0.5828  1.2178
  438MPD2    N1 6537   1.444   0.475  17.013  0.5454  1.0896  0.8740
  438MPD2    H7 6538   1.530   0.480  17.067 -0.9076 -0.4719  3.3423
  439TMC3    C1 6539   1.597   0.447  16.842 -0.1535 -0.8689 -0.2870
  439TMC3    C2 6540   1.639   0.471  16.719 -0.5278  0.2234  0.2616
  439TMC3    C3 6541   1.760   0.413  16.679 -0.4813 -0.3359 -0.1767
  439TMC3    C4 6542   1.675   0.371  16.927 -0.8250 -0.1389  0.5457
  439TMC3    C5 6543   1.797   0.320  16.895  0.9196  0.2824  0.3211
  439TMC3    C6 6544   1.834   0.337  16.764  0.1201  0.5626 -0.0364
  439TMC3     C 6545   1.460   0.469  16.877  0.1417 -0.2865 -0.8562
  439TMC3     O 6546   1.382   0.491  16.784  0.0143  0.8327 -0.1223
  439TMC3     H 6547   1.582   0.534  16.652 -2.5076 -2.0435 -0.1713
  439TMC3    H1 6548   1.631   0.332  17.018 -1.9658  2.9183  1.3194
  439TMC3    H2 6549   1.931   0.299  16.737  0.0796 -1.0719  2.1075
  439TMC3    C7 6550   1.874   0.233  16.979 -0.7051 -0.1287 -0.0130
  439TMC3    C8 6551   1.816   0.421  16.549  0.3166 -0.6195  0.4570
  439TMC3    O1 6552   1.943   0.162  16.916  0.0264 -0.3910  0.0008
  439TMC3    O2 6553   1.923   0.366  16.531 -0.1710  0.0944 -0.5212
  440MPD2     C 6554   0.747   1.306  14.290 -0.3164  0.4898 -0.0998
  440MPD2    C1 6555   0.735   1.398  14.391  0.5649  0.9324 -0.5537
  440MPD2    C2 6556   0.818   1.380  14.504 -0.0775  0.4689  0.1009
  440MPD2    C3 6557   0.905   1.272  14.522 -0.2465 -0.0128  0.3174
  440MPD2    C4 6558   0.910   1.183  14.420 -0.7007 -0.6093 -0.3396
  440MPD2    C5 6559   0.837   1.201  14.305 -0.2569 -0.0908 -0.5102
  440MPD2     H 6560   0.809   1.456  14.580  1.4021 -0.7661  1.5151
  440MPD2    H1 6561   0.984   1.103  14.416 -0.4225 -0.3449 -0.4971
  440MPD2    H2 6562   0.694   1.323  14.198  0.2688 -1.5285 -0.8070
  440MPD2    H3 6563   0.847   1.130  14.223  2.6131 -0.9391  0.5816
  440MPD2     N 6564   0.976   1.257  14.641  0.0731 -0.2304 -0.4574
  440MPD2    H5 6565   1.028   1.171  14.656 -2.5602 -2.0148 -1.5254
  440MPD2    N1 6566   0.646   1.509  14.398 -0.1108 -0.3036  0.1762
  440MPD2    H7 6567   0.640   1.557  14.487 -1.3129  0.6602 -0.4208
  441TMC3    C1 6568   1.077   1.309  14.849 -0.2416 -0.3254 -0.5632
  441TMC3    C2 6569   1.132   1.415  14.912 -0.1056 -0.5693  0.5096
  441TMC3    C3 6570   1.216   1.390  15.017  0.1410  1.4313 -0.1389
  441TMC3    C4 6571   1.087   1.182  14.898 -0.2849  0.0077  0.0358
  441TMC3    C5 6572   1.154   1.161  15.014 -0.8486  0.1113  0.7631
  441TMC3    C6 6573   1.219   1.264  15.071 -0.3104 -0.0693  0.4402
  441TMC3     C 6574   0.983   1.349  14.749 -0.8042 -0.0723 -1.0477
  441TMC3     O 6575   0.920   1.454  14.766  0.1431  0.4106 -0.2915
  441TMC3     H 6576   1.128   1.512  14.865 -4.8111 -1.7557 -1.5262
  441TMC3    H1 6577   1.023   1.106  14.855  3.1194 -1.7229 -1.9508
  441TMC3    H2 6578   1.268   1.257  15.168  0.6153  0.4413  0.0099
  441TMC3    C7 6579   1.090   1.079  15.109 -0.2185 -0.4797 -0.5063
  441TMC3    C8 6580   1.212   1.503  15.111  0.4036  0.6184  0.5400
  441TMC3    O1 6581   0.981   1.043  15.079 -0.0310 -0.0695 -0.3085
  441TMC3    O2 6582   1.308   1.527  15.183 -0.1291  0.9140 -0.6179
  442MPD2     C 6583   3.592   1.496  16.216  0.4032  0.6794  0.3838
  442MPD2    C1 6584   3.492   1.538  16.130 -0.0662 -0.0052  0.1750
  442MPD2    C2 6585   3.493   1.481  16.005  0.3108  0.3831  0.9247
  442MPD2    C3 6586   3.588   1.391  15.964 -0.5914 -0.1024 -0.2548
  442MPD2    C4 6587   3.697   1.377  16.042  0.7391 -0.7574 -0.3529
  442MPD2    C5 6588   3.693   1.420  16.170 -0.2997 -0.0806  0.4971
  442MPD2     H 6589   3.419   1.510  15.931  0.5492  0.4320  0.7041
  442MPD2    H1 6590   3.775   1.311  16.006  0.4295 -1.8416  0.9642
  442MPD2    H2 6591   3.601   1.533  16.318  0.6035  1.6329  0.0136
  442MPD2    H3 6592   3.775   1.395  16.236 -2.1331 -0.6021  2.6041
  442MPD2     N 6593   3.603   1.339  15.832  0.6591  0.0213 -0.0042
  442MPD2    H5 6594   3.685   1.281  15.823  0.0453 -0.7215 -0.8000
  442MPD2    N1 6595   3.390   1.628  16.168 -0.1862 -0.2246  0.1546
  442MPD2    H7 6596   3.326   1.667  16.099 -0.8714 -0.1287  0.8436
  443TMC3    C1 6597   3.238   1.741  16.314  0.0780 -0.1172  0.0196
  443TMC3    C2 6598   3.229   1.847  16.236 -0.1150 -0.0113  0.0889
  443TMC3    C3 6599   3.144   1.950  16.265 -0.5783  0.4234 -0.0252
  443TMC3    C4 6600   3.170   1.733  16.426 -0.0531 -0.0130  0.2214
  443TMC3    C5 6601   3.087   1.832  16.462 -0.1228  0.0475  0.2232
  443TMC3    C6 6602   3.068   1.944  16.382 -0.3267  0.3574 -0.0158
  443TMC3     C 6603   3.352   1.651  16.294  0.4487 -0.2595  0.1647
  443TMC3     O 6604   3.399   1.607  16.401 -0.5002 -0.2395  0.1045
  443TMC3     H 6605   3.299   1.868  16.155  0.0377 -1.5953 -0.1858
  443TMC3    H1 6606   3.175   1.650  16.495  2.2446 -2.3689 -2.7991
  443TMC3    H2 6607   2.993   2.021  16.396  0.2818  0.8042  0.8556
  443TMC3    C7 6608   2.963   1.768  16.506  0.2706  0.3467 -0.5908
  443TMC3    C8 6609   3.106   2.045  16.163 -0.4152  0.3482  0.1477
  443TMC3    O1 6610   2.938   1.653  16.471 -0.1665 -0.4825  0.5849
  443TMC3    O2 6611   3.058   2.155  16.200 -0.2744  0.3495  0.2617
  444MPD2     C 6612   3.437   0.737  16.700  0.1640 -0.2542 -0.5536
  444MPD2    C1 6613   3.411   0.634  16.610 -0.3255 -0.1096  0.7225
  444MPD2    C2 6614   3.521   0.576  16.545  0.5023 -0.2464 -0.2094
  444MPD2    C3 6615   3.649   0.627  16.562  0.1076 -0.4048  0.4198
  444MPD2    C4 6616   3.672   0.738  16.645 -0.4199 -0.9398 -0.3096
  444MPD2    C5 6617   3.561   0.792  16.711 -0.3481 -0.3997  0.1172
  444MPD2     H 6618   3.513   0.486  16.485  1.1927  1.3992 -2.7771
  444MPD2    H1 6619   3.769   0.783  16.665 -0.3310 -1.8269  1.2393
  444MPD2    H2 6620   3.363   0.791  16.760  1.1936  2.2280 -1.5130
  444MPD2    H3 6621   3.572   0.881  16.771 -1.1443  0.2625 -0.7245
  444MPD2     N 6622   3.751   0.558  16.494  0.2795  0.2818  0.0013
  444MPD2    H5 6623   3.726   0.498  16.416 -0.8174  2.1682 -1.1364
  444MPD2    N1 6624   3.281   0.599  16.570  0.1101 -0.1093  0.1971
  444MPD2    H7 6625   3.271   0.515  16.514 -0.2529 -0.2914  0.5324
  445TMC3    C1 6626   3.968   0.494  16.435 -0.0554 -0.1140 -0.5342
  445TMC3    C2 6627   3.911   0.380  16.380  1.2414  0.7052 -0.3158
  445TMC3    C3 6628   4.000   0.280  16.349  0.1011 -0.3606 -0.4116
  445TMC3    C4 6629   4.104   0.510  16.466 -1.0054  0.2761  0.1141
  445TMC3    C5 6630   4.181   0.404  16.450  0.6276 -0.0236 -0.2508
  445TMC3    C6 6631   4.133   0.291  16.384  0.1414  0.2654  0.3989
  445TMC3     C 6632   3.882   0.597  16.500 -0.4622  0.0916 -0.7946
  445TMC3     O 6633   3.937   0.688  16.561 -0.5921  0.6602 -0.2242
  445TMC3     H 6634   3.806   0.377  16.351  0.9865 -2.3834  0.9686
  445TMC3    H1 6635   4.142   0.602  16.509 -0.2841  0.8267 -1.7125
  445TMC3    H2 6636   4.198   0.223  16.329 -0.6548  0.1430 -0.3732
  445TMC3    C7 6637   4.326   0.428  16.428 -0.2400  0.1139 -0.6971
  445TMC3    C8 6638   3.968   0.157  16.277 -0.9792  0.5246  0.4505
  445TMC3    O1 6639   4.364   0.545  16.405  0.0841  0.3521 -0.1512
  445TMC3    O2 6640   3.875   0.157  16.196  0.0104 -0.4724 -0.1234
  446MPD2     C 6641   3.582   2.610  11.256  0.6871  0.2880  0.2572
  446MPD2    C1 6642   3.518   2.679  11.155 -0.2537 -0.0779 -1.2404
  446MPD2    C2 6643   3.570   2.800  11.121  0.1235 -0.0566  0.8397
  446MPD2    C3 6644   3.681   2.855  11.180 -0.5131 -0.3002  0.6246
  446MPD2    C4 6645   3.741   2.790  11.279  0.4460  0.2197 -0.4913
  446MPD2    C5 6646   3.689   2.667  11.322 -0.3432  0.4621 -0.6053
  446MPD2     H 6647   3.524   2.849  11.036 -1.3141 -2.5596  0.1640
  446MPD2    H1 6648   3.814   2.829  11.348  0.6893 -0.3971 -0.3946
  446MPD2    H2 6649   3.543   2.517  11.297 -1.2362  1.4299  1.0521
  446MPD2    H3 6650   3.721   2.629  11.418  0.4148  1.0350 -0.6311
  446MPD2     N 6651   3.744   2.964  11.118  0.5582 -0.9851  0.2537
  446MPD2    H5 6652   3.701   3.005  11.035  0.6052 -0.1477  0.6445
  446MPD2    N1 6653   3.410   2.631  11.087  0.4345 -0.6859  0.3607
  446MPD2    H7 6654   3.377   2.679  11.003  1.1345 -0.8711 -0.0229
  447TMC3    C1 6655   3.921   3.121  11.069 -0.1426 -0.3724 -1.4146
  447TMC3    C2 6656   3.856   3.176  10.958  0.1290 -0.6013  0.5915
  447TMC3    C3 6657   3.940   3.235  10.864  0.6253  0.0774  1.5649
  447TMC3    C4 6658   4.058   3.141  11.092 -0.6227 -0.0374 -0.9756
  447TMC3    C5 6659   4.128   3.212  11.003 -0.1262  0.0516  0.8188
  447TMC3    C6 6660   4.076   3.241  10.881  0.2550  0.5986 -0.1076
  447TMC3     C 6661   3.872   3.004  11.149 -0.0282 -0.2704 -0.4763
  447TMC3     O 6662   3.957   2.959  11.226  0.1554  0.7552 -0.0172
  447TMC3     H 6663   3.756   3.146  10.928  0.8472 -2.9530  0.5775
  447TMC3    H1 6664   4.112   3.125  11.185 -0.4859 -1.9162 -1.3860
  447TMC3    H2 6665   4.133   3.260  10.791 -1.0961  2.1878 -0.6207
  447TMC3    C7 6666   4.268   3.183  11.015  0.2671 -0.0085 -0.8514
  447TMC3    C8 6667   3.920   3.211  10.725 -0.1903 -0.6325  0.4403
  447TMC3    O1 6668   4.296   3.067  11.054  0.0630 -0.5519  0.3995
  447TMC3    O2 6669   3.960   3.302  10.652  0.1325 -0.5068  0.4697
  448TMC3    C1 6670   1.619   1.879  17.124  0.3551  0.2297 -0.1983
  448TMC3    C2 6671   1.534   1.783  17.073  0.5147 -0.5881 -0.7958
  448TMC3    C3 6672   1.557   1.650  17.088 -0.3327  0.9058  0.0459
  448TMC3    C4 6673   1.731   1.843  17.200 -0.2394 -0.4255  0.4256
  448TMC3    C5 6674   1.750   1.705  17.213  0.0478 -0.9943 -0.9781
  448TMC3    C6 6675   1.668   1.612  17.157 -0.0422 -0.1204  0.4832
  448TMC3     C 6676   1.623   2.007  17.065  0.5357 -0.1582  0.3710
  448TMC3     O 6677   1.557   2.020  16.963 -0.0970  0.4116  0.1917
  448TMC3     H 6678   1.448   1.815  17.016 -0.6091 -1.7181  0.2729
  448TMC3    H1 6679   1.799   1.915  17.243  0.5615  0.1329 -1.7998
  448TMC3    H2 6680   1.686   1.506  17.174  0.5669 -0.1892 -0.6296
  448TMC3    C7 6681   1.875   1.664  17.261 -0.4098 -0.3612  0.1086
  448TMC3    C8 6682   1.518   1.546  16.991  0.1035  0.3812 -0.5006
  448TMC3    O1 6683   1.965   1.746  17.261  0.5014 -0.1099 -0.1451
  448TMC3    O2 6684   1.585   1.447  16.984 -0.1183  0.0804  0.0064
  449MPD2     C 6685   3.990   1.642  14.403  0.0461  0.9611  0.4709
  449MPD2    C1 6686   3.943   1.584  14.286 -0.4202 -0.1138 -0.1762
  449MPD2    C2 6687   3.904   1.449  14.289  0.9806 -0.3711  0.8734
  449MPD2    C3 6688   3.937   1.369  14.394  0.3708 -0.0297  0.0011
  449MPD2    C4 6689   3.994   1.426  14.510  0.2950 -0.6559 -0.3490
  449MPD2    C5 6690   4.022   1.560  14.508  0.5943 -0.3030 -0.0711
  449MPD2     H 6691   3.841   1.408  14.211  1.3464 -1.3719  1.1043
  449MPD2    H1 6692   4.004   1.364  14.598 -0.0885 -2.8737 -1.8579
  449MPD2    H2 6693   4.011   1.747  14.421 -1.2046  1.0258  1.5006
  449MPD2    H3 6694   4.066   1.601  14.598  1.6458 -0.7324 -0.3852
  449MPD2     N 6695   3.894   1.237  14.385  0.0367  0.0381 -0.8321
  449MPD2    H5 6696   3.846   1.206  14.300 -1.1712  0.1514 -0.1976
  449MPD2    N1 6697   3.910   1.663  14.168 -0.3872  0.1840 -0.2564
  449MPD2    H7 6698   3.851   1.609  14.106 -0.9111 -1.8179  2.0076
  450TMC3    C1 6699   3.894   1.829  13.999 -0.5640  0.0017 -0.2360
  450TMC3    C2 6700   3.992   1.834  13.905 -0.3404 -0.3518  0.0837
  450TMC3    C3 6701   3.975   1.780  13.780  0.3488  0.1322 -0.4443
  450TMC3    C4 6702   3.774   1.766  13.976 -0.5196  0.0179 -0.3593
  450TMC3    C5 6703   3.763   1.702  13.853 -0.1127 -0.2624 -0.2315
  450TMC3    C6 6704   3.862   1.707  13.759 -0.5147  0.5710 -0.0517
  450TMC3     C 6705   3.952   1.789  14.131 -0.2508 -0.2250  0.6313
  450TMC3     O 6706   4.016   1.871  14.196 -0.0451 -0.2155  0.3482
  450TMC3     H 6707   4.093   1.863  13.931  0.2894 -2.0248 -0.4525
  450TMC3    H1 6708   3.700   1.745  14.052 -0.7462 -2.4563 -1.2623
  450TMC3    H2 6709   3.848   1.652  13.667  0.2814  1.5638 -0.7690
  450TMC3    C7 6710   3.713   1.570  13.879  0.4892  0.7251  0.5794
  450TMC3    C8 6711   4.074   1.801  13.670 -0.6192  1.0613 -0.8105
  450TMC3    O1 6712   3.717   1.534  13.994  0.3302  0.3295  0.4496
  450TMC3    O2 6713   4.160   1.879  13.707 -0.3916 -0.6321  0.8354
  451MPD2     C 6714   4.161   4.030   1.537  0.3114  0.6257 -0.0149
  451MPD2    C1 6715   4.206   4.068   1.411  0.1457 -0.0105  0.6115
  451MPD2    C2 6716   4.289   3.979   1.342 -0.6248 -0.4616 -1.0097
  451MPD2    C3 6717   4.320   3.857   1.391  0.3013  0.2948 -0.6264
  451MPD2    C4 6718   4.276   3.819   1.518 -0.2925 -0.2491 -0.1536
  451MPD2    C5 6719   4.192   3.900   1.587 -0.7229  0.0317 -0.4936
  451MPD2     H 6720   4.330   3.997   1.243 -0.4332  1.0934 -0.6444
  451MPD2    H1 6721   4.306   3.722   1.557 -0.4450 -1.1042 -2.2058
  451MPD2    H2 6722   4.095   4.099   1.589 -1.3715 -0.9852 -0.0145
  451MPD2    H3 6723   4.156   3.876   1.686  2.0940  0.7278  0.7116
  451MPD2     N 6724   4.412   3.770   1.332 -0.3997 -0.0606 -0.0233
  451MPD2    H5 6725   4.453   3.696   1.388  0.6877  1.7382  1.5568
  451MPD2    N1 6726   4.194   4.202   1.381 -0.7188 -0.3804  0.7472
  451MPD2    H7 6727   4.153   4.265   1.448  0.3023 -0.8614  1.8191
  452TMC3    C1 6728   4.567   3.698   1.180 -0.3924  0.7610 -0.3331
  452TMC3    C2 6729   4.679   3.724   1.259 -0.3477 -0.2746 -0.1135
  452TMC3    C3 6730   0.076   3.721   1.203 -0.5771 -0.6220  0.3417
  452TMC3    C4 6731   4.573   3.657   1.054 -0.7630 -0.1088 -0.2965
  452TMC3    C5 6732   4.700   3.640   1.005  1.3581 -0.0865 -0.1924
  452TMC3    C6 6733   0.095   3.677   1.073  0.5963  0.1226 -0.2149
  452TMC3     C 6734   4.452   3.780   1.203  0.2371  0.4174  0.1781
  452TMC3     O 6735   4.398   3.831   1.107  0.4608 -0.0740 -0.4772
  452TMC3     H 6736   4.665   3.772   1.355 -0.2577  1.3325 -0.9090
  452TMC3    H1 6737   4.488   3.622   0.996  0.5632 -1.3466 -1.4912
  452TMC3    H2 6738   0.189   3.659   1.023  1.1959  1.2980  0.4708
  452TMC3    C7 6739   4.720   3.586   0.867 -0.4959 -0.2432  0.2789
  452TMC3    C8 6740   0.192   3.743   1.294  0.0978  0.5673 -0.7083
  452TMC3    O1 6741   0.098   3.622   0.808  0.5395 -0.4970  0.1282
  452TMC3    O2 6742   0.161   3.769   1.407 -0.2308 -0.2137 -0.3960
  453TMC3    C1 6743   0.899   1.669  11.887 -0.0142 -0.4281  0.4545
  453TMC3    C2 6744   0.895   1.553  11.961  0.6816  0.2289  0.2671
  453TMC3    C3 6745   0.967   1.448  11.901 -0.1997  0.4844  0.1827
  453TMC3    C4 6746   0.933   1.675  11.759 -0.3068 -0.1941 -0.2259
  453TMC3    C5 6747   0.985   1.563  11.702 -0.2022  0.8283  0.0340
  453TMC3    C6 6748   1.022   1.459  11.773 -0.4052  0.3895  0.5717
  453TMC3     C 6749   0.977   1.774  11.954  0.0778 -0.0186  0.1237
  453TMC3     O 6750   1.040   1.845  11.873 -0.1088  0.0047 -0.3801
  453TMC3     H 6751   0.850   1.540  12.058 -0.0123 -0.7793 -0.1923
  453TMC3    H1 6752   0.922   1.770  11.710  0.5795 -0.0430 -0.1323
  453TMC3    H2 6753   1.072   1.375  11.725 -1.5151  0.4509 -0.6858
  453TMC3    C7 6754   1.070   1.609  11.597  0.2851 -1.3211 -0.2847
  453TMC3    C8 6755   0.924   1.320  11.953 -0.3614  0.5777 -0.8700
  453TMC3    O1 6756   1.022   1.682  11.509 -0.1529  0.3418  0.4158
  453TMC3    O2 6757   0.804   1.311  11.994  0.4154 -0.0890 -0.4932
  454MPD2     C 6758   4.573   0.761  16.220  0.0360 -0.1974 -0.2311
  454MPD2    C1 6759   4.562   0.825  16.099 -0.3458 -0.7142 -0.0263
  454MPD2    C2 6760   4.520   0.954  16.111 -0.6058 -0.3586 -0.8260
  454MPD2    C3 6761   4.468   1.014  16.229 -0.0586  0.4469  0.6988
  454MPD2    C4 6762   4.490   0.946  16.347 -0.2681 -0.6322 -0.0157
  454MPD2    C5 6763   4.530   0.814  16.340  0.3815  0.3628  0.1745
  454MPD2     H 6764   4.518   1.017  16.022  0.1903 -0.2054 -0.7332
  454MPD2    H1 6765   4.459   0.972  16.447 -0.7731 -0.0216 -0.3365
  454MPD2    H2 6766   4.596   0.656  16.228 -1.6593 -0.5448  0.1120
  454MPD2    H3 6767   4.532   0.747  16.425  1.5737 -0.2276 -0.3241
  454MPD2     N 6768   4.391   1.132  16.243  0.3482  0.1896 -0.4456
  454MPD2    H5 6769   4.346   1.141  16.334  2.4110  0.3549  0.5672
  454MPD2    N1 6770   4.565   0.761  15.971  0.2428  0.2131  0.0696
  454MPD2    H7 6771   4.536   0.821  15.895 -1.4837 -0.0465  0.5307
  455TMC3    C1 6772   4.206   1.268  16.178  0.1970 -0.0230 -0.2558
  455TMC3    C2 6773   4.190   1.268  16.311 -0.2722 -0.2046 -0.2665
  455TMC3    C3 6774   4.065   1.226  16.351 -0.8728  0.2383 -0.3905
  455TMC3    C4 6775   4.114   1.239  16.087  0.2320  0.3098  0.6307
  455TMC3    C5 6776   3.995   1.199  16.128 -0.3059  0.0814  0.5538
  455TMC3    C6 6777   3.967   1.194  16.258 -0.2742  0.0909 -0.2056
  455TMC3     C 6778   4.340   1.210  16.142  0.6245  0.5858 -0.3727
  455TMC3     O 6779   4.366   1.205  16.024 -0.0960  0.0891  0.5979
  455TMC3     H 6780   4.269   1.298  16.378  1.1677  0.7779 -2.3883
  455TMC3    H1 6781   4.149   1.214  15.987 -1.9231 -3.1884  0.7617
  455TMC3    H2 6782   3.869   1.157  16.286  0.7741 -1.4416  1.4790
  455TMC3    C7 6783   3.951   1.095  16.041 -0.5619 -0.4734 -0.7296
  455TMC3    C8 6784   4.033   1.216  16.498  0.1654  0.2698 -0.2004
  455TMC3    O1 6785   3.937   1.129  15.924 -0.1505 -0.5616  0.2235
  455TMC3    O2 6786   3.919   1.252  16.533 -0.2432  0.3529  0.0400
  456MPD2     C 6787   1.997   0.990  15.787  1.0470 -0.1490  0.3163
  456MPD2    C1 6788   2.092   0.948  15.877 -0.1188 -0.9606 -0.5243
  456MPD2    C2 6789   2.062   0.946  16.009 -0.2167  0.0672 -0.0220
  456MPD2    C3 6790   1.941   0.996  16.051  0.2574 -0.0038 -0.5321
  456MPD2    C4 6791   1.847   1.037  15.960 -0.0492  0.1426 -0.4905
  456MPD2    C5 6792   1.880   1.040  15.829 -0.2629 -0.0542 -0.5405
  456MPD2     H 6793   2.130   0.898  16.078 -0.3674  0.3855  0.3460
  456MPD2    H1 6794   1.743   1.058  15.984 -0.4479 -1.4150 -0.8406
  456MPD2    H2 6795   2.006   0.984  15.679 -1.3420 -0.9459  0.1597
  456MPD2    H3 6796   1.802   1.057  15.755 -0.6213  0.8081  0.0400
  456MPD2     N 6797   1.908   0.995  16.191  0.3778  0.2964 -0.2788
  456MPD2    H5 6798   1.965   0.942  16.256  1.3756  1.1167 -0.4986
  456MPD2    N1 6799   2.209   0.891  15.816 -0.2330 -0.3292 -0.0728
  456MPD2    H7 6800   2.222   0.920  15.720  1.2834 -2.0460 -0.3749
  457TMC3    C1 6801   1.764   1.021  16.381 -0.1883  0.1708 -0.0206
  457TMC3    C2 6802   1.659   1.090  16.440 -0.4128 -0.4867  0.1297
  457TMC3    C3 6803   1.631   1.061  16.572 -0.3458 -0.4610  0.2667
  457TMC3    C4 6804   1.833   0.921  16.446  0.6767  0.6349  0.5902
  457TMC3    C5 6805   1.802   0.900  16.574 -0.4958 -0.5345 -0.5163
  457TMC3    C6 6806   1.702   0.967  16.639 -0.3437  0.9010 -0.1132
  457TMC3     C 6807   1.802   1.067  16.245  0.3722  0.1572 -0.5116
  457TMC3     O 6808   1.739   1.164  16.201  0.2894  0.3605 -0.5170
  457TMC3     H 6809   1.605   1.162  16.379  0.2553  0.4154  0.6048
  457TMC3    H1 6810   1.899   0.857  16.388  1.0218  0.1213  1.5489
  457TMC3    H2 6811   1.680   0.950  16.744 -0.0832  0.2804 -0.1621
  457TMC3    C7 6812   1.884   0.813  16.667  0.4149  0.5248  0.1232
  457TMC3    C8 6813   1.545   1.151  16.651  0.6371  0.0028 -0.5555
  457TMC3    O1 6814   1.842   0.784  16.779  0.4560 -0.0260  0.3529
  457TMC3    O2 6815   1.586   1.167  16.767 -0.4642  0.0983 -0.2712
  458MPD2     C 6816   0.142   0.909  12.104 -0.4533 -0.1156 -0.0574
  458MPD2    C1 6817   0.103   0.856  12.222 -0.1022 -0.6495  0.3105
  458MPD2    C2 6818   4.689   0.829  12.238 -0.2974 -0.2924 -0.0394
  458MPD2    C3 6819   4.596   0.871  12.150  0.0483 -0.4930 -0.5178
  458MPD2    C4 6820   4.629   0.903  12.024 -0.0640 -0.2774 -0.5649
  458MPD2    C5 6821   0.038   0.928  12.006  0.7039  0.1114  0.4719
  458MPD2     H 6822   4.654   0.781  12.330 -1.6914 -0.4422 -0.6510
  458MPD2    H1 6823   4.560   0.939  11.948  0.7025  3.2112  0.4215
  458MPD2    H2 6824   0.242   0.923  12.064  0.0202 -1.9002  0.5312
  458MPD2    H3 6825   0.076   0.972  11.915 -1.3891  1.0381  0.0255
  458MPD2     N 6826   4.464   0.849  12.182  0.4985 -0.2634 -0.2771
  458MPD2    H5 6827   4.445   0.808  12.273  1.2204 -1.2368 -0.5553
  458MPD2    N1 6828   0.201   0.843  12.316  0.6496 -0.4047 -0.1391
  458MPD2    H7 6829   0.294   0.869  12.285  0.4420  0.8027  0.2445
  459TMC3    C1 6830   0.294   0.819  12.525 -0.1567  0.0300 -0.4068
  459TMC3    C2 6831   0.384   0.920  12.512  0.5466  0.0965  0.4052
  459TMC3    C3 6832   0.473   0.961  12.610  0.1736 -0.7882  0.6392
  459TMC3    C4 6833   0.288   0.765  12.649 -0.1704  0.2852  0.5675
  459TMC3    C5 6834   0.371   0.797  12.753 -0.4962 -0.1794  0.3314
  459TMC3    C6 6835   0.468   0.893  12.734  0.0925  1.1549  0.9136
  459TMC3     C 6836   0.183   0.799  12.441 -0.2260  0.3269 -0.4764
  459TMC3     O 6837   0.088   0.734  12.480 -0.0292  0.2667 -0.0047
  459TMC3     H 6838   0.380   0.983  12.423  0.4239 -1.1353 -0.4568
  459TMC3    H1 6839   0.209   0.692  12.663 -1.4917  1.3559 -1.4601
  459TMC3    H2 6840   0.549   0.902  12.805  1.6451 -1.4618 -0.5393
  459TMC3    C7 6841   0.346   0.725  12.879 -0.0615 -0.6415  0.3645
  459TMC3    C8 6842   0.594   1.027  12.571  0.4531 -0.0096 -1.0337
  459TMC3    O1 6843   0.289   0.619  12.863  0.4899  0.3803 -0.4642
  459TMC3    O2 6844   0.685   1.015  12.652 -0.5098 -0.4240  0.3194
  460MPD2     C 6845   4.005   2.868  10.578 -0.8189 -0.5094  0.4684
  460MPD2    C1 6846   3.982   3.006  10.579 -0.3916 -0.4058  0.4652
  460MPD2    C2 6847   3.986   3.073  10.461 -0.2687 -0.3993  0.8310
  460MPD2    C3 6848   4.005   3.000  10.337 -0.5452 -0.1548  0.4117
  460MPD2    C4 6849   4.029   2.858  10.343 -0.0259 -0.5917  0.4677
  460MPD2    C5 6850   4.027   2.795  10.462 -1.1471  0.2475  0.9108
  460MPD2     H 6851   3.953   3.176  10.449 -0.6361 -0.6845 -0.6424
  460MPD2    H1 6852   4.047   2.785  10.265  0.4745  0.9273 -0.8344
  460MPD2    H2 6853   3.990   2.812  10.670  0.8768 -1.5320  0.1196
  460MPD2    H3 6854   4.041   2.687  10.470 -2.8007  0.1723  2.7176
  460MPD2     N 6855   4.002   3.066  10.216 -0.4602  0.0058  0.1670
  460MPD2    H5 6856   3.977   3.165  10.217 -0.2701  0.0830 -2.4477
  460MPD2    N1 6857   3.933   3.072  10.700 -0.4256  0.4927  0.1972
  460MPD2    H7 6858   3.952   3.017  10.783  2.3252  1.1213 -0.0173
  461TMC3    C1 6859   3.965   3.103   9.986 -0.4339 -0.4186  0.3339
  461TMC3    C2 6860   3.989   3.043   9.862 -1.0347  0.2114  0.1823
  461TMC3    C3 6861   3.974   3.120   9.752 -0.1086  0.3607 -0.1986
  461TMC3    C4 6862   3.921   3.234  10.004  0.2942  0.6261  0.0321
  461TMC3    C5 6863   3.909   3.313   9.887  0.0095  0.4300  0.5232
  461TMC3    C6 6864   3.925   3.250   9.769 -0.2584  0.0364  0.4390
  461TMC3     C 6865   3.999   3.009  10.092 -0.7878  0.9969 -0.4056
  461TMC3     O 6866   4.028   2.894  10.064  0.1016  0.4372  0.3999
  461TMC3     H 6867   4.029   2.943   9.856 -1.6709 -0.1445  1.9777
  461TMC3    H1 6868   3.888   3.269  10.101  3.0232  2.5310  0.3124
  461TMC3    H2 6869   3.928   3.307   9.677  4.9621 -1.5634 -0.4024
  461TMC3    C7 6870   3.851   3.443   9.881  0.1067  0.0910  0.6167
  461TMC3    C8 6871   3.993   3.050   9.625 -0.2726 -0.3582  0.6566
  461TMC3    O1 6872   3.810   3.490   9.778 -0.2740 -0.1873  0.5636
  461TMC3    O2 6873   4.094   2.986   9.604 -0.2540  0.0188  0.0759
  462TMC3    C1 6874   3.461   2.032   0.269  0.0424 -0.6466  0.2726
  462TMC3    C2 6875   3.568   2.115   0.243 -0.4880 -0.2295  0.4575
  462TMC3    C3 6876   3.547   2.205   0.140  0.9481  0.1029  0.3227
  462TMC3    C4 6877   3.341   2.040   0.198  0.5792  0.4408 -0.8716
  462TMC3    C5 6878   3.330   2.140   0.114 -0.0120  0.4721 -0.8961
  462TMC3    C6 6879   3.431   2.216   0.072 -0.2895  0.7911  0.2648
  462TMC3     C 6880   3.452   1.970   0.398 -0.6520 -0.2210 -0.0947
  462TMC3     O 6881   3.538   2.005   0.478  0.5501 -0.0623 -0.5554
  462TMC3     H 6882   3.662   2.112   0.297  0.7452 -2.1814 -1.7877
  462TMC3    H1 6883   3.252   1.989   0.231  0.9526  0.7639  0.6873
  462TMC3    H2 6884   3.427   2.313   0.023 -0.1452 -0.1431 -1.5815
  462TMC3    C7 6885   3.200   2.202   0.092  0.4382 -0.0058  0.2691
  462TMC3    C8 6886   3.654   2.300   0.111  0.2107 -0.2021 -0.1215
  462TMC3    O1 6887   3.115   2.116   0.076 -0.2725 -0.0183 -0.1152
  462TMC3    O2 6888   3.666   2.335  17.688  0.2288 -0.1475 -0.7589
  463MPD2     C 6889   0.370   2.456   1.903 -0.1654  0.2705 -0.0010
  463MPD2    C1 6890   0.274   2.523   1.829 -0.7403 -0.5602 -0.0920
  463MPD2    C2 6891   0.292   2.643   1.774  0.2311 -0.0786  0.6583
  463MPD2    C3 6892   0.415   2.698   1.783 -0.4233  0.5985  0.2027
  463MPD2    C4 6893   0.513   2.648   1.861  0.1275  0.0177 -0.0842
  463MPD2    C5 6894   0.493   2.521   1.916  0.2699 -0.9242  0.0301
  463MPD2     H 6895   0.216   2.693   1.715  0.1529 -0.9105  0.0486
  463MPD2    H1 6896   0.602   2.704   1.887 -0.0526  1.6243 -2.9120
  463MPD2    H2 6897   0.351   2.366   1.960  3.7179  0.2215  1.2429
  463MPD2    H3 6898   0.565   2.473   1.982  1.6987  0.0137 -0.8680
  463MPD2     N 6899   0.459   2.818   1.720 -0.2130 -0.3908  0.1261
  463MPD2    H5 6900   0.547   2.858   1.751 -1.0677  1.4891  0.1799
  463MPD2    N1 6901   0.152   2.463   1.791 -0.0782 -0.1476  0.1464
  463MPD2    H7 6902   0.087   2.520   1.738 -1.7177 -2.9431 -0.8580
  464TMC3    C1 6903   4.716   2.287   1.760  0.4156  0.3056  0.5325
  464TMC3    C2 6904   4.616   2.372   1.725 -0.5501 -0.1674  0.6534
  464TMC3    C3 6905   4.513   2.320   1.663  0.1006 -0.3039 -0.8755
  464TMC3    C4 6906   4.711   2.152   1.739 -0.1631  0.4429 -1.1739
  464TMC3    C5 6907   4.602   2.107   1.670 -0.0908  0.0435  0.3973
  464TMC3    C6 6908   4.502   2.186   1.633 -0.2105  0.1594  0.3489
  464TMC3     C 6909   0.119   2.330   1.819 -0.3583 -0.6112 -0.3180
  464TMC3     O 6910   0.193   2.240   1.865  0.1283 -0.1267  0.0534
  464TMC3     H 6911   4.619   2.474   1.761  2.3182  0.3292 -1.0301
  464TMC3    H1 6912   0.062   2.079   1.765 -0.7687  0.4219  0.5542
  464TMC3    H2 6913   4.421   2.146   1.574 -0.6177  0.7761  0.4825
  464TMC3    C7 6914   4.613   1.967   1.623 -0.3468  0.3517  0.6554
  464TMC3    C8 6915   4.416   2.411   1.609 -0.1603  0.4897 -0.7643
  464TMC3    O1 6916   4.709   1.907   1.670  0.3801  0.1776 -0.0502
  464TMC3    O2 6917   4.462   2.523   1.591 -0.2381  0.1494 -0.3621
  465MPD2     C 6918   0.619   0.708  17.207  0.4906  0.2463  0.1261
  465MPD2    C1 6919   0.533   0.814  17.224  0.0800 -0.1459  0.3968
  465MPD2    C2 6920   0.525   0.907  17.124  0.5883  0.2331 -0.5444
  465MPD2    C3 6921   0.598   0.910  17.011 -0.3491  0.0375  0.2876
  465MPD2    C4 6922   0.700   0.817  17.003  0.0924 -0.1504  0.0436
  465MPD2    C5 6923   0.698   0.712  17.097 -0.2814 -0.0408 -0.2056
  465MPD2     H 6924   0.443   0.978  17.117  1.6066  1.3310 -1.3050
  465MPD2    H1 6925   0.760   0.821  16.913 -0.0104 -1.3520 -0.0756
  465MPD2    H2 6926   0.641   0.633  17.282  2.4776 -1.6824 -2.4129
  465MPD2    H3 6927   0.768   0.631  17.082  1.6537  1.8903 -1.7694
  465MPD2     N 6928   0.579   1.007  16.913 -0.3863 -0.3930  0.0629
  465MPD2    H5 6929   0.517   1.081  16.945 -3.0037 -2.0321 -1.2104
  465MPD2    N1 6930   0.441   0.824  17.331 -0.3967 -0.4843 -0.6820
  465MPD2    H7 6931   0.380   0.905  17.325 -1.3339 -1.1132  0.4035
  466TMC3    C1 6932   0.389   1.246  16.653 -0.3361 -1.1920 -0.5185
  466TMC3    C2 6933   0.461   1.298  16.553 -0.2390 -0.1634  0.0334
  466TMC3    C3 6934   0.586   1.248  16.539  0.5191  0.6658  0.4076
  466TMC3    C4 6935   0.440   1.139  16.728 -0.1653  0.2378 -0.0811
  466TMC3    C5 6936   0.568   1.102  16.704 -0.0696  0.4902 -0.1886
  466TMC3    C6 6937   0.639   1.140  16.596  0.1526  0.3277  1.0010
  466TMC3     C 6938   0.270   1.304  16.705 -0.3031  0.5052 -0.2576
  466TMC3     O 6939   0.226   1.260  16.812  0.9834  0.1736 -0.8230
  466TMC3     H 6940   0.423   1.384  16.500  0.0332  0.9210  1.5981
  466TMC3    H1 6941   0.376   1.091  16.801 -1.6595  0.7699 -1.0641
  466TMC3    H2 6942   0.738   1.106  16.566  0.8073  2.0518  1.2053
  466TMC3    C7 6943   0.625   0.996  16.782 -0.0072  0.0897  0.1167
  466TMC3    C8 6944   0.667   1.327  16.445  0.2258 -0.3581 -0.3456
  466TMC3    O1 6945   0.694   0.912  16.719 -0.2208  0.0948  0.5403
  466TMC3    O2 6946   0.741   1.277  16.362 -0.2905  0.8037  0.6561
  467TMC3    C1 6947   1.815   0.026  13.654  0.5466  0.2594  0.6111
  467TMC3    C2 6948   1.756   4.698  13.540 -0.2266 -0.3825 -0.5518
  467TMC3    C3 6949   1.622   4.718  13.527  0.3763  0.4122 -0.8581
  467TMC3    C4 6950   1.753   0.090  13.753  0.0131 -0.4601  0.0722
  467TMC3    C5 6951   1.621   0.099  13.738  0.2257  0.3028 -0.0170
  467TMC3    C6 6952   1.552   0.051  13.627  0.0732 -0.2753 -0.4052
  467TMC3     C 6953   1.962   0.036  13.656  0.4114 -0.6773 -0.4284
  467TMC3     O 6954   2.016   0.109  13.740  0.3888 -0.6320 -0.0043
  467TMC3     H 6955   1.808   4.676  13.447  1.7314 -3.2299  1.2379
  467TMC3    H1 6956   1.806   0.126  13.840  0.7868  1.0089 -1.0153
  467TMC3    H2 6957   1.449   0.079  13.607 -0.3030 -2.1715 -1.1368
  467TMC3    C7 6958   1.552   0.132  13.857  0.9291 -0.5094 -0.0842
  467TMC3    C8 6959   1.569   0.014  13.396 -0.4487  0.3519  0.0227
  467TMC3    O1 6960   1.606   0.210  13.931  0.1090  0.5392 -0.5018
  467TMC3    O2 6961   1.470   4.675  13.363 -0.6956 -0.5073  0.2469
  468MPD2     C 6962   1.092   2.804  10.488  0.4613  0.6957 -0.2383
  468MPD2    C1 6963   1.210   2.819  10.547  0.1418 -0.1656  0.3108
  468MPD2    C2 6964   1.258   2.718  10.625 -0.6415 -0.2888 -0.3421
  468MPD2    C3 6965   1.186   2.601  10.654  0.2228  0.5434 -0.2729
  468MPD2    C4 6966   1.070   2.577  10.585  0.6744 -0.0525  0.0944
  468MPD2    C5 6967   1.023   2.685  10.507 -0.4617 -0.1814 -0.7702
  468MPD2     H 6968   1.359   2.727  10.662 -0.9578  0.4795  0.3168
  468MPD2    H1 6969   1.002   2.494  10.600 -0.2644  0.9766  1.6343
  468MPD2    H2 6970   1.047   2.880  10.426 -1.5455  1.7169  2.5106
  468MPD2    H3 6971   0.923   2.678  10.464  1.2086 -0.9787 -4.4974
  468MPD2     N 6972   1.222   2.506  10.749 -0.3554 -0.2309  0.7391
  468MPD2    H5 6973   1.156   2.431  10.765 -0.1922 -1.1140 -2.7167
  468MPD2    N1 6974   1.292   2.932  10.533 -0.2362 -1.0030  0.0851
  468MPD2    H7 6975   1.380   2.925  10.585 -0.5153  0.5269  0.7901
  469TMC3    C1 6976   1.355   3.156  10.501 -0.0862 -0.1364  0.5752
  469TMC3    C2 6977   1.491   3.123  10.484  0.0997 -0.2460  0.1643
  469TMC3    C3 6978   1.575   3.225  10.508 -0.8121  0.0748  0.2108
  469TMC3    C4 6979   1.303   3.282  10.520 -0.0693 -0.2156  0.5110
  469TMC3    C5 6980   1.390   3.378  10.559 -0.7937  0.6231  0.3989
  469TMC3    C6 6981   1.527   3.345  10.554  0.8474  0.3763  1.0651
  469TMC3     C 6982   1.254   3.054  10.489  0.3983  0.1609  0.5638
  469TMC3     O 6983   1.145   3.094  10.451  0.3361  0.3624  0.7292
  469TMC3     H 6984   1.529   3.027  10.450 -3.9775 -1.4528 -0.9884
  469TMC3    H1 6985   1.199   3.300  10.545 -0.6395 -2.9655  0.2148
  469TMC3    H2 6986   1.597   3.405  10.611 -0.2252  1.4660  1.2376
  469TMC3    C7 6987   1.348   3.482  10.645  0.2984 -0.2792 -0.2045
  469TMC3    C8 6988   1.712   3.208  10.551  0.2198 -0.6945  0.1145
  469TMC3    O1 6989   1.241   3.474  10.705  0.1665  0.1597 -0.3111
  469TMC3    O2 6990   1.789   3.298  10.539 -0.2471 -0.0027 -0.2543
  470TMC3    C1 6991   2.791   3.565   0.966 -0.8218 -0.2404 -0.5940
  470TMC3    C2 6992   2.901   3.628   1.008 -0.4377 -0.3256 -0.4818
  470TMC3    C3 6993   2.903   3.675   1.139 -0.0658  0.5024  0.5763
  470TMC3    C4 6994   2.679   3.536   1.046 -0.3921 -0.4399 -0.3344
  470TMC3    C5 6995   2.680   3.586   1.171  0.6461  0.3657 -0.6120
  470TMC3    C6 6996   2.790   3.655   1.218  0.4698 -0.1598 -0.2679
  470TMC3     C 6997   2.795   3.518   0.829  0.6161  1.4352  0.0208
  470TMC3     O 6998   2.904   3.508   0.782 -0.5130  0.1289  0.2145
  470TMC3     H 6999   2.984   3.644   0.940  1.5696  0.2050  2.0748
  470TMC3    H1 7000   2.596   3.476   1.009 -0.9134 -0.4367  0.8628
  470TMC3    H2 7001   2.785   3.694   1.319 -1.1785  0.3844 -0.5541
  470TMC3    C7 7002   2.575   3.534   1.274 -0.3168 -0.7265 -0.0902
  470TMC3    C8 7003   2.996   3.772   1.181 -0.3142 -0.3378 -0.3513
  470TMC3    O1 7004   2.515   3.432   1.243 -0.6093 -0.1955 -0.2609
  470TMC3    O2 7005   2.971   3.838   1.279 -0.9765 -0.7152 -0.1662
  471MPD2     C 7006   3.706   0.193  16.612  0.1503  0.1666  0.3281
  471MPD2    C1 7007   3.752   0.073  16.555 -0.4257 -0.1866 -0.7251
  471MPD2    C2 7008   3.838   0.002  16.630  0.0678  0.2180 -0.4180
  471MPD2    C3 7009   3.882   0.034  16.758  0.1012 -0.0247 -0.6761
  471MPD2    C4 7010   3.837   0.150  16.813  0.3060  0.6198 -0.6085
  471MPD2    C5 7011   3.751   0.227  16.739  0.0397  0.6040  0.3275
  471MPD2     H 7012   3.874   4.637  16.577  0.1002 -0.4750  0.7733
  471MPD2    H1 7013   3.877   0.194  16.904  0.3905  1.0637 -0.8570
  471MPD2    H2 7014   3.634   0.260  16.567 -1.2886 -1.9838 -0.5621
  471MPD2    H3 7015   3.717   0.319  16.784 -1.2070  0.4306 -0.2519
  471MPD2     N 7016   3.976   4.681  16.831  0.5453  0.3936  0.4457
  471MPD2    H5 7017   4.012   4.719  16.918  1.8851 -0.9068  0.4658
  471MPD2    N1 7018   3.698   0.014  16.439  0.2761 -0.3732  0.0696
  471MPD2    H7 7019   3.735   4.646  16.417  1.3815 -0.0296  0.4767
  472TMC3    C1 7020   3.595   4.705  16.229 -0.3196  0.3771  0.0401
  472TMC3    C2 7021   3.498   0.017  16.142 -0.3371  0.1420 -0.9637
  472TMC3    C3 7022   3.448   4.642  16.062 -1.4295 -0.4770 -0.0861
  472TMC3    C4 7023   3.640   4.571  16.234 -0.6213 -0.0493 -0.0207
  472TMC3    C5 7024   3.570   4.470  16.162  0.0292  1.1636  0.4694
  472TMC3    C6 7025   3.465   4.510  16.084 -0.3361  1.1218 -0.6407
  472TMC3     C 7026   3.615   0.078  16.345  0.1703  0.6766 -0.1483
  472TMC3     O 7027   3.558   0.187  16.352 -0.2213 -0.3029  0.5270
  472TMC3     H 7028   3.474   0.118  16.111 -0.1852 -0.0643 -1.7479
  472TMC3    H1 7029   3.712   4.546  16.312 -0.8466 -0.5249  0.0363
  472TMC3    H2 7030   3.410   4.436  16.026  1.2246 -0.0406 -0.6614
  472TMC3    C7 7031   3.564   4.342  16.236  1.2572 -0.5517  0.0122
  472TMC3    C8 7032   3.323   4.666  15.994  0.6522  0.0327 -0.4543
  472TMC3    O1 7033   3.588   4.345  16.354 -0.1727 -0.3525 -0.0680
  472TMC3    O2 7034   3.325   4.723  15.888 -0.1555  0.1470  0.0912
  473MPD2     C 7035   4.256   2.453  13.783 -0.7237  0.1475  0.1020
  473MPD2    C1 7036   4.138   2.529  13.795 -0.2154  0.3007  0.5603
  473MPD2    C2 7037   4.130   2.630  13.885 -0.2238 -0.0314 -0.0839
  473MPD2    C3 7038   4.240   2.666  13.955  0.1414  0.1341  0.0506
  473MPD2    C4 7039   4.359   2.590  13.953  0.0056 -0.3117  0.6690
  473MPD2    C5 7040   4.370   2.486  13.858  0.2172 -0.6382 -0.2809
  473MPD2     H 7041   4.035   2.682  13.893 -0.4058 -0.2801 -0.6233
  473MPD2    H1 7042   4.436   2.621  14.023 -0.5992  0.5252  0.9735
  473MPD2    H2 7043   4.265   2.383  13.701 -0.0403  0.3749 -0.0223
  473MPD2    H3 7044   4.454   2.420  13.842 -0.7526 -2.1857  1.0649
  473MPD2     N 7045   4.230   2.776  14.045  0.6666 -0.3422  0.0697
  473MPD2    H5 7046   4.312   2.788  14.104  0.0477 -2.4529  1.3550
  473MPD2    N1 7047   4.027   2.514  13.713 -0.1323 -0.1485  0.2196
  473MPD2    H7 7048   3.940   2.544  13.755 -0.1535  0.4738 -0.2694
  474TMC3    C1 7049   4.144   2.959  14.169  0.1405 -0.0214 -0.3841
  474TMC3    C2 7050   4.035   3.028  14.205  0.6226 -0.3497  0.4308
  474TMC3    C3 7051   4.044   3.132  14.297 -0.0765 -0.2314  0.6054
  474TMC3    C4 7052   4.265   2.989  14.228  0.2829  0.7234  0.6204
  474TMC3    C5 7053   4.273   3.084  14.328 -0.8307 -0.4435 -0.0797
  474TMC3    C6 7054   4.164   3.154  14.361  0.0663  0.0261 -0.1941
  474TMC3     C 7055   4.125   2.865  14.058 -0.4938 -0.5382 -0.1319
  474TMC3     O 7056   4.018   2.872  14.000  0.0799 -0.1281  0.1070
  474TMC3     H 7057   3.936   3.021  14.160 -0.1163  1.3229  1.7576
  474TMC3    H1 7058   4.360   2.942  14.207  0.7777  2.3017 -0.5896
  474TMC3    H2 7059   4.164   3.228  14.441 -0.3131  0.0068 -0.1786
  474TMC3    C7 7060   4.385   3.068  14.415 -0.6884 -0.1174  0.4865
  474TMC3    C8 7061   3.921   3.191  14.342 -0.5829  0.0603  0.1418
  474TMC3    O1 7062   4.496   3.073  14.367 -0.0764 -0.0233 -0.0125
  474TMC3    O2 7063   3.833   3.111  14.365 -0.3102 -0.2323 -0.2864
  475MPD2     C 7064   2.475   0.615   9.959 -0.0412 -0.6289  0.0868
  475MPD2    C1 7065   2.493   0.745   9.991  0.2339  0.1901 -1.0396
  475MPD2    C2 7066   2.399   0.812  10.067  0.5764 -0.6334  0.6339
  475MPD2    C3 7067   2.295   0.740  10.124 -0.1417  0.2221  0.3559
  475MPD2    C4 7068   2.271   0.610  10.089  0.2344 -0.3989 -0.5129
  475MPD2    C5 7069   2.367   0.547  10.011  0.0011  0.3799  0.3313
  475MPD2     H 7070   2.409   0.916  10.096  0.7579 -0.7381  0.9429
  475MPD2    H1 7071   2.181   0.555  10.111  0.9211 -1.7340 -1.0899
  475MPD2    H2 7072   2.539   0.557   9.895  2.4584  1.7998  0.3958
  475MPD2    H3 7073   2.342   0.450   9.971  0.8336  0.1783  0.3172
  475MPD2     N 7074   2.213   0.818  10.208 -0.0960 -0.7722 -0.3716
  475MPD2    H5 7075   2.246   0.909  10.236  1.2262 -1.2491 -0.4109
  475MPD2    N1 7076   2.604   0.808   9.935  0.3252 -0.1848  0.5946
  475MPD2    H7 7077   2.677   0.748   9.897  1.1630  0.7847  0.6732
  476TMC3    C1 7078   2.538   1.043   9.954 -0.2770  0.5981 -0.9264
  476TMC3    C2 7079   2.449   1.057   9.849 -0.4009  0.1422 -0.0110
  476TMC3    C3 7080   2.357   1.156   9.867 -0.3222  0.3940 -0.2960
  476TMC3    C4 7081   2.547   1.120  10.070  0.2926  0.1414  0.2225
  476TMC3    C5 7082   2.439   1.210  10.082  0.2409  0.3886 -1.0480
  476TMC3    C6 7083   2.351   1.228   9.988 -0.4467 -0.1247 -0.2075
  476TMC3     C 7084   2.638   0.938   9.950 -0.0577 -0.5841 -0.3616
  476TMC3     O 7085   2.752   0.975   9.917  0.4849  0.4070 -0.4244
  476TMC3     H 7086   2.457   0.986   9.768 -1.1750  1.0310 -0.8798
  476TMC3    H1 7087   2.624   1.102  10.144 -0.2896 -2.2890  0.2312
  476TMC3    H2 7088   2.265   1.289  10.016 -0.1539 -0.4332  1.3467
  476TMC3    C7 7089   2.374   1.197  10.207  0.3668 -0.3290 -0.1734
  476TMC3    C8 7090   2.218   1.121   9.834  0.2236  0.3054  0.0757
  476TMC3    O1 7091   2.312   1.090  10.220  0.3831 -0.1667  0.1523
  476TMC3    O2 7092   2.142   1.214   9.814  0.3216  0.3125  0.5935
  477MPD2     C 7093   4.415   2.028  11.293  0.1998 -0.1280 -0.3975
  477MPD2    C1 7094   4.382   2.109  11.391 -0.0731 -0.3971  0.3949
  477MPD2    C2 7095   4.399   2.066  11.523 -0.6100 -0.0531 -0.6332
  477MPD2    C3 7096   4.443   1.935  11.548 -0.1490  0.1304  0.4631
  477MPD2    C4 7097   4.472   1.851  11.444 -0.5009  0.5259  0.1932
  477MPD2    C5 7098   4.455   1.898  11.315  0.2151 -0.1648 -0.0958
  477MPD2     H 7099   4.386   2.132  11.609  0.5805 -2.4730  1.3962
  477MPD2    H1 7100   4.505   1.749  11.459 -0.0609  0.5776 -0.4104
  477MPD2    H2 7101   4.406   2.065  11.192 -1.9553  0.4149 -0.0101
  477MPD2    H3 7102   4.484   1.835  11.232 -1.0824 -0.6071 -0.2165
  477MPD2     N 7103   4.466   1.881  11.674 -0.4626 -0.0496 -0.7641
  477MPD2    H5 7104   4.498   1.785  11.676 -0.9843 -0.1786  1.5020
  477MPD2    N1 7105   4.338   2.240  11.356  0.1709  0.9962 -0.5508
  477MPD2    H7 7106   4.333   2.259  11.256  0.3186 -1.2375 -0.9876
  478TMC3    C1 7107   4.255   2.457  11.371 -0.2983 -0.9893 -0.1894
  478TMC3    C2 7108   4.235   2.570  11.447  0.3522  0.0874 -0.2213
  478TMC3    C3 7109   4.133   2.657  11.408  0.3216 -0.1431  0.1150
  478TMC3    C4 7110   4.164   2.433  11.267  0.3213 -0.1887  0.8670
  478TMC3    C5 7111   4.073   2.527  11.231 -0.4596  0.2204  0.0610
  478TMC3    C6 7112   4.052   2.643  11.308  0.1775 -0.5553  0.6545
  478TMC3     C 7113   4.324   2.350  11.432 -0.3977 -0.2255  1.4539
  478TMC3     O 7114   4.327   2.366  11.556 -0.2197  0.4147 -0.0983
  478TMC3     H 7115   4.294   2.602  11.532 -1.0072  0.6672  0.4905
  478TMC3    H1 7116   4.155   2.335  11.221 -1.6786 -0.0694  1.0388
  478TMC3    H2 7117   3.984   2.722  11.280 -2.0707 -1.3716  3.8768
  478TMC3    C7 7118   4.006   2.494  11.102 -0.1715 -0.1673  0.3718
  478TMC3    C8 7119   4.114   2.760  11.505 -0.0589 -0.3226  0.4580
  478TMC3    O1 7120   4.012   2.380  11.057 -0.1537 -0.5684  0.1261
  478TMC3    O2 7121   4.130   2.717  11.621  0.1623  0.5970  0.1335
  479MPD2     C 7122   2.925   4.185  14.714  0.2012  0.5091 -0.2509
  479MPD2    C1 7123   2.924   4.116  14.833 -0.6481  0.0529  0.6167
  479MPD2    C2 7124   3.023   4.154  14.918 -0.1783 -0.1886 -0.1783
  479MPD2    C3 7125   3.115   4.257  14.884 -0.1584 -0.4043 -0.4196
  479MPD2    C4 7126   3.098   4.336  14.774 -0.2220  0.5268  0.3000
  479MPD2    C5 7127   3.004   4.293  14.683 -0.1620 -0.2473 -0.1119
  479MPD2     H 7128   3.020   4.117  15.020  1.1901 -1.2017 -0.5151
  479MPD2    H1 7129   3.156   4.426  14.757  0.8137 -0.3627 -0.7894
  479MPD2    H2 7130   2.859   4.157  14.632 -1.6344 -1.4692  1.9208
  479MPD2    H3 7131   2.989   4.350  14.592  0.2505  0.4282  0.2438
  479MPD2     N 7132   3.209   4.300  14.977 -0.3807 -0.0266 -0.1714
  479MPD2    H5 7133   3.262   4.377  14.937  0.6095  0.0198  1.2265
  479MPD2    N1 7134   2.824   4.018  14.855 -0.1977 -0.0161 -0.0042
  479MPD2    H7 7135   2.775   3.992  14.771 -0.2015  3.6535 -1.1577
  480TMC3    C1 7136   3.276   4.304  15.414  0.4111  1.5019 -0.0749
  480TMC3    C2 7137   3.223   4.429  15.408 -0.1398 -0.1082 -0.6022
  480TMC3    C3 7138   3.219   4.498  15.285  0.3343  0.1124 -0.5788
  480TMC3    C4 7139   3.316   4.242  15.299 -0.1314 -0.0126 -0.6277
  480TMC3    C5 7140   3.322   4.311  15.182 -0.0944 -0.3871 -0.1231
  480TMC3    C6 7141   3.280   4.438  15.176  0.6951  0.7340 -0.3954
  480TMC3     C 7142   3.234   4.213  15.516  0.9197  0.8368  0.3511
  480TMC3     O 7143   3.220   4.100  15.485 -0.2475  0.2602  0.0770
  480TMC3     H 7144   3.156   4.464  15.486  0.4948 -0.8580  0.2750
  480TMC3    H1 7145   3.356   4.141  15.295 -1.2168 -0.3917 -2.0509
  480TMC3    H2 7146   3.306   4.495  15.088  1.8011  1.8082  0.6223
  480TMC3    C7 7147   3.238   4.232  15.097  0.2920  0.3589 -0.5981
  480TMC3    C8 7148   3.084   4.532  15.253 -0.7956  0.1041 -0.5137
  480TMC3    O1 7149   3.187   4.142  15.158  0.0693 -0.5830 -0.4526
  480TMC3    O2 7150   3.002   4.516  15.338  0.7077 -0.4878 -0.1011
  481MPD2     C 7151   4.211   3.539  13.767  0.5857 -0.1063  0.1272
  481MPD2    C1 7152   4.085   3.581  13.802 -0.0716 -0.4194 -0.4928
  481MPD2    C2 7153   4.070   3.669  13.909  0.1710 -0.0857 -0.5263
  481MPD2    C3 7154   4.183   3.698  13.991 -0.0470  0.3861  0.3477
  481MPD2    C4 7155   4.306   3.656  13.949 -0.1684 -0.0557 -0.0887
  481MPD2    C5 7156   4.319   3.572  13.843  0.2673 -0.0688 -0.1359
  481MPD2     H 7157   3.975   3.708  13.943 -0.3106 -1.6985  0.0035
  481MPD2    H1 7158   4.391   3.666  14.015  0.1863  2.1695 -0.8728
  481MPD2    H2 7159   4.235   3.479  13.680 -0.1020  0.6031 -0.5525
  481MPD2    H3 7160   4.413   3.522  13.823 -0.1499 -1.2562  0.8454
  481MPD2     N 7161   4.182   3.787  14.102 -0.3067 -0.5447 -0.3840
  481MPD2    H5 7162   4.269   3.791  14.153  0.3117 -0.1425 -1.4788
  481MPD2    N1 7163   3.978   3.526  13.723 -0.1423 -0.5895  0.1997
  481MPD2    H7 7164   3.996   3.457  13.652  2.0704 -0.7945  0.9525
  482TMC3    C1 7165   3.768   3.468  13.651  0.0327  0.5584 -0.3244
  482TMC3    C2 7166   3.791   3.333  13.643 -0.0458 -0.4697  0.3150
  482TMC3    C3 7167   3.704   3.245  13.580 -0.1835 -0.3258 -0.2935
  482TMC3    C4 7168   3.653   3.516  13.588  0.7866  0.3101 -0.1576
  482TMC3    C5 7169   3.568   3.427  13.521  0.6986  0.1737 -0.0580
  482TMC3    C6 7170   3.591   3.293  13.515  0.1574  0.5815  0.2305
  482TMC3     C 7171   3.851   3.562  13.729  0.1766 -0.5445  0.1560
  482TMC3     O 7172   3.797   3.646  13.799 -0.1355 -0.4718 -0.4497
  482TMC3     H 7173   3.882   3.297  13.688  0.1026  0.7733  1.0228
  482TMC3    H1 7174   3.612   3.614  13.607  1.9656  0.8186 -0.2016
  482TMC3    H2 7175   3.520   3.238  13.453 -2.1308  1.6805  1.8732
  482TMC3    C7 7176   3.486   3.476  13.409 -0.4537  0.1931  0.7385
  482TMC3    C8 7177   3.753   3.115  13.547 -0.1625 -0.1420  0.2355
  482TMC3    O1 7178   3.409   3.399  13.354  0.3626 -0.5283  0.0810
  482TMC3    O2 7179   3.855   3.086  13.611  0.0370 -0.2280  1.0119
  483TMC3    C1 7180   1.805   1.456   0.307  0.1789 -0.7384 -0.1537
  483TMC3    C2 7181   1.794   1.586   0.262 -0.4685  0.0501  0.6551
  483TMC3    C3 7182   1.801   1.686   0.350  0.2070 -0.2524 -0.2602
  483TMC3    C4 7183   1.822   1.418   0.437 -1.0157 -0.0706  0.1045
  483TMC3    C5 7184   1.836   1.527   0.526  0.0084 -0.0074 -0.6857
  483TMC3    C6 7185   1.825   1.656   0.482  0.1847 -0.3919 -0.2865
  483TMC3     C 7186   1.885   1.376   0.206 -0.3990 -0.5159  0.5007
  483TMC3     O 7187   1.874   1.408   0.091  0.0665  0.1442 -0.0245
  483TMC3     H 7188   1.786   1.607   0.156  0.4655  0.1750  0.6051
  483TMC3    H1 7189   1.822   1.318   0.479 -1.7421  0.2432  0.8591
  483TMC3    H2 7190   1.830   1.738   0.552  0.1873  1.6706 -2.6729
  483TMC3    C7 7191   1.874   1.493   0.665 -0.7316 -0.3099  0.3403
  483TMC3    C8 7192   1.851   1.805   0.290  0.3613  0.3622 -0.0401
  483TMC3    O1 7193   1.952   1.400   0.686 -0.0757  0.5408 -0.0910
  483TMC3    O2 7194   1.908   1.806   0.184 -0.1179 -0.7193 -0.3265
  484MPD2     C 7195   0.688   1.307  12.362 -0.6003 -0.0801  0.0118
  484MPD2    C1 7196   0.704   1.187  12.428 -0.1154 -0.1418 -0.6502
  484MPD2    C2 7197   0.833   1.141  12.445 -0.3743 -0.0039 -0.1808
  484MPD2    C3 7198   0.946   1.212  12.408 -0.4346 -1.0725 -0.1676
  484MPD2    C4 7199   0.926   1.332  12.346  0.0159 -0.1561  0.0701
  484MPD2    C5 7200   0.799   1.381  12.326  0.2416  0.1238 -0.2887
  484MPD2     H 7201   0.850   1.039  12.479 -2.2876 -0.2413  0.0906
  484MPD2    H1 7202   1.006   1.384  12.295  1.0758  2.2605  4.1606
  484MPD2    H2 7203   0.585   1.327  12.336 -1.1287 -1.2783  1.1621
  484MPD2    H3 7204   0.790   1.479  12.283  2.0863  0.5977  0.3795
  484MPD2     N 7205   1.073   1.157  12.397 -0.0245 -0.3487  0.5244
  484MPD2    H5 7206   1.132   1.212  12.335 -0.0728  0.7191  1.4104
  484MPD2    N1 7207   0.590   1.115  12.468  0.1814  0.1563 -1.1009
  484MPD2    H7 7208   0.498   1.146  12.438 -0.3400 -0.7535 -0.4289
  485TMC3    C1 7209   1.240   0.993  12.393  0.1152  0.5065  0.0335
  485TMC3    C2 7210   1.336   0.928  12.469  0.5523  0.0189  0.4389
  485TMC3    C3 7211   1.462   0.942  12.427  0.3544 -0.1012  0.0919
  485TMC3    C4 7212   1.263   1.052  12.271  0.0553 -0.4976  0.0101
  485TMC3    C5 7213   1.394   1.061  12.238  0.6815  0.2994 -0.4179
  485TMC3    C6 7214   1.496   1.020  12.314  0.0337  0.0137 -0.0499
  485TMC3     C 7215   1.121   1.044  12.459 -0.2458 -0.0290 -0.6283
  485TMC3     O 7216   1.072   0.981  12.552  0.1831 -0.5203 -0.2593
  485TMC3     H 7217   1.328   0.891  12.571 -0.1779 -2.1654 -0.4063
  485TMC3    H1 7218   1.183   1.073  12.201 -0.4720 -0.8062  0.5128
  485TMC3    H2 7219   1.595   1.054  12.282 -0.3971  0.1091 -1.3100
  485TMC3    C7 7220   1.431   1.049  12.098 -0.1774  0.2548  0.7084
  485TMC3    C8 7221   1.532   0.818  12.404  0.1001  0.0978  0.5510
  485TMC3    O1 7222   1.377   1.120  12.020  0.4500  0.4339  0.1568
  485TMC3    O2 7223   1.624   0.828  12.321  1.0483 -0.1143  0.1329
  486MPD2     C 7224   2.634   4.681  13.000  0.7433 -0.1716 -0.2126
  486MPD2    C1 7225   2.650   4.654  12.870 -0.7077 -0.1408  0.0855
  486MPD2    C2 7226   2.658   0.030  12.774  0.2870 -0.1247  0.0614
  486MPD2    C3 7227   2.639   0.163  12.812 -0.2283  0.7974  0.4906
  486MPD2    C4 7228   2.615   0.191  12.941 -1.0754  0.1839 -0.3530
  486MPD2    C5 7229   2.613   0.088  13.033  0.1165 -0.3711  0.4839
  486MPD2     H 7230   2.698   0.006  12.676  1.5958  1.7143  0.1460
  486MPD2    H1 7231   2.611   0.291  12.981  2.0568  0.2698 -0.2527
  486MPD2    H2 7232   2.622   4.610  13.081 -2.5735 -0.3452 -0.8873
  486MPD2    H3 7233   2.591   0.122  13.133  1.0917  2.0025 -0.1138
  486MPD2     N 7234   2.651   0.267  12.714 -0.2466  0.3301 -1.0912
  486MPD2    H5 7235   2.674   0.231  12.622 -1.4379 -1.2402 -0.7757
  486MPD2    N1 7236   2.674   4.517  12.855 -0.2013  0.2115  0.0537
  486MPD2    H7 7237   2.661   4.461  12.938 -1.1444 -1.2627 -1.0831
  487TMC3    C1 7238   2.712   4.298  12.754 -0.3432  0.1550  0.0684
  487TMC3    C2 7239   2.671   4.209  12.652 -0.3308  0.2102  0.3681
  487TMC3    C3 7240   2.684   4.074  12.674 -0.6365  0.7849 -0.2489
  487TMC3    C4 7241   2.765   4.246  12.869  0.1508 -0.1434  0.4615
  487TMC3    C5 7242   2.772   4.113  12.890  0.2790  0.5730 -0.8111
  487TMC3    C6 7243   2.743   4.024  12.790 -0.1739 -0.2177  0.5417
  487TMC3     C 7244   2.677   4.446  12.739 -0.3300 -0.3813 -0.2296
  487TMC3     O 7245   2.649   4.481  12.625  0.0100  0.5222  0.6509
  487TMC3     H 7246   2.618   4.236  12.561  1.5446  0.0267 -0.7861
  487TMC3    H1 7247   2.788   4.316  12.949 -1.4240  0.9699 -0.0643
  487TMC3    H2 7248   2.712   3.923  12.817 -1.1882  0.1677  0.8256
  487TMC3    C7 7249   2.726   4.082  13.026  0.6176  0.2665  0.1289
  487TMC3    C8 7250   2.545   4.026  12.670  0.1148  0.4766  0.2816
  487TMC3    O1 7251   2.750   4.167  13.111 -0.4791  0.3493  0.1163
  487TMC3    O2 7252   2.457   4.111  12.693 -0.3665  0.8498 -0.4029
  488MPD2     C 7253   2.543   1.202  15.652  0.2373 -0.0024  0.1501
  488MPD2    C1 7254   2.558   1.328  15.704  0.6128  0.0662 -0.5393
  488MPD2    C2 7255   2.498   1.362  15.820  0.4403 -0.3228 -0.3453
  488MPD2    C3 7256   2.437   1.269  15.904 -0.2672 -0.3262 -0.1042
  488MPD2    C4 7257   2.420   1.142  15.854  0.5874  0.1216 -0.4203
  488MPD2    C5 7258   2.471   1.110  15.727 -0.1903  0.4592 -0.4516
  488MPD2     H 7259   2.523   1.456  15.866  0.8277 -1.0671  0.9590
  488MPD2    H1 7260   2.357   1.072  15.908 -0.5916  0.6221 -1.1686
  488MPD2    H2 7261   2.585   1.172  15.557  0.9808  1.0326  0.1540
  488MPD2    H3 7262   2.449   1.010  15.691  1.4568 -0.7537  1.9454
  488MPD2     N 7263   2.391   1.311  16.027 -0.1409 -0.3860 -0.4778
  488MPD2    H5 7264   2.417   1.408  16.039 -1.6340 -0.3363  2.4130
  488MPD2    N1 7265   2.632   1.423  15.634  0.1841 -0.1455  0.0504
  488MPD2    H7 7266   2.645   1.515  15.675 -0.7269  0.6467 -1.4200
  489TMC3    C1 7267   2.293   1.311  16.247  0.1614 -0.4911 -0.7335
  489TMC3    C2 7268   2.382   1.410  16.289  0.0411 -0.6459 -0.0544
  489TMC3    C3 7269   2.378   1.452  16.418  0.7203  0.3116 -0.2600
  489TMC3    C4 7270   2.197   1.263  16.332  0.2036 -0.1749 -0.3241
  489TMC3    C5 7271   2.193   1.310  16.459  0.2686  0.4707 -0.8536
  489TMC3    C6 7272   2.286   1.407  16.506 -0.3698 -0.4215  0.5899
  489TMC3     C 7273   2.323   1.240  16.122 -0.2306  0.4139  0.0583
  489TMC3     O 7274   2.262   1.134  16.106 -0.8655 -0.0844 -0.1338
  489TMC3     H 7275   2.455   1.459  16.226 -0.2626 -1.3500 -0.9469
  489TMC3    H1 7276   2.118   1.195  16.301 -2.2493  2.2767  0.5978
  489TMC3    H2 7277   2.298   1.432  16.611  1.0257 -0.8622  0.5356
  489TMC3    C7 7278   2.119   1.235  16.553  0.6095  0.1768 -0.0930
  489TMC3    C8 7279   2.492   1.525  16.470  0.1212  0.1803  0.0761
  489TMC3    O1 7280   2.098   1.120  16.514  0.4408 -0.1958  0.0740
  489TMC3    O2 7281   2.603   1.480  16.445 -1.1084  0.3577 -0.0252
  490MPD2     C 7282   4.213   4.605  17.386 -0.0615 -0.5903 -0.2815
  490MPD2    C1 7283   4.094   4.671  17.385  0.3479  0.3825 -0.0927
  490MPD2    C2 7284   4.083   0.076  17.343 -0.4124 -0.1044 -0.1845
  490MPD2    C3 7285   4.198   0.153  17.333 -0.2235 -0.1267 -0.7185
  490MPD2    C4 7286   4.316   0.087  17.342  0.3457 -0.8027  0.2099
  490MPD2    C5 7287   4.326   4.677  17.370  0.5321  0.8231  0.4377
  490MPD2     H 7288   3.985   0.122  17.345 -0.2720  0.2175 -0.9317
  490MPD2    H1 7289   4.415   0.129  17.329 -0.2015  0.5447  0.4252
  490MPD2    H2 7290   4.220   4.501  17.414 -1.3815 -0.6135 -0.0853
  490MPD2    H3 7291   4.422   4.626  17.374  0.0192 -0.0809  1.1159
  490MPD2     N 7292   4.198   0.287  17.276  0.3155  0.1872 -0.2593
  490MPD2    H5 7293   4.287   0.323  17.241  0.7941 -1.9947 -1.3145
  490MPD2    N1 7294   3.974   4.602  17.406  0.4748  1.3409 -0.2419
  490MPD2    H7 7295   3.892   4.661  17.402 -1.4502 -1.2302  1.3610
  491TMC3    C1 7296   3.834   4.418  17.451 -0.0343  0.0374  0.2040
  491TMC3    C2 7297   3.801   4.343  17.561  0.2883 -0.4133 -0.1297
  491TMC3    C3 7298   3.674   4.292  17.553  0.6095  1.0293 -0.1424
  491TMC3    C4 7299   3.769   4.428  17.333  0.1464 -0.1016  0.5319
  491TMC3    C5 7300   3.649   4.372  17.333  0.1502 -0.6752  0.0344
  491TMC3    C6 7301   3.596   4.304  17.441  0.1016 -0.4978  0.2621
  491TMC3     C 7302   3.970   4.469  17.450 -0.2313  0.1487 -0.6801
  491TMC3     O 7303   4.053   4.402  17.512 -0.1321  0.2708  0.5825
  491TMC3     H 7304   3.860   4.352  17.652  0.5385  2.2758 -0.5474
  491TMC3    H1 7305   3.798   4.499  17.257 -1.2700 -1.0281 -0.8691
  491TMC3    H2 7306   3.509   4.242  17.419  0.1606 -0.0806 -1.1871
  491TMC3    C7 7307   3.555   4.386  17.215 -0.7087  0.0831  0.8552
  491TMC3    C8 7308   3.594   4.288  17.669  0.6160  0.5325  0.1470
  491TMC3    O1 7309   3.435   4.374  17.240 -0.0279  0.5254 -0.2273
  491TMC3    O2 7310   3.474   4.277  17.653  0.4402  0.1573 -0.2148
  492MPD2     C 7311   4.320   0.828  10.964  0.2007  0.3450  0.4701
  492MPD2    C1 7312   4.207   0.843  10.889  0.2878  0.4971 -0.0521
  492MPD2    C2 7313   4.088   0.864  10.960 -0.6391 -0.5709 -0.1378
  492MPD2    C3 7314   4.085   0.849  11.094 -0.6447 -0.0864  0.0610
  492MPD2    C4 7315   4.199   0.812  11.162 -0.5956 -0.3849 -0.0128
  492MPD2    C5 7316   4.318   0.800  11.095  0.2835 -0.2005  0.0069
  492MPD2     H 7317   4.003   0.900  10.903 -0.7338  0.2684  0.5381
  492MPD2    H1 7318   4.193   0.786  11.267 -1.3971  1.5159  0.4134
  492MPD2    H2 7319   4.420   0.824  10.923 -0.2169  0.0642 -0.5262
  492MPD2    H3 7320   4.410   0.777  11.147 -0.2116 -2.4500 -0.1454
  492MPD2     N 7321   3.969   0.873  11.174  0.4623 -0.4209  0.5745
  492MPD2    H5 7322   3.975   0.865  11.275 -1.3469  1.7319  0.8495
  492MPD2    N1 7323   4.225   0.860  10.748 -0.5357  0.0353 -0.0681
  492MPD2    H7 7324   4.318   0.833  10.716 -1.0330 -2.7853  0.8744
  493TMC3    C1 7325   4.186   0.960  10.536  0.6279  0.0712 -0.4102
  493TMC3    C2 7326   4.287   1.042  10.561  0.0661  0.4795  0.9034
  493TMC3    C3 7327   4.340   1.107  10.449  0.6504  0.0596  0.7861
  493TMC3    C4 7328   4.126   0.941  10.414 -0.7373 -0.2496  0.0568
  493TMC3    C5 7329   4.176   1.008  10.303 -0.0999  0.2464  0.6205
  493TMC3    C6 7330   4.290   1.088  10.319 -0.6140 -0.3861 -0.4263
  493TMC3     C 7331   4.134   0.901  10.657 -0.6840 -0.1725 -0.0241
  493TMC3     O 7332   4.011   0.879  10.668 -0.2538 -0.2253  0.0986
  493TMC3     H 7333   4.322   1.077  10.658  0.8175  1.9830  0.1026
  493TMC3    H1 7334   4.040   0.876  10.410 -0.2023 -0.9587  0.1423
  493TMC3    H2 7335   4.351   1.132  10.241 -0.2905  2.0363  1.1822
  493TMC3    C7 7336   4.096   1.007  10.190 -0.3943 -0.6254  0.7179
  493TMC3    C8 7337   4.470   1.160  10.471 -0.0587  0.0269  0.5207
  493TMC3    O1 7338   3.997   0.939  10.195 -0.7635  0.2241  0.0146
  493TMC3    O2 7339   4.529   1.124  10.574  0.4607  0.1862 -0.1464
  494TMC3    C1 7340   4.282   2.580   0.410 -0.2897 -0.5950  0.2897
  494TMC3    C2 7341   4.264   2.459   0.464  0.4821  0.4308 -0.2344
  494TMC3    C3 7342   4.295   2.346   0.394  0.2257 -0.0856 -0.8076
  494TMC3    C4 7343   4.332   2.594   0.285  0.5737  0.0570  1.0203
  494TMC3    C5 7344   4.370   2.481   0.218 -0.3103 -0.1511  0.0547
  494TMC3    C6 7345   4.358   2.357   0.273  0.0982 -0.3468 -0.3316
  494TMC3     C 7346   4.242   2.696   0.491 -0.7958 -0.3785  0.3288
  494TMC3     O 7347   4.166   2.662   0.577  0.8629 -0.4776 -0.1516
  494TMC3     H 7348   4.242   2.442   0.569 -0.3037 -2.8684 -0.9174
  494TMC3    H1 7349   4.332   2.690   0.234  0.5071  0.5582  1.9815
  494TMC3    H2 7350   4.394   2.266   0.226  0.6592  0.6200 -1.7677
  494TMC3    C7 7351   4.413   2.495   0.084 -0.4508  0.2985 -0.1488
  494TMC3    C8 7352   4.310   2.230   0.465 -0.4822 -0.3538  0.3878
  494TMC3    O1 7353   4.374   2.424  17.693 -0.1653 -0.0881 -0.2673
  494TMC3    O2 7354   4.336   2.247   0.581  0.7055  0.1895 -0.1615
  495TMC3    C1 7355   3.040   4.520  14.311  0.4462 -0.2734  0.1985
  495TMC3    C2 7356   2.928   4.548  14.243  1.0093  0.0226 -0.0608
  495TMC3    C3 7357   2.833   4.625  14.293  0.1070  0.5841  0.0347
  495TMC3    C4 7358   3.064   4.582  14.430 -0.3668 -0.4881 -0.0094
  495TMC3    C5 7359   2.968   4.656  14.481  0.0026  0.1875  0.8141
  495TMC3    C6 7360   2.847   4.676  14.419 -0.3452 -1.0320  0.6748
  495TMC3     C 7361   3.062   4.371  14.322 -0.3421 -0.0817  0.0050
  495TMC3     O 7362   2.978   4.301  14.272  0.4423 -0.1065  0.0035
  495TMC3     H 7363   2.904   4.496  14.151 -1.6447  2.6428 -0.8506
  495TMC3    H1 7364   3.152   4.554  14.486 -0.7488 -2.7797 -0.5401
  495TMC3    H2 7365   2.775   0.023  14.460 -0.7571 -0.2555 -1.3818
  495TMC3    C7 7366   2.978   4.659  14.626  0.4573 -0.5899 -0.3680
  495TMC3    C8 7367   2.701   4.641  14.233  0.7812  0.3851 -0.1409
  495TMC3    O1 7368   3.087   4.694  14.675 -0.3074 -0.2278  0.4491
  495TMC3    O2 7369   2.610   4.652  14.316  0.5788  0.0605 -0.1896
  496MPD2     C 7370   0.063   4.373  15.061 -0.2767  0.5449 -0.1502
  496MPD2    C1 7371   0.103   4.259  15.128 -0.0212 -0.2006 -0.5098
  496MPD2    C2 7372   0.051   4.244  15.255 -0.1292 -0.2385 -0.0314
  496MPD2    C3 7373   4.687   4.327  15.323  0.0983 -0.0123 -0.7697
  496MPD2    C4 7374   4.640   4.435  15.245  0.4009  0.3353  0.6464
  496MPD2    C5 7375   4.690   4.452  15.117  1.1194 -0.3958  0.1682
  496MPD2     H 7376   0.095   4.160  15.309  2.5432  1.3607  0.2949
  496MPD2    H1 7377   4.568   4.505  15.287  1.1424  0.1296  2.2297
  496MPD2    H2 7378   0.087   4.386  14.956  2.8155 -1.2047  0.3568
  496MPD2    H3 7379   4.638   4.517  15.047 -2.4209 -0.7412  2.4723
  496MPD2     N 7380   4.624   4.290  15.444 -0.1691  0.4124  0.0611
  496MPD2    H5 7381   4.668   4.215  15.496 -0.7897 -0.2056 -0.3081
  496MPD2    N1 7382   0.198   4.170  15.067 -0.2849  0.0609 -1.2127
  496MPD2    H7 7383   0.250   4.199  14.984 -3.2685 -2.6804 -4.0724
  497TMC3    C1 7384   4.460   4.238  15.591  0.3062 -0.2109 -0.8868
  497TMC3    C2 7385   4.327   4.223  15.617 -0.2979 -0.5629 -0.4296
  497TMC3    C3 7386   4.293   4.127  15.701 -1.0344  0.8705  0.0283
  497TMC3    C4 7387   4.558   4.153  15.643 -0.9154 -0.5285 -0.9105
  497TMC3    C5 7388   4.514   4.054  15.730  0.1053 -0.0264 -0.4930
  497TMC3    C6 7389   4.381   4.038  15.755 -0.1209 -0.1557 -0.5391
  497TMC3     C 7390   4.497   4.331  15.487  0.5709  0.8474  0.2018
  497TMC3     O 7391   4.410   4.399  15.434 -0.5086 -0.4769  0.5326
  497TMC3     H 7392   4.254   4.293  15.577  0.8581  0.6996 -0.3471
  497TMC3    H1 7393   4.665   4.169  15.639 -1.0288  0.1623 -1.1644
  497TMC3    H2 7394   4.343   3.953  15.811 -1.0699  1.3327  1.0626
  497TMC3    C7 7395   4.600   3.991  15.833 -0.0741  0.3682  0.6400
  497TMC3    C8 7396   4.158   4.131  15.746 -0.8387  0.2656  0.0591
  497TMC3    O1 7397   4.576   3.875  15.860  0.2608  0.5652 -0.3641
  497TMC3    O2 7398   4.076   4.195  15.684 -0.1670 -0.3175  0.2611
  498MPD2     C 7399   1.191   1.066   9.654  0.7233  0.0343 -0.4644
  498MPD2    C1 7400   1.250   0.951   9.705  0.3186  0.5305 -0.5602
  498MPD2    C2 7401   1.197   0.892   9.821  0.0804  0.0089 -0.8250
  498MPD2    C3 7402   1.102   0.960   9.889 -0.6020  0.3678 -0.0806
  498MPD2    C4 7403   1.048   1.076   9.834 -0.1779  0.4271 -0.5946
  498MPD2    C5 7404   1.093   1.125   9.719  0.3515  0.2480 -0.3207
  498MPD2     H 7405   1.242   0.801   9.859  0.0251  0.3844  0.1527
  498MPD2    H1 7406   0.966   1.128   9.882 -0.7205 -1.0323  0.0780
  498MPD2    H2 7407   1.228   1.105   9.560  1.8348  0.2767  0.0744
  498MPD2    H3 7408   1.060   1.215   9.668  0.8206  1.2334  1.1358
  498MPD2     N 7409   1.061   0.906  10.015  0.2516  0.2790  0.4979
  498MPD2    H5 7410   1.097   0.813  10.035  2.5442  0.8370 -1.0075
  498MPD2    N1 7411   1.363   0.888   9.644 -0.0918 -0.0474  0.7940
  498MPD2    H7 7412   1.390   0.791   9.655 -0.8997 -0.1648  1.7217
  499TMC3    C1 7413   1.565   0.860   9.507  0.8898  0.3863  0.1142
  499TMC3    C2 7414   1.558   0.724   9.497 -0.0804  0.3725  0.0555
  499TMC3    C3 7415   1.669   0.652   9.467 -0.3023  0.1584  0.1623
  499TMC3    C4 7416   1.685   0.923   9.489  0.3205 -0.6300  0.1027
  499TMC3    C5 7417   1.797   0.852   9.457 -0.1357  0.2448 -0.3360
  499TMC3    C6 7418   1.793   0.710   9.452 -0.8253 -0.4029  0.3149
  499TMC3     C 7419   1.449   0.944   9.547 -0.4815 -0.4184 -0.1830
  499TMC3     O 7420   1.445   1.061   9.510  0.1295  0.6252  0.2808
  499TMC3     H 7421   1.464   0.671   9.507 -0.0598  0.0471 -1.5172
  499TMC3    H1 7422   1.691   1.030   9.504 -0.1087 -0.8903  2.1481
  499TMC3    H2 7423   1.886   0.655   9.442  0.2662  0.9422  3.1786
  499TMC3    C7 7424   1.925   0.925   9.436 -0.4738  0.5012  0.2984
  499TMC3    C8 7425   1.666   0.504   9.465  0.3836 -0.8628 -0.2170
  499TMC3    O1 7426   1.918   1.050   9.446  0.6446  0.0582  0.2897
  499TMC3    O2 7427   1.760   0.441   9.418  0.0171 -0.1892  0.1910
  500MPD2     C 7428   3.265   2.192  10.508  0.4176 -0.2487  0.0201
  500MPD2    C1 7429   3.322   2.230  10.389 -0.6820 -0.9669 -0.1459
  500MPD2    C2 7430   3.246   2.276  10.291 -1.1535 -0.2786  0.0872
  500MPD2    C3 7431   3.111   2.278  10.302  0.3482 -0.1570  0.2219
  500MPD2    C4 7432   3.055   2.237  10.424  0.4472  0.6074 -1.0742
  500MPD2    C5 7433   3.130   2.195  10.526  0.0988 -0.0831 -0.1718
  500MPD2     H 7434   3.286   2.310  10.196  2.0780 -1.0465  1.1891
  500MPD2    H1 7435   2.947   2.245  10.435  0.3582 -0.4975 -1.1277
  500MPD2    H2 7436   3.323   2.150  10.589 -0.1362  2.0103  1.5825
  500MPD2    H3 7437   3.083   2.177  10.622 -1.0284 -0.0797 -0.7320
  500MPD2     N 7438   3.021   2.322  10.201  0.6184  0.4087 -0.0159
  500MPD2    H5 7439   2.922   2.317  10.220  0.7484 -0.5282  0.4275
  500MPD2    N1 7440   3.461   2.214  10.362 -0.2369 -0.4966  0.9437
  500MPD2    H7 7441   3.486   2.226  10.264 -0.4589 -2.5221  0.6438
  501TMC3    C1 7442   3.692   2.177  10.390  0.4769  0.4011 -0.1784
  501TMC3    C2 7443   3.718   2.278  10.304  0.3892 -0.5489 -0.8543
  501TMC3    C3 7444   3.851   2.324  10.291 -0.2369  0.7461 -0.2805
  501TMC3    C4 7445   3.790   2.145  10.479  0.2940  0.6076  0.9576
  501TMC3    C5 7446   3.919   2.190  10.464  0.0374 -0.2167  0.1138
  501TMC3    C6 7447   3.951   2.269  10.366 -0.0816  0.9219 -1.0392
  501TMC3     C 7448   3.555   2.170  10.450 -0.6163  0.5476 -0.0930
  501TMC3     O 7449   3.545   2.115  10.559 -0.6112  0.2790 -0.3243
  501TMC3     H 7450   3.645   2.328  10.241 -0.6691 -0.5242  0.3893
  501TMC3    H1 7451   3.767   2.079  10.562  2.8510  0.1448  1.2949
  501TMC3    H2 7452   4.046   2.320  10.351  1.7722 -2.1506  0.2368
  501TMC3    C7 7453   4.023   2.113  10.523 -0.2983 -0.2771  0.0552
  501TMC3    C8 7454   3.872   2.459  10.231  0.3668  0.6009  0.3303
  501TMC3    O1 7455   3.984   2.011  10.580  0.4534 -0.1577  0.7607
  501TMC3    O2 7456   3.963   2.528  10.280  0.3771  0.0671 -0.4775
  502TMC3    C1 7457   2.402   0.277  15.119  0.4752  0.4277 -0.2042
  502TMC3    C2 7458   2.419   0.268  14.986 -0.1432 -0.4580  0.9208
  502TMC3    C3 7459   2.310   0.278  14.902 -0.3124  0.1375 -0.1270
  502TMC3    C4 7460   2.287   0.314  15.177  0.0789 -0.8201  0.5492
  502TMC3    C5 7461   2.186   0.341  15.092 -0.4431  1.2053 -0.1903
  502TMC3    C6 7462   2.191   0.324  14.958  0.2344  0.3444 -0.0336
  502TMC3     C 7463   2.530   0.292  15.190  0.9507  0.0354  0.1961
  502TMC3     O 7464   2.634   0.285  15.127 -0.4263  0.8346 -0.2180
  502TMC3     H 7465   2.512   0.231  14.945 -0.6835  1.9537 -2.4870
  502TMC3    H1 7466   2.273   0.331  15.284 -0.4460 -0.6896  0.4634
  502TMC3    H2 7467   2.100   0.335  14.901 -0.9926  1.4720  2.1628
  502TMC3    C7 7468   2.051   0.367  15.150  0.2709 -0.2112 -0.0492
  502TMC3    C8 7469   2.336   0.330  14.773  0.7693 -0.0753 -0.1781
  502TMC3    O1 7470   1.968   0.425  15.087  0.1571  0.5270 -0.9928
  502TMC3    O2 7471   2.287   0.437  14.740 -0.4333  0.4295 -0.0563
  503MPD2     C 7472   4.396   1.388  16.623  0.1499 -0.8510 -0.1299
  503MPD2    C1 7473   4.419   1.382  16.756 -0.6550 -0.8269 -0.2619
  503MPD2    C2 7474   4.509   1.290  16.813  0.4907  0.0911  0.3947
  503MPD2    C3 7475   4.572   1.198  16.738  0.6613 -0.6675  0.3101
  503MPD2    C4 7476   4.566   1.209  16.595  0.0363  0.2908  0.7386
  503MPD2    C5 7477   4.479   1.306  16.546 -0.7861  0.2156 -0.2554
  503MPD2     H 7478   4.520   1.276  16.920  0.2251  0.5418  0.4828
  503MPD2    H1 7479   4.630   1.148  16.532 -2.7270 -1.3556 -0.4976
  503MPD2    H2 7480   4.316   1.447  16.579 -0.4107 -0.8518  0.9047
  503MPD2    H3 7481   4.472   1.334  16.441  1.2870 -1.5553 -0.8667
  503MPD2     N 7482   4.656   1.106  16.800 -0.7471  0.3924 -0.8417
  503MPD2    H5 7483   4.647   1.107  16.901 -3.4538  0.6254 -1.0966
  503MPD2    N1 7484   4.339   1.450  16.847  0.1449  0.1153 -0.7445
  503MPD2    H7 7485   4.379   1.433  16.939 -0.9258 -0.0826 -0.3151
  504TMC3    C1 7486   0.045   0.907  16.842  0.1302  0.5580 -0.1994
  504TMC3    C2 7487   4.688   0.902  16.951  0.8894 -0.8281  0.0388
  504TMC3    C3 7488   0.022   0.822  17.049 -0.4001 -0.0755  0.2173
  504TMC3    C4 7489   0.162   0.835  16.827 -0.1784  0.7198  0.6436
  504TMC3    C5 7490   0.208   0.756  16.926  0.0686  0.4523  0.2419
  504TMC3    C6 7491   0.137   0.756  17.049 -0.5925  0.0223  0.8266
  504TMC3     C 7492   4.723   0.996  16.742  0.0249 -0.2259 -0.8608
  504TMC3     O 7493   0.032   0.968  16.628  0.2375  0.4823 -0.0206
  504TMC3     H 7494   4.585   0.933  16.962  0.8040 -1.4692  1.0953
  504TMC3    H1 7495   0.220   0.849  16.736 -0.0218  0.6064  0.7272
  504TMC3    H2 7496   0.175   0.705  17.137  0.7181 -0.9169 -0.2881
  504TMC3    C7 7497   0.313   0.659  16.896  0.1875 -0.2795  0.6667
  504TMC3    C8 7498   4.671   0.831  17.174  0.3809 -0.5130  0.0041
  504TMC3    O1 7499   0.362   0.682  16.784 -0.1246 -0.0123 -0.0624
  504TMC3    O2 7500   4.584   0.913  17.184  0.2084 -0.0482  0.1313
  505MPD2     C 7501   0.578   0.210  11.163 -0.3036 -0.2524  1.1407
  505MPD2    C1 7502   0.616   0.140  11.050 -0.0400  0.0723  0.2708
  505MPD2    C2 7503   0.751   0.134  11.015 -0.0753  0.2239  0.1453
  505MPD2    C3 7504   0.849   0.197  11.097  0.5974 -0.0311  0.2581
  505MPD2    C4 7505   0.806   0.270  11.207  0.4306  0.0900  0.7838
  505MPD2    C5 7506   0.673   0.288  11.227  0.5144  0.5136  0.2657
  505MPD2     H 7507   0.769   0.085  10.921  1.6864  0.5688  0.3069
  505MPD2    H1 7508   0.878   0.340  11.251  2.0205  0.4510 -2.4159
  505MPD2    H2 7509   0.473   0.223  11.185 -0.8044 -3.7309  0.9187
  505MPD2    H3 7510   0.646   0.361  11.303 -0.6789 -0.4717  0.7799
  505MPD2     N 7511   0.990   0.185  11.080 -0.4003 -0.1192 -0.9495
  505MPD2    H5 7512   1.055   0.237  11.138  0.8108 -0.7854 -1.7134
  505MPD2    N1 7513   0.516   0.072  10.971  0.2020  0.3326 -0.1881
  505MPD2    H7 7514   0.420   0.091  10.998  0.8002  0.4311  1.9288
  506TMC3    C1 7515   0.444   4.633  10.808  0.6158  0.0848  0.2989
  506TMC3    C2 7516   0.393   0.013  10.732 -0.0184 -0.1984 -0.1782
  506TMC3    C3 7517   0.371   4.708  10.597  0.0658  0.2294  0.2434
  506TMC3    C4 7518   0.474   4.506  10.756  0.3900 -0.0088 -0.1120
  506TMC3    C5 7519   0.457   4.487  10.620 -0.0391 -0.7266 -0.0565
  506TMC3    C6 7520   0.402   4.584  10.543 -0.4760 -0.0889  0.0562
  506TMC3     C 7521   0.544   4.682  10.892  0.6711  0.0937  0.3375
  506TMC3     O 7522   0.651   4.616  10.887  0.5682  0.2851  0.0539
  506TMC3     H 7523   0.366   0.112  10.767  3.4737  1.4153 -2.0507
  506TMC3    H1 7524   0.513   4.428  10.820  1.6745  1.5052  0.9376
  506TMC3    H2 7525   0.396   4.565  10.436 -2.4071  2.0089 -0.2096
  506TMC3    C7 7526   0.570   4.420  10.562 -0.3736  0.4172 -0.0811
  506TMC3    C8 7527   0.336   0.080  10.492  0.2902  0.7357 -0.9469
  506TMC3    O1 7528   0.554   4.377  10.450 -0.0888 -0.1119 -0.1693
  506TMC3    O2 7529   0.312   0.036  10.379  0.3053  0.0038  0.0761
  507TMC3    C1 7530   1.263   0.973  14.457  0.0100 -0.1545 -0.3057
  507TMC3    C2 7531   1.271   0.877  14.359 -0.4613 -0.6898  0.3331
  507TMC3    C3 7532   1.312   0.920  14.240 -0.3572 -0.1113  0.5839
  507TMC3    C4 7533   1.310   1.102  14.431 -0.0030 -0.1343  0.2880
  507TMC3    C5 7534   1.367   1.137  14.315  0.0146  0.0751 -0.2378
  507TMC3    C6 7535   1.375   1.037  14.216 -0.6287  0.2746 -0.0986
  507TMC3     C 7536   1.198   0.942  14.581 -1.2084  0.1493 -0.1771
  507TMC3     O 7537   1.142   1.028  14.644 -0.6136  0.3104  0.3939
  507TMC3     H 7538   1.216   0.783  14.366 -0.3389 -0.6574  1.8145
  507TMC3    H1 7539   1.300   1.172  14.514 -1.2327  0.3357 -0.2588
  507TMC3    H2 7540   1.429   1.063  14.126  1.6511  0.7134  1.4109
  507TMC3    C7 7541   1.305   1.254  14.252  0.0886  0.0014  0.3081
  507TMC3    C8 7542   1.237   0.875  14.129 -0.3016  0.1850  0.0387
  507TMC3    O1 7543   1.283   1.244  14.133 -0.0939 -0.3516 -0.0681
  507TMC3    O2 7544   1.205   0.754  14.127 -0.0479  0.0695 -0.3140
  508MPD2     C 7545   2.344   2.658  15.837 -0.2541  0.0154  0.3081
  508MPD2    C1 7546   2.278   2.732  15.928  0.1866 -0.0948  0.9785
  508MPD2    C2 7547   2.218   2.839  15.877  0.4504 -0.0402 -0.4246
  508MPD2    C3 7548   2.235   2.880  15.749  0.4785 -0.3546 -0.2518
  508MPD2    C4 7549   2.287   2.792  15.657 -0.5393 -0.0884 -0.2481
  508MPD2    C5 7550   2.345   2.677  15.703  0.2760  0.4095  0.3142
  508MPD2     H 7551   2.177   2.918  15.940 -1.9422 -2.4162  0.9970
  508MPD2    H1 7552   2.290   2.815  15.551 -2.9816 -0.5473 -0.4119
  508MPD2    H2 7553   2.380   2.566  15.881 -0.8745 -0.3217  0.1212
  508MPD2    H3 7554   2.399   2.616  15.632 -0.9695  2.4294 -2.3794
  508MPD2     N 7555   2.203   3.011  15.721  0.6580 -0.7323 -0.3776
  508MPD2    H5 7556   2.148   3.066  15.786 -1.4959 -1.0914 -1.8824
  508MPD2    N1 7557   2.297   2.709  16.065  0.7435 -0.6548 -0.0141
  508MPD2    H7 7558   2.371   2.647  16.096 -0.0859 -0.8038  1.7064
  509TMC3    C1 7559   2.057   3.375  15.623 -0.1620 -0.6434  1.0279
  509TMC3    C2 7560   2.148   3.475  15.593  0.6293  0.0820 -0.0662
  509TMC3    C3 7561   2.273   3.441  15.551  0.5492  0.2213 -0.5793
  509TMC3    C4 7562   2.098   3.249  15.642 -0.1246  0.6151 -0.4912
  509TMC3    C5 7563   2.225   3.223  15.624 -0.7593 -0.6040  0.1257
  509TMC3    C6 7564   2.314   3.314  15.576  0.5991  0.4472  0.1376
  509TMC3     C 7565   1.915   3.390  15.637  0.0737  0.0021  0.2487
  509TMC3     O 7566   1.837   3.294  15.641 -0.4963  0.7753 -0.2343
  509TMC3     H 7567   2.119   3.579  15.583 -0.9219 -0.2841  0.7041
  509TMC3    H1 7568   2.028   3.166  15.650 -0.3858  1.2820  3.8462
  509TMC3    H2 7569   2.417   3.286  15.559  0.4365 -1.2480  1.9654
  509TMC3    C7 7570   2.272   3.086  15.631 -0.3479 -0.1883 -0.1238
  509TMC3    C8 7571   2.379   3.544  15.555 -0.0062 -0.0220 -0.0707
  509TMC3    O1 7572   2.375   3.055  15.572 -0.8728 -0.7300 -0.1980
  509TMC3    O2 7573   2.495   3.504  15.553 -0.1919 -0.3909  0.0576
  510MPD2     C 7574   4.412   0.099  13.898 -0.5792 -0.4676  0.0293
  510MPD2    C1 7575   4.448   0.101  14.031 -0.4828 -0.3780  0.5057
  510MPD2    C2 7576   4.581   0.108  14.066 -0.1722 -0.3240 -0.3247
  510MPD2    C3 7577   4.678   0.114  13.963  0.6384 -0.4781 -0.3756
  510MPD2    C4 7578   4.631   0.102  13.830 -0.9319 -0.2921  0.8560
  510MPD2    C5 7579   4.498   0.111  13.798 -0.2668 -0.4253 -0.2068
  510MPD2     H 7580   4.615   0.115  14.169 -1.3806 -1.1553  0.1206
  510MPD2    H1 7581   4.689   0.103  13.739 -1.3362  1.7416  0.6232
  510MPD2    H2 7582   4.307   0.101  13.869 -0.4300  0.8873 -0.4413
  510MPD2    H3 7583   4.466   0.129  13.696  1.2311  1.4503 -0.3545
  510MPD2     N 7584   0.091   0.109  13.992 -0.0579  0.0463 -0.3298
  510MPD2    H5 7585   0.115   0.103  14.091  1.4251 -0.4237 -0.7338
  510MPD2    N1 7586   4.347   0.084  14.127 -0.1928 -0.4623  0.4156
  510MPD2    H7 7587   4.256   0.057  14.091 -0.9887  0.0653  2.0642
  511TMC3    C1 7588   4.256   0.039  14.349 -0.1123 -0.1929 -0.2407
  511TMC3    C2 7589   4.254   0.081  14.477 -0.5140 -0.1452 -0.3336
  511TMC3    C3 7590   4.178   0.008  14.567 -0.3223  0.0404 -0.0516
  511TMC3    C4 7591   4.194   4.649  14.308  0.2869  0.0376 -0.2351
  511TMC3    C5 7592   4.123   4.575  14.391 -1.2522 -1.3826 -0.3022
  511TMC3    C6 7593   4.104   4.622  14.524 -0.0668 -0.2240 -0.6129
  511TMC3     C 7594   4.364   0.088  14.266 -0.0155  0.6326  1.0977
  511TMC3     O 7595   4.447   0.152  14.334  0.4374  0.0460 -0.0231
  511TMC3     H 7596   4.305   0.171  14.508  1.5913 -0.8994 -1.6238
  511TMC3    H1 7597   4.207   4.614  14.206  3.2953 -0.6069  0.3549
  511TMC3    H2 7598   4.031   4.569  14.585  0.0999 -0.1325 -0.3386
  511TMC3    C7 7599   4.059   4.458  14.344  0.7194 -0.4206 -0.0393
  511TMC3    C8 7600   4.142   0.070  14.694 -0.0506  0.7465 -0.7746
  511TMC3    O1 7601   4.062   4.438  14.223  0.1324  0.4654 -0.2663
  511TMC3    O2 7602   4.170   0.187  14.717 -0.2488  0.4319 -0.1038
  512TMC3    C1 7603   3.078   4.387  12.780 -0.8247 -0.0277 -0.4443
  512TMC3    C2 7604   3.160   4.388  12.890  0.5362 -0.0331  0.2406
  512TMC3    C3 7605   3.205   4.265  12.939 -0.2872 -0.3996 -0.3184
  512TMC3    C4 7606   3.067   4.274  12.707 -0.6900  0.0614 -0.3971
  512TMC3    C5 7607   3.114   4.157  12.759  0.5304  0.3757 -0.3227
  512TMC3    C6 7608   3.184   4.147  12.874 -0.2802  0.2291 -0.0776
  512TMC3     C 7609   3.057   4.515  12.722 -0.2324 -0.5558  0.2411
  512TMC3     O 7610   3.025   4.510  12.600 -0.5413  0.0938 -0.2472
  512TMC3     H 7611   3.180   4.484  12.938 -0.7390  0.3880 -0.0791
  512TMC3    H1 7612   3.011   4.274  12.614  0.7735  1.4452 -1.2752
  512TMC3    H2 7613   3.234   4.058  12.911 -2.3857 -0.5333  0.9073
  512TMC3    C7 7614   3.146   4.067  12.651  0.0171 -0.1791  0.0450
  512TMC3    C8 7615   3.281   4.258  13.064  0.1757  0.3717  0.6362
  512TMC3    O1 7616   3.179   4.125  12.546  0.3654  0.1611  0.1109
  512TMC3    O2 7617   3.342   4.155  13.086 -0.0322  0.3151 -0.2637
  513MPD2     C 7618   0.112   4.533  13.015  0.6994 -0.1755 -0.4850
  513MPD2    C1 7619   0.191   4.609  12.931  0.4509  0.0979  0.3844
  513MPD2    C2 7620   0.301   4.674  12.985  0.3520 -0.4415 -0.4350
  513MPD2    C3 7621   0.318   4.673  13.122 -0.2331 -0.3009  0.7389
  513MPD2    C4 7622   0.233   4.590  13.199 -0.2418 -0.0186 -0.4008
  513MPD2    C5 7623   0.135   4.518  13.144 -0.1589 -0.2866  1.0650
  513MPD2     H 7624   0.365   0.017  12.929 -0.8732 -1.1411 -2.6365
  513MPD2    H1 7625   0.248   4.568  13.305  0.6357 -5.2440 -1.6101
  513MPD2    H2 7626   0.036   4.469  12.971 -0.2696  1.6049 -1.4323
  513MPD2    H3 7627   0.079   4.440  13.195 -0.3505  0.4993  2.0664
  513MPD2     N 7628   0.438   4.719  13.169  0.4245 -1.2922 -0.2322
  513MPD2    H5 7629   0.498   0.049  13.107  0.3933 -2.6977 -1.4723
  513MPD2    N1 7630   0.179   4.598  12.790  0.3448 -1.2032 -0.2624
  513MPD2    H7 7631   0.105   4.540  12.752  0.3950 -1.3793 -0.0916
  514TMC3    C1 7632   0.206   4.673  12.560  0.3555 -0.1293  0.0235
  514TMC3    C2 7633   0.227   4.541  12.514 -0.0231  0.0156 -0.1229
  514TMC3    C3 7634   0.319   4.523  12.420 -0.4865  0.9293  0.5728
  514TMC3    C4 7635   0.275   0.046  12.497  0.6633 -0.1665  0.2556
  514TMC3    C5 7636   0.356   0.025  12.383 -0.6174  0.3484  0.0193
  514TMC3    C6 7637   0.378   4.621  12.352 -0.2261 -0.3451 -0.3398
  514TMC3     C 7638   0.240   4.686  12.704 -0.3537 -0.2508  0.6088
  514TMC3     O 7639   0.319   0.057  12.722  0.2674  0.1263 -0.1231
  514TMC3     H 7640   0.199   4.470  12.591  2.0960  1.0419  1.6025
  514TMC3    H1 7641   0.252   0.151  12.515 -1.9471 -0.3359 -1.9178
  514TMC3    H2 7642   0.448   4.608  12.271 -0.1256  0.4517 -0.3854
  514TMC3    C7 7643   0.479   0.099  12.387 -0.2669  0.0680  0.2188
  514TMC3    C8 7644   0.334   4.387  12.379  0.6908  0.0836 -0.8630
  514TMC3    O1 7645   0.546   0.107  12.284 -0.2042  0.5152  0.2336
  514TMC3    O2 7646   0.258   4.315  12.437 -0.1256 -0.1776 -0.1061
  515MPD2     C 7647   3.229   1.492  14.985 -0.1793 -0.2817 -0.1934
  515MPD2    C1 7648   3.291   1.411  14.890 -0.0588 -0.2999  0.2749
  515MPD2    C2 7649   3.426   1.443  14.865  0.0873 -0.5218  0.9691
  515MPD2    C3 7650   3.502   1.529  14.935 -0.2619  0.6935  0.0911
  515MPD2    C4 7651   3.429   1.604  15.024  0.3261 -0.0822  0.2429
  515MPD2    C5 7652   3.293   1.595  15.038  0.3494  0.1663 -0.1587
  515MPD2     H 7653   3.475   1.378  14.794  1.0605 -0.5744  1.6859
  515MPD2    H1 7654   3.476   1.688  15.073 -0.2580  0.7484 -0.6059
  515MPD2    H2 7655   3.124   1.480  15.010 -0.3595 -0.0579 -0.8247
  515MPD2    H3 7656   3.239   1.666  15.100  0.0292 -1.9051  1.9376
  515MPD2     N 7657   3.646   1.540  14.926  0.0639 -0.0687  0.3513
  515MPD2    H5 7658   3.693   1.599  14.994 -1.3073  0.1818  1.0878
  515MPD2    N1 7659   3.229   1.304  14.823  0.3012  0.3042  0.8988
  515MPD2    H7 7660   3.290   1.256  14.758 -1.7806 -1.0293 -0.0781
  516TMC3    C1 7661   3.106   1.108  14.806  0.5809 -0.5813  0.4621
  516TMC3    C2 7662   3.155   1.081  14.677  0.3801  0.4820  0.1920
  516TMC3    C3 7663   3.161   0.958  14.624 -0.1962  0.5656  0.0245
  516TMC3    C4 7664   3.060   1.006  14.875 -0.4340 -0.1554  0.2061
  516TMC3    C5 7665   3.068   0.884  14.820  0.1773  0.5149  0.7737
  516TMC3    C6 7666   3.120   0.849  14.698  0.2519  0.9401  0.7922
  516TMC3     C 7667   3.108   1.239  14.857  0.7003  0.2459  0.0644
  516TMC3     O 7668   3.034   1.270  14.945 -0.2097 -0.0242  0.2645
  516TMC3     H 7669   3.185   1.163  14.612 -1.6959  1.8465  0.9316
  516TMC3    H1 7670   3.043   1.025  14.980  0.8131  2.2317 -0.0436
  516TMC3    H2 7671   3.133   0.749  14.656 -1.0793  1.9604 -2.0255
  516TMC3    C7 7672   3.082   0.785  14.923  0.1484 -0.1590  0.3143
  516TMC3    C8 7673   3.179   0.945  14.481  0.7126 -0.4026 -0.4553
  516TMC3    O1 7674   3.109   0.819  15.035 -0.0297  0.1034 -0.3401
  516TMC3    O2 7675   3.151   0.837  14.425  0.4322 -0.0754  1.0332
  517MPD2     C 7676   2.212   1.891  17.078 -0.2923  0.3496 -0.7938
  517MPD2    C1 7677   2.334   1.873  17.141 -0.2095 -0.2178  0.4468
  517MPD2    C2 7678   2.359   1.949  17.257 -0.1447 -0.6394 -1.0813
  517MPD2    C3 7679   2.273   2.044  17.299 -0.2505  0.4422  0.3358
  517MPD2    C4 7680   2.160   2.071  17.233  0.5188  0.3106 -0.2558
  517MPD2    C5 7681   2.129   1.994  17.122  0.2127  0.3469 -0.7438
  517MPD2     H 7682   2.454   1.938  17.309  0.4877 -0.1845 -2.1278
  517MPD2    H1 7683   2.094   2.154  17.255  1.3069  1.4357 -2.1646
  517MPD2    H2 7684   2.181   1.838  16.989  0.4191  0.4522 -1.0986
  517MPD2    H3 7685   2.031   2.007  17.076 -0.6671 -0.2345  0.9827
  517MPD2     N 7686   2.292   2.124  17.415 -0.2324 -0.1166 -0.0117
  517MPD2    H5 7687   2.210   2.180  17.432  0.9251  2.3358 -2.5111
  517MPD2    N1 7688   2.436   1.782  17.104 -0.2713  0.4024 -0.1514
  517MPD2    H7 7689   2.520   1.779  17.161 -0.0148 -0.0387 -0.5562
  518TMC3    C1 7690   2.561   1.631  16.975 -0.1207 -0.3952  0.6760
  518TMC3    C2 7691   2.563   1.508  16.904 -0.2644 -0.0742  0.3469
  518TMC3    C3 7692   2.674   1.427  16.933  0.2034  0.3926 -0.4606
  518TMC3    C4 7693   2.667   1.678  17.057 -0.1874 -0.1600 -0.7443
  518TMC3    C5 7694   2.776   1.590  17.069  0.5779  0.1293 -0.5672
  518TMC3    C6 7695   2.789   1.468  17.006  0.3074  0.2046 -0.6279
  518TMC3     C 7696   2.434   1.696  16.999 -0.0702  0.6530  0.4384
  518TMC3     O 7697   2.333   1.637  16.951 -0.3792 -0.0643 -0.5190
  518TMC3     H 7698   2.477   1.471  16.849 -0.1480 -2.3149  1.6854
  518TMC3    H1 7699   2.670   1.779  17.094  0.8304 -0.1262 -0.9319
  518TMC3    H2 7700   2.874   1.403  17.024  0.2509  0.7207  1.4048
  518TMC3    C7 7701   2.849   1.632  17.188  0.5517 -0.5316  0.2604
  518TMC3    C8 7702   2.690   1.298  16.859  0.4347 -0.8161  0.6619
  518TMC3    O1 7703   2.793   1.699  17.272  0.4126  0.2644 -0.0956
  518TMC3    O2 7704   2.800   1.241  16.862  0.7339 -0.3493  0.3598
  519MPD2     C 7705   0.248   1.083  14.467 -0.2705 -0.3887  1.0685
  519MPD2    C1 7706   0.137   1.051  14.387  0.7540  0.0848 -0.3129
  519MPD2    C2 7707   0.104   0.921  14.365  0.4440  0.3725 -0.2553
  519MPD2    C3 7708   0.183   0.819  14.414 -0.6721  0.1997  0.2958
  519MPD2    C4 7709   0.293   0.851  14.498 -0.6247 -0.1166 -0.7956
  519MPD2    C5 7710   0.318   0.981  14.527  0.6865 -0.8505  0.0438
  519MPD2     H 7711   0.035   0.891  14.287 -0.9917  0.5903  0.9207
  519MPD2    H1 7712   0.349   0.764  14.528  0.2470  1.3857  1.8689
  519MPD2    H2 7713   0.286   1.181  14.491 -2.0004  0.3087  1.0099
  519MPD2    H3 7714   0.401   1.008  14.592  0.4769 -0.8576  0.3119
  519MPD2     N 7715   0.158   0.680  14.386 -0.2730 -0.0692  0.0427
  519MPD2    H5 7716   0.232   0.613  14.403  0.1226  0.4861  0.5248
  519MPD2    N1 7717   0.095   1.161  14.313 -0.2707  0.3305 -0.5735
  519MPD2    H7 7718   0.144   1.250  14.318 -0.7598  0.6211 -0.9942
  520TMC3    C1 7719   0.082   0.504  14.267  0.8444  0.2895  0.5619
  520TMC3    C2 7720   0.057   0.502  14.128 -0.2814  0.0237 -0.2350
  520TMC3    C3 7721   0.159   0.447  14.057  0.1610  0.7706  0.1059
  520TMC3    C4 7722   0.186   0.435  14.316 -0.0005  0.6046  0.1161
  520TMC3    C5 7723   0.282   0.388  14.235 -0.0230  0.4774  0.1427
  520TMC3    C6 7724   0.269   0.394  14.105  0.1395  0.1385 -0.5236
  520TMC3     C 7725   0.047   0.631  14.325 -0.5569  0.4724 -0.0201
  520TMC3     O 7726   4.667   0.686  14.293  0.3694  0.4479  0.2486
  520TMC3     H 7727   4.703   0.568  14.091 -0.0715  0.9316  0.9328
  520TMC3    H1 7728   0.202   0.425  14.423  0.6743 -1.3596 -0.1684
  520TMC3    H2 7729   0.330   0.343  14.031  1.3201 -0.3634  0.7917
  520TMC3    C7 7730   0.398   0.316  14.290 -0.1315 -0.6577  0.0763
  520TMC3    C8 7731   0.160   0.469  13.911  0.1777 -0.1640 -0.3505
  520TMC3    O1 7732   0.372   0.247  14.389 -0.7710 -0.1545  0.8059
  520TMC3    O2 7733   0.270   0.472  13.854 -0.1001 -0.2047  0.0229
  521MPD2     C 7734   0.991   3.337  17.450  0.8205  0.1820 -0.7520
  521MPD2    C1 7735   0.975   3.320  17.311  0.0422  0.3608  0.2981
  521MPD2    C2 7736   1.070   3.345  17.215  0.2793 -0.2190  0.7619
  521MPD2    C3 7737   1.194   3.391  17.263 -0.1186 -0.0085  0.1627
  521MPD2    C4 7738   1.220   3.400  17.399 -0.7643 -0.0399  0.0179
  521MPD2    C5 7739   1.117   3.383  17.489 -0.0714 -0.3990  0.6252
  521MPD2     H 7740   1.057   3.331  17.108 -0.8629  0.8401  0.7654
  521MPD2    H1 7741   1.319   3.424  17.435 -1.0207  0.0984  0.6463
  521MPD2    H2 7742   0.910   3.318  17.520  1.0476  1.6681 -0.0796
  521MPD2    H3 7743   1.141   3.403  17.593  0.4666  0.6223  0.3017
  521MPD2     N 7744   1.296   3.401  17.163  0.7656 -0.1267 -0.0670
  521MPD2    H5 7745   1.264   3.382  17.069 -3.0054  0.2925  1.1027
  521MPD2    N1 7746   0.854   3.255  17.274  0.2259  0.3590 -0.0302
  521MPD2    H7 7747   0.791   3.230  17.350  0.5205 -2.3494 -0.6507
  522TMC3    C1 7748   1.512   3.350  17.073 -0.7191 -0.0006  0.2358
  522TMC3    C2 7749   1.635   3.298  17.088  0.4495  1.3863 -0.0308
  522TMC3    C3 7750   1.733   3.310  16.994 -0.0421  0.3415  0.2145
  522TMC3    C4 7751   1.485   3.435  16.968 -0.3922  1.2290  0.1013
  522TMC3    C5 7752   1.580   3.444  16.872  0.6132 -0.8795  0.0634
  522TMC3    C6 7753   1.700   3.379  16.875 -0.1027 -0.3471  0.5069
  522TMC3     C 7754   1.428   3.383  17.193 -0.0460  0.2678  0.2056
  522TMC3     O 7755   1.493   3.390  17.299 -0.1529 -0.2651  0.1174
  522TMC3     H 7756   1.660   3.239  17.175 -0.0867 -0.4413 -1.1069
  522TMC3    H1 7757   1.394   3.494  16.953 -0.7214  0.1561 -2.1081
  522TMC3    H2 7758   1.772   3.397  16.796 -1.4029  0.0421 -0.5731
  522TMC3    C7 7759   1.561   3.528  16.755  0.7153 -0.3062 -0.3886
  522TMC3    C8 7760   1.865   3.273  17.034  0.8093 -0.2183  0.6685
  522TMC3    O1 7761   1.666   3.561  16.694  0.4243 -0.1189  0.3583
  522TMC3    O2 7762   1.896   3.276  17.154 -0.5184 -0.3303  0.5140
  523MPD2     C 7763   3.845   3.690  10.156  0.5519 -0.1777  0.0776
  523MPD2    C1 7764   3.820   3.641  10.028  0.3258 -0.5432 -0.0855
  523MPD2    C2 7765   3.756   3.720   9.932 -0.7247  0.3532 -0.0555
  523MPD2    C3 7766   3.714   3.849   9.966  0.3099 -0.0144 -0.7078
  523MPD2    C4 7767   3.739   3.892  10.097  0.2713 -0.0371 -0.1782
  523MPD2    C5 7768   3.804   3.817  10.191 -0.4346 -0.5975  0.0074
  523MPD2     H 7769   3.739   3.683   9.832  0.5858  0.7153 -0.4123
  523MPD2    H1 7770   3.717   3.994  10.125  1.5267 -0.7132  3.3079
  523MPD2    H2 7771   3.899   3.633  10.230  0.4814  1.0217  1.0437
  523MPD2    H3 7772   3.820   3.851  10.292  2.2761  2.0764 -1.3143
  523MPD2     N 7773   3.651   3.935   9.872  0.1041 -0.1768  0.4578
  523MPD2    H5 7774   3.623   4.028   9.901  0.2576  0.2022 -0.6184
  523MPD2    N1 7775   3.858   3.504  10.001 -0.2938 -0.2117  0.0838
  523MPD2    H7 7776   3.898   3.452  10.079 -1.4881  0.4926  1.1715
  524TMC3    C1 7777   3.559   4.014   9.669  0.1544  0.5662 -0.1968
  524TMC3    C2 7778   3.570   4.018   9.532 -0.0208  0.0165 -0.3593
  524TMC3    C3 7779   3.514   4.119   9.461 -0.1221  0.9480  0.1493
  524TMC3    C4 7780   3.483   4.098   9.740 -0.6887 -0.5482  0.3253
  524TMC3    C5 7781   3.418   4.193   9.663 -0.2066  0.9188 -0.3676
  524TMC3    C6 7782   3.433   4.208   9.524 -0.5087 -0.4604 -0.1286
  524TMC3     C 7783   3.639   3.910   9.733  0.1280  0.3152 -0.2136
  524TMC3     O 7784   3.679   3.823   9.655 -0.9655  0.0031  0.6387
  524TMC3     H 7785   3.643   3.954   9.483  2.9925  0.8471  3.0378
  524TMC3    H1 7786   3.457   4.087   9.845 -3.0448 -0.5247 -0.2661
  524TMC3    H2 7787   3.376   4.274   9.459  1.0722  0.0830 -0.9590
  524TMC3    C7 7788   3.315   4.272   9.731 -0.3774  0.2279 -0.4709
  524TMC3    C8 7789   3.525   4.125   9.318 -0.1067  0.2831  0.2463
  524TMC3    O1 7790   3.283   4.237   9.838  0.0882 -0.2072  0.1298
  524TMC3    O2 7791   3.428   4.167   9.256  0.6264 -0.1202 -0.0962
  525MPD2     C 7792   1.218   0.135  14.611  0.1630  0.0641 -0.6262
  525MPD2    C1 7793   1.340   0.152  14.666 -0.3841 -0.0861 -0.0134
  525MPD2    C2 7794   1.431   0.231  14.602 -0.0651  0.3805 -0.5776
  525MPD2    C3 7795   1.401   0.289  14.475 -0.1632 -0.2652  0.3597
  525MPD2    C4 7796   1.275   0.281  14.433 -0.3230  0.1701 -0.0817
  525MPD2    C5 7797   1.184   0.200  14.493 -1.1181 -0.0566  0.5470
  525MPD2     H 7798   1.530   0.241  14.644  0.6876 -1.8414 -1.8353
  525MPD2    H1 7799   1.250   0.326  14.338 -0.0798  1.4822  0.4718
  525MPD2    H2 7800   1.145   0.065  14.651  0.2088  0.5671  0.3227
  525MPD2    H3 7801   1.084   0.188  14.452 -0.3141 -0.8634 -1.1755
  525MPD2     N 7802   1.483   0.362  14.402 -0.0773  0.2210  0.2842
  525MPD2    H5 7803   1.445   0.395  14.314 -0.0737  1.8702  0.9097
  525MPD2    N1 7804   1.376   0.087  14.784 -0.2993  0.4959 -0.4451
  525MPD2    H7 7805   1.473   0.098  14.812  0.2118 -0.1805 -1.9528
  526TMC3    C1 7806   1.363   4.684  14.986  0.0987  0.7497 -1.3099
  526TMC3    C2 7807   1.297   4.701  15.103 -0.3070 -0.2007 -0.2017
  526TMC3    C3 7808   1.358   4.652  15.215  0.1151  0.5143 -0.0673
  526TMC3    C4 7809   1.488   4.628  14.974 -0.3331 -0.3223  0.6950
  526TMC3    C5 7810   1.550   4.589  15.089  0.0292  0.6242  0.5156
  526TMC3    C6 7811   1.485   4.598  15.211  0.7657  0.7202  0.6114
  526TMC3     C 7812   1.296   0.017  14.876  0.1255  0.6246 -0.3709
  526TMC3     O 7813   1.173   0.020  14.886 -0.4916 -0.1658  0.2705
  526TMC3     H 7814   1.196   0.015  15.099 -0.7863 -1.8478 -3.3164
  526TMC3    H1 7815   1.534   4.608  14.878 -1.5649  1.8035 -0.3363
  526TMC3    H2 7816   1.521   4.552  15.302 -1.7574  0.4098  1.4616
  526TMC3    C7 7817   1.678   4.518  15.087  0.1661  0.6652 -0.3144
  526TMC3    C8 7818   1.322   4.708  15.339 -0.3892  0.0799  0.2921
  526TMC3    O1 7819   1.736   4.499  15.196 -0.6304  0.1678 -1.0008
  526TMC3    O2 7820   1.426   0.011  15.400  0.1686 -0.0810  0.3633
  527MPD2     C 7821   4.416   2.869   1.101 -0.1403 -0.3611  0.4684
  527MPD2    C1 7822   4.516   2.917   1.181 -0.1834 -0.1888  0.0731
  527MPD2    C2 7823   4.632   2.967   1.116  0.1990 -0.7581  0.5762
  527MPD2    C3 7824   4.646   2.974   0.972 -0.1695  0.0262  0.2251
  527MPD2    C4 7825   4.537   2.930   0.900 -0.1336 -0.0964  0.2043
  527MPD2    C5 7826   4.424   2.881   0.966  0.3190  0.9628  0.3179
  527MPD2     H 7827   4.720   3.005   1.166  0.5118 -0.4626 -0.1914
  527MPD2    H1 7828   4.533   2.937   0.792  1.0666  0.0716  0.1793
  527MPD2    H2 7829   4.322   2.829   1.138 -0.5113  0.7768  0.7591
  527MPD2    H3 7830   4.339   2.845   0.909  1.7236 -0.7163 -0.6971
  527MPD2     N 7831   0.041   3.018   0.914 -0.9860  0.0118  0.1294
  527MPD2    H5 7832   0.102   3.058   0.985  0.6034 -1.4411 -0.4090
  527MPD2    N1 7833   4.517   2.914   1.325  0.4863 -1.4802  0.6878
  527MPD2    H7 7834   4.608   2.936   1.363 -0.0558 -1.3598  1.9097
  528TMC3    C1 7835   4.456   2.884   1.544  0.0307 -0.0753 -0.0196
  528TMC3    C2 7836   4.559   2.969   1.586 -0.1611  0.5749 -0.1343
  528TMC3    C3 7837   4.584   2.976   1.718  0.5738 -0.2317 -0.0934
  528TMC3    C4 7838   4.376   2.815   1.638 -0.4634 -0.2004  0.1705
  528TMC3    C5 7839   4.414   2.827   1.768 -0.6198  0.4504  0.3024
  528TMC3    C6 7840   4.519   2.897   1.810  0.3058  0.3885  0.1857
  528TMC3     C 7841   4.421   2.863   1.403 -0.0491  0.5102  0.0394
  528TMC3     O 7842   4.313   2.817   1.374  0.3521  0.7880  0.8391
  528TMC3     H 7843   4.613   3.033   1.517 -2.2548  1.0172 -1.3543
  528TMC3    H1 7844   4.296   2.747   1.612  0.1426 -1.2007  0.9411
  528TMC3    H2 7845   4.536   2.902   1.917 -0.8569  1.0966  0.3450
  528TMC3    C7 7846   4.395   2.714   1.858  0.1777 -0.1117 -0.5397
  528TMC3    C8 7847   4.712   3.022   1.758 -0.4043  1.3368  0.0228
  528TMC3    O1 7848   4.487   2.683   1.932 -0.5067 -0.3227  0.5678
  528TMC3    O2 7849   0.037   3.115   1.699  0.0099 -0.5642  0.3920
  529MPD2     C 7850   2.541   0.800   0.562 -0.1539 -0.6605  0.0152
  529MPD2    C1 7851   2.408   0.829   0.592 -0.2670 -0.2142 -0.0575
  529MPD2    C2 7852   2.307   0.827   0.496  0.0590 -0.8038  0.0639
  529MPD2    C3 7853   2.349   0.807   0.363 -0.6329  0.1113  0.2522
  529MPD2    C4 7854   2.483   0.778   0.337  0.0853 -0.0249  0.1280
  529MPD2    C5 7855   2.572   0.777   0.433  0.8317 -0.3613 -0.1898
  529MPD2     H 7856   2.206   0.861   0.518  0.5059 -0.3026  1.3504
  529MPD2    H1 7857   2.501   0.768   0.230 -1.0498 -0.1740 -0.0471
  529MPD2    H2 7858   2.616   0.797   0.640  0.4024  0.1521 -0.4887
  529MPD2    H3 7859   2.675   0.757   0.406  1.2139 -0.4531  1.3605
  529MPD2     N 7860   2.258   0.810   0.247  0.7874  0.2784 -0.1345
  529MPD2    H5 7861   2.301   0.786   0.158  0.3144 -0.1831 -0.2331
  529MPD2    N1 7862   2.367   0.869   0.727  0.3256 -0.7634 -0.2614
  529MPD2    H7 7863   2.269   0.896   0.728  0.8011  0.8870  1.2018
  530TMC3    C1 7864   2.384   0.898   0.965  0.0750  0.4286 -0.1614
  530TMC3    C2 7865   2.455   0.887   1.080  0.5170 -0.2095 -0.4231
  530TMC3    C3 7866   2.398   0.915   1.201 -0.2859 -0.0406 -0.2324
  530TMC3    C4 7867   2.259   0.949   0.961  0.3128 -0.5103  0.4873
  530TMC3    C5 7868   2.203   0.971   1.091  0.3154 -1.1302 -0.1860
  530TMC3    C6 7869   2.270   0.957   1.203  0.6370  0.3651  0.2249
  530TMC3     C 7870   2.452   0.884   0.837 -0.4912 -0.1096 -0.3501
  530TMC3     O 7871   2.575   0.885   0.843  0.3053  0.6638 -0.0133
  530TMC3     H 7872   2.561   0.866   1.078  0.6577  0.2861  1.4915
  530TMC3    H1 7873   2.203   0.970   0.871  0.8136  0.4460  0.3959
  530TMC3    H2 7874   2.228   0.975   1.301 -1.2373 -0.6758 -0.3813
  530TMC3    C7 7875   2.078   1.047   1.101  0.2218 -0.2922 -0.0995
  530TMC3    C8 7876   2.469   0.894   1.329 -0.5537  0.1815  0.1415
  530TMC3    O1 7877   2.066   1.131   1.013  0.0498 -0.1104 -0.0272
  530TMC3    O2 7878   2.432   0.964   1.421 -0.1083  0.2809  0.1545
  531MPD2     C 7879   0.859   0.291  12.669  0.3615 -0.0423  0.6415
  531MPD2    C1 7880   0.755   0.236  12.753 -0.0416 -0.0767 -0.1413
  531MPD2    C2 7881   0.640   0.191  12.696  0.1499 -0.1291  0.6627
  531MPD2    C3 7882   0.634   0.180  12.560  0.1000 -0.5059 -0.2166
  531MPD2    C4 7883   0.734   0.233  12.478  0.2162  0.1413  0.3643
  531MPD2    C5 7884   0.852   0.280  12.531 -0.1772 -0.1454 -0.0254
  531MPD2     H 7885   0.548   0.151  12.738 -1.8755  2.6811 -1.1257
  531MPD2    H1 7886   0.729   0.230  12.370 -0.9997 -1.4622  0.4612
  531MPD2    H2 7887   0.947   0.329  12.719  0.5497  0.5651 -0.1599
  531MPD2    H3 7888   0.935   0.299  12.464 -0.2192  0.0941 -0.0098
  531MPD2     N 7889   0.510   0.131  12.516 -0.1789  0.2455 -0.1914
  531MPD2    H5 7890   0.449   0.100  12.591  1.3225  1.4093  1.5112
  531MPD2    N1 7891   0.772   0.222  12.890  0.3667  0.0104 -0.2176
  531MPD2    H7 7892   0.869   0.235  12.918  0.5428  0.8435 -1.2232
  532TMC3    C1 7893   0.734   0.123  13.099 -0.4171  0.4995 -0.5128
  532TMC3    C2 7894   0.639   0.131  13.204 -0.5919  0.2293  0.3051
  532TMC3    C3 7895   0.628   0.029  13.299  1.5255  0.0266  0.7195
  532TMC3    C4 7896   0.809   0.012  13.080  0.2147 -1.0279  0.5096
  532TMC3    C5 7897   0.798   4.636  13.172 -0.0787  0.0673  0.2286
  532TMC3    C6 7898   0.714   4.643  13.277  0.4790  0.1572  0.0660
  532TMC3     C 7899   0.679   0.174  12.979  0.1316 -0.2961  0.5174
  532TMC3     O 7900   0.558   0.161  12.970  0.3317 -0.0953 -0.4800
  532TMC3     H 7901   0.568   0.213  13.207 -3.2237 -1.9438 -1.8750
  532TMC3    H1 7902   0.864   0.012  12.987  0.4364  2.5166  0.6440
  532TMC3    H2 7903   0.713   4.568  13.354  2.0551  0.3465  0.2763
  532TMC3    C7 7904   0.868   4.512  13.157  0.0056 -0.0414  0.2373
  532TMC3    C8 7905   0.494   4.695  13.293  0.3082  0.0876  0.2693
  532TMC3    O1 7906   0.934   4.470  13.251  0.2091  0.5911 -0.1396
  532TMC3    O2 7907   0.456   4.632  13.387 -0.4845  0.6340 -0.2197
  533TMC3    C1 7908   1.661   0.517  14.364  0.4511  0.3757  0.0268
  533TMC3    C2 7909   1.795   0.539  14.377 -0.0912 -0.3521  0.6291
  533TMC3    C3 7910   1.831   0.669  14.381 -0.8994  0.0729  0.0158
  533TMC3    C4 7911   1.572   0.618  14.367  0.0766 -0.1040  0.5266
  533TMC3    C5 7912   1.619   0.746  14.396  0.3027  0.4944  0.0106
  533TMC3    C6 7913   1.750   0.775  14.397 -0.4671 -0.1071  1.3537
  533TMC3     C 7914   1.611   0.396  14.429  0.1339 -0.0077  0.5642
  533TMC3     O 7915   1.685   0.353  14.520 -0.3934 -0.1384  0.6020
  533TMC3     H 7916   1.862   0.454  14.368  0.2981  0.1342 -1.0721
  533TMC3    H1 7917   1.465   0.600  14.360 -0.0567  0.9633 -0.2594
  533TMC3    H2 7918   1.787   0.869  14.436 -1.0016  0.5921  0.1775
  533TMC3    C7 7919   1.550   0.786  14.511  0.9154  0.8974  0.9972
  533TMC3    C8 7920   1.958   0.706  14.329  0.3902  0.2562  0.2729
  533TMC3    O1 7921   1.470   0.709  14.565  0.4276  0.0664  0.2042
  533TMC3    O2 7922   2.058   0.646  14.362 -0.0449  0.2482 -0.6566
  534MPD2     C 7923   4.539   1.666   1.611 -0.2043 -0.2187  0.7848
  534MPD2    C1 7924   4.470   1.772   1.554 -0.8592 -0.3438 -0.9546
  534MPD2    C2 7925   4.359   1.744   1.473 -0.1698 -0.0170 -0.3264
  534MPD2    C3 7926   4.323   1.611   1.445  0.6500  0.0032 -0.2091
  534MPD2    C4 7927   4.403   1.515   1.497  0.0673  0.7035 -0.2527
  534MPD2    C5 7928   4.518   1.536   1.570  0.3450  0.0568  0.2185
  534MPD2     H 7929   4.316   1.833   1.427 -0.9765 -1.4473 -2.3765
  534MPD2    H1 7930   4.375   1.411   1.486  0.2839  0.4460  1.6714
  534MPD2    H2 7931   4.625   1.682   1.675 -0.3463  1.2887  0.5891
  534MPD2    H3 7932   4.570   1.448   1.606 -0.7540 -0.1095  1.3823
  534MPD2     N 7933   4.215   1.572   1.356 -0.0176  0.0146 -0.4659
  534MPD2    H5 7934   4.209   1.471   1.355  1.7245 -0.1094  0.8996
  534MPD2    N1 7935   4.502   1.912   1.572 -0.6871  0.0934 -0.0806
  534MPD2    H7 7936   4.425   1.975   1.551  0.9592  1.9009 -0.7388
  535TMC3    C1 7937   4.036   1.577   1.202  0.1367  0.3109  0.0363
  535TMC3    C2 7938   3.938   1.517   1.273  0.1259  0.0967 -0.5854
  535TMC3    C3 7939   3.814   1.502   1.221  0.2841 -0.1577 -0.0367
  535TMC3    C4 7940   4.013   1.617   1.076 -0.1460  0.2717 -0.3372
  535TMC3    C5 7941   3.891   1.584   1.015  0.3628  0.5643  0.5933
  535TMC3    C6 7942   3.791   1.535   1.091 -0.3344  0.3881 -0.7540
  535TMC3     C 7943   4.143   1.653   1.268  0.7943 -0.2399 -0.1884
  535TMC3     O 7944   4.173   1.765   1.232  0.1282 -0.0353 -0.0328
  535TMC3     H 7945   3.959   1.491   1.376  2.2343  1.3118 -0.7069
  535TMC3    H1 7946   4.090   1.667   1.019 -0.1085 -0.5870 -1.0347
  535TMC3    H2 7947   3.694   1.507   1.052 -1.7123  0.9411  2.2758
  535TMC3    C7 7948   3.883   1.577   0.867  0.2544 -0.3758  0.0294
  535TMC3    C8 7949   3.701   1.456   1.296 -0.0616  0.3628 -0.1507
  535TMC3    O1 7950   3.989   1.559   0.809  0.2622  0.3551  0.3384
  535TMC3    O2 7951   3.619   1.378   1.252  0.4024 -0.3419  0.5477
  536MPD2     C 7952   3.098   0.153  16.389  0.6916  0.0458 -0.0120
  536MPD2    C1 7953   2.966   0.111  16.421 -0.0501 -0.1714 -0.0833
  536MPD2    C2 7954   2.861   0.194  16.377  0.3256  0.4329 -0.4301
  536MPD2    C3 7955   2.886   0.299  16.291 -0.3806 -0.3363 -0.1766
  536MPD2    C4 7956   3.016   0.323  16.255  0.3880 -0.4435  0.6938
  536MPD2    C5 7957   3.122   0.251  16.300  0.2701 -0.5621 -0.1898
  536MPD2     H 7958   2.758   0.166  16.392  0.7681 -0.9710  0.0285
  536MPD2    H1 7959   3.023   0.399  16.178  2.0586 -1.3574 -0.0673
  536MPD2    H2 7960   3.184   0.093  16.417 -1.1107 -1.2273  2.7831
  536MPD2    H3 7961   3.220   0.268  16.257 -0.3737 -1.2707 -1.9401
  536MPD2     N 7962   2.784   0.385  16.244 -0.4820 -1.0131 -0.4718
  536MPD2    H5 7963   2.823   0.466  16.196 -1.1927 -0.6776 -0.4709
  536MPD2    N1 7964   2.956   0.009  16.513 -0.1369  0.5040  0.0554
  536MPD2    H7 7965   3.043   4.682  16.526 -0.9794 -0.7873  0.6692
  537TMC3    C1 7966   2.878   4.582  16.672 -0.1903 -0.0282  1.1825
  537TMC3    C2 7967   3.010   4.552  16.698 -0.3342 -0.7108  0.0992
  537TMC3    C3 7968   3.028   4.438  16.769  0.6601  0.3720 -0.1013
  537TMC3    C4 7969   2.774   4.506  16.713  0.4911 -1.2105  0.1986
  537TMC3    C5 7970   2.805   4.407  16.802 -0.2420 -0.0661 -1.0731
  537TMC3    C6 7971   2.933   4.367  16.835 -0.5278  0.3649  0.1043
  537TMC3     C 7972   2.847   4.690  16.579 -0.7789  0.3594 -0.2085
  537TMC3     O 7973   2.730   0.007  16.569 -0.0533 -0.2170  0.2150
  537TMC3     H 7974   3.086   4.627  16.677  0.1098 -2.3543 -4.2467
  537TMC3    H1 7975   2.673   4.521  16.677  0.6862  1.2861  0.6394
  537TMC3    H2 7976   2.957   4.288  16.906 -0.0190  1.3203  0.9916
  537TMC3    C7 7977   2.693   4.342  16.873 -0.0665 -0.0833 -0.9563
  537TMC3    C8 7978   3.154   4.433  16.843 -0.1560 -0.0485 -0.0483
  537TMC3    O1 7979   2.584   4.354  16.815  0.6439 -0.0795 -0.2937
  537TMC3    O2 7980   3.152   4.406  16.960  0.6746  0.1959 -0.3197
  538TMC3    C1 7981   4.212   3.619  10.743 -0.3522 -0.2363 -0.7948
  538TMC3    C2 7982   4.240   3.519  10.646 -0.0797  0.5944 -0.6680
  538TMC3    C3 7983   4.282   3.556  10.519  0.2344 -0.4321 -0.4938
  538TMC3    C4 7984   4.222   3.753  10.707  0.1400 -0.6062  0.7686
  538TMC3    C5 7985   4.281   3.790  10.586 -0.3095 -0.5451  0.6556
  538TMC3    C6 7986   4.304   3.689  10.492  0.2108 -0.2866 -0.1215
  538TMC3     C 7987   4.244   3.586  10.880 -0.2243  0.1501  0.3807
  538TMC3     O 7988   4.183   3.493  10.922  0.5629 -0.0097 -0.3625
  538TMC3     H 7989   4.246   3.415  10.677  0.4212  1.0742  0.8787
  538TMC3    H1 7990   4.227   3.823  10.790  0.5777 -0.2815  0.4686
  538TMC3    H2 7991   4.349   3.722  10.399  0.2951 -0.0494  0.0033
  538TMC3    C7 7992   4.233   3.914  10.533  0.3261  0.3888 -0.0098
  538TMC3    C8 7993   4.366   3.458  10.452 -0.7079 -0.2725 -0.1617
  538TMC3    O1 7994   4.193   3.932  10.415  0.3747  0.2391  0.6078
  538TMC3    O2 7995   4.323   3.343  10.439 -0.2173  0.2616 -0.7845
  539MPD2     C 7996   4.184   3.010  11.651 -0.2334  0.2121 -0.4521
  539MPD2    C1 7997   4.126   3.011  11.524 -0.6635  0.2026 -0.5338
  539MPD2    C2 7998   4.095   3.134  11.466  0.0952  0.5264 -0.5482
  539MPD2    C3 7999   4.121   3.252  11.529 -0.1594 -0.4991 -0.2047
  539MPD2    C4 8000   4.184   3.245  11.653  0.2116  0.0634  0.0659
  539MPD2    C5 8001   4.220   3.126  11.714  0.2996 -0.4387  0.1421
  539MPD2     H 8002   4.052   3.143  11.366 -0.4690 -0.6139 -0.4109
  539MPD2    H1 8003   4.191   3.337  11.711 -0.0049 -1.2150  2.1241
  539MPD2    H2 8004   4.225   2.918  11.690 -0.2811 -0.4449 -1.9563
  539MPD2    H3 8005   4.255   3.125  11.817  0.8694 -1.7757 -0.0572
  539MPD2     N 8006   4.075   3.380  11.486  0.2485  0.2488 -0.9309
  539MPD2    H5 8007   4.109   3.463  11.533 -0.8037 -0.3672  0.8961
  539MPD2    N1 8008   4.092   2.889  11.455 -0.3460 -0.3449 -0.9637
  539MPD2    H7 8009   4.063   2.909  11.360  0.8906 -1.0744 -1.4940
  540TMC3    C1 8010   3.986   3.549  11.363 -0.1099  0.1248 -0.0130
  540TMC3    C2 8011   3.991   3.605  11.239  0.5174  0.6712 -0.2118
  540TMC3    C3 8012   3.958   3.736  11.228  0.6081  0.5260  0.4473
  540TMC3    C4 8013   3.964   3.622  11.474 -0.6401 -0.1055  0.0404
  540TMC3    C5 8014   3.939   3.757  11.454 -0.0379  0.6875  0.3504
  540TMC3    C6 8015   3.936   3.813  11.335  0.4491  0.8521 -0.0186
  540TMC3     C 8016   4.006   3.412  11.370  0.0298  0.0319 -0.0589
  540TMC3     O 8017   3.955   3.346  11.281  0.1936  0.2646 -0.3434
  540TMC3     H 8018   4.029   3.565  11.146  0.5975 -1.4222  0.7379
  540TMC3    H1 8019   3.947   3.569  11.567  1.6916  2.2461  1.7709
  540TMC3    H2 8020   3.911   3.917  11.323 -0.8913  0.5544  0.2182
  540TMC3    C7 8021   3.853   3.806  11.559  0.4899  0.3548 -0.4558
  540TMC3    C8 8022   3.920   3.779  11.098 -0.1050 -0.1861 -0.5111
  540TMC3    O1 8023   3.787   3.719  11.606  0.3488  0.4930 -0.0825
  540TMC3    O2 8024   3.969   3.888  11.067  0.0995 -0.0528 -0.0355
  541MPD2     C 8025   1.925   4.449  13.176 -0.2628 -0.2807  0.4255
  541MPD2    C1 8026   2.017   4.365  13.123  0.1696  0.4950  0.2822
  541MPD2    C2 8027   2.108   4.412  13.036  0.2996  0.0057  0.6632
  541MPD2    C3 8028   2.104   4.544  13.000 -0.1346  0.1561  0.6898
  541MPD2    C4 8029   2.019   4.630  13.065 -1.1723  0.0948 -0.4738
  541MPD2    C5 8030   1.927   4.581  13.159 -0.0174 -0.2124  0.0059
  541MPD2     H 8031   2.181   4.344  12.992 -1.8790 -0.6812 -1.9273
  541MPD2    H1 8032   2.028   0.014  13.052 -1.1721  0.2691  0.9582
  541MPD2    H2 8033   1.847   4.404  13.236 -1.8191 -0.9959 -2.1044
  541MPD2    H3 8034   1.863   4.637  13.226 -0.9096 -0.6450 -0.4924
  541MPD2     N 8035   2.196   4.614  12.916 -0.6569 -0.0393  0.3232
  541MPD2    H5 8036   2.182   4.714  12.913  4.2948  0.6607  0.5899
  541MPD2    N1 8037   2.027   4.228  13.163  0.5909 -0.2797 -0.3242
  541MPD2    H7 8038   2.104   4.177  13.121  0.7924 -1.6916  1.7831
  542TMC3    C1 8039   2.329   4.652  12.727 -0.2614  0.0951  0.0020
  542TMC3    C2 8040   2.359   4.606  12.602  0.3054  0.3089 -0.3807
  542TMC3    C3 8041   2.357   4.690  12.494 -0.0342  0.2916  0.3412
  542TMC3    C4 8042   2.302   0.058  12.745 -0.5402  0.1574 -0.7661
  542TMC3    C5 8043   2.297   0.141  12.635  0.2300  0.0760 -0.4008
  542TMC3    C6 8044   2.324   0.100  12.506 -0.1745 -0.8909 -0.1713
  542TMC3     C 8045   2.283   4.557  12.829  0.5653  0.2050  0.2566
  542TMC3     O 8046   2.292   4.436  12.804 -0.0072  0.4063  0.1894
  542TMC3     H 8047   2.372   4.499  12.588 -2.3768 -0.2976  1.5913
  542TMC3    H1 8048   2.275   0.103  12.839  0.8397  1.5893 -1.0480
  542TMC3    H2 8049   2.351   0.168  12.425  0.4910  0.9184  1.5722
  542TMC3    C7 8050   2.299   0.281  12.670 -0.6125  0.1092 -0.6895
  542TMC3    C8 8051   2.420   4.657  12.370  0.4791  0.2454 -0.3974
  542TMC3    O1 8052   2.338   0.314  12.780  0.1979  0.4197 -0.2759
  542TMC3    O2 8053   2.376   4.704  12.270  0.0208 -0.3438  0.0975
  543TMC3    C1 8054   1.327   0.519  17.673  1.0158  0.0978 -0.8745
  543TMC3    C2 8055   1.428   0.512   0.065 -0.0362  0.0772 -0.2918
  543TMC3    C3 8056   1.416   0.472   0.193  0.4236 -0.2241  0.6364
  543TMC3    C4 8057   1.204   0.471   0.019 -0.6269 -0.6982  0.0953
  543TMC3    C5 8058   1.191   0.449   0.154  0.4387 -0.2828 -0.2612
  543TMC3    C6 8059   1.297   0.452   0.246 -0.0630 -0.0126  0.0074
  543TMC3     C 8060   1.363   0.530  17.530 -0.5301  0.3515  0.3416
  543TMC3     O 8061   1.478   0.505  17.492  0.1188 -0.1409  0.1686
  543TMC3     H 8062   1.524   0.547   0.027  0.1135 -0.4683 -0.4182
  543TMC3    H1 8063   1.119   0.466  17.648 -0.2676 -1.2829 -0.3129
  543TMC3    H2 8064   1.287   0.437   0.352  2.6005  0.2449  0.3040
  543TMC3    C7 8065   1.064   0.401   0.200  0.1994 -0.6027 -0.1316
  543TMC3    C8 8066   1.520   0.378   0.227 -0.1795 -0.3959 -0.0573
  543TMC3    O1 8067   0.963   0.426   0.136  0.3766 -0.2937  0.3057
  543TMC3    O2 8068   1.532   0.343   0.344  0.1109 -0.6590 -0.7678
  544MPD2     C 8069   1.829   4.709   0.118 -0.4433 -0.7285 -0.0298
  544MPD2    C1 8070   1.769   0.033   0.001  0.7532 -1.0259 -0.2016
  544MPD2    C2 8071   1.688   0.151   0.000  0.7147  0.7838  0.2533
  544MPD2    C3 8072   1.671   0.211   0.120  0.2816 -0.1139  0.2076
  544MPD2    C4 8073   1.744   0.171   0.237  1.0561  0.0606  0.0107
  544MPD2    C5 8074   1.821   0.064   0.225 -0.3662  0.5947 -0.4255
  544MPD2     H 8075   1.639   0.185  17.606 -1.1821 -3.7005 -0.4218
  544MPD2    H1 8076   1.744   0.243   0.318 -0.8999 -0.1277  0.1627
  544MPD2    H2 8077   1.888   4.618   0.123  0.2164 -0.4346 -2.3218
  544MPD2    H3 8078   1.882   0.034   0.310 -0.9575 -1.1607 -0.6120
  544MPD2     N 8079   1.582   0.319   0.117 -0.0945 -0.5112 -0.4753
  544MPD2    H5 8080   1.550   0.346   0.024  2.0379 -1.1643 -1.4108
  544MPD2    N1 8081   1.783   4.667  17.579 -1.0360 -0.4144  0.0041
  544MPD2    H7 8082   1.859   4.600  17.580 -1.1107 -0.4385  4.6704
  545TMC3    C1 8083   1.761   4.607  17.350 -0.0386  0.3612 -0.1127
  545TMC3    C2 8084   1.726   4.653  17.223 -0.0239  0.1764 -0.4434
  545TMC3    C3 8085   1.749   4.562  17.120 -0.4358  0.5455  0.0825
  545TMC3    C4 8086   1.830   4.488  17.377 -0.0837 -0.5639 -0.2141
  545TMC3    C5 8087   1.854   4.405  17.267  0.1565  0.5362  1.0626
  545TMC3    C6 8088   1.814   4.442  17.142 -0.6639  0.2914 -0.4390
  545TMC3     C 8089   1.723   4.692  17.461 -0.5633  0.7394  0.6731
  545TMC3     O 8090   1.643   0.054  17.432  0.0209  0.5899 -0.1127
  545TMC3     H 8091   1.668   0.018  17.203 -0.2932  0.3871  1.3149
  545TMC3    H1 8092   1.861   4.469  17.479  0.4150  0.6547 -0.1379
  545TMC3    H2 8093   1.802   4.358  17.075 -1.0115 -1.0707  1.3277
  545TMC3    C7 8094   1.918   4.274  17.288  0.8681  0.4264  0.8862
  545TMC3    C8 8095   1.722   4.595  16.981 -0.3130  0.0608 -0.2934
  545TMC3    O1 8096   1.945   4.214  17.185 -0.0821 -0.7324  0.0138
  545TMC3    O2 8097   1.763   4.514  16.899  0.0593  0.2665 -0.6708
  546MPD2     C 8098   3.004   4.653  17.080  0.4545 -0.3602 -0.6016
  546MPD2    C1 8099   2.884   4.687  17.024  0.1396 -0.4769 -0.2976
  546MPD2    C2 8100   2.884   0.058  16.922 -0.1629 -0.2712 -0.8180
  546MPD2    C3 8101   2.995   0.120  16.870 -0.6616  0.4504  0.1344
  546MPD2    C4 8102   3.112   0.079  16.923  0.2011 -0.5313 -0.1181
  546MPD2    C5 8103   3.123   4.709  17.024  0.6415  0.4448  0.3411
  546MPD2     H 8104   2.787   0.090  16.886 -0.0643  2.2558  1.1515
  546MPD2    H1 8105   3.211   0.111  16.891  0.1065  1.2454  1.3957
  546MPD2    H2 8106   3.010   4.580  17.160  1.5620 -1.7941 -1.9861
  546MPD2    H3 8107   3.219   4.687  17.069  1.5552  1.1322 -1.2643
  546MPD2     N 8108   2.997   0.224  16.773 -0.2382  0.3323 -0.7037
  546MPD2    H5 8109   3.088   0.253  16.739  0.6880  0.7237  2.1371
  546MPD2    N1 8110   2.764   4.629  17.077 -0.4973  0.9680  0.4611
  546MPD2    H7 8111   2.779   4.571  17.158 -2.4232  0.5352  0.4870
  547TMC3    C1 8112   2.540   4.588  17.118 -0.1501  0.3553  0.7614
  547TMC3    C2 8113   2.424   4.551  17.057 -0.2635  0.8001 -0.1371
  547TMC3    C3 8114   2.323   4.491  17.129  0.0317  0.1050  0.4714
  547TMC3    C4 8115   2.575   4.562  17.244  1.2007  0.1451  0.1415
  547TMC3    C5 8116   2.482   4.489  17.309 -0.1977  0.0644 -0.1142
  547TMC3    C6 8117   2.356   4.455  17.262  0.3890 -0.6943 -0.4214
  547TMC3     C 8118   2.639   4.648  17.034 -0.2648  0.1463 -0.4512
  547TMC3     O 8119   2.609   4.694  16.924 -0.1862 -0.1762  0.3849
  547TMC3     H 8120   2.399   4.597  16.962 -0.2278  2.6850  0.7521
  547TMC3    H1 8121   2.663   4.605  17.291  1.3779 -1.0701  0.9047
  547TMC3    H2 8122   2.291   4.411  17.338  0.2774  0.8722  0.3829
  547TMC3    C7 8123   2.465   4.503  17.450 -0.9309 -0.9208  0.7395
  547TMC3    C8 8124   2.202   4.577  17.120  0.1171 -0.0908  0.2812
  547TMC3    O1 8125   2.382   4.585  17.488 -0.4548  0.0596  0.0850
  547TMC3    O2 8126   2.166   4.615  17.008  0.1029  0.4217 -0.7641
  548MPD2     C 8127   2.691   1.785  11.967 -0.2079  0.1192  0.2502
  548MPD2    C1 8128   2.741   1.725  12.082 -0.2458 -0.3804  0.1060
  548MPD2    C2 8129   2.860   1.656  12.068 -0.1453  0.5266  0.4708
  548MPD2    C3 8130   2.913   1.631  11.945 -0.3848  0.1497 -0.6377
  548MPD2    C4 8131   2.873   1.706  11.837 -0.2584  0.2356  0.3589
  548MPD2    C5 8132   2.753   1.775  11.850 -0.5296 -0.2799  0.5629
  548MPD2     H 8133   2.909   1.615  12.155  3.0874  2.3745 -0.4983
  548MPD2    H1 8134   2.897   1.692  11.732 -2.0209  1.1269 -0.1734
  548MPD2    H2 8135   2.599   1.840  11.982 -1.2294 -0.7333 -3.0158
  548MPD2    H3 8136   2.701   1.814  11.763  1.1406  1.7639  0.4941
  548MPD2     N 8137   3.018   1.529  11.939 -0.1597  0.6859 -1.4517
  548MPD2    H5 8138   3.051   1.492  12.027 -1.3062 -1.3762 -1.8817
  548MPD2    N1 8139   2.667   1.735  12.199 -0.0100  0.1292  0.1676
  548MPD2    H7 8140   2.580   1.787  12.198 -0.1505 -0.1474 -1.1524
  549TMC3    C1 8141   2.585   1.678  12.414  0.5357 -0.5767  0.9025
  549TMC3    C2 8142   2.506   1.789  12.415 -0.2189 -0.1444  0.0939
  549TMC3    C3 8143   2.400   1.792  12.503 -0.2973 -0.1551 -0.7144
  549TMC3    C4 8144   2.568   1.576  12.509  0.2137 -0.8776  0.7253
  549TMC3    C5 8145   2.466   1.592  12.599 -0.5041 -0.0351 -0.3661
  549TMC3    C6 8146   2.384   1.700  12.599 -0.5031 -1.1080 -0.2300
  549TMC3     C 8147   2.686   1.662  12.314 -0.3978  0.0767 -0.3753
  549TMC3     O 8148   2.762   1.566  12.338  0.0035  0.1033 -0.1443
  549TMC3     H 8149   2.535   1.875  12.357  0.5133 -0.2802  0.2618
  549TMC3    H1 8150   2.628   1.486  12.497  0.0011 -0.6642 -2.0044
  549TMC3    H2 8151   2.298   1.699  12.665 -0.5781  1.2897 -0.2941
  549TMC3    C7 8152   2.427   1.490  12.693  0.1282 -0.4794  0.0897
  549TMC3    C8 8153   2.285   1.892  12.493 -0.4512  0.0549  0.1463
  549TMC3    O1 8154   2.378   1.525  12.798 -0.4490  0.0477  0.3987
  549TMC3    O2 8155   2.171   1.844  12.495  0.4146  0.0108 -0.2375
  550TMC3    C1 8156   1.834   4.048  12.375 -0.4243 -0.5069 -0.1863
  550TMC3    C2 8157   1.817   4.120  12.492  0.3131 -0.4563 -0.0703
  550TMC3    C3 8158   1.763   4.246  12.496 -0.4780  0.0076  0.5731
  550TMC3    C4 8159   1.801   4.106  12.256 -0.1990 -0.3348 -0.0797
  550TMC3    C5 8160   1.747   4.234  12.264  0.3315 -0.6729 -0.1923
  550TMC3    C6 8161   1.733   4.307  12.378 -0.4920  0.6445  0.0366
  550TMC3     C 8162   1.842   3.902  12.385  0.2395  0.1841 -0.4163
  550TMC3     O 8163   1.829   3.856  12.494 -0.4052 -0.5597 -0.4589
  550TMC3     H 8164   1.850   4.067  12.581 -0.0176 -2.0482 -0.9001
  550TMC3    H1 8165   1.817   4.055  12.162 -0.0225 -0.2821 -0.0777
  550TMC3    H2 8166   1.714   4.413  12.388 -0.1803  0.7621 -0.6210
  550TMC3    C7 8167   1.658   4.268  12.158  0.0770 -0.2880  0.1046
  550TMC3    C8 8168   1.676   4.275  12.601  0.0418 -0.1315  0.1644
  550TMC3    O1 8169   1.629   4.173  12.081  0.3085  0.1422 -0.1771
  550TMC3    O2 8170   1.573   4.328  12.567  0.6197  0.0173 -0.0652
  551TMC3    C1 8171   3.935   1.814  13.078  0.9934  0.0270  0.3196
  551TMC3    C2 8172   4.055   1.830  13.012  0.5956 -0.2017 -0.1418
  551TMC3    C3 8173   4.150   1.918  13.060  0.0724  0.4013  0.8209
  551TMC3    C4 8174   3.906   1.886  13.189  0.5636  0.3316  0.5538
  551TMC3    C5 8175   4.013   1.961  13.243 -1.0885  0.2371 -0.1137
  551TMC3    C6 8176   4.137   1.977  13.183  0.0898 -0.3986  0.1474
  551TMC3     C 8177   3.820   1.769  12.997  0.5249 -0.4016 -0.4844
  551TMC3     O 8178   3.838   1.761  12.876 -0.0390 -0.0597 -0.9181
  551TMC3     H 8179   4.078   1.787  12.915 -1.6929 -1.1029 -0.2751
  551TMC3    H1 8180   3.806   1.870  13.230  0.8132 -0.5411  0.8311
  551TMC3    H2 8181   4.223   2.022  13.231 -0.0557  0.0545 -0.0178
  551TMC3    C7 8182   3.995   2.018  13.377  0.6980 -0.5851  0.1741
  551TMC3    C8 8183   4.261   1.935  12.977  0.3037 -0.0971 -0.8423
  551TMC3    O1 8184   4.084   2.089  13.415  0.2746  0.2104 -0.1713
  551TMC3    O2 8185   4.311   1.836  12.921 -0.3959 -0.0023  0.5554
  552MPD2     C 8186   0.486   3.447  13.863 -0.6542  0.3702 -1.0192
  552MPD2    C1 8187   0.613   3.440  13.803 -0.5247 -0.8591 -0.1757
  552MPD2    C2 8188   0.722   3.474  13.878 -0.4423  0.0618  0.5218
  552MPD2    C3 8189   0.716   3.491  14.015 -0.3483  0.8017 -0.6504
  552MPD2    C4 8190   0.595   3.484  14.075  0.0337  0.0729 -0.0815
  552MPD2    C5 8191   0.482   3.469  13.996  0.4476 -0.2697  0.6682
  552MPD2     H 8192   0.818   3.486  13.829  0.0234 -1.1026  1.1652
  552MPD2    H1 8193   0.587   3.499  14.183  0.2658  1.3749 -0.2395
  552MPD2    H2 8194   0.392   3.431  13.812  0.3742 -0.8908 -2.5475
  552MPD2    H3 8195   0.382   3.473  14.038 -0.1054 -0.7759 -0.5876
  552MPD2     N 8196   0.839   3.489  14.091 -0.5969  0.2088 -0.1586
  552MPD2    H5 8197   0.836   3.481  14.192  0.6263 -2.5594 -0.3560
  552MPD2    N1 8198   0.630   3.422  13.669 -0.1032 -0.5774 -0.2015
  552MPD2    H7 8199   0.728   3.423  13.642 -0.1438  3.8582 -0.2021
  553TMC3    C1 8200   0.602   3.401  13.437 -1.2419 -0.3521 -0.2286
  553TMC3    C2 8201   0.549   3.485  13.343  0.1176 -0.4636  0.3783
  553TMC3    C3 8202   0.611   3.492  13.216  0.2457 -0.1645  0.0484
  553TMC3    C4 8203   0.721   3.334  13.419  0.4901 -0.3823  0.4520
  553TMC3    C5 8204   0.774   3.334  13.290 -0.3112  0.3137 -0.2907
  553TMC3    C6 8205   0.724   3.421  13.192 -0.0084 -0.5976 -0.1356
  553TMC3     C 8206   0.535   3.406  13.570  0.1239 -0.8120 -0.2125
  553TMC3     O 8207   0.414   3.426  13.574  0.2369  0.7237  0.3256
  553TMC3     H 8208   0.461   3.541  13.370 -0.6176 -2.2420  1.6451
  553TMC3    H1 8209   0.763   3.264  13.491  0.3240 -1.7094 -0.7285
  553TMC3    H2 8210   0.774   3.419  13.096  0.0372  0.1759 -0.1286
  553TMC3    C7 8211   0.913   3.288  13.269 -0.3244 -0.5925  0.1443
  553TMC3    C8 8212   0.559   3.572  13.107  0.1760  0.3697  0.0949
  553TMC3    O1 8213   0.949   3.284  13.149  0.4289 -0.6845 -0.4003
  553TMC3    O2 8214   0.641   3.596  13.016 -0.3108  0.6753 -0.4911
  554TMC3    C1 8215   3.478   3.281  11.475  0.2792  0.1280 -0.1366
  554TMC3    C2 8216   3.441   3.183  11.386 -0.2543  0.0071 -0.1702
  554TMC3    C3 8217   3.496   3.182  11.260 -0.1612 -0.0213 -0.2052
  554TMC3    C4 8218   3.564   3.378  11.445 -0.0157 -0.6041 -0.1281
  554TMC3    C5 8219   3.615   3.381  11.318 -0.0515  0.3020  0.1796
  554TMC3    C6 8220   3.581   3.281  11.223  0.0734  0.4769 -0.0526
  554TMC3     C 8221   3.458   3.254  11.611  0.4745 -0.0451 -0.0545
  554TMC3     O 8222   3.524   3.304  11.700 -0.0473 -0.7922  0.3825
  554TMC3     H 8223   3.365   3.107  11.401 -2.8829  2.6877  0.0908
  554TMC3    H1 8224   3.563   3.460  11.515  2.2336 -0.0404 -0.7652
  554TMC3    H2 8225   3.632   3.281  11.127  1.9616  0.8610  0.9569
  554TMC3    C7 8226   3.650   3.509  11.262 -0.4059  0.1233  0.5361
  554TMC3    C8 8227   3.444   3.101  11.151 -0.2245  0.0594 -0.2135
  554TMC3    O1 8228   3.700   3.500  11.156 -0.0723 -0.1353  0.1786
  554TMC3    O2 8229   3.471   3.140  11.039 -0.0048 -0.7869 -0.3790
  555TMC3    C1 8230   1.769   2.573  15.236  0.3021 -0.2394 -0.3064
  555TMC3    C2 8231   1.748   2.584  15.370 -0.6203 -0.2838  0.3094
  555TMC3    C3 8232   1.772   2.474  15.453  0.2854 -0.0520  0.2049
  555TMC3    C4 8233   1.814   2.462  15.178  0.1669 -0.5164  0.0930
  555TMC3    C5 8234   1.856   2.363  15.262 -0.6066 -0.6737 -0.1643
  555TMC3    C6 8235   1.831   2.363  15.392  0.4443 -0.2096 -0.3125
  555TMC3     C 8236   1.813   2.692  15.174  0.4020  0.3123  0.1670
  555TMC3     O 8237   1.859   2.779  15.251  0.0599  0.3438  0.2290
  555TMC3     H 8238   1.702   2.678  15.399  2.6200  0.4654  3.0513
  555TMC3    H1 8239   1.851   2.458  15.076  3.9432 -3.3382  1.6142
  555TMC3    H2 8240   1.878   2.291  15.458 -2.6775  0.1211  2.2788
  555TMC3    C7 8241   1.929   2.247  15.218 -0.2746 -0.7880  0.5942
  555TMC3    C8 8242   1.779   2.498  15.595 -0.0830 -0.4031 -0.6654
  555TMC3    O1 8243   1.991   2.249  15.110 -0.1472  0.1058 -0.2410
  555TMC3    O2 8244   1.737   2.605  15.638 -0.7532 -0.2415  0.0717
  556MPD2     C 8245   0.191   4.309  10.788 -0.1115 -0.3969 -0.2779
  556MPD2    C1 8246   0.278   4.228  10.853 -0.5450  0.1320 -0.0919
  556MPD2    C2 8247   0.341   4.127  10.786 -0.5563 -0.1514  0.3712
  556MPD2    C3 8248   0.326   4.119  10.646 -0.2663 -0.5800  0.5631
  556MPD2    C4 8249   0.242   4.209  10.581  0.3987  0.5662 -0.2077
  556MPD2    C5 8250   0.170   4.299  10.655  0.3784 -0.8745  0.1174
  556MPD2     H 8251   0.401   4.051  10.834 -0.4333  0.1292  0.6638
  556MPD2    H1 8252   0.222   4.206  10.474 -0.2466 -1.3807 -0.0420
  556MPD2    H2 8253   0.143   4.389  10.842 -1.3343 -1.6836  0.5509
  556MPD2    H3 8254   0.099   4.369  10.612 -0.7856 -1.2384  1.4451
  556MPD2     N 8255   0.393   4.016  10.571  0.5468 -0.5344 -0.4409
  556MPD2    H5 8256   0.439   3.939  10.619  2.3937  0.5298 -0.5006
  556MPD2    N1 8257   0.292   4.206  10.997  0.0996  0.2314 -0.5035
  556MPD2    H7 8258   0.368   4.152  11.035  0.5958  0.6304 -0.9361
  557TMC3    C1 8259   0.466   3.881  10.403 -0.2029  0.4991 -0.4551
  557TMC3    C2 8260   0.504   3.872  10.278 -1.1619 -0.0086  0.4014
  557TMC3    C3 8261   0.523   3.747  10.217  0.1958  0.5015  0.6264
  557TMC3    C4 8262   0.416   3.772  10.471 -0.2334  0.3484 -0.0251
  557TMC3    C5 8263   0.415   3.647  10.403  0.5349  0.1909  0.3806
  557TMC3    C6 8264   0.473   3.634  10.278 -0.1337  0.0613 -0.2801
  557TMC3     C 8265   0.388   3.999  10.437  0.5036 -0.6611 -0.4390
  557TMC3     O 8266   0.337   4.055  10.347 -0.0418  0.5996  0.7522
  557TMC3     H 8267   0.533   3.969  10.239  0.9608 -0.7420  0.1346
  557TMC3    H1 8268   0.389   3.771  10.576 -0.7519 -0.9385 -0.1703
  557TMC3    H2 8269   0.474   3.543  10.220  0.4602  0.3847 -0.7702
  557TMC3    C7 8270   0.280   3.608  10.405  0.4034  0.5895 -0.6865
  557TMC3    C8 8271   0.580   3.744  10.081 -0.2264  0.2815  0.8397
  557TMC3    O1 8272   0.205   3.685  10.461 -0.2893 -0.0952 -0.0900
  557TMC3    O2 8273   0.638   3.847  10.047 -0.0287  0.2308  0.4067
  558TMC3    C1 8274   2.951   2.390   9.986  0.2514 -0.8493  0.6735
  558TMC3    C2 8275   2.819   2.383  10.025 -0.0181  0.2521  0.3624
  558TMC3    C3 8276   2.730   2.370   9.917  0.1149 -0.4613  0.3121
  558TMC3    C4 8277   2.991   2.350   9.862 -0.2426 -0.1142 -0.0792
  558TMC3    C5 8278   2.900   2.326   9.766 -0.4840  0.2504 -0.5143
  558TMC3    C6 8279   2.771   2.340   9.789 -0.2912 -0.2147 -0.2803
  558TMC3     C 8280   3.060   2.389  10.084 -0.6200  0.1766  0.5517
  558TMC3     O 8281   3.171   2.424  10.041 -0.0171 -0.8690  0.1822
  558TMC3     H 8282   2.782   2.414  10.122 -0.5194 -0.3489  0.3710
  558TMC3    H1 8283   3.097   2.339   9.843 -0.0180  2.2233 -0.2401
  558TMC3    H2 8284   2.701   2.340   9.706 -0.6830  2.5680  0.0517
  558TMC3    C7 8285   2.951   2.264   9.641 -0.1944  0.0394 -0.2516
  558TMC3    C8 8286   2.597   2.335   9.940 -0.1006  0.2402 -0.1761
  558TMC3    O1 8287   3.070   2.274   9.613  0.3506 -0.2654  0.3627
  558TMC3    O2 8288   2.522   2.341   9.846  0.8790 -0.1000 -0.5932
  559MPD2     C 8289   2.886   2.662  10.282  0.4091  0.4459 -0.4114
  559MPD2    C1 8290   2.806   2.601  10.370 -0.2981  0.6987  0.4545
  559MPD2    C2 8291   2.864   2.551  10.482  0.5498 -0.1941  0.0289
  559MPD2    C3 8292   2.996   2.559  10.496 -0.4111  0.2514 -0.5730
  559MPD2    C4 8293   3.084   2.610  10.404 -0.5103 -0.4398 -0.5671
  559MPD2    C5 8294   3.022   2.658  10.296 -0.2910 -0.7298  0.5504
  559MPD2     H 8295   2.803   2.509  10.561  1.1354  1.0402  1.1344
  559MPD2    H1 8296   3.192   2.612  10.414 -0.5100 -0.1568 -0.6199
  559MPD2    H2 8297   2.839   2.719  10.203 -1.5396 -1.7423 -0.8082
  559MPD2    H3 8298   3.082   2.707  10.220  0.5019 -0.6280  1.2446
  559MPD2     N 8299   3.040   2.510  10.619 -0.0007 -0.8703 -0.2533
  559MPD2    H5 8300   2.964   2.471  10.674  1.8162 -0.3157  2.6290
  559MPD2    N1 8301   2.660   2.608  10.363  0.0071  0.1502  0.1566
  559MPD2    H7 8302   2.611   2.673  10.301  1.3785  0.9389 -0.1078
  560TMC3    C1 8303   3.181   2.455  10.793  0.5038  0.3535  1.1000
  560TMC3    C2 8304   3.083   2.365  10.828  0.7394  0.5638 -1.4771
  560TMC3    C3 8305   3.078   2.322  10.960 -1.0094 -0.5412  0.0782
  560TMC3    C4 8306   3.256   2.527  10.886 -0.4048  0.0169  0.3303
  560TMC3    C5 8307   3.237   2.487  11.020  0.1415 -0.2916 -0.2917
  560TMC3    C6 8308   3.148   2.387  11.059 -0.2525 -0.9167  0.2007
  560TMC3     C 8309   3.170   2.498  10.656  0.1882 -0.2120  0.8025
  560TMC3     O 8310   3.276   2.549  10.618 -0.2307 -0.2643 -0.1880
  560TMC3     H 8311   3.015   2.318  10.758  1.0910 -1.6479 -0.3515
  560TMC3    H1 8312   3.349   2.576  10.859 -0.3738 -0.8935 -1.1674
  560TMC3    H2 8313   3.135   2.364  11.165 -0.7046 -0.7210  0.1846
  560TMC3    C7 8314   3.337   2.518  11.118  0.7252 -0.3358 -0.1018
  560TMC3    C8 8315   2.986   2.215  10.984 -0.2600 -0.3931 -0.5141
  560TMC3    O1 8316   3.344   2.438  11.214 -0.3760  0.1649  0.0412
  560TMC3    O2 8317   2.967   2.133  10.890 -0.4320 -0.2490 -0.0735
  561TMC3    C1 8318   0.823   1.440  11.378  0.0909  0.8253  0.2805
  561TMC3    C2 8319   0.729   1.376  11.457 -0.0741  0.3057  0.3009
  561TMC3    C3 8320   0.614   1.441  11.491 -0.4267  0.7239  0.4994
  561TMC3    C4 8321   0.809   1.572  11.335  0.0881  0.4085 -0.0103
  561TMC3    C5 8322   0.694   1.633  11.374 -1.0816  0.1508  0.2472
  561TMC3    C6 8323   0.598   1.574  11.447  0.4592 -0.4304  0.5831
  561TMC3     C 8324   0.958   1.377  11.383  0.4324 -0.7206  0.5159
  561TMC3     O 8325   0.980   1.303  11.481  0.5963  0.3905 -0.2336
  561TMC3     H 8326   0.750   1.277  11.498 -0.6298 -0.5596 -1.5095
  561TMC3    H1 8327   0.869   1.624  11.262 -1.2188  1.4977 -0.2961
  561TMC3    H2 8328   0.502   1.624  11.460  0.6091 -0.1410  0.5657
  561TMC3    C7 8329   0.671   1.777  11.347 -0.8300 -0.2542 -0.1916
  561TMC3    C8 8330   0.529   1.387  11.598 -0.0137  0.4944  0.3518
  561TMC3    O1 8331   0.568   1.831  11.390 -0.4074 -0.3509 -0.4208
  561TMC3    O2 8332   0.585   1.312  11.677  0.2806 -0.2169 -0.9249
  562TMC3    C1 8333   1.710   2.634  16.200  0.0257 -0.8343 -0.7260
  562TMC3    C2 8334   1.700   2.734  16.108  0.6772 -0.1104  0.5222
  562TMC3    C3 8335   1.639   2.707  15.988 -0.1277 -0.6048  0.4088
  562TMC3    C4 8336   1.647   2.510  16.191  0.0403 -0.6604 -0.1868
  562TMC3    C5 8337   1.579   2.485  16.070 -0.2523  0.0790 -0.2979
  562TMC3    C6 8338   1.581   2.581  15.967  0.3984  0.0582 -0.0338
  562TMC3     C 8339   1.792   2.653  16.313 -0.2878  0.6448  0.2045
  562TMC3     O 8340   1.813   2.770  16.333 -0.6421 -0.2319  0.0028
  562TMC3     H 8341   1.762   2.822  16.117  3.3800 -1.8170 -1.6752
  562TMC3    H1 8342   1.635   2.442  16.275 -0.1770  2.2782  2.1476
  562TMC3    H2 8343   1.552   2.561  15.865 -0.6763  0.1907  0.2481
  562TMC3    C7 8344   1.512   2.358  16.038  0.2771  0.4809  0.4766
  562TMC3    C8 8345   1.605   2.828  15.916  0.2898  0.9855  0.1790
  562TMC3    O1 8346   1.451   2.372  15.935  0.0603 -0.2457 -0.0115
  562TMC3    O2 8347   1.614   2.930  15.981  0.4600  0.4506  0.1290
  563MPD2     C 8348   3.992   3.800  15.650 -0.0237 -0.0419 -1.3686
  563MPD2    C1 8349   4.031   3.706  15.744 -0.2644  0.5599 -0.1453
  563MPD2    C2 8350   4.161   3.657  15.750 -0.5785 -0.1149 -0.0828
  563MPD2    C3 8351   4.252   3.699  15.659  0.1789  0.7984  0.2286
  563MPD2    C4 8352   4.217   3.798  15.567  0.6106 -0.1191  0.1857
  563MPD2    C5 8353   4.090   3.850  15.570 -0.3958 -0.3593 -0.0719
  563MPD2     H 8354   4.191   3.570  15.806 -0.3579  0.5493  0.8407
  563MPD2    H1 8355   4.292   3.855  15.514 -0.6968  0.0324 -1.4802
  563MPD2    H2 8356   3.895   3.845  15.632 -1.5524 -2.1415  1.5803
  563MPD2    H3 8357   4.053   3.926  15.503 -0.8034 -1.6975 -1.3682
  563MPD2     N 8358   4.386   3.660  15.687 -0.5686  0.2360 -0.1361
  563MPD2    H5 8359   4.389   3.601  15.769 -0.4824 -1.1224 -1.1090
  563MPD2    N1 8360   3.941   3.639  15.829 -0.3530 -0.4089 -0.6329
  563MPD2    H7 8361   3.975   3.558  15.880  0.3717  0.4838  0.2959
  564TMC3    C1 8362   3.764   3.582  15.944  0.1723 -0.3266  0.9657
  564TMC3    C2 8363   3.647   3.522  15.937  0.2439  0.1397  0.9864
  564TMC3    C3 8364   3.595   3.483  16.057 -0.1422  0.2941  0.1909
  564TMC3    C4 8365   3.834   3.587  16.056 -0.3834  0.7659 -0.4772
  564TMC3    C5 8366   3.790   3.521  16.171 -0.2856  0.0136  0.3803
  564TMC3    C6 8367   3.666   3.471  16.168 -0.3039  0.1717  0.5595
  564TMC3     C 8368   3.808   3.656  15.829  0.1576  0.2410 -0.3840
  564TMC3     O 8369   3.728   3.725  15.763 -0.3096 -0.0358 -0.1617
  564TMC3     H 8370   3.578   3.547  15.857 -0.3006 -1.5557  0.9408
  564TMC3    H1 8371   3.930   3.638  16.066  0.7976 -1.6541  0.7154
  564TMC3    H2 8372   3.616   3.430  16.255  1.9164  1.2399  2.3117
  564TMC3    C7 8373   3.887   3.491  16.277  0.3521  0.0915  0.1290
  564TMC3    C8 8374   3.515   3.368  16.042 -0.3938  0.0897 -0.2512
  564TMC3    O1 8375   3.997   3.539  16.260  0.1327 -0.0232  0.5817
  564TMC3    O2 8376   3.445   3.329  16.138  0.4300 -0.4310 -0.1101
  565TMC3    C1 8377   4.666   0.887   9.331 -0.5159  1.1099  0.6692
  565TMC3    C2 8378   4.616   0.870   9.461  0.3237 -0.1002  0.4524
  565TMC3    C3 8379   4.595   0.735   9.495 -0.0541 -0.3198 -0.9337
  565TMC3    C4 8380   4.696   0.785   9.247 -0.1249 -0.2549 -0.2312
  565TMC3    C5 8381   4.652   0.661   9.281 -0.7690 -0.1432  0.2192
  565TMC3    C6 8382   4.599   0.633   9.404  0.2277 -0.2452  0.1219
  565TMC3     C 8383   4.712   1.025   9.292 -0.5596 -0.3703 -0.8450
  565TMC3     O 8384   4.634   1.115   9.321 -0.7787  0.0280  0.1666
  565TMC3     H 8385   4.590   0.942   9.538 -0.2504  2.1506 -1.8404
  565TMC3    H1 8386   0.021   0.807   9.153 -0.0489 -0.8975 -0.3398
  565TMC3    H2 8387   4.596   0.531   9.442  0.9588 -0.5830 -0.7268
  565TMC3    C7 8388   4.647   0.566   9.173  0.0200 -0.1498 -0.9918
  565TMC3    C8 8389   4.579   0.703   9.638 -0.2540  0.5036 -0.6543
  565TMC3    O1 8390   0.005   0.585   9.083  0.0909 -0.4257  0.3090
  565TMC3    O2 8391   4.647   0.767   9.715 -0.0094 -0.6180 -0.3939
  566MPD2     C 8392   1.173   2.657  13.739  0.4490 -0.5709  0.3885
  566MPD2    C1 8393   1.286   2.673  13.658  0.1132  0.5644 -0.2994
  566MPD2    C2 8394   1.286   2.591  13.544 -0.2854  0.4159 -0.0233
  566MPD2    C3 8395   1.180   2.501  13.517  0.0331  0.0970  0.1899
  566MPD2    C4 8396   1.080   2.484  13.605  0.2258  0.1201  0.1766
  566MPD2    C5 8397   1.066   2.575  13.706 -0.0025 -0.0050 -0.2866
  566MPD2     H 8398   1.372   2.605  13.479  0.0179  1.1061  0.5326
  566MPD2    H1 8399   1.001   2.414  13.582 -0.7672  1.3503 -0.1748
  566MPD2    H2 8400   1.156   2.709  13.833  0.7668  2.3972 -1.1721
  566MPD2    H3 8401   0.974   2.565  13.763  0.1009  0.8510  0.0328
  566MPD2     N 8402   1.189   2.407  13.410  0.4879 -0.0658 -0.4274
  566MPD2    H5 8403   1.115   2.337  13.417 -0.9128  1.5504  0.9016
  566MPD2    N1 8404   1.389   2.762  13.696  0.1971  0.1016 -0.3268
  566MPD2    H7 8405   1.407   2.780  13.794  1.6080 -0.4945 -0.4859
  567TMC3    C1 8406   1.599   2.867  13.643  0.1183  0.3360 -0.2567
  567TMC3    C2 8407   1.671   2.919  13.537 -0.7282 -0.5172  0.5270
  567TMC3    C3 8408   1.804   2.919  13.549  0.6954 -0.9117 -0.0249
  567TMC3    C4 8409   1.662   2.816  13.754  0.4722 -0.2013  0.3331
  567TMC3    C5 8410   1.802   2.821  13.766 -0.9334 -0.1387 -0.7063
  567TMC3    C6 8411   1.871   2.874  13.662 -0.6973  0.1753  0.1269
  567TMC3     C 8412   1.465   2.824  13.602 -0.1211  0.1496 -0.4000
  567TMC3     O 8413   1.426   2.852  13.490  0.0249 -0.3573 -0.0984
  567TMC3     H 8414   1.626   2.958  13.447 -0.5021 -0.6190  0.3690
  567TMC3    H1 8415   1.598   2.811  13.841  1.0270  1.4493  0.8334
  567TMC3    H2 8416   1.979   2.868  13.668 -0.7076 -0.6250 -0.5255
  567TMC3    C7 8417   1.880   2.780  13.878 -0.6640 -0.0827  0.1476
  567TMC3    C8 8418   1.864   2.916  13.421 -0.1562  0.2565  0.7357
  567TMC3    O1 8419   2.002   2.810  13.874 -0.0883  0.1102  0.0531
  567TMC3    O2 8420   1.794   2.881  13.330  0.2463  0.2375 -0.4604
  568MPD2     C 8421   3.474   1.964  16.634 -0.0468 -0.3546 -0.2563
  568MPD2    C1 8422   3.348   2.007  16.663  0.0483  0.1501  0.1526
  568MPD2    C2 8423   3.302   2.110  16.586  0.0286 -0.1100 -0.0483
  568MPD2    C3 8424   3.373   2.164  16.486 -0.5335 -0.2522 -0.1751
  568MPD2    C4 8425   3.489   2.104  16.449 -0.7058  0.4781  1.3204
  568MPD2    C5 8426   3.544   2.009  16.523  0.0635  0.8207 -1.0574
  568MPD2     H 8427   3.203   2.144  16.613  0.6816 -0.9732  3.4148
  568MPD2    H1 8428   3.527   2.136  16.352  0.9954 -0.7066  1.5825
  568MPD2    H2 8429   3.510   1.883  16.697  0.3664 -0.9619 -1.2743
  568MPD2    H3 8430   3.641   1.968  16.495  0.7189  0.8821  1.1250
  568MPD2     N 8431   3.317   2.286  16.436 -0.1401  0.1155 -0.2136
  568MPD2    H5 8432   3.238   2.322  16.489  0.0787 -1.1556  0.9676
  568MPD2    N1 8433   3.272   1.940  16.761 -0.5443 -0.0088 -0.0980
  568MPD2    H7 8434   3.320   1.880  16.827 -0.7335  0.1792  0.2080
  569TMC3    C1 8435   3.279   2.477  16.300  0.5265  0.1279  0.2282
  569TMC3    C2 8436   3.251   2.554  16.409 -0.4751  0.1868  0.2932
  569TMC3    C3 8437   3.228   2.682  16.386 -0.6205 -0.2659 -0.4384
  569TMC3    C4 8438   3.315   2.537  16.182 -0.4001  0.3793 -0.0045
  569TMC3    C5 8439   3.291   2.670  16.172 -0.6098 -0.6560  0.4894
  569TMC3    C6 8440   3.246   2.748  16.272  0.6148 -0.2950 -0.2204
  569TMC3     C 8441   3.359   2.354  16.327  0.2952  0.0529  0.4136
  569TMC3     O 8442   3.458   2.336  16.255 -0.0632  0.4667 -0.8167
  569TMC3     H 8443   3.234   2.512  16.508 -2.5345 -1.1304 -0.6162
  569TMC3    H1 8444   3.341   2.479  16.094 -0.8065  2.1007 -1.2529
  569TMC3    H2 8445   3.205   2.847  16.261 -0.0059 -0.4232  0.9571
  569TMC3    C7 8446   3.338   2.734  16.043  0.8197  0.1105  0.2278
  569TMC3    C8 8447   3.176   2.753  16.502 -0.6030  0.0277  0.1453
  569TMC3    O1 8448   3.379   2.659  15.956  0.4843 -0.4095 -1.2272
  569TMC3    O2 8449   3.142   2.688  16.598  0.2833  0.5116  0.3485
  570TMC3    C1 8450   2.790   1.529  15.505 -0.1219 -0.3490  0.2419
  570TMC3    C2 8451   2.906   1.522  15.439  0.1814 -0.2726 -0.2293
  570TMC3    C3 8452   2.971   1.643  15.411  0.2559 -0.7865  0.9929
  570TMC3    C4 8453   2.730   1.652  15.531  0.2887  0.8141  0.1966
  570TMC3    C5 8454   2.795   1.766  15.503  0.3309 -0.1082  0.0337
  570TMC3    C6 8455   2.917   1.764  15.441  0.1256  0.3951 -0.6086
  570TMC3     C 8456   2.715   1.406  15.531  0.7428  0.3924 -0.5250
  570TMC3     O 8457   2.761   1.299  15.490  0.3895  0.6652 -0.3881
  570TMC3     H 8458   2.945   1.426  15.405 -1.9916 -1.3230  0.2351
  570TMC3    H1 8459   2.635   1.658  15.584 -0.6617 -0.7591 -1.3248
  570TMC3    H2 8460   2.969   1.858  15.426  0.7424  0.4336  1.7033
  570TMC3    C7 8461   2.811   1.836  15.623  0.0493  0.0631  0.1287
  570TMC3    C8 8462   3.106   1.651  15.362  0.5722 -0.4623 -0.7018
  570TMC3    O1 8463   2.801   1.773  15.730 -0.6273  0.8572  0.3822
  570TMC3    O2 8464   3.139   1.748  15.296 -0.2067  0.2974  0.5363
  571MPD2     C 8465   2.021   2.807  17.226  0.6777  0.0824 -0.2587
  571MPD2    C1 8466   1.896   2.824  17.175 -0.0639  0.3897 -0.1137
  571MPD2    C2 8467   1.803   2.897  17.241 -0.2590 -0.7628  0.6013
  571MPD2    C3 8468   1.841   2.969  17.352  0.0865  0.2876 -0.0746
  571MPD2    C4 8469   1.973   2.965  17.400 -0.3684  0.0219  0.3669
  571MPD2    C5 8470   2.063   2.878  17.331  0.6378 -0.4379 -0.1667
  571MPD2     H 8471   1.705   2.911  17.197 -0.2283  0.5394  0.9691
  571MPD2    H1 8472   2.002   3.021  17.488 -2.0064 -2.4968  2.5077
  571MPD2    H2 8473   2.093   2.747  17.172  0.1987 -1.2041  0.5287
  571MPD2    H3 8474   2.169   2.870  17.351  0.4040  0.1338  1.3228
  571MPD2     N 8475   1.747   3.039  17.432 -0.3323 -0.7118  0.6280
  571MPD2    H5 8476   1.788   3.096  17.505 -0.0661 -0.1126  0.0103
  571MPD2    N1 8477   1.862   2.780  17.045 -0.5643  0.2464  0.0964
  571MPD2    H7 8478   1.932   2.767  16.973 -1.0544  0.2915 -0.3944
  572TMC3    C1 8479   1.555   3.111  17.535  0.3300 -0.0390 -0.1094
  572TMC3    C2 8480   1.447   3.060  17.604 -0.1702  0.2092  0.4374
  572TMC3    C3 8481   1.402   3.118   0.024 -0.1807  0.0991  0.2707
  572TMC3    C4 8482   1.616   3.228  17.572 -0.5520 -0.5846  0.4339
  572TMC3    C5 8483   1.561   3.286  17.683 -0.1843 -0.3064  0.3784
  572TMC3    C6 8484   1.457   3.240   0.060  0.2611 -0.1556  0.3108
  572TMC3     C 8485   1.613   3.030  17.432 -0.1433  0.4416  0.4067
  572TMC3     O 8486   1.547   2.939  17.378 -0.3047  0.1394  0.3597
  572TMC3     H 8487   1.418   2.956  17.588  1.5237 -0.2432  0.2919
  572TMC3    H1 8488   1.700   3.266  17.515 -0.5567  0.2979  1.0146
  572TMC3    H2 8489   1.430   3.295   0.149  0.6660 -0.1776  0.4458
  572TMC3    C7 8490   1.571   3.431  17.683  0.3049 -0.8020  0.2154
  572TMC3    C8 8491   1.266   3.076   0.059  0.0840  0.2249  1.3045
  572TMC3    O1 8492   1.468   3.495   0.008  0.1996 -0.5706  0.0572
  572TMC3    O2 8493   1.211   2.995  17.679 -0.5665  0.1011  0.0777
  573MPD2     C 8494   1.800   4.185   0.824 -0.9179 -0.1984  0.3092
  573MPD2    C1 8495   1.925   4.222   0.871 -0.6750 -1.0143  0.4189
  573MPD2    C2 8496   2.033   4.198   0.792  0.1965 -0.5173  0.6983
  573MPD2    C3 8497   2.023   4.142   0.664 -0.4359 -0.2049 -0.7994
  573MPD2    C4 8498   1.894   4.099   0.623 -0.2276  0.0027  0.3995
  573MPD2    C5 8499   1.793   4.112   0.708  0.0233 -0.7978  0.7337
  573MPD2     H 8500   2.134   4.215   0.829 -0.8292 -0.3938  3.4033
  573MPD2    H1 8501   1.881   4.062   0.522  1.9826  0.4266 -0.0509
  573MPD2    H2 8502   1.709   4.200   0.881 -0.9588 -0.2465  0.2566
  573MPD2    H3 8503   1.696   4.076   0.677  0.4912 -2.1034  0.7820
  573MPD2     N 8504   2.129   4.124   0.568  0.1363  0.1539 -0.1098
  573MPD2    H5 8505   2.103   4.084   0.479  0.8164  0.9049 -0.6454
  573MPD2    N1 8506   1.937   4.280   0.999 -0.6962  0.1389 -0.0049
  573MPD2    H7 8507   1.851   4.295   1.050  0.9119  0.9305  2.4686
  574TMC3    C1 8508   2.344   4.160   0.471 -0.6701  1.2234  0.0460
  574TMC3    C2 8509   2.296   4.119   0.345  0.5532 -0.2434  0.3404
  574TMC3    C3 8510   2.390   4.073   0.253  0.1058 -0.5970  0.2020
  574TMC3    C4 8511   2.474   4.150   0.504  0.2407  0.4571  0.6202
  574TMC3    C5 8512   2.556   4.089   0.411 -0.5513  0.1623  0.0219
  574TMC3    C6 8513   2.514   4.045   0.287 -0.7454  0.3613  0.4526
  574TMC3     C 8514   2.257   4.177   0.587  0.4777  0.1112  0.4228
  574TMC3     O 8515   2.303   4.228   0.689 -0.3721  0.0546 -0.5821
  574TMC3     H 8516   2.194   4.134   0.310  1.3941  1.0329 -1.5337
  574TMC3    H1 8517   2.511   4.176   0.602 -1.0395  0.2331  1.1674
  574TMC3    H2 8518   2.590   4.013   0.216 -1.2221  1.3185 -0.4859
  574TMC3    C7 8519   2.702   4.082   0.428  0.1487 -0.5239 -0.1939
  574TMC3    C8 8520   2.369   4.041   0.114  0.0970 -0.3243  0.6118
  574TMC3    O1 8521   2.766   4.021   0.343  0.0858 -0.0521 -0.2765
  574TMC3    O2 8522   2.451   3.957   0.072 -0.8144  0.2478 -0.2746
  575TMC3    C1 8523   0.114   0.604  10.446  0.6772 -0.0526  0.0945
  575TMC3    C2 8524   0.098   0.488  10.520 -0.1178 -0.8086 -0.3447
  575TMC3    C3 8525   0.008   0.396  10.472 -0.4439  0.0574  0.4301
  575TMC3    C4 8526   0.038   0.632  10.338  0.5353 -0.0842 -0.1283
  575TMC3    C5 8527   4.669   0.540  10.300  0.7421  0.0378 -1.0271
  575TMC3    C6 8528   4.655   0.421  10.364  0.1739  0.5434 -0.3732
  575TMC3     C 8529   0.189   0.720  10.513  0.1067 -0.8002  0.0650
  575TMC3     O 8530   0.202   0.717  10.637 -0.2640  0.1632  0.4162
  575TMC3     H 8531   0.174   0.461  10.593 -0.4756  2.2777  1.1701
  575TMC3    H1 8532   0.038   0.727  10.286  0.4215 -0.4496 -0.7939
  575TMC3    H2 8533   4.588   0.343  10.330  2.1549 -2.3859  2.4079
  575TMC3    C7 8534   4.626   0.552  10.160 -0.9204  0.0084 -0.5401
  575TMC3    C8 8535   4.721   0.267  10.537  0.2289  0.1192 -0.4621
  575TMC3    O1 8536   4.663   0.650  10.097  0.6132  0.1257 -0.6211
  575TMC3    O2 8537   4.654   0.183  10.484 -0.3966 -0.7591  0.2987
  576MPD2     C 8538   4.227   1.830  12.492 -0.9518 -0.2967 -0.3238
  576MPD2    C1 8539   4.255   1.922  12.396 -0.1525  0.0270  0.1574
  576MPD2    C2 8540   4.230   2.052  12.432  0.1290 -0.4948 -0.5596
  576MPD2    C3 8541   4.183   2.092  12.549  0.1721  0.3696 -0.0273
  576MPD2    C4 8542   4.148   1.995  12.644  0.1467  0.0877 -0.1573
  576MPD2    C5 8543   4.174   1.865  12.609  0.0732 -0.4880  0.1723
  576MPD2     H 8544   4.255   2.124  12.354 -0.7877 -0.3989 -0.7600
  576MPD2    H1 8545   4.107   2.017  12.741 -0.7596 -0.7726 -0.3516
  576MPD2    H2 8546   4.256   1.726  12.483  2.2583  0.4177  1.9371
  576MPD2    H3 8547   4.140   1.777  12.662  0.1618 -1.6300 -1.6703
  576MPD2     N 8548   4.159   2.233  12.562  0.3863 -0.6794 -0.5281
  576MPD2    H5 8549   4.174   2.289  12.479  4.1741 -1.4769 -0.3872
  576MPD2    N1 8550   4.314   1.887  12.270  0.2221 -0.2770 -0.2538
  576MPD2    H7 8551   4.330   1.962  12.204 -2.4306 -1.0583 -1.8015
  577TMC3    C1 8552   4.388   1.752  12.091 -0.2646  1.3855 -0.9064
  577TMC3    C2 8553   4.476   1.641  12.079  0.4543 -0.6723  1.1681
  577TMC3    C3 8554   4.569   1.655  11.980 -0.3183  0.2160  0.6130
  577TMC3    C4 8555   4.374   1.852  12.007 -0.3723  0.0530  0.5875
  577TMC3    C5 8556   4.462   1.848  11.898  0.1863  0.8832 -0.6642
  577TMC3    C6 8557   4.563   1.756  11.883  1.0665  0.1323 -0.2892
  577TMC3     C 8558   4.341   1.756  12.231 -0.3790 -0.0502  1.1121
  577TMC3     O 8559   4.362   1.657  12.292 -0.8171  0.4068 -0.3097
  577TMC3     H 8560   4.476   1.552  12.141 -0.9508 -2.6221 -1.5842
  577TMC3    H1 8561   4.306   1.933  12.029  0.9288  0.9107  1.4436
  577TMC3    H2 8562   4.636   1.764  11.804  0.7871 -0.0255 -0.5623
  577TMC3    C7 8563   4.433   1.938  11.794  0.1814  0.0593  0.2131
  577TMC3    C8 8564   4.641   1.538  11.947  0.0999  0.1032  0.0804
  577TMC3    O1 8565   4.382   2.048  11.820  0.4790  0.4324  0.6625
  577TMC3    O2 8566   4.589   1.432  11.977 -0.7133  0.0121 -0.0456
  578MPD2     C 8567   2.492   1.246   1.077 -0.2210 -0.4811  0.5405
  578MPD2    C1 8568   2.622   1.222   1.026 -0.2465 -0.3348  0.9621
  578MPD2    C2 8569   2.719   1.172   1.107 -0.2709  0.6635 -0.2389
  578MPD2    C3 8570   2.707   1.164   1.247 -0.1162  0.4731  0.8146
  578MPD2    C4 8571   2.589   1.227   1.292 -0.1004 -0.2309  0.1399
  578MPD2    C5 8572   2.484   1.265   1.211 -0.0121 -0.2775  0.9232
  578MPD2     H 8573   2.821   1.165   1.070  0.3509 -2.9583  2.1607
  578MPD2    H1 8574   2.570   1.231   1.399  0.9188 -2.3598  0.4006
  578MPD2    H2 8575   2.400   1.253   1.020  1.6330 -5.9186 -3.1057
  578MPD2    H3 8576   2.392   1.305   1.254  0.8674 -0.5146  3.0480
  578MPD2     N 8577   2.811   1.113   1.328 -0.0656 -0.3587  0.1804
  578MPD2    H5 8578   2.881   1.057   1.280 -2.3948 -3.1497  0.0542
  578MPD2    N1 8579   2.637   1.223   0.881  1.1280 -0.4429 -0.4037
  578MPD2    H7 8580   2.546   1.240   0.839  0.3335 -0.9311  1.1086
  579TMC3    C1 8581   2.931   1.066   1.523  0.4832 -0.4010 -0.0718
  579TMC3    C2 8582   2.978   1.140   1.632  0.1809  0.5519 -0.1293
  579TMC3    C3 8583   3.111   1.119   1.655 -0.1699 -0.0196 -0.3835
  579TMC3    C4 8584   3.002   0.965   1.464  0.1894 -0.3495 -0.6657
  579TMC3    C5 8585   3.130   0.945   1.507 -0.3335 -0.0252 -0.2138
  579TMC3    C6 8586   3.186   1.016   1.602 -0.6185  0.5585  0.0351
  579TMC3     C 8587   2.818   1.125   1.466  0.0183 -0.0557  0.4591
  579TMC3     O 8588   2.739   1.182   1.542  1.3574  0.1466  0.5822
  579TMC3     H 8589   2.917   1.221   1.669 -2.3016 -1.3729  0.0340
  579TMC3    H1 8590   2.966   0.899   1.386 -1.6618 -0.0314 -0.0889
  579TMC3    H2 8591   3.291   1.010   1.625 -0.3432  1.6990 -0.8815
  579TMC3    C7 8592   3.217   0.841   1.441  0.6321 -0.0289  0.0497
  579TMC3    C8 8593   3.185   1.244   1.685 -0.4944  0.3969 -0.1020
  579TMC3    O1 8594   3.313   0.810   1.512 -0.0343  0.2500  0.1450
  579TMC3    O2 8595   3.117   1.338   1.722  0.3356 -0.0191  0.0685
  580TMC3    C1 8596   1.989   1.089  11.684  0.3018  0.2054 -0.3705
  580TMC3    C2 8597   1.938   1.033  11.566 -0.2195  0.0132  0.2690
  580TMC3    C3 8598   1.952   0.900  11.544  0.2306  0.1038 -0.1645
  580TMC3    C4 8599   2.031   1.002  11.782  0.0954 -0.3363  0.2556
  580TMC3    C5 8600   2.030   0.864  11.758  0.1638  0.2278  0.5022
  580TMC3    C6 8601   2.001   0.815  11.634 -0.2400  0.3358  0.2922
  580TMC3     C 8602   2.074   1.204  11.662  0.0952 -0.3040 -0.6871
  580TMC3     O 8603   2.126   1.210  11.554 -0.1070 -0.1941  0.3285
  580TMC3     H 8604   1.925   1.097  11.480 -0.6535 -0.1388  0.2241
  580TMC3    H1 8605   2.090   1.043  11.863 -1.3587  2.4817 -0.1096
  580TMC3    H2 8606   2.022   0.711  11.611  0.1911  0.6527 -0.7353
  580TMC3    C7 8607   2.106   0.786  11.854  0.7326 -0.3655  0.5898
  580TMC3    C8 8608   2.016   0.870  11.421 -0.2821 -0.3711 -0.3560
  580TMC3    O1 8609   2.105   0.814  11.976 -0.4605 -0.2907 -0.6479
  580TMC3    O2 8610   1.987   0.762  11.372  0.1041  0.7462  0.1428
  581MPD2     C 8611   0.213   0.470  14.707 -0.3422  0.4772  0.1619
  581MPD2    C1 8612   0.227   0.589  14.770 -0.6841 -0.4640  0.2397
  581MPD2    C2 8613   0.116   0.663  14.802 -0.0879  0.3238 -0.2465
  581MPD2    C3 8614   4.713   0.622  14.770 -0.2739 -0.0483 -0.8387
  581MPD2    C4 8615   4.700   0.494  14.712  0.2632  0.3702 -0.2427
  581MPD2    C5 8616   0.087   0.418  14.683 -0.7123 -0.1731 -0.0048
  581MPD2     H 8617   0.118   0.759  14.852  0.7115  0.0348  0.2700
  581MPD2    H1 8618   4.608   0.445  14.681 -0.0655 -0.0983  1.4449
  581MPD2    H2 8619   0.304   0.413  14.693 -1.0190 -0.5694  0.0260
  581MPD2    H3 8620   0.071   0.330  14.622  0.7803 -0.2721 -0.2547
  581MPD2     N 8621   4.602   0.712  14.784  0.2625 -0.7099  0.6045
  581MPD2    H5 8622   4.614   0.811  14.803 -0.4619 -0.5724  0.3599
  581MPD2    N1 8623   0.356   0.628  14.810  0.4845  0.1548 -0.6586
  581MPD2    H7 8624   0.438   0.589  14.765  0.5056 -2.0485  1.2632
  582TMC3    C1 8625   0.532   0.741  14.913  0.3127  0.4927 -0.2950
  582TMC3    C2 8626   0.565   0.793  15.034 -0.4808 -0.0901 -0.5346
  582TMC3    C3 8627   0.657   0.740  15.120 -0.4089 -0.8376 -0.2296
  582TMC3    C4 8628   0.615   0.642  14.867  0.2871  0.1121  0.3711
  582TMC3    C5 8629   0.696   0.581  14.959 -0.4845 -0.2586  0.2771
  582TMC3    C6 8630   0.723   0.629  15.078 -0.3395 -0.0843 -0.4325
  582TMC3     C 8631   0.388   0.721  14.902  0.4472 -0.6619 -0.2441
  582TMC3     O 8632   0.322   0.795  14.974 -0.0613  0.1398  0.1543
  582TMC3     H 8633   0.505   0.875  15.073 -0.0851 -0.6144  1.1420
  582TMC3    H1 8634   0.595   0.571  14.788 -0.1384  1.7360 -0.9836
  582TMC3    H2 8635   0.781   0.566  15.145 -0.4007  1.1519  0.7742
  582TMC3    C7 8636   0.652   0.440  14.951 -0.2659 -0.0626  0.0901
  582TMC3    C8 8637   0.650   0.781  15.263 -0.7247 -0.6414  0.0827
  582TMC3    O1 8638   0.678   0.375  14.848 -0.2159 -1.0562  0.1334
  582TMC3    O2 8639   0.543   0.826  15.302  0.1491 -0.3719  0.3864
  583MPD2     C 8640   0.351   1.972  16.687 -0.0586  0.1425 -0.5824
  583MPD2    C1 8641   0.311   2.073  16.597  0.5930 -0.0683 -0.2514
  583MPD2    C2 8642   0.196   2.141  16.629  0.3054  0.0104 -0.4119
  583MPD2    C3 8643   0.113   2.112  16.739  0.5744 -0.0160  0.0359
  583MPD2    C4 8644   0.153   2.008  16.816 -0.4973 -0.4096 -0.3057
  583MPD2    C5 8645   0.263   1.941  16.785  0.3546 -0.5226 -0.4798
  583MPD2     H 8646   0.171   2.221  16.561 -2.8172  0.7332  1.5828
  583MPD2    H1 8647   0.096   1.974  16.902  1.4003  0.7770  1.4244
  583MPD2    H2 8648   0.441   1.913  16.678 -0.3787 -0.6497  1.5688
  583MPD2    H3 8649   0.289   1.855  16.846  0.7018  0.6232  0.9858
  583MPD2     N 8650   0.009   2.202  16.774  0.6919 -0.2250  0.1732
  583MPD2    H5 8651   4.715   2.270  16.701 -0.0876 -1.5574 -0.8838
  583MPD2    N1 8652   0.386   2.110  16.485  0.6420 -0.0555  0.0288
  583MPD2    H7 8653   0.353   2.189  16.432  0.2342 -0.7541 -0.7605
  584TMC3    C1 8654   4.574   2.310  16.919  0.2413 -0.3461 -0.5365
  584TMC3    C2 8655   4.577   2.418  16.835  0.1710 -0.4900 -0.0113
  584TMC3    C3 8656   4.531   2.539  16.883  0.6497  0.0959  0.1086
  584TMC3    C4 8657   4.532   2.325  17.051  0.3281  0.8827 -1.0822
  584TMC3    C5 8658   4.508   2.459  17.099  0.1237  0.6049 -0.5837
  584TMC3    C6 8659   4.499   2.561  17.016  0.3355 -0.6864  0.5363
  584TMC3     C 8660   4.654   2.196  16.891 -0.9514 -0.0453  0.1470
  584TMC3     O 8661   4.651   2.109  16.981  0.3077 -0.3957  0.5114
  584TMC3     H 8662   4.614   2.420  16.733  0.3933 -1.9980  0.0371
  584TMC3    H1 8663   4.529   2.242  17.121  0.2458  0.7341 -1.2625
  584TMC3    H2 8664   4.460   2.659  17.041  1.3024 -0.3677  0.8130
  584TMC3    C7 8665   4.507   2.482  17.245 -0.1542  0.1913  0.5157
  584TMC3    C8 8666   4.559   2.653  16.806 -0.1511 -0.4475  0.3237
  584TMC3    O1 8667   4.507   2.381  17.317 -0.4110 -0.3815 -0.1889
  584TMC3    O2 8668   4.574   2.638  16.684  0.1024  0.2588  0.0327
  585MPD2     C 8669   4.161   0.924   0.276 -0.4265  0.4587 -0.3547
  585MPD2    C1 8670   4.169   1.001   0.163  0.2911 -0.4105  0.2221
  585MPD2    C2 8671   4.193   0.935   0.037 -0.0927 -0.0936 -0.4208
  585MPD2    C3 8672   4.211   0.796   0.026  0.0623 -0.7515 -0.1104
  585MPD2    C4 8673   4.187   0.726   0.145 -0.8653 -0.0000  0.4505
  585MPD2    C5 8674   4.161   0.785   0.264  0.9004  0.2956  0.6479
  585MPD2     H 8675   4.196   0.996  17.643  0.2669  1.6030  0.7248
  585MPD2    H1 8676   4.163   0.620   0.141 -0.9235 -0.0171  1.3722
  585MPD2    H2 8677   4.138   0.964   0.374 -0.9195 -0.3990 -0.1241
  585MPD2    H3 8678   4.126   0.720   0.344 -1.0647  0.3171 -0.1901
  585MPD2     N 8679   4.209   0.722  17.599 -0.3262  0.0643 -0.7151
  585MPD2    H5 8680   4.202   0.621  17.612  2.4253 -0.0377  0.0678
  585MPD2    N1 8681   4.134   1.135   0.174 -0.2147  0.7224 -0.3760
  585MPD2    H7 8682   4.076   1.153   0.255 -0.7797 -1.0955 -0.3787
  586TMC3    C1 8683   4.228   0.690  17.366 -0.3520 -0.6236 -0.4008
  586TMC3    C2 8684   4.321   0.698  17.265  1.2650  0.5158 -0.5291
  586TMC3    C3 8685   4.316   0.607  17.166  0.1420  0.4577 -0.3052
  586TMC3    C4 8686   4.127   0.596  17.365  0.0073 -0.0729 -0.1107
  586TMC3    C5 8687   4.131   0.509  17.259 -0.6016  0.6227 -0.7138
  586TMC3    C6 8688   4.214   0.516  17.158 -1.1435 -0.4110  0.2321
  586TMC3     C 8689   4.227   0.779  17.475  0.4787 -0.1509  0.0457
  586TMC3     O 8690   4.272   0.894  17.449 -0.5311 -0.4722  0.2344
  586TMC3     H 8691   4.409   0.760  17.279  0.7793  0.6450  2.0422
  586TMC3    H1 8692   4.060   0.592  17.451 -1.1839  1.6371 -0.9598
  586TMC3    H2 8693   4.227   0.448  17.074 -1.5868  0.6776 -0.7303
  586TMC3    C7 8694   4.096   0.376  17.298  0.3559  0.0361  0.0609
  586TMC3    C8 8695   4.440   0.548  17.135  0.4102 -0.6187  0.4132
  586TMC3    O1 8696   3.991   0.367  17.361  0.2204  0.5442  0.4058
  586TMC3    O2 8697   4.462   0.452  17.201  0.0910  0.1918  0.1270
  587TMC3    C1 8698   1.562   4.364  15.928 -0.2487 -0.2900 -0.1991
  587TMC3    C2 8699   1.557   4.470  16.005  0.2241 -0.6409  0.2745
  587TMC3    C3 8700   1.658   4.520  16.074 -1.0592  0.3451  0.1995
  587TMC3    C4 8701   1.684   4.296  15.924 -0.0244  0.1440  0.2504
  587TMC3    C5 8702   1.790   4.344  15.995 -0.0652 -0.4093  0.2295
  587TMC3    C6 8703   1.775   4.450  16.072  0.1959 -0.3511 -0.2605
  587TMC3     C 8704   1.442   4.315  15.849  0.3385  0.2333 -0.5234
  587TMC3     O 8705   1.463   4.253  15.745  0.3063  0.3160 -0.2765
  587TMC3     H 8706   1.479   4.544  15.994 -0.4688 -1.4038  0.0464
  587TMC3    H1 8707   1.699   4.200  15.877 -3.7615  1.0214 -2.7362
  587TMC3    H2 8708   1.849   4.497  16.136 -2.1602  1.9116  0.7992
  587TMC3    C7 8709   1.918   4.277  15.972  0.1639  0.3833  1.1222
  587TMC3    C8 8710   1.653   4.652  16.138 -0.7096 -0.3558 -0.0902
  587TMC3    O1 8711   1.924   4.184  15.894  0.2201 -0.8372 -0.4786
  587TMC3    O2 8712   1.760   4.696  16.181  0.2230 -0.3470  0.0432
  588TMC3    C1 8713   4.380   2.774   9.495  0.2896 -0.1760 -0.5221
  588TMC3    C2 8714   4.313   2.653   9.484  0.1425 -0.0975  0.2250
  588TMC3    C3 8715   4.293   2.579   9.592 -0.4451  0.3962  0.0011
  588TMC3    C4 8716   4.435   2.818   9.617  0.3569  0.7608 -0.1033
  588TMC3    C5 8717   4.392   2.745   9.724  0.0844 -0.0948 -0.0747
  588TMC3    C6 8718   4.331   2.621   9.714 -0.0006  0.1219 -0.1918
  588TMC3     C 8719   4.353   2.873   9.390 -0.5292 -0.0923  0.0203
  588TMC3     O 8720   4.285   2.841   9.291  0.2679  0.5721 -0.0274
  588TMC3     H 8721   4.299   2.607   9.387  0.0240 -0.1124  0.2502
  588TMC3    H1 8722   4.497   2.907   9.622  1.9543 -0.3564 -0.0309
  588TMC3    H2 8723   4.306   2.563   9.803  0.9238  0.3709  0.2326
  588TMC3    C7 8724   4.369   2.818   9.848  0.8451 -0.0051 -0.1309
  588TMC3    C8 8725   4.249   2.446   9.574  0.2052 -0.0206  0.0330
  588TMC3    O1 8726   4.372   2.765   9.961 -0.2461 -0.0757 -0.5833
  588TMC3    O2 8727   4.177   2.422   9.478 -0.6143 -0.0920 -0.2536
  589TMC3    C1 8728   3.023   4.601   1.353  0.5855 -0.3994  0.0303
  589TMC3    C2 8729   3.122   4.662   1.428  0.5749  0.3010  0.3789
  589TMC3    C3 8730   3.242   4.593   1.435  0.2406  0.5360 -0.1944
  589TMC3    C4 8731   3.043   4.490   1.278 -0.1223  0.7239 -0.4866
  589TMC3    C5 8732   3.156   4.416   1.297  0.1234 -0.2918 -0.1718
  589TMC3    C6 8733   3.254   4.470   1.383  0.1158 -0.1728  0.2237
  589TMC3     C 8734   2.919   4.686   1.305 -0.4975  0.0744  0.1321
  589TMC3     O 8735   2.883   4.666   1.190  0.1742 -0.2508  0.5344
  589TMC3     H 8736   3.126   0.037   1.474  0.7469  0.2877  0.3943
  589TMC3    H1 8737   2.972   4.457   1.203 -0.5319 -0.7760  0.5579
  589TMC3    H2 8738   3.341   4.418   1.420  0.2622  0.3279  0.5853
  589TMC3    C7 8739   3.159   4.282   1.257  0.0932 -1.1024 -0.7475
  589TMC3    C8 8740   3.353   4.649   1.513 -0.6853  0.1561  0.2869
  589TMC3    O1 8741   3.049   4.244   1.234 -0.2304 -0.1349  0.3070
  589TMC3    O2 8742   3.316   0.003   1.604 -0.0758 -0.1345 -0.0556
  590MPD2     C 8743   2.852   3.109  16.577 -0.3003 -0.1403 -0.3907
  590MPD2    C1 8744   2.799   3.065  16.457  0.0523  0.1813  0.7524
  590MPD2    C2 8745   2.859   3.116  16.343  0.6683 -0.8922 -0.3996
  590MPD2    C3 8746   2.961   3.212  16.349 -0.3496  0.7574  0.1693
  590MPD2    C4 8747   3.012   3.247  16.470 -0.2031 -0.2573 -0.0986
  590MPD2    C5 8748   2.956   3.201  16.583  0.1510  0.4195 -0.4663
  590MPD2     H 8749   2.835   3.083  16.242  1.0262  0.2275 -0.8479
  590MPD2    H1 8750   3.091   3.321  16.481 -0.0262 -0.6143  1.0363
  590MPD2    H2 8751   2.822   3.071  16.674 -0.0865 -0.5206 -0.4765
  590MPD2    H3 8752   2.999   3.225  16.680  1.1214 -2.3384 -0.2321
  590MPD2     N 8753   3.013   3.280  16.236 -0.6203  0.6891 -0.4634
  590MPD2    H5 8754   2.984   3.254  16.142 -1.4618  1.1189 -0.3243
  590MPD2    N1 8755   2.681   2.990  16.455  0.0937 -0.1569 -0.0412
  590MPD2    H7 8756   2.638   2.971  16.545 -2.4038 -0.0097 -1.2215
  591TMC3    C1 8757   3.089   3.460  16.104  0.1458  0.3924  0.8661
  591TMC3    C2 8758   3.147   3.393  15.997 -0.4492 -0.2204 -0.5795
  591TMC3    C3 8759   3.193   3.462  15.897  0.6931  0.5620  0.5090
  591TMC3    C4 8760   3.072   3.590  16.099 -0.3996  0.8727 -0.1672
  591TMC3    C5 8761   3.133   3.662  16.008  0.3036 -0.2465  0.0023
  591TMC3    C6 8762   3.180   3.600  15.893 -0.2525 -0.1383 -0.6739
  591TMC3     C 8763   3.076   3.403  16.238  0.4070 -0.2621 -0.5379
  591TMC3     O 8764   3.094   3.477  16.336 -0.0083 -0.2810 -0.2265
  591TMC3     H 8765   3.173   3.288  15.992 -0.0431 -0.0666 -1.6467
  591TMC3    H1 8766   3.039   3.637  16.191  2.7339 -0.4890  1.6459
  591TMC3    H2 8767   3.216   3.663  15.812  1.8961  0.3988  0.7267
  591TMC3    C7 8768   3.125   3.805  16.027 -0.0350  0.5754  0.2224
  591TMC3    C8 8769   3.253   3.385  15.788 -0.7248 -0.0316 -0.3921
  591TMC3    O1 8770   3.069   3.845  16.134 -0.1356 -0.6336 -0.1504
  591TMC3    O2 8771   3.212   3.274  15.772 -0.3807 -0.5156 -0.1286
  592MPD2     C 8772   3.285   0.564  10.954 -0.1843  0.0866  0.8924
  592MPD2    C1 8773   3.220   0.662  11.035 -0.3416 -0.0184 -0.0335
  592MPD2    C2 8774   3.122   0.610  11.119 -0.5312 -0.2344 -0.0189
  592MPD2    C3 8775   3.086   0.477  11.124 -0.4483 -0.5172  0.5328
  592MPD2    C4 8776   3.151   0.385  11.039  0.3102 -0.2674 -0.2497
  592MPD2    C5 8777   3.247   0.432  10.955 -0.0347  0.4573  0.8689
  592MPD2     H 8778   3.062   0.678  11.178  0.4608  1.2366 -0.7245
  592MPD2    H1 8779   3.121   0.282  11.026 -1.6230  0.0358  1.8653
  592MPD2    H2 8780   3.365   0.601  10.891  0.9552 -0.3929  2.0637
  592MPD2    H3 8781   3.301   0.358  10.897 -2.2064 -0.2483 -0.2164
  592MPD2     N 8782   2.985   0.429  11.215 -0.0201  0.4599  0.0558
  592MPD2    H5 8783   2.934   0.501  11.267 -0.7302  0.4261 -0.5840
  592MPD2    N1 8784   3.267   0.794  11.032  0.5128  0.0369  0.3457
  592MPD2    H7 8785   3.346   0.815  10.971 -0.4017  0.9380 -0.5445
  593TMC3    C1 8786   3.286   1.025  11.087  0.3894  0.2726  0.3941
  593TMC3    C2 8787   3.263   1.101  11.200 -0.7557 -0.2970  0.3362
  593TMC3    C3 8788   3.360   1.186  11.232 -0.2671 -0.1884  0.2743
  593TMC3    C4 8789   3.393   1.047  10.997 -0.3158 -0.4060  0.0471
  593TMC3    C5 8790   3.480   1.145  11.035  1.0383  0.3849 -0.2685
  593TMC3    C6 8791   3.467   1.212  11.152  0.8487 -0.3264 -0.4999
  593TMC3     C 8792   3.203   0.907  11.083 -0.7878 -0.3637 -0.0530
  593TMC3     O 8793   3.109   0.903  11.165  0.4477  0.4537  0.3190
  593TMC3     H 8794   3.186   1.074  11.272 -2.4058 -0.4293 -1.4730
  593TMC3    H1 8795   3.416   0.979  10.916  3.6163  1.3071 -0.2901
  593TMC3    H2 8796   3.522   1.305  11.164 -0.9248  0.7632 -0.7818
  593TMC3    C7 8797   3.595   1.176  10.952  0.4991 -0.3463 -0.2031
  593TMC3    C8 8798   3.348   1.263  11.358 -0.9673  0.2813 -0.0336
  593TMC3    O1 8799   3.672   1.253  11.003  0.3188  0.0651  0.1269
  593TMC3    O2 8800   3.242   1.246  11.418  0.5685  0.5946 -0.5250
  594MPD2     C 8801   1.473   3.898  13.838  0.5489 -0.8888 -0.3887
  594MPD2    C1 8802   1.475   3.883  13.973  0.4460  0.5131 -0.8304
  594MPD2    C2 8803   1.561   3.960  14.049 -0.0514 -0.2037  0.2192
  594MPD2    C3 8804   1.649   4.044  13.982 -0.0824  0.6432 -0.4737
  594MPD2    C4 8805   1.649   4.052  13.840  0.2779 -0.5322  0.9907
  594MPD2    C5 8806   1.551   3.992  13.767 -0.4079 -0.2590  0.6675
  594MPD2     H 8807   1.574   3.950  14.156 -1.1313 -1.3979  0.2469
  594MPD2    H1 8808   1.721   4.110  13.784 -2.1731  1.3959 -0.1340
  594MPD2    H2 8809   1.394   3.849  13.783 -2.3499  1.7487  1.4138
  594MPD2    H3 8810   1.545   3.998  13.659  0.1312 -1.2612  0.5828
  594MPD2     N 8811   1.739   4.116  14.069  0.4510  0.0369 -0.1538
  594MPD2    H5 8812   1.754   4.084  14.165  0.6693 -0.1940 -0.2635
  594MPD2    N1 8813   1.383   3.787  14.027 -0.0140 -0.2705  0.4554
  594MPD2    H7 8814   1.345   3.719  13.961 -0.5864 -1.6434  2.1941
  595TMC3    C1 8815   2.102   4.331  14.224 -0.8744 -0.3764 -0.6836
  595TMC3    C2 8816   2.014   4.318  14.118  0.2175  0.4015 -0.1997
  595TMC3    C3 8817   1.886   4.278  14.147  0.7160  0.1585 -0.9074
  595TMC3    C4 8818   2.069   4.300  14.351  0.0011 -0.1380  0.1066
  595TMC3    C5 8819   1.939   4.260  14.381  0.2373 -0.5756  0.1091
  595TMC3    C6 8820   1.851   4.254  14.277 -0.0873  0.5022 -0.7006
  595TMC3     C 8821   2.210   4.415  14.205  0.3216 -0.7050 -0.1109
  595TMC3     O 8822   2.283   4.429  14.301 -0.0749 -0.0833  0.1631
  595TMC3     H 8823   2.050   4.326  14.016  0.0493  0.1999 -0.2744
  595TMC3    H1 8824   2.135   4.320  14.434  1.3292 -0.4560 -0.8657
  595TMC3    H2 8825   1.744   4.238  14.285  0.2268 -0.5787  1.6127
  595TMC3    C7 8826   1.888   4.310  14.503 -0.6643  0.6360  0.0158
  595TMC3    C8 8827   1.809   4.228  14.033  0.2092 -0.3568 -0.1077
  595TMC3    O1 8828   1.778   4.366  14.496 -0.0451 -0.5359  0.2945
  595TMC3    O2 8829   1.805   4.289  13.929  0.3110 -0.7196 -0.0902
  596MPD2     C 8830   1.128   1.938  16.600 -1.0587  0.2117 -0.0571
  596MPD2    C1 8831   1.084   2.056  16.543  0.2389 -0.5037 -0.3618
  596MPD2    C2 8832   1.065   2.069  16.403 -0.2574  0.2728 -0.0814
  596MPD2    C3 8833   1.074   1.955  16.323  1.0823 -0.0216 -0.0611
  596MPD2    C4 8834   1.134   1.840  16.380 -0.1529 -0.2157  0.4864
  596MPD2    C5 8835   1.160   1.841  16.514 -0.4592 -0.2274 -0.1373
  596MPD2     H 8836   1.056   2.169  16.361  0.5547  0.4068  0.0730
  596MPD2    H1 8837   1.149   1.747  16.327 -1.5074 -0.6041  0.7744
  596MPD2    H2 8838   1.154   1.927  16.704 -2.3202  2.3718  0.4797
  596MPD2    H3 8839   1.210   1.757  16.560  2.1244  0.5273 -1.5650
  596MPD2     N 8840   1.059   1.957  16.184  0.1588 -0.2360  0.2159
  596MPD2    H5 8841   1.095   1.873  16.142  0.8339  0.3197 -0.3206
  596MPD2    N1 8842   1.070   2.175  16.613  0.5133  0.4534  0.0029
  596MPD2    H7 8843   1.038   2.252  16.556  1.9100  0.3309 -0.9299
  597TMC3    C1 8844   1.073   2.326  16.794 -0.6038 -0.0770  0.3555
  597TMC3    C2 8845   1.112   2.428  16.715  0.7112 -0.2860  0.1083
  597TMC3    C3 8846   1.088   2.554  16.759 -0.2529  0.3176 -0.4193
  597TMC3    C4 8847   1.003   2.341  16.909 -0.0019 -0.1414 -0.4451
  597TMC3    C5 8848   0.974   2.473  16.946 -0.4767  0.9187  0.2402
  597TMC3    C6 8849   1.019   2.583  16.872  0.0265  0.6307 -0.7193
  597TMC3     C 8850   1.081   2.188  16.749  0.0639 -0.1671 -0.5114
  597TMC3     O 8851   1.076   2.106  16.838 -0.3607  0.3797  0.3621
  597TMC3     H 8852   1.173   2.410  16.627  0.0738 -0.2331 -0.3403
  597TMC3    H1 8853   0.973   2.261  16.976 -0.5547  0.6311  0.2358
  597TMC3    H2 8854   0.989   2.681  16.907  1.7581  0.8686  0.0991
  597TMC3    C7 8855   0.850   2.488  17.012  0.1715  0.1119 -0.2929
  597TMC3    C8 8856   1.157   2.665  16.690  0.1804  0.1436 -1.0464
  597TMC3    O1 8857   0.822   2.407  17.101  0.3141 -0.0398  0.2203
  597TMC3    O2 8858   1.180   2.648  16.569 -0.0701  0.1473  0.3984
  598TMC3    C1 8859   3.890   3.813  15.038  0.3105  0.4696 -0.5257
  598TMC3    C2 8860   3.792   3.730  15.088  0.5066 -0.1648 -0.3613
  598TMC3    C3 8861   3.688   3.692  15.004 -0.1319  0.6193  0.3513
  598TMC3    C4 8862   3.866   3.877  14.917 -0.1072 -0.3158  0.3198
  598TMC3    C5 8863   3.747   3.860  14.850  0.1866 -0.1222  0.3704
  598TMC3    C6 8864   3.656   3.769  14.895  0.3102 -0.0213  1.0312
  598TMC3     C 8865   3.994   3.861  15.125  0.2743 -0.1330 -0.0337
  598TMC3     O 8866   3.986   3.843  15.242  0.3255  0.5006 -0.0701
  598TMC3     H 8867   3.806   3.675  15.181 -0.5913 -0.5774 -0.4384
  598TMC3    H1 8868   3.941   3.946  14.880 -1.7423  0.7532 -1.0124
  598TMC3    H2 8869   3.558   3.762  14.848  1.0979 -1.3696 -0.4028
  598TMC3    C7 8870   3.726   3.919  14.715  0.2282 -0.4034  0.2957
  598TMC3    C8 8871   3.596   3.594  15.045 -0.8814  0.0477  0.4291
  598TMC3    O1 8872   3.649   3.862  14.638 -0.2126 -0.2333 -0.1872
  598TMC3    O2 8873   3.600   3.551  15.161  0.1831  0.1044 -0.4826
  599MPD2     C 8874   4.363   1.139  15.689 -0.2266 -0.2698 -0.0872
  599MPD2    C1 8875   4.304   1.022  15.665 -0.9140  0.6625  0.0569
  599MPD2    C2 8876   4.168   1.027  15.633 -0.5214  0.5304 -0.6299
  599MPD2    C3 8877   4.101   1.148  15.634 -1.0479 -0.5304 -0.0582
  599MPD2    C4 8878   4.165   1.265  15.651 -0.5197 -0.9042 -0.0392
  599MPD2    C5 8879   4.300   1.262  15.682 -0.3484  0.1374 -0.2371
  599MPD2     H 8880   4.115   0.934  15.612 -0.4236  0.5767 -1.0935
  599MPD2    H1 8881   4.115   1.361  15.659 -0.4113 -0.8742  0.2649
  599MPD2    H2 8882   4.470   1.135  15.703 -0.4714 -1.1596  1.5670
  599MPD2    H3 8883   4.362   1.348  15.704  0.4764 -0.5042 -0.0458
  599MPD2     N 8884   3.965   1.166  15.610 -0.4342 -0.3521 -0.0986
  599MPD2    H5 8885   3.936   1.263  15.596 -0.2599 -0.4167 -0.9149
  599MPD2    N1 8886   4.380   0.901  15.661 -0.1761  0.1180  0.2795
  599MPD2    H7 8887   4.474   0.905  15.699  0.2259 -0.7936 -0.6118
  600TMC3    C1 8888   3.733   1.108  15.562  0.2213 -0.3550 -0.1238
  600TMC3    C2 8889   3.650   1.005  15.543  0.7896 -0.3684 -0.1202
  600TMC3    C3 8890   3.516   1.024  15.557 -0.0207 -0.6278  0.1019
  600TMC3    C4 8891   3.688   1.229  15.613  0.3815  0.0041 -0.1852
  600TMC3    C5 8892   3.550   1.243  15.634 -0.0726 -0.0801  0.1291
  600TMC3    C6 8893   3.462   1.147  15.594 -0.6008  0.0999  0.0218
  600TMC3     C 8894   3.869   1.068  15.601  0.3371 -0.7270 -0.6418
  600TMC3     O 8895   3.884   0.948  15.614 -0.1391 -0.0420 -0.0815
  600TMC3     H 8896   3.696   0.912  15.510 -1.7046 -2.0878  1.3172
  600TMC3    H1 8897   3.764   1.301  15.640 -0.2317  0.7982 -0.5606
  600TMC3    H2 8898   3.356   1.146  15.616 -0.7579  1.1322 -0.6477
  600TMC3    C7 8899   3.502   1.324  15.744 -0.1513 -0.2144 -0.5028
  600TMC3    C8 8900   3.447   0.907  15.611 -0.4395  0.2071 -0.3600
  600TMC3    O1 8901   3.384   1.345  15.755 -0.3656  0.0670 -0.2450
  600TMC3    O2 8902   3.517   0.809  15.622 -0.5565 -0.0925  0.0424
  601MPD2     C 8903   1.803   3.885  17.626 -0.2644  0.0598  0.0197
  601MPD2    C1 8904   1.688   3.830  17.570  0.2736 -0.1045 -0.4794
  601MPD2    C2 8905   1.654   3.701  17.587  0.5061 -0.0197  0.1108
  601MPD2    C3 8906   1.730   3.616  17.669  0.0512 -0.0062  0.2697
  601MPD2    C4 8907   1.849   3.666   0.023 -0.0400  0.0108  0.0398
  601MPD2    C5 8908   1.879   3.797   0.001 -0.2216  0.3322 -0.9250
  601MPD2     H 8909   1.567   3.660  17.538  0.7780  0.6068 -0.8842
  601MPD2    H1 8910   1.913   3.610   0.091 -1.2434 -1.4444 -0.0190
  601MPD2    H2 8911   1.833   3.989  17.628  1.7335 -0.4971 -1.8504
  601MPD2    H3 8912   1.967   3.837   0.050  0.2602 -0.8393 -0.8319
  601MPD2     N 8913   1.700   3.478  17.694 -0.0830 -0.9213  0.0954
  601MPD2    H5 8914   1.773   3.408   0.007 -1.1419 -1.7587  2.2212
  601MPD2    N1 8915   1.593   3.910  17.497  0.0247 -0.6129  0.0028
  601MPD2    H7 8916   1.507   3.871  17.459  1.3694 -2.6002 -1.0335
  602TMC3    C1 8917   1.518   4.071  17.366  0.3018  0.1886  0.4237
  602TMC3    C2 8918   1.543   4.162  17.268 -1.2840 -0.6098  0.1045
  602TMC3    C3 8919   1.434   4.209  17.195  0.9349  0.4878  0.6068
  602TMC3    C4 8920   1.392   4.029  17.396  0.2753  0.3502  0.4534
  602TMC3    C5 8921   1.285   4.089  17.338  0.2716 -0.5493 -0.5016
  602TMC3    C6 8922   1.306   4.183  17.238 -0.1859  0.7810  1.2165
  602TMC3     C 8923   1.619   4.036  17.456 -0.5785 -1.0731  0.4531
  602TMC3     O 8924   1.716   4.111  17.466  0.3646  0.6395  0.4025
  602TMC3     H 8925   1.640   4.198  17.237 -2.1901  0.8911 -1.0072
  602TMC3    H1 8926   1.364   3.962  17.476  1.6062 -2.9288 -1.8135
  602TMC3    H2 8927   1.220   4.215  17.181  0.3079 -1.9213 -1.0188
  602TMC3    C7 8928   1.152   4.053  17.378 -0.5568 -0.4808 -0.5424
  602TMC3    C8 8929   1.454   4.301  17.087 -0.9250 -0.1806  0.6092
  602TMC3    O1 8930   1.127   3.938  17.405 -0.0323 -0.3729  0.4749
  602TMC3    O2 8931   1.526   4.255  17.005  0.5215 -0.7931  0.2406
  603TMC3    C1 8932   4.486   0.148  11.052 -0.7413 -0.2407 -0.3078
  603TMC3    C2 8933   4.548   0.144  11.172 -0.5606  0.6206 -0.3099
  603TMC3    C3 8934   4.605   0.254  11.216 -0.2620 -0.0272  0.2484
  603TMC3    C4 8935   4.486   0.265  10.977 -0.0886 -0.2265 -0.3313
  603TMC3    C5 8936   4.542   0.376  11.025 -0.3464  0.0690  0.1941
  603TMC3    C6 8937   4.607   0.374  11.145  1.0936 -0.0261  0.0575
  603TMC3     C 8938   4.470   0.021  10.983 -0.2000 -0.5501  0.0433
  603TMC3     O 8939   4.523   4.645  11.033 -0.1702 -0.3347  0.4950
  603TMC3     H 8940   4.578   0.047  11.211 -0.8624  0.4459 -0.5059
  603TMC3    H1 8941   4.443   0.258  10.877  0.1043  0.4855 -0.4656
  603TMC3    H2 8942   4.612   0.465  11.203 -0.1962  1.0947 -1.5617
  603TMC3    C7 8943   4.554   0.502  10.946 -0.7248  0.5587 -0.3932
  603TMC3    C8 8944   4.589   0.247  11.360 -0.1105  0.5490 -0.2957
  603TMC3    O1 8945   4.615   0.595  11.001 -0.3315 -0.0204 -0.0396
  603TMC3    O2 8946   4.529   0.149  11.403  0.6517 -0.4094  0.3309
  604MPD2     C 8947   0.254   3.421  16.318  0.1534 -0.1485  0.0608
  604MPD2    C1 8948   0.151   3.331  16.295  0.6410  0.2814 -0.1861
  604MPD2    C2 8949   0.125   3.281  16.172  0.3456  0.1850 -0.5466
  604MPD2    C3 8950   0.219   3.297  16.069 -0.3313 -0.1954 -0.1411
  604MPD2    C4 8951   0.324   3.383  16.096 -0.0135  0.6142  0.3283
  604MPD2    C5 8952   0.332   3.452  16.210  0.3706 -0.4762 -0.6426
  604MPD2     H 8953   0.044   3.209  16.162  0.2529  0.0778  0.9273
  604MPD2    H1 8954   0.397   3.400  16.017 -0.3765 -0.1720 -0.1840
  604MPD2    H2 8955   0.280   3.465  16.414 -1.5064 -0.6760  0.7472
  604MPD2    H3 8956   0.407   3.530  16.209  0.1324 -0.1989  2.9895
  604MPD2     N 8957   0.197   3.235  15.946 -0.0107 -0.0155 -0.6851
  604MPD2    H5 8958   0.111   3.185  15.925 -0.8129  1.7770 -1.6390
  604MPD2    N1 8959   0.070   3.285  16.407 -0.2697  0.3430 -0.4283
  604MPD2    H7 8960   4.722   3.220  16.376 -0.1074  1.6286 -3.4764
  605TMC3    C1 8961   4.689   3.296  16.630 -0.2398  0.2688  0.1066
  605TMC3    C2 8962   4.707   3.346  16.758 -0.0478 -0.2281 -0.0100
  605TMC3    C3 8963   4.600   3.414  16.812  0.8053  0.9098 -0.0396
  605TMC3    C4 8964   4.566   3.305  16.570 -0.1220  0.1305 -0.2680
  605TMC3    C5 8965   4.466   3.373  16.633  0.0115 -0.7798 -0.0206
  605TMC3    C6 8966   4.479   3.413  16.758  0.0727 -0.2792 -0.4696
  605TMC3     C 8967   0.081   3.323  16.541 -0.3524  0.4596  0.3176
  605TMC3     O 8968   0.167   3.389  16.593 -0.1072  0.2349  0.3212
  605TMC3     H 8969   0.085   3.354  16.796 -0.5734  1.3684  1.0555
  605TMC3    H1 8970   4.557   3.263  16.470 -0.3877 -1.2071  0.3111
  605TMC3    H2 8971   4.398   3.459  16.814  0.2999  0.8639 -1.0734
  605TMC3    C7 8972   4.337   3.360  16.571 -0.1557  0.2463 -0.1647
  605TMC3    C8 8973   4.635   3.544  16.880 -0.2868 -0.4032  0.2428
  605TMC3    O1 8974   4.338   3.345  16.448  0.2918  0.3580  0.5733
  605TMC3    O2 8975   4.550   3.594  16.952 -0.3717 -0.1985  0.0405
  606TMC3    C1 8976   0.951   0.952  17.245  0.3200  0.0200 -0.1801
  606TMC3    C2 8977   1.070   0.913  17.302 -0.5976 -0.4378 -0.1453
  606TMC3    C3 8978   1.073   0.936  17.442  0.1060 -0.6507 -0.0971
  606TMC3    C4 8979   0.846   1.015  17.315  0.0529  0.2477 -0.4250
  606TMC3    C5 8980   0.861   1.036  17.449  0.5593 -0.0469 -0.4783
  606TMC3    C6 8981   0.971   0.993  17.518  0.4258 -1.2194 -0.1628
  606TMC3     C 8982   0.960   0.984  17.101  0.0758  0.0730  0.2540
  606TMC3     O 8983   1.034   0.919  17.028  0.4468  0.0783  0.1660
  606TMC3     H 8984   1.156   0.884  17.243 -1.1795 -3.0101  0.2535
  606TMC3    H1 8985   0.749   1.032  17.269 -1.2375 -2.8217  1.1367
  606TMC3    H2 8986   0.986   1.024  17.621 -0.4589  0.0276 -0.4038
  606TMC3    C7 8987   0.747   1.046  17.528  0.0863  0.1892 -0.2213
  606TMC3    C8 8988   1.200   0.903  17.500  0.1395  0.5771 -0.0667
  606TMC3    O1 8989   0.755   1.010  17.644  0.2087  0.2385  0.3262
  606TMC3    O2 8990   1.302   0.925  17.440 -0.0941  0.2802 -0.1775
  607MPD2     C 8991   3.267   0.489  11.417 -0.0097  0.2628 -0.3205
  607MPD2    C1 8992   3.288   0.614  11.483  0.2337  0.2467 -1.0249
  607MPD2    C2 8993   3.234   0.628  11.612  0.1857  1.0116 -1.1188
  607MPD2    C3 8994   3.182   0.522  11.683  0.0514  0.4015 -0.5226
  607MPD2    C4 8995   3.180   0.399  11.629 -0.5804  0.3582  0.2964
  607MPD2    C5 8996   3.213   0.386  11.492 -0.0744  0.2775 -0.0883
  607MPD2     H 8997   3.243   0.722  11.665 -1.3687  0.9367 -0.6969
  607MPD2    H1 8998   3.160   0.309  11.686  0.5928 -0.3440 -0.3799
  607MPD2    H2 8999   3.312   0.464  11.322  1.2540 -1.5941  0.7688
  607MPD2    H3 9000   3.202   0.288  11.447 -2.4836  1.0598 -1.2286
  607MPD2     N 9001   3.158   0.541  11.824 -0.7773  0.6420  0.5470
  607MPD2    H5 9002   3.184   0.632  11.861 -0.6582  1.2602 -1.0928
  607MPD2    N1 9003   3.362   0.719  11.433  0.5952  0.5747 -0.3006
  607MPD2    H7 9004   3.376   0.799  11.494  1.4676  0.9459 -0.9871
  608TMC3    C1 9005   3.555   0.815  11.329  0.0373 -0.3410  0.1738
  608TMC3    C2 9006   3.590   0.882  11.444 -0.9438  0.1500  0.2218
  608TMC3    C3 9007   3.702   0.959  11.446  0.3047 -0.1916  0.2004
  608TMC3    C4 9008   3.632   0.825  11.214  0.8232  0.4210 -0.6106
  608TMC3    C5 9009   3.748   0.898  11.226 -0.4406  0.2863  0.7139
  608TMC3    C6 9010   3.786   0.963  11.338 -0.0441  0.4791  0.3432
  608TMC3     C 9011   3.450   0.715  11.325 -0.7022  0.4295  0.7496
  608TMC3     O 9012   3.478   0.621  11.249 -0.7982 -0.2349 -0.4640
  608TMC3     H 9013   3.537   0.855  11.534 -0.1041 -0.2412  0.5977
  608TMC3    H1 9014   3.609   0.772  11.122 -0.3533 -1.8319  0.9567
  608TMC3    H2 9015   3.870   1.032  11.340 -1.1350  1.8181  0.3351
  608TMC3    C7 9016   3.846   0.877  11.115  0.5261 -0.1698  1.0297
  608TMC3    C8 9017   3.730   1.046  11.559 -0.1262 -0.1337 -0.1751
  608TMC3    O1 9018   3.803   0.823  11.014  0.1291 -0.4693 -0.0378
  608TMC3    O2 9019   3.841   1.087  11.576  0.2014  0.1621 -0.6246
  609TMC3    C1 9020   2.509   3.581   8.469 -0.5370  0.0433  0.6074
  609TMC3    C2 9021   2.441   3.518   8.367 -0.1360  0.6560  0.5659
  609TMC3    C3 9022   2.450   3.383   8.365 -0.5303 -0.1819  0.2842
  609TMC3    C4 9023   2.597   3.514   8.550  0.6904  0.8068 -0.3310
  609TMC3    C5 9024   2.617   3.379   8.536 -0.5835 -0.1075  0.4149
  609TMC3    C6 9025   2.534   3.312   8.443  0.3191 -0.0731 -0.0199
  609TMC3     C 9026   2.478   3.719   8.514 -0.3463 -0.3866  0.7595
  609TMC3     O 9027   2.441   3.793   8.423  0.3721  0.1905 -0.1393
  609TMC3     H 9028   2.368   3.571   8.307 -1.4991  1.2896  2.8047
  609TMC3    H1 9029   2.661   3.574   8.613  0.3754  0.0698  0.6965
  609TMC3    H2 9030   2.547   3.206   8.428  0.2679 -0.1479  0.4736
  609TMC3    C7 9031   2.720   3.294   8.596 -0.7200  0.1140  0.1553
  609TMC3    C8 9032   2.333   3.317   8.307 -1.1244 -0.1830  0.2510
  609TMC3    O1 9033   2.735   3.188   8.538 -0.3095 -0.1461 -0.1233
  609TMC3    O2 9034   2.275   3.379   8.219 -0.7810  0.5158  0.0365
  610TMC3    C1 9035   3.594   0.418  12.523 -0.3117  0.0887  0.6244
  610TMC3    C2 9036   3.713   0.468  12.479 -0.6047 -0.1217 -0.9930
  610TMC3    C3 9037   3.824   0.386  12.483  0.6586 -0.9420 -0.9377
  610TMC3    C4 9038   3.584   0.286  12.554  0.3745 -0.2100  0.3361
  610TMC3    C5 9039   3.696   0.205  12.540  0.4235  0.1966 -0.0270
  610TMC3    C6 9040   3.823   0.254  12.511  0.3344  0.1743  0.7003
  610TMC3     C 9041   3.470   0.509  12.504 -0.5393 -0.5746  0.4321
  610TMC3     O 9042   3.497   0.627  12.492  0.6864  0.6928  0.1965
  610TMC3     H 9043   3.732   0.573  12.463 -0.4352  0.0084  0.0440
  610TMC3    H1 9044   3.494   0.252  12.603  0.0966  0.7027  0.4575
  610TMC3    H2 9045   3.916   0.199  12.502  0.7975  1.4871 -2.7002
  610TMC3    C7 9046   3.694   0.064  12.587 -0.1914 -0.7934 -0.3399
  610TMC3    C8 9047   3.956   0.449  12.446  0.0369  0.5367  1.1419
  610TMC3    O1 9048   3.801   0.005  12.589  0.0278  0.1716  0.6425
  610TMC3    O2 9049   3.962   0.510  12.343 -0.7960  0.1252  0.0473
  611MPD2     C 9050   3.429   0.854  10.267  0.3677 -0.8616  0.4122
  611MPD2    C1 9051   3.448   0.722  10.283  0.0354  0.1472  0.5015
  611MPD2    C2 9052   3.577   0.675  10.261 -0.1988  0.1672 -0.1138
  611MPD2    C3 9053   3.682   0.757  10.230 -0.0964 -0.0959 -0.1513
  611MPD2    C4 9054   3.655   0.888  10.215  0.2927  0.4414  0.6560
  611MPD2    C5 9055   3.530   0.934  10.234 -0.0666  0.4937  0.2552
  611MPD2     H 9056   3.590   0.570  10.285  0.9783  0.4239  0.3592
  611MPD2    H1 9057   3.729   0.966  10.202 -1.4341  1.6185 -2.0105
  611MPD2    H2 9058   3.328   0.893  10.271  1.7284  2.5542  0.7644
  611MPD2    H3 9059   3.512   1.033  10.193 -0.0100 -0.1482 -1.3290
  611MPD2     N 9060   3.816   0.722  10.215 -0.0647 -0.1143  0.4048
  611MPD2    H5 9061   3.884   0.793  10.189  0.0946 -0.0740  0.9181
  611MPD2    N1 9062   3.350   0.633  10.326 -0.6266  1.3510 -0.5331
  611MPD2    H7 9063   3.367   0.533  10.318 -0.8522  1.2570  0.2133
  612TMC3    C1 9064   3.999   0.601  10.159 -0.6894 -0.2184  0.0449
  612TMC3    C2 9065   4.109   0.610  10.240 -0.4456 -0.1341 -0.1959
  612TMC3    C3 9066   4.218   0.672  10.186  0.2980 -0.5264 -0.1606
  612TMC3    C4 9067   3.994   0.659  10.037  0.3740 -0.3965  0.2721
  612TMC3    C5 9068   4.108   0.728   9.991 -0.0546  0.2774  0.0665
  612TMC3    C6 9069   4.225   0.728  10.065 -0.2379  0.3218  0.3810
  612TMC3     C 9070   3.868   0.597  10.217  0.4216 -0.3182 -0.1686
  612TMC3     O 9071   3.815   0.491  10.228  0.4149 -0.1034 -0.3418
  612TMC3     H 9072   4.099   0.580  10.343 -0.3489 -2.9290 -1.0218
  612TMC3    H1 9073   3.902   0.655   9.979  0.9623  0.8341 -0.7567
  612TMC3    H2 9074   4.318   0.758  10.019  0.0818 -1.0421  0.1424
  612TMC3    C7 9075   4.102   0.769   9.850  0.7695 -0.2345 -0.1563
  612TMC3    C8 9076   4.330   0.689  10.271  1.0711 -0.0722  0.4790
  612TMC3    O1 9077   4.043   0.693   9.777 -0.2916 -0.5925 -0.2583
  612TMC3    O2 9078   4.411   0.770  10.236  0.5462 -0.1003  0.1206
  613MPD2     C 9079   2.061   2.037  16.729  0.0830  0.1741 -0.0569
  613MPD2    C1 9080   2.092   1.950  16.631  0.3864 -0.6200 -0.0773
  613MPD2    C2 9081   2.015   1.839  16.612 -0.8667 -0.9644 -0.3434
  613MPD2    C3 9082   1.910   1.819  16.695 -0.6501 -0.6038  0.0805
  613MPD2    C4 9083   1.879   1.908  16.794 -0.5123  0.6591 -1.0516
  613MPD2    C5 9084   1.958   2.017  16.816  0.0130  0.0610  0.5746
  613MPD2     H 9085   2.025   1.768  16.531 -0.7824 -1.5812  0.2116
  613MPD2    H1 9086   1.788   1.903  16.851  0.4516  1.5672  0.5543
  613MPD2    H2 9087   2.121   2.127  16.744  2.7030 -1.2115 -2.3224
  613MPD2    H3 9088   1.943   2.091  16.894  0.6240 -0.0120  0.7678
  613MPD2     N 9089   1.822   1.724  16.642  0.2766  0.6512 -0.2611
  613MPD2    H5 9090   1.851   1.672  16.560 -2.1682 -0.6213 -0.3499
  613MPD2    N1 9091   2.198   1.986  16.553  0.1446 -0.2238  0.1261
  613MPD2    H7 9092   2.238   2.079  16.564 -1.0396  0.5183 -1.7195
  614TMC3    C1 9093   2.329   1.973  16.362 -0.4813 -0.5879  0.8342
  614TMC3    C2 9094   2.366   1.883  16.266  0.8873  0.2512 -0.3754
  614TMC3    C3 9095   2.351   1.910  16.130 -0.1751  0.5223 -0.0514
  614TMC3    C4 9096   2.277   2.097  16.331  0.5793 -0.3722 -0.5580
  614TMC3    C5 9097   2.266   2.121  16.194 -0.2457  0.0352 -0.3097
  614TMC3    C6 9098   2.311   2.031  16.098 -0.4349  0.6403  0.0560
  614TMC3     C 9099   2.253   1.900  16.458 -0.1532  0.8900 -0.3078
  614TMC3     O 9100   2.233   1.778  16.434  0.1664 -0.0885 -0.3174
  614TMC3     H 9101   2.410   1.788  16.296 -1.9850 -1.1688 -0.6451
  614TMC3    H1 9102   2.274   2.174  16.408  0.9723 -0.5197 -0.3978
  614TMC3    H2 9103   2.304   2.057  15.993 -1.8225  1.6934  0.4175
  614TMC3    C7 9104   2.197   2.238  16.149  0.3748  1.0110  0.7944
  614TMC3    C8 9105   2.269   1.810  16.067 -0.3341 -0.2532 -0.1394
  614TMC3    O1 9106   2.207   2.326  16.238 -0.1135  0.1993  0.1084
  614TMC3    O2 9107   2.242   1.827  15.949  0.3801  0.0121 -0.0170
  615MPD2     C 9108   1.239   3.917  15.882 -0.3343  0.8727 -0.2928
  615MPD2    C1 9109   1.324   3.809  15.882 -0.5147 -0.1041 -0.3159
  615MPD2    C2 9110   1.290   3.688  15.826  0.4889 -0.2922  0.2583
  615MPD2    C3 9111   1.161   3.663  15.783  0.0701 -0.3138  0.5130
  615MPD2    C4 9112   1.077   3.775  15.778  0.3433 -0.0723 -0.3277
  615MPD2    C5 9113   1.114   3.902  15.821  0.2354  0.3852 -0.5518
  615MPD2     H 9114   1.374   3.620  15.816  0.1019 -0.7435  0.0843
  615MPD2    H1 9115   0.974   3.756  15.748  0.2931  0.3078 -0.3941
  615MPD2    H2 9116   1.254   4.014  15.928 -2.1569  1.4159 -0.8375
  615MPD2    H3 9117   1.050   3.989  15.831  0.5014  0.4890  0.3110
  615MPD2     N 9118   1.127   3.537  15.728 -0.2620  0.0099  0.7551
  615MPD2    H5 9119   1.046   3.537  15.666  0.8488 -0.2419 -0.6775
  615MPD2    N1 9120   1.457   3.810  15.924 -0.2404 -0.0149 -0.3012
  615MPD2    H7 9121   1.505   3.720  15.918 -0.6624 -0.2923  0.4320
  616TMC3    C1 9122   1.656   3.898  16.019 -0.2823 -0.1809 -0.1339
  616TMC3    C2 9123   1.721   3.980  16.116 -0.0638 -0.0096  0.3979
  616TMC3    C3 9124   1.838   3.925  16.172  0.4175 -0.2810  0.1006
  616TMC3    C4 9125   1.712   3.779  15.983 -0.2435 -0.6787  0.3621
  616TMC3    C5 9126   1.833   3.733  16.030  0.4521  0.1827 -0.4383
  616TMC3    C6 9127   1.894   3.808  16.124 -0.7771 -0.3852  0.6624
  616TMC3     C 9128   1.516   3.919  15.986  0.7031  0.4526  0.6829
  616TMC3     O 9129   1.473   4.027  16.020 -0.1508 -0.4208 -0.0682
  616TMC3     H 9130   1.676   4.078  16.129  0.9083  0.7759 -2.0811
  616TMC3    H1 9131   1.673   3.711  15.908  0.4055  0.8660 -1.3637
  616TMC3    H2 9132   1.977   3.760  16.176  0.8005  1.2076 -0.3895
  616TMC3    C7 9133   1.880   3.597  16.002  0.2180 -0.3860  0.4504
  616TMC3    C8 9134   1.943   4.002  16.242  0.0281 -0.0651  0.1901
  616TMC3    O1 9135   1.798   3.519  15.952  0.6412 -0.5313  0.1674
  616TMC3    O2 9136   2.057   3.954  16.238  0.5090  0.0455 -0.4329
  617MPD2     C 9137   4.560   2.281  13.629 -0.4887 -0.2878  0.4496
  617MPD2    C1 9138   4.642   2.212  13.717 -0.2804  0.2501  1.0047
  617MPD2    C2 9139   4.592   2.109  13.785 -0.2069 -0.0325  0.0095
  617MPD2    C3 9140   4.469   2.059  13.748 -0.1732 -0.1756 -0.2815
  617MPD2    C4 9141   4.399   2.119  13.648 -0.8773 -0.0789  0.5820
  617MPD2    C5 9142   4.440   2.236  13.589 -0.5125 -0.3982 -0.0559
  617MPD2     H 9143   4.642   2.050  13.860 -0.4633 -0.4464 -0.1407
  617MPD2    H1 9144   4.298   2.085  13.629 -1.0636  1.3086 -0.9516
  617MPD2    H2 9145   4.595   2.367  13.572 -2.0192  1.1091  1.6176
  617MPD2    H3 9146   4.380   2.294  13.520 -0.9222 -0.4499  0.2605
  617MPD2     N 9147   4.407   1.951  13.810 -0.2258  0.5809 -0.1848
  617MPD2    H5 9148   4.315   1.930  13.773 -1.2774  1.9899  1.6471
  617MPD2    N1 9149   0.054   2.241  13.715 -0.5122 -0.2395 -0.0255
  617MPD2    H7 9150   0.090   2.303  13.643 -2.3730 -0.5663 -1.2270
  618TMC3    C1 9151   0.278   2.201  13.760 -0.4596 -0.1219  0.1773
  618TMC3    C2 9152   0.370   2.135  13.832 -0.2238 -1.3643  0.2477
  618TMC3    C3 9153   0.499   2.129  13.781 -0.1372 -0.5238 -0.1294
  618TMC3    C4 9154   0.312   2.268  13.647  0.0521  0.0975 -0.5898
  618TMC3    C5 9155   0.441   2.271  13.598  0.0732  0.0607 -0.9341
  618TMC3    C6 9156   0.537   2.210  13.674 -0.4773  1.1320  0.7031
  618TMC3     C 9157   0.139   2.177  13.795  0.6204  0.4539 -0.2954
  618TMC3     O 9158   0.121   2.121  13.905  0.0106 -0.2924 -0.1429
  618TMC3     H 9159   0.345   2.067  13.913  0.1258 -1.9348 -0.1213
  618TMC3    H1 9160   0.236   2.322  13.592 -0.6363  0.2357  0.5003
  618TMC3    H2 9161   0.639   2.213  13.639 -0.5816 -0.3202  0.2904
  618TMC3    C7 9162   0.448   2.197  13.470  0.0310  0.0075  0.0235
  618TMC3    C8 9163   0.559   1.996  13.774 -0.5544  0.9287 -0.9039
  618TMC3    O1 9164   0.358   2.115  13.455  0.0960 -0.2162 -0.1031
  618TMC3    O2 9165   0.496   1.896  13.799 -0.0703 -0.2365  0.0298
  619MPD2     C 9166   0.997   3.484  12.527 -0.4577 -0.3507  0.4612
  619MPD2    C1 9167   0.867   3.506  12.570 -0.3070  0.4137 -0.6015
  619MPD2    C2 9168   0.802   3.426  12.658  0.5121 -0.0084 -0.4429
  619MPD2    C3 9169   0.861   3.306  12.697  0.1960 -0.0917  0.5091
  619MPD2    C4 9170   0.990   3.279  12.651  0.5766 -0.8610  0.7730
  619MPD2    C5 9171   1.053   3.364  12.568  0.2369 -0.1552 -0.5120
  619MPD2     H 9172   0.707   3.447  12.706  0.1109  2.4584 -2.3139
  619MPD2    H1 9173   1.039   3.188  12.682  0.2863 -0.6141  1.9332
  619MPD2    H2 9174   1.058   3.540  12.457 -0.4197  0.8452  1.4462
  619MPD2    H3 9175   1.152   3.330  12.540  0.4595 -0.3766  0.5582
  619MPD2     N 9176   0.806   3.225  12.800  0.9860  0.1729 -0.5118
  619MPD2    H5 9177   0.871   3.162  12.846  0.3126 -0.6411 -0.6923
  619MPD2    N1 9178   0.794   3.621  12.534  0.3963  0.1267 -0.1784
  619MPD2    H7 9179   0.698   3.629  12.568  0.6447  2.8224 -0.0679
  620TMC3    C1 9180   0.734   3.832  12.442 -0.7610  0.2345 -0.3080
  620TMC3    C2 9181   0.608   3.786  12.464  0.8215 -0.5847 -0.8646
  620TMC3    C3 9182   0.524   3.875  12.526 -0.1851 -0.6427  0.2781
  620TMC3    C4 9183   0.779   3.956  12.486  0.2695 -0.1540  0.5453
  620TMC3    C5 9184   0.688   4.046  12.536 -0.4085  0.2095  0.6542
  620TMC3    C6 9185   0.555   4.005  12.560 -0.6724  0.0214  0.1078
  620TMC3     C 9186   0.841   3.733  12.474 -0.6185  0.7502 -0.0678
  620TMC3     O 9187   0.956   3.773  12.473 -0.5938 -0.0374  0.4931
  620TMC3     H 9188   0.578   3.686  12.432  1.0173 -0.8670 -0.1803
  620TMC3    H1 9189   0.880   3.989  12.465 -0.1579  2.3963  2.5683
  620TMC3    H2 9190   0.483   4.056  12.623  0.4864  1.2073  0.4604
  620TMC3    C7 9191   0.737   4.159  12.608 -0.8178  0.3774 -0.2771
  620TMC3    C8 9192   0.473   3.799  12.638  0.1551  0.2276  0.1406
  620TMC3    O1 9193   0.663   4.256  12.607 -0.2856 -0.0636 -0.0662
  620TMC3    O2 9194   0.534   3.697  12.666  0.0739 -0.1451  0.3380
  621MPD2     C 9195   2.915   3.092   9.431  0.4086  0.6943  0.0417
  621MPD2    C1 9196   2.795   3.142   9.479 -0.0936 -0.7192  0.1475
  621MPD2    C2 9197   2.800   3.255   9.558  0.6031 -0.5083 -0.2757
  621MPD2    C3 9198   2.917   3.322   9.590 -0.2080  0.5344  0.0958
  621MPD2    C4 9199   3.030   3.275   9.520 -0.1393  0.2777  0.0545
  621MPD2    C5 9200   3.026   3.161   9.452  0.3523 -0.4810  0.2003
  621MPD2     H 9201   2.706   3.279   9.606  0.4635  0.7859 -1.2060
  621MPD2    H1 9202   3.125   3.325   9.534  0.6393 -1.0931 -0.3619
  621MPD2    H2 9203   2.918   3.011   9.359  0.2840  0.0421  0.7775
  621MPD2    H3 9204   3.116   3.129   9.400  0.6238  1.7038 -0.7157
  621MPD2     N 9205   2.915   3.442   9.667  0.2569  0.3905  0.1343
  621MPD2    H5 9206   2.826   3.488   9.682  1.0816  2.2919 -0.7469
  621MPD2    N1 9207   2.673   3.070   9.443 -0.6783  0.5847  0.0636
  621MPD2    H7 9208   2.683   2.990   9.382  1.1718  1.5608 -0.8948
  622TMC3    C1 9209   2.455   2.998   9.447  0.0017 -0.5285  0.0495
  622TMC3    C2 9210   2.360   2.949   9.530  0.5775  0.1808 -0.4936
  622TMC3    C3 9211   2.248   2.884   9.472 -0.2774 -0.1731  0.0639
  622TMC3    C4 9212   2.456   2.967   9.310 -0.2502  0.0956  0.8041
  622TMC3    C5 9213   2.342   2.915   9.257 -0.0823 -0.8965 -0.1062
  622TMC3    C6 9214   2.241   2.861   9.337  0.2475 -0.0052  0.2349
  622TMC3     C 9215   2.551   3.086   9.503 -0.1679 -0.5298  0.0267
  622TMC3     O 9216   2.517   3.146   9.604 -0.1039 -0.4154 -0.1329
  622TMC3     H 9217   2.386   2.960   9.635  1.6612 -1.5486 -0.5847
  622TMC3    H1 9218   2.525   3.002   9.234  0.0648  0.5315  1.3007
  622TMC3    H2 9219   2.149   2.817   9.302 -1.0673  1.6066  1.6333
  622TMC3    C7 9220   2.326   2.919   9.115 -0.4233 -0.5080 -0.4080
  622TMC3    C8 9221   2.156   2.812   9.553 -0.0811  0.4418 -0.0396
  622TMC3    O1 9222   2.408   2.867   9.040  0.4826 -0.2397  0.3383
  622TMC3    O2 9223   2.136   2.695   9.520 -0.0504  0.7539  0.1835
  623MPD2     C 9224   0.432   3.955  15.854 -0.1437  0.6832  0.4090
  623MPD2    C1 9225   0.383   3.858  15.939  0.3152  0.0071 -0.4372
  623MPD2    C2 9226   0.423   3.844  16.072 -0.1296 -0.6730 -0.5095
  623MPD2    C3 9227   0.510   3.936  16.127 -0.5559  0.4671 -0.0860
  623MPD2    C4 9228   0.552   4.039  16.041  0.8751 -0.5884 -0.5085
  623MPD2    C5 9229   0.516   4.044  15.912 -0.3930 -0.0593 -0.1259
  623MPD2     H 9230   0.388   3.761  16.133  1.2448  0.0370  1.2582
  623MPD2    H1 9231   0.614   4.117  16.083 -1.8288  1.5699 -0.5065
  623MPD2    H2 9232   0.406   3.961  15.750  2.3982  0.8518 -0.2250
  623MPD2    H3 9233   0.543   4.135  15.859 -1.9775  1.4083  1.5967
  623MPD2     N 9234   0.549   3.919  16.262  0.3741  0.2115 -0.3279
  623MPD2    H5 9235   0.508   3.845  16.317  0.6107 -0.4112 -0.9853
  623MPD2    N1 9236   0.288   3.760  15.898  0.1991 -0.6335 -0.4328
  623MPD2    H7 9237   0.260   3.684  15.960 -2.0575  0.2086 -0.4259
  624TMC3    C1 9238   0.827   3.804  16.567 -0.3346 -0.0327 -1.0716
  624TMC3    C2 9239   0.731   3.770  16.653  0.3114 -0.1142 -0.3481
  624TMC3    C3 9240   0.614   3.835  16.642 -0.7285 -0.2351  0.1230
  624TMC3    C4 9241   0.805   3.887  16.468 -0.5585 -0.7186 -0.4854
  624TMC3    C5 9242   0.685   3.939  16.446 -0.4678 -0.1337 -0.2498
  624TMC3    C6 9243   0.588   3.916  16.533 -0.5211 -0.3327 -0.3271
  624TMC3     C 9244   0.964   3.769  16.615  0.2970 -0.1758 -0.5976
  624TMC3     O 9245   0.965   3.696  16.713  0.9204  0.2603  0.4403
  624TMC3     H 9246   0.740   3.692  16.728 -0.3900 -0.6857 -0.8486
  624TMC3    H1 9247   0.879   3.898  16.389  2.8912 -1.3539  2.6037
  624TMC3    H2 9248   0.490   3.962  16.530 -0.1964  0.4434  1.0189
  624TMC3    C7 9249   0.654   3.992  16.317  0.1534 -0.4674 -0.1984
  624TMC3    C8 9250   0.497   3.788  16.716 -0.4241  0.4067 -0.3551
  624TMC3    O1 9251   0.736   4.067  16.262 -0.0754 -0.2370 -0.4504
  624TMC3    O2 9252   0.496   3.672  16.758  0.2677  0.0048 -0.0356
  625MPD2     C 9253   0.210   4.382   0.022  0.2862  0.5309  0.1742
  625MPD2    C1 9254   0.296   4.467   0.087  0.2098  1.0302 -1.3748
  625MPD2    C2 9255   0.395   4.423   0.169 -0.0611 -0.5314  0.5126
  625MPD2    C3 9256   0.385   4.289   0.208  0.1938 -0.0857  0.1376
  625MPD2    C4 9257   0.303   4.199   0.140 -0.1456  0.5214 -0.0003
  625MPD2    C5 9258   0.215   4.245   0.045 -0.1517 -0.4871  0.2563
  625MPD2     H 9259   0.465   4.488   0.219 -2.1724  0.6904  1.8629
  625MPD2    H1 9260   0.294   4.095   0.168 -0.5354  0.5887  0.1230
  625MPD2    H2 9261   0.128   4.412  17.654 -0.8042 -2.8068 -0.0167
  625MPD2    H3 9262   0.138   4.187  17.691  1.2246 -0.6719 -1.6393
  625MPD2     N 9263   0.459   4.259   0.326  0.1872 -0.5734  0.4342
  625MPD2    H5 9264   0.509   4.335   0.371  1.2739 -2.4162  2.3324
  625MPD2    N1 9265   0.284   4.608   0.084 -0.2128  0.4852 -0.2210
  625MPD2    H7 9266   0.323   4.654   0.166 -0.5487  2.5748 -1.2266
  626TMC3    C1 9267   0.205   0.098   0.071 -0.2678  0.0343  0.0534
  626TMC3    C2 9268   0.195   0.206  17.693  0.6108 -0.0863 -0.3301
  626TMC3    C3 9269   0.160   0.328   0.049  0.2472  0.2351  0.5399
  626TMC3    C4 9270   0.187   0.112   0.206  0.5255  0.1446  0.8798
  626TMC3    C5 9271   0.170   0.238   0.265 -0.1751  0.1376  0.4941
  626TMC3    C6 9272   0.149   0.352   0.183  0.2548 -0.0762  0.4867
  626TMC3     C 9273   0.207   4.689   0.008 -0.7072  0.3348  1.0878
  626TMC3     O 9274   0.129   4.661  17.610 -0.3981 -0.6200  0.0687
  626TMC3     H 9275   0.239   0.204  17.593  0.7072  0.9073 -0.3023
  626TMC3    H1 9276   0.192   0.021   0.265  1.3709 -0.1096  0.4102
  626TMC3    H2 9277   0.138   0.450   0.227 -0.8519 -0.6461  1.4944
  626TMC3    C7 9278   0.158   0.232   0.412 -0.2405  0.3398 -0.5011
  626TMC3    C8 9279   0.143   0.434  17.656 -0.7217  0.2774  0.5650
  626TMC3    O1 9280   0.178   0.122   0.469 -0.0144  0.5782  0.4591
  626TMC3    O2 9281   0.187   0.424  17.544 -0.2439 -0.2975 -0.4334
  627MPD2     C 9282   3.978   0.710  14.280  0.1548 -0.4672 -0.1400
  627MPD2    C1 9283   3.974   0.680  14.416  0.1965 -1.2169 -0.2129
  627MPD2    C2 9284   3.884   0.589  14.463  0.5571  0.4000  0.6101
  627MPD2    C3 9285   3.785   0.540  14.377  0.0249 -0.6408 -0.2610
  627MPD2    C4 9286   3.777   0.587  14.249 -0.4400 -0.4017  0.2522
  627MPD2    C5 9287   3.875   0.668  14.199 -0.5743  0.6272 -0.2238
  627MPD2     H 9288   3.893   0.560  14.567  0.6713 -0.7803  0.2756
  627MPD2    H1 9289   3.702   0.563  14.174 -1.8952  3.1365  0.5508
  627MPD2    H2 9290   4.042   0.783  14.233 -0.3462 -0.1451 -0.3198
  627MPD2    H3 9291   3.859   0.702  14.097  1.0065  0.3886 -0.5536
  627MPD2     N 9292   3.700   0.441  14.433  0.4168  0.0260  0.1600
  627MPD2    H5 9293   3.722   0.412  14.528  2.2831  0.5552 -0.0957
  627MPD2    N1 9294   4.064   0.740  14.506 -0.0901  0.2913  0.2099
  627MPD2    H7 9295   4.057   0.706  14.602 -0.2736 -0.8757 -0.2193
  628TMC3    C1 9296   4.227   0.872  14.585  0.3801  0.6296  0.1533
  628TMC3    C2 9297   4.292   0.769  14.636 -0.1895  0.3461 -0.5507
  628TMC3    C3 9298   4.399   0.799  14.709  0.6848  1.4372  0.0039
  628TMC3    C4 9299   4.266   1.001  14.606 -0.7240  0.3184  0.1080
  628TMC3    C5 9300   4.365   1.026  14.696  0.1094 -0.2462 -0.0555
  628TMC3    C6 9301   4.434   0.921  14.746 -0.0232  0.0904  0.1022
  628TMC3     C 9302   4.139   0.849  14.476  0.5062 -0.3260  1.1819
  628TMC3     O 9303   4.134   0.934  14.389 -0.3244 -0.0909 -0.4629
  628TMC3     H 9304   4.289   0.670  14.591 -1.0733 -0.3240  1.0007
  628TMC3    H1 9305   4.206   1.080  14.562 -1.1829 -0.9080 -1.4701
  628TMC3    H2 9306   4.494   0.941  14.834 -2.4636 -0.7204  1.9478
  628TMC3    C7 9307   4.404   1.160  14.717 -0.4949  0.3793 -0.2749
  628TMC3    C8 9308   4.475   0.681  14.752 -0.0810  0.1209 -0.4877
  628TMC3    O1 9309   4.442   1.194  14.827  0.2518  0.8803  0.0931
  628TMC3    O2 9310   4.428   0.570  14.734  0.1735  0.1593  0.7757
  629MPD2     C 9311   2.139   4.438  16.402  0.2826  0.1812  0.2636
  629MPD2    C1 9312   2.201   4.319  16.384 -0.1844 -0.3671  0.1470
  629MPD2    C2 9313   2.124   4.213  16.348  0.2420  0.4357  1.1135
  629MPD2    C3 9314   1.983   4.218  16.352 -0.3386 -0.4765  0.5141
  629MPD2    C4 9315   1.915   4.335  16.384 -0.4745  0.4248  0.8174
  629MPD2    C5 9316   2.002   4.444  16.401  0.1333 -0.0565 -0.0411
  629MPD2     H 9317   2.177   4.123  16.318  0.4166  0.6994  0.6323
  629MPD2    H1 9318   1.809   4.359  16.382 -0.3896  0.7385 -0.2022
  629MPD2    H2 9319   2.192   4.528  16.432  0.5801  0.4101 -0.9528
  629MPD2    H3 9320   1.950   4.539  16.410 -0.1031 -0.1789 -0.1214
  629MPD2     N 9321   1.896   4.117  16.304 -0.0835  0.2421  0.1168
  629MPD2    H5 9322   1.796   4.133  16.298 -0.3511 -1.1515  0.6982
  629MPD2    N1 9323   2.343   4.311  16.401 -0.8185  0.3566  0.3393
  629MPD2    H7 9324   2.387   4.401  16.413 -3.1726  1.6048 -0.3207
  630TMC3    C1 9325   2.553   4.208  16.447  0.3838  0.3920  0.4160
  630TMC3    C2 9326   2.628   4.317  16.406 -0.5051 -0.3041  0.2403
  630TMC3    C3 9327   2.765   4.316  16.431  0.1581 -0.1560 -1.2194
  630TMC3    C4 9328   2.614   4.118  16.535  0.6118  0.1860 -0.4391
  630TMC3    C5 9329   2.751   4.117  16.552 -0.8020 -0.1129 -0.7125
  630TMC3    C6 9330   2.825   4.217  16.496  0.0168  0.2060  0.2361
  630TMC3     C 9331   2.409   4.194  16.421  0.0728  0.1301  0.4710
  630TMC3     O 9332   2.369   4.079  16.427 -0.3703  0.1720  0.0642
  630TMC3     H 9333   2.587   4.387  16.334  0.9089  0.8199  0.5180
  630TMC3    H1 9334   2.558   4.030  16.565  1.2504 -0.1911 -0.3413
  630TMC3    H2 9335   2.933   4.206  16.488  0.1890  0.2989  2.2716
  630TMC3    C7 9336   2.802   4.042  16.669 -0.3998  0.1332  0.4574
  630TMC3    C8 9337   2.854   4.402  16.360  0.2495 -0.5949  0.4149
  630TMC3    O1 9338   2.721   3.969  16.729  0.2762 -0.3858  0.2327
  630TMC3    O2 9339   2.964   4.427  16.417 -0.4378 -0.3712 -0.1894
  631MPD2     C 9340   0.407   3.541  15.450  0.2841  0.0342  0.2571
  631MPD2    C1 9341   0.504   3.554  15.353 -0.0209 -0.6966  0.0256
  631MPD2    C2 9342   0.614   3.468  15.368  0.0446 -0.7379 -0.5177
  631MPD2    C3 9343   0.634   3.381  15.478  0.5348  0.4641 -0.0277
  631MPD2    C4 9344   0.529   3.376  15.566 -0.2921  0.6729 -0.3699
  631MPD2    C5 9345   0.423   3.463  15.558 -0.9518 -0.5835 -0.1701
  631MPD2     H 9346   0.699   3.478  15.302  0.0268 -0.2028 -0.4620
  631MPD2    H1 9347   0.525   3.308  15.649 -0.8992  0.4374 -0.5932
  631MPD2    H2 9348   0.320   3.604  15.456 -0.3911 -0.7671 -1.1130
  631MPD2    H3 9349   0.354   3.461  15.641  0.6864 -0.7302  1.1887
  631MPD2     N 9350   0.753   3.316  15.486 -0.4987 -0.0538 -0.2610
  631MPD2    H5 9351   0.823   3.320  15.413 -0.8295 -0.6191 -0.6067
  631MPD2    N1 9352   0.493   3.667  15.269  0.7604 -0.7523 -0.1598
  631MPD2    H7 9353   0.416   3.729  15.293  1.7033  0.9295 -1.5785
  632TMC3    C1 9354   0.521   3.824  15.101 -0.5622  0.1741 -0.6669
  632TMC3    C2 9355   0.395   3.873  15.136 -0.1474 -0.3869 -0.8305
  632TMC3    C3 9356   0.359   3.998  15.087  0.6526 -0.3160 -0.1905
  632TMC3    C4 9357   0.611   3.900  15.034  0.4988  0.1160 -0.4994
  632TMC3    C5 9358   0.568   4.016  14.982  0.5618  0.0447 -1.0828
  632TMC3    C6 9359   0.447   4.072  15.012  0.0471 -0.4489 -0.2754
  632TMC3     C 9360   0.570   3.696  15.154 -0.0770 -0.4218 -0.8900
  632TMC3     O 9361   0.679   3.650  15.125 -0.1468  0.0524  0.7779
  632TMC3     H 9362   0.316   3.818  15.186  0.7372  0.1676  1.1883
  632TMC3    H1 9363   0.713   3.865  15.017 -0.1453 -1.8974 -0.1461
  632TMC3    H2 9364   0.425   4.175  14.988  0.1970 -0.1684  0.8109
  632TMC3    C7 9365   0.643   4.072  14.868 -0.3166 -0.4261 -0.0629
  632TMC3    C8 9366   0.229   4.047  15.127 -0.0881  0.2795  0.4357
  632TMC3    O1 9367   0.576   4.126  14.779  0.2308 -0.1791  0.1209
  632TMC3    O2 9368   0.158   3.976  15.196  0.0704  0.2096  0.1859
  633MPD2     C 9369   0.561   2.281  17.351 -0.2148  0.1276 -0.3527
  633MPD2    C1 9370   0.530   2.210  17.241 -0.0962 -0.8189  0.0259
  633MPD2    C2 9371   0.423   2.125  17.247  0.2067  0.2074 -0.1705
  633MPD2    C3 9372   0.368   2.088  17.363 -0.7653 -0.0177 -0.2286
  633MPD2    C4 9373   0.394   2.164  17.478 -0.1281 -0.2800 -0.1629
  633MPD2    C5 9374   0.487   2.259  17.468  0.5126  0.2351  0.5724
  633MPD2     H 9375   0.397   2.067  17.159 -0.1477  0.3074 -0.1282
  633MPD2    H1 9376   0.355   2.160  17.579  0.1163  0.5575 -0.0374
  633MPD2    H2 9377   0.630   2.364  17.344 -2.0059  1.5646 -0.8069
  633MPD2    H3 9378   0.500   2.323  17.555 -1.2540 -0.6426  1.4879
  633MPD2     N 9379   0.267   1.985  17.368 -0.9778 -0.3360 -0.5871
  633MPD2    H5 9380   0.238   1.953  17.461 -0.3240 -1.6369 -0.8301
  633MPD2    N1 9381   0.605   2.231  17.117  0.0462 -0.6792  0.1584
  633MPD2    H7 9382   0.663   2.314  17.110  0.5509 -0.9254  1.3212
  634TMC3    C1 9383   0.697   2.183  16.909  0.1063 -0.0124 -0.2398
  634TMC3    C2 9384   0.755   2.070  16.853  0.1737 -0.1130  0.1885
  634TMC3    C3 9385   0.766   2.059  16.720 -0.6017 -1.0653  0.1408
  634TMC3    C4 9386   0.643   2.287  16.837  0.4243  0.1070  0.5184
  634TMC3    C5 9387   0.651   2.265  16.701  0.5793  0.3438 -0.2267
  634TMC3    C6 9388   0.725   2.168  16.637 -0.0834  0.4056 -0.2388
  634TMC3     C 9389   0.615   2.139  17.016  0.4439  0.4372 -0.0856
  634TMC3     O 9390   0.568   2.030  16.988  0.2974  0.1851 -0.5271
  634TMC3     H 9391   0.801   1.991  16.912  0.3305 -0.9330 -1.0368
  634TMC3    H1 9392   0.572   2.359  16.876 -2.5844 -3.0512  0.8555
  634TMC3    H2 9393   0.726   2.164  16.529 -1.2529 -1.6901 -0.1727
  634TMC3    C7 9394   0.584   2.359  16.611  0.1120  0.1621  0.2096
  634TMC3    C8 9395   0.775   1.924  16.668  1.0368  0.0122 -0.3693
  634TMC3    O1 9396   0.643   2.385  16.508  0.3460 -0.8826 -0.0825
  634TMC3    O2 9397   0.777   1.829  16.748  0.5220  0.0070 -0.3321
  635TMC3    C1 9398   1.723   2.749  16.854 -0.2235 -0.2358  0.5553
  635TMC3    C2 9399   1.763   2.867  16.793 -0.8297  0.2577 -1.0190
  635TMC3    C3 9400   1.736   2.886  16.662  0.0273 -0.6381 -0.0330
  635TMC3    C4 9401   1.630   2.665  16.800  0.1256  0.7082  0.0185
  635TMC3    C5 9402   1.597   2.695  16.669  0.5421  0.7714 -0.7083
  635TMC3    C6 9403   1.657   2.800  16.602 -0.1522  0.1390  0.1361
  635TMC3     C 9404   1.734   2.750  17.001 -0.1487  0.1391 -0.0585
  635TMC3     O 9405   1.629   2.744  17.060 -0.7657 -0.3085  0.1286
  635TMC3     H 9406   1.833   2.936  16.840 -0.1746 -1.2464  0.2105
  635TMC3    H1 9407   1.586   2.582  16.854 -1.2890  1.0442 -0.6081
  635TMC3    H2 9408   1.617   2.827  16.505 -1.5459 -1.4576  0.2560
  635TMC3    C7 9409   1.512   2.605  16.594 -0.3988 -0.1542 -0.3598
  635TMC3    C8 9410   1.747   3.023  16.616  0.6953  0.6139 -0.0880
  635TMC3    O1 9411   1.489   2.644  16.477  0.6009  0.3696 -1.0721
  635TMC3    O2 9412   1.753   3.109  16.706  0.1365  0.2821 -0.7438
  636MPD2     C 9413   1.397   2.079  16.007  0.1021  0.1616 -0.5732
  636MPD2    C1 9414   1.491   2.116  16.102 -0.0356  0.9113  0.0912
  636MPD2    C2 9415   1.528   2.024  16.194 -0.0674  0.1630  0.0256
  636MPD2    C3 9416   1.486   1.895  16.188  0.5576 -0.3090 -0.3757
  636MPD2    C4 9417   1.405   1.857  16.082 -0.1210 -0.1206 -0.0230
  636MPD2    C5 9418   1.359   1.949  15.995 -0.3193  0.0031 -0.4908
  636MPD2     H 9419   1.600   2.044  16.273  0.2324 -0.4647 -0.0798
  636MPD2    H1 9420   1.366   1.757  16.065  0.1635 -0.1645 -0.4132
  636MPD2    H2 9421   1.351   2.146  15.935 -0.6624  2.2973  1.9109
  636MPD2    H3 9422   1.294   1.927  15.911 -2.3804 -1.9761  1.6215
  636MPD2     N 9423   1.523   1.801  16.292  0.8046 -0.5632  0.7466
  636MPD2    H5 9424   1.578   1.828  16.373  1.2473  1.0008 -0.0848
  636MPD2    N1 9425   1.544   2.245  16.117 -0.1744 -0.3580  0.1043
  636MPD2    H7 9426   1.614   2.258  16.190 -2.0439  1.2010  1.6149
  637TMC3    C1 9427   1.541   1.588  16.400  0.3337  0.9648 -0.3910
  637TMC3    C2 9428   1.543   1.653  16.516 -0.6061 -0.2526 -0.0986
  637TMC3    C3 9429   1.636   1.609  16.599  0.2078  0.1114  0.4804
  637TMC3    C4 9430   1.613   1.474  16.367 -0.5749  0.0452 -0.4520
  637TMC3    C5 9431   1.717   1.437  16.453  0.0769  0.1457 -0.4568
  637TMC3    C6 9432   1.707   1.494  16.577  0.0471  0.6525  0.9856
  637TMC3     C 9433   1.488   1.659  16.290 -0.8490 -0.4875 -0.2021
  637TMC3     O 9434   1.458   1.603  16.184  0.0372  0.3894 -0.0396
  637TMC3     H 9435   1.494   1.748  16.538 -1.5494 -1.2148  1.9726
  637TMC3    H1 9436   1.622   1.457  16.260  1.8741  0.3364 -0.2983
  637TMC3    H2 9437   1.779   1.464  16.652  1.4168  0.4828 -0.4067
  637TMC3    C7 9438   1.851   1.454  16.405  0.6732 -0.1137 -0.6038
  637TMC3    C8 9439   1.695   1.712  16.677  0.3354  0.1863 -0.2919
  637TMC3    O1 9440   1.914   1.539  16.468  0.0408 -0.7649 -0.2460
  637TMC3    O2 9441   1.629   1.771  16.764  0.2370  0.1929  0.2067
  638MPD2     C 9442   1.582   1.105  14.705 -0.3983 -0.1153  0.0895
  638MPD2    C1 9443   1.549   0.972  14.676  0.3207 -0.1047  0.4722
  638MPD2    C2 9444   1.507   0.890  14.779 -0.7052 -0.2324  0.0876
  638MPD2    C3 9445   1.477   0.939  14.902  0.4728 -0.4897 -0.0587
  638MPD2    C4 9446   1.504   1.070  14.930  0.4625 -0.2155 -0.5452
  638MPD2    C5 9447   1.555   1.151  14.828 -0.2882 -0.0982 -0.0480
  638MPD2     H 9448   1.495   0.783  14.765  0.4989 -0.2417 -0.8651
  638MPD2    H1 9449   1.494   1.115  15.028 -2.5212 -1.1029 -0.4703
  638MPD2    H2 9450   1.614   1.174  14.629 -1.5813 -0.9080 -1.1304
  638MPD2    H3 9451   1.574   1.256  14.845 -0.7368  0.3996 -2.5844
  638MPD2     N 9452   1.434   0.847  14.998  0.1098 -0.0322  0.9018
  638MPD2    H5 9453   1.390   0.760  14.971  1.2964 -1.1320  2.4681
  638MPD2    N1 9454   1.590   0.911  14.555 -1.1806 -0.5151  0.1542
  638MPD2    H7 9455   1.648   0.958  14.486  1.3894 -0.9549  2.0204
  639TMC3    C1 9456   1.391   0.754  15.209  0.0106  0.1402  0.1476
  639TMC3    C2 9457   1.273   0.693  15.174 -0.1652 -0.2996 -0.3349
  639TMC3    C3 9458   1.225   0.607  15.263  0.3450 -0.5372 -0.5012
  639TMC3    C4 9459   1.461   0.714  15.330  0.6022 -0.7132 -0.4207
  639TMC3    C5 9460   1.407   0.614  15.413  0.8563  0.2494  0.8678
  639TMC3    C6 9461   1.288   0.556  15.377  0.7836 -0.5530  0.2287
  639TMC3     C 9462   1.448   0.860  15.131  0.2931 -0.4135 -0.3518
  639TMC3     O 9463   1.503   0.946  15.200 -0.3731 -0.3089  0.3723
  639TMC3     H 9464   1.214   0.731  15.092  1.3243  1.2340 -0.7140
  639TMC3    H1 9465   1.556   0.761  15.353 -1.2154  2.4979  0.5362
  639TMC3    H2 9466   1.239   0.490  15.448 -0.5765  1.0841  0.8196
  639TMC3    C7 9467   1.507   0.524  15.468  0.3963 -0.5652  0.1163
  639TMC3    C8 9468   1.093   0.544  15.238 -0.6507  0.0469  0.5075
  639TMC3    O1 9469   1.468   0.448  15.554 -0.5671  0.3725  0.1294
  639TMC3    O2 9470   0.993   0.616  15.227  0.3508  0.4614  0.2814
  640MPD2     C 9471   2.509   4.492  10.063  0.4208  0.1376 -0.0780
  640MPD2    C1 9472   2.493   4.543   9.932  0.1548 -0.4708  0.4401
  640MPD2    C2 9473   2.397   4.638   9.915 -0.3041  0.1551 -0.6587
  640MPD2    C3 9474   2.306   4.667  10.012 -0.4246 -0.1766 -0.1520
  640MPD2    C4 9475   2.317   4.610  10.135  0.3120  0.2062 -0.3844
  640MPD2    C5 9476   2.419   4.524  10.160 -0.1400 -1.4150 -0.0792
  640MPD2     H 9477   2.379   4.683   9.818 -0.4675  0.7351 -0.3637
  640MPD2    H1 9478   2.242   4.622  10.212  0.0809  1.5189 -0.8132
  640MPD2    H2 9479   2.578   4.416  10.097 -1.1426 -0.8864  0.8313
  640MPD2    H3 9480   2.439   4.485  10.259  0.3021  0.3198  0.5271
  640MPD2     N 9481   2.195   0.027   9.993 -0.0691  0.2156  0.2820
  640MPD2    H5 9482   2.120   0.037  10.061  0.2206 -0.0145  0.6379
  640MPD2    N1 9483   2.569   4.485   9.823  0.1409 -0.2535 -0.6125
  640MPD2    H7 9484   2.615   4.398   9.848  1.8451  0.7504 -0.2434
  641TMC3    C1 9485   2.668   4.450   9.616  0.0299 -0.3430 -1.0168
  641TMC3    C2 9486   2.746   4.344   9.663  0.1973  0.5793  0.3753
  641TMC3    C3 9487   2.860   4.308   9.596 -0.3515 -0.4799  0.2834
  641TMC3    C4 9488   2.717   4.516   9.504  0.7882 -0.0932 -0.0021
  641TMC3    C5 9489   2.828   4.469   9.443 -0.0784  0.0209 -0.4954
  641TMC3    C6 9490   2.907   4.366   9.481 -0.3127 -0.2188  0.6777
  641TMC3     C 9491   2.575   4.523   9.692  0.2972 -0.0986 -0.1502
  641TMC3     O 9492   2.512   4.611   9.627 -0.4682 -0.4099 -0.2394
  641TMC3     H 9493   2.706   4.280   9.741  0.4537 -2.5970 -2.1097
  641TMC3    H1 9494   2.667   4.607   9.472 -2.1288 -0.7797  2.5708
  641TMC3    H2 9495   2.994   4.337   9.423 -0.7276  1.8405 -0.9641
  641TMC3    C7 9496   2.881   4.540   9.336 -1.0195 -0.2887 -0.4240
  641TMC3    C8 9497   2.916   4.188   9.648 -0.4228  0.3606 -0.0855
  641TMC3    O1 9498   2.998   4.516   9.309 -0.0110  0.6239  0.0900
  641TMC3    O2 9499   2.916   4.168   9.767 -0.3749  0.2176  0.2581
  642TMC3    C1 9500   3.145   1.370  11.847  0.1185 -0.3204 -0.0760
  642TMC3    C2 9501   3.222   1.367  11.957  0.0062  0.2283  0.2745
  642TMC3    C3 9502   3.256   1.242  12.006 -0.3646 -0.0238 -0.1176
  642TMC3    C4 9503   3.102   1.259  11.785 -0.2534 -0.0191  0.0835
  642TMC3    C5 9504   3.125   1.139  11.843  0.4840  0.1993  0.2151
  642TMC3    C6 9505   3.203   1.127  11.956  0.2994  0.0898  0.4119
  642TMC3     C 9506   3.059   1.483  11.822 -0.0098  0.4397 -0.1156
  642TMC3     O 9507   3.030   1.493  11.707 -0.1626  0.6655 -0.1753
  642TMC3     H 9508   3.268   1.458  11.994 -0.8125  0.0022  1.8454
  642TMC3    H1 9509   3.048   1.255  11.692 -1.1768 -1.1100  0.6586
  642TMC3    H2 9510   3.225   1.034  12.007  2.8752  1.7155  2.2593
  642TMC3    C7 9511   3.044   1.033  11.801  0.1803 -0.4097  0.1544
  642TMC3    C8 9512   3.336   1.233  12.125  0.2951  0.9416  0.3331
  642TMC3    O1 9513   3.043   1.013  11.679  0.3498 -0.4201 -0.0424
  642TMC3    O2 9514   3.330   1.127  12.188  0.6868  0.2440  0.4572
  643TMC3    C1 9515   2.321   0.063   0.595 -0.3025 -0.0648  0.7034
  643TMC3    C2 9516   2.196   0.111   0.578  0.5155 -0.3703  0.4629
  643TMC3    C3 9517   2.135   0.097   0.463 -0.4770  0.0375  0.0578
  643TMC3    C4 9518   2.371   4.693   0.502 -0.2596  0.1181 -0.3546
  643TMC3    C5 9519   2.290   4.663   0.396  0.0037  0.1035 -0.1486
  643TMC3    C6 9520   2.183   0.013   0.364 -0.1838 -0.6007  0.4917
  643TMC3     C 9521   2.404   0.115   0.701 -0.0818  0.4151 -0.9336
  643TMC3     O 9522   2.347   0.158   0.798 -0.1096 -0.5371 -0.3471
  643TMC3     H 9523   2.166   0.177   0.658  1.5262  1.6512 -0.7882
  643TMC3    H1 9524   2.457   4.630   0.523 -1.7487 -1.1903  1.7064
  643TMC3    H2 9525   2.127   4.721   0.272  2.2667 -0.5180 -0.9947
  643TMC3    C7 9526   2.346   4.590   0.282 -0.1382 -0.3454  0.1701
  643TMC3    C8 9527   2.076   0.212   0.403 -0.2781 -0.0584 -1.1191
  643TMC3    O1 9528   2.273   4.579   0.190  0.4141 -0.4514  0.3257
  643TMC3    O2 9529   2.009   0.282   0.471 -0.1412  0.0163  0.0821
  644MPD2     C 9530   2.569   0.741   9.472 -0.3349 -0.0856  0.0226
  644MPD2    C1 9531   2.705   0.755   9.443 -0.2731 -0.5918  0.2411
  644MPD2    C2 9532   2.762   0.884   9.450  0.1172  0.7838 -0.2999
  644MPD2    C3 9533   2.684   0.996   9.478  0.5087  0.5490 -0.1629
  644MPD2    C4 9534   2.548   0.977   9.499  0.2203  0.0198 -0.6990
  644MPD2    C5 9535   2.496   0.851   9.499  0.0863 -0.2470 -0.7928
  644MPD2     H 9536   2.867   0.898   9.427 -0.1393  0.1529 -1.8950
  644MPD2    H1 9537   2.475   1.054   9.519  2.0364  1.5204  0.1214
  644MPD2    H2 9538   2.517   0.647   9.477 -1.7154  0.6482 -0.4818
  644MPD2    H3 9539   2.390   0.837   9.520  0.1623 -1.1214 -1.0023
  644MPD2     N 9540   2.748   1.120   9.488 -0.6200 -0.6250  0.4420
  644MPD2    H5 9541   2.850   1.121   9.480 -0.5587 -1.2176  1.1499
  644MPD2    N1 9542   2.781   0.637   9.424 -0.0303 -0.6527 -0.0941
  644MPD2    H7 9543   2.718   0.558   9.434 -0.0337 -0.6129  0.1935
  645TMC3    C1 9544   2.777   1.343   9.527 -0.1102  0.0734 -0.0346
  645TMC3    C2 9545   2.883   1.345   9.439 -0.0308 -0.1215  0.3753
  645TMC3    C3 9546   2.955   1.461   9.417 -0.1924  0.1732  0.5337
  645TMC3    C4 9547   2.744   1.450   9.606 -0.0665 -0.2014  0.1289
  645TMC3    C5 9548   2.831   1.558   9.599  0.7044  0.4216 -0.4049
  645TMC3    C6 9549   2.933   1.567   9.504 -0.1269 -0.1719  1.0207
  645TMC3     C 9550   2.680   1.235   9.519  0.1486  0.1247 -0.3313
  645TMC3     O 9551   2.574   1.248   9.574  0.1895 -0.1511 -0.2497
  645TMC3     H 9552   2.906   1.257   9.381  1.2774  2.3764 -2.8890
  645TMC3    H1 9553   2.662   1.453   9.676  0.6578  0.5724  0.9416
  645TMC3    H2 9554   2.989   1.658   9.486  1.8066 -1.5342  0.1828
  645TMC3    C7 9555   2.797   1.680   9.682 -0.0857  0.8900  0.4951
  645TMC3    C8 9556   3.084   1.460   9.343 -0.1851  0.0482  0.4253
  645TMC3    O1 9557   2.689   1.687   9.735 -0.0794  0.3284  0.1251
  645TMC3    O2 9558   3.128   1.574   9.320 -0.4314  0.5895 -0.7241
  646MPD2     C 9559   1.585   4.177  14.889 -0.4190 -0.0398  0.0579
  646MPD2    C1 9560   1.521   4.209  15.002 -0.2155 -0.3868  0.0560
  646MPD2    C2 9561   1.399   4.285  14.994 -1.1225 -0.3047  0.6285
  646MPD2    C3 9562   1.350   4.324  14.870  0.7376  0.6955 -0.5419
  646MPD2    C4 9563   1.414   4.270  14.756 -0.6897 -0.3925 -0.0034
  646MPD2    C5 9564   1.533   4.204  14.768  0.4850  0.2727  0.3169
  646MPD2     H 9565   1.349   4.323  15.082 -0.9268 -0.2871  0.7315
  646MPD2    H1 9566   1.382   4.269  14.653 -0.7091 -1.0434  0.0080
  646MPD2    H2 9567   1.676   4.119  14.889  0.1426  0.8367 -1.7764
  646MPD2    H3 9568   1.599   4.176  14.686  0.6618 -0.2255  0.6319
  646MPD2     N 9569   1.224   4.383  14.862 -0.3847  0.8510  0.4550
  646MPD2    H5 9570   1.154   4.384  14.935 -1.2796 -0.6847 -0.3934
  646MPD2    N1 9571   1.590   4.177  15.127 -0.2215  0.5190 -0.4834
  646MPD2    H7 9572   1.681   4.135  15.118 -1.2839 -1.5757 -1.4645
  647TMC3    C1 9573   1.634   4.173  15.354 -0.6225  0.2806  0.1884
  647TMC3    C2 9574   1.591   4.122  15.472 -0.0233  1.4124 -0.0324
  647TMC3    C3 9575   1.683   4.105  15.570  0.2935 -0.6116 -0.5107
  647TMC3    C4 9576   1.761   4.203  15.321 -0.0711  0.7219  0.6351
  647TMC3    C5 9577   1.852   4.173  15.418 -0.0681 -0.2456  0.4600
  647TMC3    C6 9578   1.815   4.128  15.542  0.1034 -0.3125  0.3198
  647TMC3     C 9579   1.538   4.198  15.250 -0.8863  0.4967  0.5267
  647TMC3     O 9580   1.425   4.246  15.283  0.1722 -0.3780  0.0592
  647TMC3     H 9581   1.488   4.104  15.502 -1.0219  4.3862 -1.7627
  647TMC3    H1 9582   1.794   4.251  15.229 -0.1194 -0.3827  0.0445
  647TMC3    H2 9583   1.892   4.112  15.616 -0.1684  0.6982  0.8282
  647TMC3    C7 9584   1.952   4.085  15.361 -0.4760 -0.5285  0.5911
  647TMC3    C8 9585   1.670   3.987  15.658  0.1310 -0.5483  0.8549
  647TMC3    O1 9586   2.026   4.131  15.274  0.6391  0.3621  0.2695
  647TMC3    O2 9587   1.759   3.974  15.739  0.2255 -0.0554 -0.3533
  648TMC3    C1 9588   0.972   2.035  15.971 -0.6783  0.4314  0.3704
  648TMC3    C2 9589   0.933   1.906  15.946  0.0078  0.3995  0.0415
  648TMC3    C3 9590   0.887   1.878  15.819  0.6752 -0.2108  0.0339
  648TMC3    C4 9591   0.964   2.132  15.881 -0.5059 -0.5106  0.1026
  648TMC3    C5 9592   0.931   2.093  15.751  0.3376 -0.2619  0.1552
  648TMC3    C6 9593   0.899   1.966  15.721 -0.3378  0.0127  0.1245
  648TMC3     C 9594   1.021   2.067  16.107  0.1525 -0.1858  0.1249
  648TMC3     O 9595   1.020   2.188  16.139 -0.0532  0.4805  0.6276
  648TMC3     H 9596   0.915   1.837  16.027 -2.9197 -0.3061 -1.2277
  648TMC3    H1 9597   1.008   2.228  15.906  2.5655 -1.9176  0.1745
  648TMC3    H2 9598   0.867   1.952  15.619  0.1738  1.2071 -0.1983
  648TMC3    C7 9599   0.903   2.195  15.656  0.2609 -0.0194 -0.1583
  648TMC3    C8 9600   0.876   1.739  15.789  0.7112  0.3545  0.3264
  648TMC3    O1 9601   0.876   2.169  15.538 -0.3727  0.0135 -0.5354
  648TMC3    O2 9602   0.820   1.670  15.868  0.2342 -0.1747  0.0500
  649TMC3    C1 9603   4.490   3.275  12.510 -0.3878  0.0935 -0.2141
  649TMC3    C2 9604   4.601   3.264  12.426 -0.5639  0.8310  0.2147
  649TMC3    C3 9605   0.001   3.243  12.473 -0.2997  0.1226 -0.0607
  649TMC3    C4 9606   4.507   3.260  12.647  0.4105 -0.0170 -0.2757
  649TMC3    C5 9607   4.631   3.228  12.688 -0.2866 -0.0922  0.1178
  649TMC3    C6 9608   0.017   3.223  12.605  0.3921  1.3081  0.1970
  649TMC3     C 9609   4.362   3.279  12.439  0.3315 -0.2419  0.6157
  649TMC3     O 9610   4.376   3.336  12.328 -0.5405  0.7316  0.7897
  649TMC3     H 9611   4.591   3.259  12.318  0.3445  0.1262  0.1661
  649TMC3    H1 9612   4.424   3.259  12.717 -0.2184  2.3026 -0.9903
  649TMC3    H2 9613   0.117   3.231  12.646  0.3244  1.0696  0.4035
  649TMC3    C7 9614   4.641   3.184  12.826 -0.2011 -0.0735  0.9065
  649TMC3    C8 9615   0.117   3.285  12.390  0.8535  0.2820 -0.3131
  649TMC3    O1 9616   4.550   3.205  12.906 -0.3892  0.0350  0.5179
  649TMC3    O2 9617   0.228   3.277  12.440  0.4331 -0.1848  0.1333
  650TMC3    C1 9618   2.627   0.493  12.612  0.7426 -0.5352  0.2246
  650TMC3    C2 9619   2.633   0.630  12.634  1.1258 -0.4777 -0.2333
  650TMC3    C3 9620   2.595   0.711  12.530  0.4811  0.3377  0.5152
  650TMC3    C4 9621   2.578   0.439  12.495 -0.1428  0.0682  0.6635
  650TMC3    C5 9622   2.542   0.526  12.397  0.8443  0.2023 -0.8248
  650TMC3    C6 9623   2.558   0.661  12.412  0.1034 -0.2103 -0.0654
  650TMC3     C 9624   2.631   0.408  12.732  0.5484  0.2349  0.7587
  650TMC3     O 9625   2.602   0.462  12.841  0.1053 -0.2748  0.1263
  650TMC3     H 9626   2.654   0.668  12.733 -0.4006 -1.3415  0.4224
  650TMC3    H1 9627   2.564   0.331  12.485 -0.0096  0.1915 -0.8085
  650TMC3    H2 9628   2.515   0.732  12.342 -1.2042 -0.0566  0.8824
  650TMC3    C7 9629   2.504   0.463  12.264  0.3616 -0.2486  0.6939
  650TMC3    C8 9630   2.571   0.853  12.556 -1.4611 -0.3541  0.4442
  650TMC3    O1 9631   2.500   0.341  12.247  0.1353 -0.0561 -0.4127
  650TMC3    O2 9632   2.540   0.922  12.457  0.1149 -0.2609 -0.5491
  651MPD2     C 9633   1.939   2.185  11.037 -0.3517 -0.1680 -0.1670
  651MPD2    C1 9634   1.860   2.246  10.943  0.4115  0.2601  0.2840
  651MPD2    C2 9635   1.923   2.312  10.836 -0.0821  0.0669 -0.4920
  651MPD2    C3 9636   2.060   2.319  10.827 -0.5951  0.2128  0.1575
  651MPD2    C4 9637   2.133   2.257  10.924  0.2357  0.7931  0.2464
  651MPD2    C5 9638   2.070   2.207  11.034 -0.1554  0.2340  0.8606
  651MPD2     H 9639   1.863   2.362  10.762 -1.9460  0.7432  1.4838
  651MPD2    H1 9640   2.241   2.270  10.927  0.2517  1.3605 -2.9045
  651MPD2    H2 9641   1.905   2.135  11.127  0.2321 -1.6622 -0.7836
  651MPD2    H3 9642   2.133   2.160  11.108  0.9049  0.0075 -0.1849
  651MPD2     N 9643   2.118   2.397  10.730  0.5103 -0.3226 -0.1688
  651MPD2    H5 9644   2.056   2.455  10.674  1.9744  1.7411  0.3674
  651MPD2    N1 9645   1.723   2.240  10.943 -0.5038 -0.1857  0.0886
  651MPD2    H7 9646   1.683   2.304  10.875  0.0273 -0.4384 -0.4554
  652TMC3    C1 9647   2.457   2.588  10.482  0.6211  0.6069  0.2021
  652TMC3    C2 9648   2.370   2.499  10.523  0.2886 -0.2640 -0.8160
  652TMC3    C3 9649   2.284   2.522  10.624  0.7077  0.2947 -0.4041
  652TMC3    C4 9650   2.475   2.704  10.557  0.0166 -0.2948  0.3800
  652TMC3    C5 9651   2.386   2.732  10.662  0.3090 -0.3095 -0.6288
  652TMC3    C6 9652   2.292   2.639  10.692  0.6001 -0.0117  0.3163
  652TMC3     C 9653   2.583   2.532  10.444  0.7646 -0.1963  0.3775
  652TMC3     O 9654   2.610   2.422  10.492 -0.1989 -0.3211 -0.6065
  652TMC3     H 9655   2.382   2.396  10.492 -0.9495  0.3406 -3.3470
  652TMC3    H1 9656   2.559   2.768  10.531 -2.0830  1.9389 -0.8868
  652TMC3    H2 9657   2.239   2.645  10.787  1.4899  1.9685  0.6722
  652TMC3    C7 9658   2.442   2.791  10.781  0.2265  0.5307 -0.7351
  652TMC3    C8 9659   2.247   2.404  10.699  0.8216 -0.8052  0.0366
  652TMC3    O1 9660   2.379   2.784  10.885 -1.0470  0.5382 -0.1468
  652TMC3    O2 9661   2.346   2.355  10.749  0.7051  0.6247  0.3335
  653MPD2     C 9662   4.718   1.933  17.548 -0.2447  0.6100 -0.1192
  653MPD2    C1 9663   4.669   2.027  17.463  0.0214 -0.0990  0.1685
  653MPD2    C2 9664   4.575   1.977  17.371 -0.5432  0.2535 -0.6888
  653MPD2    C3 9665   4.517   1.850  17.379 -0.1954 -0.2621 -0.4846
  653MPD2    C4 9666   4.564   1.765  17.478  0.2064  0.0853  0.8597
  653MPD2    C5 9667   4.674   1.801  17.554  0.0046 -0.2177  0.2075
  653MPD2     H 9668   4.534   2.046  17.298 -0.4923 -0.0549 -1.0074
  653MPD2    H1 9669   4.513   1.674  17.507  0.2403 -0.0022  0.6419
  653MPD2    H2 9670   0.074   1.955  17.618  0.1385 -0.5756 -0.1809
  653MPD2    H3 9671   4.712   1.727  17.624 -0.6459 -1.5914 -0.8843
  653MPD2     N 9672   4.409   1.818  17.289  0.5126 -0.3091 -0.0484
  653MPD2    H5 9673   4.379   1.901  17.238 -0.5158 -1.1498 -0.8261
  653MPD2    N1 9674   4.708   2.159  17.456 -0.3359 -0.3354  0.2054
  653MPD2    H7 9675   4.658   2.226  17.398 -0.9090 -0.3022  0.7434
  654TMC3    C1 9676   4.262   1.703  17.169 -0.2254 -0.0953  0.1652
  654TMC3    C2 9677   4.134   1.722  17.208 -0.1838  0.2163  0.1291
  654TMC3    C3 9678   4.038   1.697  17.111  1.0068 -0.4063  0.2981
  654TMC3    C4 9679   4.291   1.628  17.056  0.1456 -0.5576 -0.4093
  654TMC3    C5 9680   4.193   1.597  16.968  0.1006  0.3392  0.0048
  654TMC3    C6 9681   4.068   1.635  16.989  0.5134  0.2004  0.5902
  654TMC3     C 9682   4.367   1.693  17.266 -0.8269  0.4001  0.3477
  654TMC3     O 9683   4.409   1.585  17.309  1.0370  0.2587 -0.3989
  654TMC3     H 9684   4.101   1.755  17.306 -0.7192 -1.2123  0.4231
  654TMC3    H1 9685   4.396   1.612  17.037 -0.4394 -2.7787 -1.7159
  654TMC3    H2 9686   3.994   1.618  16.911  1.8743 -1.7042 -0.2736
  654TMC3    C7 9687   4.230   1.536  16.835 -0.2704  0.0162  0.3725
  654TMC3    C8 9688   3.894   1.728  17.135 -0.0176  0.3476  0.0019
  654TMC3    O1 9689   4.169   1.570  16.735  0.2163 -0.6264 -0.2979
  654TMC3    O2 9690   3.815   1.686  17.055  0.2132  0.7832 -0.1191
  655MPD2     C 9691   1.510   2.200  15.367 -0.6863 -0.5193 -0.0104
  655MPD2    C1 9692   1.483   2.329  15.322 -0.4217  0.1896 -0.1269
  655MPD2    C2 9693   1.501   2.356  15.189  0.4072 -0.3776 -0.8364
  655MPD2    C3 9694   1.540   2.258  15.108 -0.9130  0.7932  0.2742
  655MPD2    C4 9695   1.574   2.136  15.151  0.1250 -0.4720 -0.5478
  655MPD2    C5 9696   1.553   2.103  15.282  0.0103  0.0398  0.3417
  655MPD2     H 9697   1.476   2.456  15.156  0.0656 -0.8753 -2.0865
  655MPD2    H1 9698   1.591   2.053  15.083  1.6842 -0.3489 -0.3033
  655MPD2    H2 9699   1.492   2.170  15.470  0.5332 -1.6802 -0.1400
  655MPD2    H3 9700   1.567   2.003  15.321 -0.9082  0.1299  0.9130
  655MPD2     N 9701   1.529   2.276  14.970 -0.3013 -0.1597  0.5005
  655MPD2    H5 9702   1.517   2.192  14.914 -2.0082 -0.4913  1.3462
  655MPD2    N1 9703   1.431   2.430  15.402  0.6106 -0.1657  0.3974
  655MPD2    H7 9704   1.399   2.513  15.353  0.5501 -0.2981  0.2149
  656TMC3    C1 9705   1.296   2.523  15.567  0.6976  0.1106 -0.4278
  656TMC3    C2 9706   1.257   2.513  15.703 -0.5861 -0.2521  0.2402
  656TMC3    C3 9707   1.144   2.585  15.731  0.0250  0.3740  0.0911
  656TMC3    C4 9708   1.238   2.608  15.475  0.1409 -0.3132 -0.0545
  656TMC3    C5 9709   1.130   2.677  15.514 -0.2748  0.3301 -0.6046
  656TMC3    C6 9710   1.081   2.673  15.646 -0.7448  1.0014  0.3618
  656TMC3     C 9711   1.390   2.420  15.534 -0.2246 -0.2770 -0.3014
  656TMC3     O 9712   1.434   2.342  15.618  1.3074  0.1629  0.4881
  656TMC3     H 9713   1.301   2.447  15.777  0.5594 -1.7275 -1.7503
  656TMC3    H1 9714   1.264   2.606  15.370 -0.8822  0.5786 -0.3112
  656TMC3    H2 9715   0.980   2.702  15.672 -1.4338  0.4152 -1.6654
  656TMC3    C7 9716   1.065   2.766  15.420 -0.7348 -0.4601  0.6922
  656TMC3    C8 9717   1.089   2.546  15.864 -0.2454  0.1035  0.0869
  656TMC3    O1 9718   1.109   2.761  15.308 -0.4182 -0.1941  0.0240
  656TMC3    O2 9719   1.117   2.442  15.917 -0.0113  0.1444 -0.1458
  657TMC3    C1 9720   0.514   1.681  14.326  0.3776 -0.0618  0.1150
  657TMC3    C2 9721   0.438   1.702  14.435 -0.8358  0.0529  0.1264
  657TMC3    C3 9722   0.377   1.825  14.442 -0.0854  0.3857 -1.1020
  657TMC3    C4 9723   0.527   1.773  14.227  0.4121 -0.0623 -0.0051
  657TMC3    C5 9724   0.464   1.892  14.238  0.3125  0.0085 -0.9900
  657TMC3    C6 9725   0.389   1.922  14.346 -0.9847  0.4903  0.6151
  657TMC3     C 9726   0.562   1.546  14.299  0.3960  0.1313  0.5901
  657TMC3     O 9727   0.562   1.518  14.179  0.6784  0.0508  0.2976
  657TMC3     H 9728   0.439   1.632  14.518  0.0713 -0.3144 -0.1957
  657TMC3    H1 9729   0.565   1.740  14.131  1.2575  0.2955  0.2064
  657TMC3    H2 9730   0.349   2.022  14.359 -0.1171  0.9433 -0.2479
  657TMC3    C7 9731   0.506   2.013  14.173  0.6835  0.6253 -0.4838
  657TMC3    C8 9732   0.323   1.875  14.569  0.3368 -0.1666 -0.0955
  657TMC3    O1 9733   0.447   2.118  14.186 -0.4582  0.4331  0.2968
  657TMC3    O2 9734   0.256   1.979  14.573  0.2536  0.7841 -0.1462
  658MPD2     C 9735   1.917   2.644  14.380  0.4576  0.1667  0.1506
  658MPD2    C1 9736   1.800   2.587  14.329  0.3220 -0.5218  0.0114
  658MPD2    C2 9737   1.765   2.606  14.195 -0.2217 -0.2040  0.5856
  658MPD2    C3 9738   1.841   2.684  14.104 -0.3324  0.4268 -0.3134
  658MPD2    C4 9739   1.963   2.722  14.158  0.6199 -0.3934  0.4113
  658MPD2    C5 9740   1.997   2.700  14.289 -0.4555  0.5429  0.7439
  658MPD2     H 9741   1.680   2.555  14.149 -0.7121 -0.3712  1.6892
  658MPD2    H1 9742   2.043   2.769  14.102  2.2080 -3.6576 -0.0752
  658MPD2    H2 9743   1.959   2.631  14.479 -1.1434 -0.1223  0.7926
  658MPD2    H3 9744   2.094   2.739  14.319  0.7300  0.3934 -2.9676
  658MPD2     N 9745   1.801   2.709  13.969  0.6595  0.5155 -0.0074
  658MPD2    H5 9746   1.710   2.681  13.934  1.4320 -0.3426 -1.3264
  658MPD2    N1 9747   1.720   2.526  14.426 -0.5035  0.3132 -0.6680
  658MPD2    H7 9748   1.764   2.527  14.518 -1.7111  1.9885 -0.1243
  659TMC3    C1 9749   1.534   2.423  14.532 -0.6960 -0.2316  0.2639
  659TMC3    C2 9750   1.584   2.448  14.659 -1.0429 -0.2144  0.9955
  659TMC3    C3 9751   1.516   2.394  14.763 -0.4909  0.2478 -0.3332
  659TMC3    C4 9752   1.419   2.354  14.517 -0.6200  0.2985  0.0791
  659TMC3    C5 9753   1.349   2.318  14.620 -0.6999 -0.2237  0.4334
  659TMC3    C6 9754   1.391   2.342  14.749  0.0043  0.7079 -0.2955
  659TMC3     C 9755   1.593   2.481  14.408  0.5012  0.1652 -0.3092
  659TMC3     O 9756   1.520   2.492  14.311  0.0011  0.2752  0.1450
  659TMC3     H 9757   1.672   2.508  14.678 -0.0709 -1.0841 -0.7415
  659TMC3    H1 9758   1.370   2.364  14.421  1.0438 -0.7632 -0.8835
  659TMC3    H2 9759   1.322   2.330  14.833 -1.4133 -0.0105 -1.5697
  659TMC3    C7 9760   1.201   2.281  14.611  0.7534  0.2488  0.3575
  659TMC3    C8 9761   1.558   2.396  14.902  0.3675  0.0443  0.1002
  659TMC3    O1 9762   1.136   2.290  14.718  0.2231  0.1164 -0.4405
  659TMC3    O2 9763   1.611   2.496  14.949  0.5946 -0.9009  0.4860
  660MPD2     C 9764   4.473   1.191  12.251  0.0308  0.5448 -0.6975
  660MPD2    C1 9765   4.362   1.274  12.279  0.8560 -0.0697  0.0707
  660MPD2    C2 9766   4.316   1.282  12.411 -0.2591  0.0552 -0.2014
  660MPD2    C3 9767   4.383   1.220  12.511  0.4551  0.1570 -0.1504
  660MPD2    C4 9768   4.485   1.129  12.479 -0.5405 -0.1169 -0.0211
  660MPD2    C5 9769   4.533   1.119  12.355  0.6738 -0.5020 -0.4538
  660MPD2     H 9770   4.232   1.344  12.439 -0.7518 -0.7315  0.0653
  660MPD2    H1 9771   4.528   1.064  12.554 -0.8651  0.5036  0.7070
  660MPD2    H2 9772   4.511   1.182  12.150 -0.0291  0.1599 -0.6872
  660MPD2    H3 9773   4.618   1.055  12.333 -0.8902 -2.2009 -1.5644
  660MPD2     N 9774   4.333   1.211  12.641  0.8722  0.2218 -0.4071
  660MPD2    H5 9775   4.369   1.138  12.703 -0.1160 -0.4268 -0.6038
  660MPD2    N1 9776   4.304   1.340  12.164  0.3782  0.5926 -0.1671
  660MPD2    H7 9777   4.350   1.338  12.074 -0.0158 -1.8963 -0.3031
  661TMC3    C1 9778   4.130   1.443  12.029  0.4675 -0.1229 -0.2372
  661TMC3    C2 9779   4.216   1.453  11.919 -0.8887 -0.0296  0.4429
  661TMC3    C3 9780   4.167   1.499  11.797  0.0124 -0.3865  0.2177
  661TMC3    C4 9781   3.998   1.447  12.010  0.4706 -0.5468 -0.6216
  661TMC3    C5 9782   3.956   1.479  11.885 -0.3448 -0.3884 -0.9854
  661TMC3    C6 9783   4.037   1.499  11.777 -0.6086 -0.7198 -0.2177
  661TMC3     C 9784   4.184   1.407  12.161  0.6658  0.2264  0.2649
  661TMC3     O 9785   4.098   1.399  12.249 -0.5989 -0.0343 -0.4190
  661TMC3     H 9786   4.323   1.450  11.936 -0.7690  1.0059 -0.1351
  661TMC3    H1 9787   3.926   1.437  12.090 -0.1122 -0.0242 -1.0781
  661TMC3    H2 9788   3.998   1.546  11.687  1.8385  0.4666 -0.6462
  661TMC3    C7 9789   3.818   1.500  11.860 -0.0089  0.2756 -0.5683
  661TMC3    C8 9790   4.264   1.526  11.686 -0.0911 -0.0791  0.3095
  661TMC3    O1 9791   3.752   1.522  11.963 -0.2932 -0.4032  0.4760
  661TMC3    O2 9792   4.381   1.499  11.710  0.2085  0.0626 -0.0820
  662MPD2     C 9793   0.043   0.374  16.798  0.1319  0.3572 -0.0603
  662MPD2    C1 9794   0.037   0.346  16.934  0.0376  0.0494 -0.4524
  662MPD2    C2 9795   4.677   0.420  17.007 -1.1643  1.0391 -1.2384
  662MPD2    C3 9796   4.600   0.519  16.946 -0.2145  0.2567  0.1555
  662MPD2    C4 9797   4.617   0.558  16.821  0.3267  0.1850  1.1690
  662MPD2    C5 9798   4.701   0.483  16.749  0.5413  0.0595  0.5143
  662MPD2     H 9799   4.662   0.389  17.110 -0.0946 -0.4229 -1.5199
  662MPD2    H1 9800   4.549   0.632  16.782  1.7280  0.4852 -0.6995
  662MPD2    H2 9801   0.115   0.326  16.733 -0.7196 -2.6519  1.2237
  662MPD2    H3 9802   4.714   0.511  16.645  0.1956  0.2886  0.5330
  662MPD2     N 9803   4.489   0.579  17.014 -0.1676 -0.4587  0.0725
  662MPD2    H5 9804   4.432   0.647  16.965  0.8609 -1.1372 -2.0812
  662MPD2    N1 9805   0.122   0.256  17.002  0.0679 -0.6290  0.3463
  662MPD2    H7 9806   0.135   0.270  17.102  0.5215  1.7574 -0.0388
  663TMC3    C1 9807   0.226   0.052  17.052 -1.1112  0.6138  0.2336
  663TMC3    C2 9808   0.233   0.111  17.181 -0.2034 -0.3010 -0.3301
  663TMC3    C3 9809   0.168   0.052  17.285  0.0175  0.8530  0.4180
  663TMC3    C4 9810   0.177   4.656  17.036 -0.3679 -0.2815 -0.1892
  663TMC3    C5 9811   0.119   4.597  17.139  0.1111 -0.1119  0.3615
  663TMC3    C6 9812   0.120   4.649  17.265  0.4550 -0.1742 -0.1288
  663TMC3     C 9813   0.193   0.145  16.948  0.1655  0.0435 -0.5796
  663TMC3     O 9814   0.174   0.097  16.837  0.0484  0.3061 -0.0395
  663TMC3     H 9815   0.271   0.212  17.186 -1.8415  0.2634  0.6296
  663TMC3    H1 9816   0.165   4.613  16.937  1.1517 -1.8383  0.2872
  663TMC3    H2 9817   0.055   4.609  17.342 -1.4427  0.9803 -1.1242
  663TMC3    C7 9818   0.035   4.481  17.117  0.3709 -0.7493 -0.4955
  663TMC3    C8 9819   0.063   0.143  17.326 -0.7768 -0.0289 -1.2284
  663TMC3    O1 9820   0.039   4.402  17.209 -0.0587 -0.0440 -0.3386
  663TMC3    O2 9821   0.061   0.253  17.267 -0.5172 -0.9493  0.1999
  664MPD2     C 9822   2.338   3.543  17.584 -0.7675  0.2403  0.1336
  664MPD2    C1 9823   2.440   3.607  17.659 -0.0346 -0.2514  0.4981
  664MPD2    C2 9824   2.408   3.636   0.091  0.0190  0.1362 -0.1410
  664MPD2    C3 9825   2.287   3.590   0.149 -0.0887 -0.2563 -0.2757
  664MPD2    C4 9826   2.194   3.519   0.079 -0.3076  0.6943  0.0871
  664MPD2    C5 9827   2.230   3.488  17.642  0.7974 -0.2200 -0.5825
  664MPD2     H 9828   2.468   3.709   0.144  0.6991 -0.2861 -0.3347
  664MPD2    H1 9829   2.099   3.486   0.118  0.2333 -0.0105  0.8017
  664MPD2    H2 9830   2.347   3.522  17.478  0.8106 -2.2544  0.7670
  664MPD2    H3 9831   2.159   3.432  17.582 -0.8477 -0.6935  1.7907
  664MPD2     N 9832   2.263   3.652   0.269  0.1494 -0.1702 -0.8359
  664MPD2    H5 9833   2.344   3.705   0.299 -1.1485  1.3258 -0.0003
  664MPD2    N1 9834   2.568   3.654  17.613 -0.2469 -0.0796  0.5944
  664MPD2    H7 9835   2.620   3.709  17.680 -1.1544  0.9305  0.4749
  665TMC3    C1 9836   2.192   3.690   0.499  0.5040 -0.4587  0.3443
  665TMC3    C2 9837   2.086   3.669   0.588 -0.3056  0.9262  0.3106
  665TMC3    C3 9838   2.108   3.711   0.719 -0.0289 -0.4571  0.4841
  665TMC3    C4 9839   2.315   3.746   0.529  0.2713 -0.4169 -0.1325
  665TMC3    C5 9840   2.326   3.796   0.657 -0.2953 -0.2076  0.2969
  665TMC3    C6 9841   2.221   3.785   0.748 -0.7421 -0.9438  0.1529
  665TMC3     C 9842   2.164   3.638   0.364  0.1010  0.1046 -0.7288
  665TMC3     O 9843   2.065   3.569   0.349  0.0557  0.1389 -0.3450
  665TMC3     H 9844   1.995   3.628   0.547  0.6134 -0.3382 -0.4796
  665TMC3    H1 9845   2.404   3.741   0.467  0.2524 -0.0169 -0.1989
  665TMC3    H2 9846   2.240   3.795   0.854  2.9168  0.8130 -0.6622
  665TMC3    C7 9847   2.461   3.834   0.689  0.3641 -0.4477  0.4529
  665TMC3    C8 9848   1.993   3.719   0.804  0.0894 -0.1274  0.5324
  665TMC3    O1 9849   2.554   3.798   0.610  0.2170 -0.5245 -0.3250
  665TMC3    O2 9850   2.000   3.790   0.897 -0.5894 -0.3483 -0.6511
  666TMC3    C1 9851   2.999   3.627   9.799 -0.5618 -0.3516  0.2840
  666TMC3    C2 9852   3.068   3.644   9.909  0.5148 -0.2827  0.3770
  666TMC3    C3 9853   3.053   3.758   9.987 -0.3774 -0.1786 -0.5881
  666TMC3    C4 9854   2.911   3.717   9.753 -0.0089  0.4272 -0.0090
  666TMC3    C5 9855   2.895   3.835   9.833 -0.0247  0.0334 -0.7721
  666TMC3    C6 9856   2.968   3.853   9.952 -0.1420  0.4291  0.3866
  666TMC3     C 9857   3.029   3.509   9.720 -0.4057 -0.4299 -0.3531
  666TMC3     O 9858   3.138   3.459   9.734 -0.4636 -0.6203 -0.4617
  666TMC3     H 9859   3.129   3.561   9.943 -1.1998 -1.5444  0.3911
  666TMC3    H1 9860   2.860   3.714   9.657  2.8585  0.1872 -1.5311
  666TMC3    H2 9861   2.948   3.935  10.020 -0.0931  0.3977  0.4385
  666TMC3    C7 9862   2.771   3.913   9.830 -0.1191  0.3034  0.1322
  666TMC3    C8 9863   3.062   3.724  10.124 -0.3045  0.8191 -0.0080
  666TMC3    O1 9864   2.735   3.963   9.934  0.5142 -0.0542 -0.6698
  666TMC3    O2 9865   3.065   3.605  10.160  0.4923  0.2690 -0.2647
  667MPD2     C 9866   3.123   3.395  14.441 -0.4456 -0.0629  0.0892
  667MPD2    C1 9867   3.034   3.394  14.553 -0.0038 -0.0291  0.1883
  667MPD2    C2 9868   2.912   3.314  14.546  0.1096  0.4090 -0.6170
  667MPD2    C3 9869   2.892   3.234  14.432  0.6356 -0.0320 -0.4198
  667MPD2    C4 9870   2.984   3.231  14.331  0.3977  0.2364  0.2749
  667MPD2    C5 9871   3.092   3.315  14.332  0.5971 -0.4499 -0.0635
  667MPD2     H 9872   2.845   3.323  14.630 -1.0645  1.4479 -1.6698
  667MPD2    H1 9873   2.978   3.156  14.253  1.2153  1.4911 -1.0122
  667MPD2    H2 9874   3.212   3.454  14.422 -0.2177 -0.3310  0.3106
  667MPD2    H3 9875   3.161   3.304  14.250  0.0372 -0.3897 -0.5428
  667MPD2     N 9876   2.775   3.165  14.408 -0.5649 -0.1238 -0.0187
  667MPD2    H5 9877   2.785   3.110  14.323  2.4490 -2.5119  1.8765
  667MPD2    N1 9878   3.046   3.479  14.664 -0.2610 -0.3608  0.2429
  667MPD2    H7 9879   2.976   3.467  14.736  0.8502  0.2007  1.4268
  668TMC3    C1 9880   3.146   3.632  14.807 -0.1088 -0.2726 -0.0152
  668TMC3    C2 9881   3.219   3.747  14.805 -0.3500  0.1707  0.3856
  668TMC3    C3 9882   3.199   3.826  14.914  0.0567 -0.5112  0.0084
  668TMC3    C4 9883   3.058   3.601  14.909  0.4013 -0.1239 -0.2735
  668TMC3    C5 9884   3.045   3.688  15.013 -0.5737  0.2481  0.2346
  668TMC3    C6 9885   3.117   3.801  15.019  0.6581 -0.6329 -0.3820
  668TMC3     C 9886   3.147   3.569  14.681  0.7640 -0.6474  0.5772
  668TMC3     O 9887   3.209   3.626  14.590 -0.5339 -0.2184 -0.3421
  668TMC3     H 9888   3.289   3.771  14.726 -1.6753  0.3732 -0.7347
  668TMC3    H1 9889   3.030   3.496  14.915 -0.5681  0.0306 -2.0454
  668TMC3    H2 9890   3.116   3.876  15.097 -0.9739 -0.6225 -0.4123
  668TMC3    C7 9891   2.980   3.641  15.136  0.3317 -0.3587  1.2016
  668TMC3    C8 9892   3.309   3.902  14.956 -0.5072  0.0488  0.4361
  668TMC3    O1 9893   2.952   3.718  15.226  0.3280  0.1401 -0.0171
  668TMC3    O2 9894   3.349   3.883  15.070  0.1065  0.6778  0.2361
  669TMC3    C1 9895   1.175   3.516  14.347 -0.1849 -0.7838 -0.5655
  669TMC3    C2 9896   1.065   3.492  14.264  0.3654  0.3351  0.2058
  669TMC3    C3 9897   1.062   3.560  14.148  0.1828  0.0174  0.5708
  669TMC3    C4 9898   1.279   3.597  14.307  0.1040  0.4586 -0.2887
  669TMC3    C5 9899   1.274   3.650  14.181 -0.5928  0.1691 -0.0618
  669TMC3    C6 9900   1.162   3.643  14.100  0.0492  0.3847 -0.4024
  669TMC3     C 9901   1.198   3.440  14.466  0.5141 -0.0108  0.3461
  669TMC3     O 9902   1.151   3.326  14.469 -0.0343  0.1329 -0.5196
  669TMC3     H 9903   0.991   3.414  14.282 -0.5384  0.6320 -2.2429
  669TMC3    H1 9904   1.366   3.607  14.372  1.5861  2.4233 -2.5646
  669TMC3    H2 9905   1.151   3.705  14.011  1.7007  0.2893 -0.6842
  669TMC3    C7 9906   1.366   3.758  14.157 -0.4066  0.9292 -0.3774
  669TMC3    C8 9907   0.961   3.526  14.047  0.1194 -0.1830 -0.0945
  669TMC3    O1 9908   1.428   3.808  14.252  0.1369  0.5681 -0.0079
  669TMC3    O2 9909   0.996   3.569  13.935  0.1397 -0.1639  0.3758
  670MPD2     C 9910   0.321   1.093  13.365 -0.5769  0.9478 -0.2309
  670MPD2    C1 9911   0.302   1.229  13.366 -0.0394  0.4521  0.6887
  670MPD2    C2 9912   0.265   1.287  13.488  0.2022 -0.3803 -1.1569
  670MPD2    C3 9913   0.246   1.206  13.599 -0.3916 -0.3967  0.0031
  670MPD2    C4 9914   0.264   1.071  13.591 -0.4146 -0.4667 -0.2945
  670MPD2    C5 9915   0.291   1.011  13.469 -0.6677 -0.8649 -0.0178
  670MPD2     H 9916   0.258   1.395  13.495  1.2114 -0.3259 -1.0017
  670MPD2    H1 9917   0.271   1.007  13.679  0.1764  1.4714  1.0633
  670MPD2    H2 9918   0.348   1.034  13.278 -0.8425 -1.9591  1.6423
  670MPD2    H3 9919   0.291   0.903  13.465  2.2438 -0.9399  1.9876
  670MPD2     N 9920   0.207   1.285  13.716  0.0070  0.6155 -0.0174
  670MPD2    H5 9921   0.191   1.385  13.709  0.4445  0.7731  1.1679
  670MPD2    N1 9922   0.327   1.318  13.260  0.8209  0.0264 -0.6263
  670MPD2    H7 9923   0.338   1.414  13.290  0.7133 -0.0535 -0.3329
  671TMC3    C1 9924   0.108   1.312  13.934 -0.1473  0.6865  0.2188
  671TMC3    C2 9925   0.122   1.279  14.062 -0.8192  0.0280  0.3365
  671TMC3    C3 9926   0.008   1.281  14.139  1.1370 -0.0140  0.2538
  671TMC3    C4 9927   4.710   1.354  13.879  0.2168 -0.0099 -0.0959
  671TMC3    C5 9928   4.600   1.344  13.958 -0.3396  0.3802 -0.6020
  671TMC3    C6 9929   4.613   1.319  14.095  0.8172  0.2848  0.4234
  671TMC3     C 9930   0.186   1.231  13.842  0.6956  0.8331 -0.0021
  671TMC3     O 9931   0.219   1.119  13.876  0.1567  0.3112  0.1363
  671TMC3     H 9932   0.207   1.213  14.074 -1.4004 -0.6118  0.9075
  671TMC3    H1 9933   4.690   1.354  13.772 -1.7594  0.6814  0.2764
  671TMC3    H2 9934   4.527   1.300  14.158 -0.4065  0.7985 -1.1305
  671TMC3    C7 9935   4.487   1.270  13.895 -0.3884 -0.0280 -0.4269
  671TMC3    C8 9936   0.006   1.157  14.210 -0.1659 -0.7167 -0.5128
  671TMC3    O1 9937   4.513   1.222  13.787  0.4466  0.1723 -0.2399
  671TMC3    O2 9938   4.659   1.065  14.167  0.2193 -0.1172  0.1685
  672MPD2     C 9939   4.442   2.341   1.241  0.1053  0.6768 -0.3736
  672MPD2    C1 9940   4.527   2.239   1.277 -0.0415  0.4698 -0.1744
  672MPD2    C2 9941   4.648   2.282   1.330  0.2277 -0.3976 -0.0042
  672MPD2    C3 9942   4.685   2.417   1.342  0.2192 -0.1037 -0.0047
  672MPD2    C4 9943   4.589   2.510   1.317 -0.3987 -0.3949  0.5021
  672MPD2    C5 9944   4.466   2.468   1.275  0.4101  0.4775  0.1393
  672MPD2     H 9945   4.719   2.207   1.364 -0.3222 -0.6095  0.6734
  672MPD2    H1 9946   4.607   2.615   1.334  0.7133 -0.9845  2.9906
  672MPD2    H2 9947   4.345   2.314   1.200  0.2390  0.8301 -0.7935
  672MPD2    H3 9948   4.388   2.541   1.255  0.5034  0.6948  0.5812
  672MPD2     N 9949   0.096   2.458   1.372 -0.4009  0.4721  0.2104
  672MPD2    H5 9950   0.115   2.556   1.356 -1.7564  0.8247  0.8181
  672MPD2    N1 9951   4.500   2.101   1.255 -0.8078 -0.1479  0.3161
  672MPD2    H7 9952   4.584   2.045   1.266  1.3659  2.6895 -1.7616
  673TMC3    C1 9953   4.424   1.924   1.130  0.3759  0.1074  0.4325
  673TMC3    C2 9954   4.511   1.847   1.196  0.5367  0.1369 -0.0301
  673TMC3    C3 9955   4.529   1.720   1.154 -0.0547 -0.7723  0.4996
  673TMC3    C4 9956   4.355   1.887   1.019  0.6004  0.9731 -0.0190
  673TMC3    C5 9957   4.385   1.758   0.974 -0.8494 -0.0629  1.2048
  673TMC3    C6 9958   4.472   1.676   1.036  0.3916  0.9749  0.5578
  673TMC3     C 9959   4.399   2.054   1.181 -0.1204  0.6461  1.0141
  673TMC3     O 9960   4.294   2.110   1.152  0.2484 -0.1966 -0.1500
  673TMC3     H 9961   4.559   1.885   1.286  0.4249 -0.0439  0.1058
  673TMC3    H1 9962   4.284   1.949   0.966  1.2732  0.6052 -1.3527
  673TMC3    H2 9963   4.500   1.586   0.981 -0.7036  2.1508 -1.9560
  673TMC3    C7 9964   4.338   1.722   0.843  0.9416 -0.5456  0.4499
  673TMC3    C8 9965   4.645   1.645   1.208  0.0183  0.0184  0.8398
  673TMC3    O1 9966   4.313   1.607   0.815 -0.0846 -0.0450  0.5407
  673TMC3    O2 9967   0.015   1.708   1.265 -0.3544  0.3574  0.3554
  674MPD2     C 9968   4.411   2.058   0.033  0.6025 -0.0824 -0.3663
  674MPD2    C1 9969   4.430   1.948   0.118 -0.0121 -0.7377  0.4129
  674MPD2    C2 9970   4.359   1.834   0.093  0.4205  0.3518  0.6489
  674MPD2    C3 9971   4.265   1.824  17.685  0.0785 -0.3750 -0.4194
  674MPD2    C4 9972   4.235   1.936  17.601  0.2736  0.4649 -0.0949
  674MPD2    C5 9973   4.311   2.049  17.633  0.4903 -0.1172 -0.4450
  674MPD2     H 9974   4.365   1.744   0.153 -0.0326 -0.1173 -0.0017
  674MPD2    H1 9975   4.166   1.934  17.518  2.7687 -1.2953 -2.1528
  674MPD2    H2 9976   4.470   2.149   0.030 -0.5893  0.6278 -2.3080
  674MPD2    H3 9977   4.291   2.139  17.577 -1.8979 -0.8318 -0.7508
  674MPD2     N 9978   4.195   1.699  17.678  0.8276  0.3381 -0.2956
  674MPD2    H5 9979   4.217   1.639   0.061  1.7856  0.9782 -0.0785
  674MPD2    N1 9980   4.523   1.960   0.229  0.3588  0.2203  0.2271
  674MPD2    H7 9981   4.590   2.037   0.224  0.6009  0.0595  1.0300
  675TMC3    C1 9982   4.614   1.918   0.439 -0.4830 -0.4179 -0.1656
  675TMC3    C2 9983   4.676   1.821   0.513  0.2863  0.2877  0.2181
  675TMC3    C3 9984   4.720   1.864   0.638  0.5263 -0.0520 -0.8416
  675TMC3    C4 9985   4.615   2.050   0.466 -0.0986  0.2684  0.2978
  675TMC3    C5 9986   4.695   2.085   0.574  0.4135  0.2384  0.3035
  675TMC3    C6 9987   0.016   1.996   0.666 -0.8989 -0.4469 -1.0139
  675TMC3     C 9988   4.540   1.868   0.330 -0.0149 -0.5856 -0.3969
  675TMC3     O 9989   4.497   1.756   0.341 -0.8930  0.2789  0.2148
  675TMC3     H 9990   4.681   1.720   0.475  3.1304  0.2586  0.7130
  675TMC3    H1 9991   4.553   2.120   0.411 -1.9818 -1.9608 -0.3630
  675TMC3    H2 9992   0.060   2.020   0.762 -0.5791 -0.7179 -1.0949
  675TMC3    C7 9993   4.706   2.218   0.616 -0.3069 -0.4296  0.6374
  675TMC3    C8 9994   0.066   1.770   0.732  0.0416 -0.0791 -0.2595
  675TMC3    O1 9995   4.708   2.230   0.737  0.4246  0.0351 -0.0648
  675TMC3    O2 9996   0.168   1.813   0.781 -0.2583  0.1494 -0.2882
  676MPD2     C 9997   2.813   0.343  10.908  0.3684  0.3296 -0.1365
  676MPD2    C1 9998   2.696   0.289  10.964 -0.2084  0.0116 -0.5498
  676MPD2    C2 9999   2.662   0.161  10.939  0.0375  0.4378 -0.1935
  676MPD2    C310000   2.737   0.093  10.848  0.0800 -0.1521  0.4559
  676MPD2    C410001   2.855   0.137  10.793 -0.7386 -0.2187 -0.0597
  676MPD2    C510002   2.884   0.267  10.826 -0.2851  0.4023 -0.3889
  676MPD2     H10003   2.582   0.119  10.999  0.7147  1.1123  1.1883
  676MPD2    H110004   2.924   0.083  10.728  0.7943  0.2126  1.2024
  676MPD2    H210005   2.848   0.445  10.916  1.3601  0.1739 -2.5170
  676MPD2    H310006   2.958   0.322  10.768  2.2039  0.0060  2.4529
  676MPD2     N10007   2.704   4.680  10.832  0.2414  0.0188  0.8290
  676MPD2    H510008   2.765   4.633  10.767 -0.9309 -2.3923  1.4815
  676MPD2    N110009   2.609   0.359  11.048  0.2237 -0.1016 -0.5224
  676MPD2    H710010   2.530   0.305  11.084 -0.8352  1.1278 -1.0015
  677TMC3    C110011   2.512   0.544  11.161 -0.4360 -0.3862 -0.3543
  677TMC3    C210012   2.399   0.478  11.139  0.3413 -0.0043 -0.1492
  677TMC3    C310013   2.305   0.490  11.236  0.5634  1.0031 -0.6026
  677TMC3    C410014   2.543   0.615  11.274 -0.0271 -0.2282  0.3205
  677TMC3    C510015   2.449   0.615  11.370  0.2506  0.0437  0.0979
  677TMC3    C610016   2.331   0.545  11.355 -0.6264  0.0915  0.0738
  677TMC3     C10017   2.622   0.493  11.087 -0.2462 -0.0891 -0.1255
  677TMC3     O10018   2.716   0.568  11.069  0.0180  0.3297 -0.0101
  677TMC3     H10019   2.377   0.430  11.045  0.7125  0.3152 -0.4008
  677TMC3    H110020   2.633   0.675  11.266 -0.9533  1.2530  1.0605
  677TMC3    H210021   2.247   0.566  11.421  0.0636  0.4720  0.8291
  677TMC3    C710022   2.461   0.704  11.485 -0.5949 -1.2698 -0.4055
  677TMC3    C810023   2.173   0.443  11.208 -0.7027  0.0654 -0.0722
  677TMC3    O110024   2.370   0.698  11.565 -0.6726 -0.3315 -0.4503
  677TMC3    O210025   2.133   0.457  11.092 -0.4080 -0.1604 -0.0991
  678MPD2     C10026   3.850   0.060   1.558 -0.1843 -0.5333  0.3339
  678MPD2    C110027   3.841   4.670   1.483  0.3758  0.7683  0.3397
  678MPD2    C210028   3.723   4.617   1.451  0.3488 -0.8045 -0.4704
  678MPD2    C310029   3.605   4.666   1.501 -0.4775 -0.0723 -0.6071
  678MPD2    C410030   3.612   0.047   1.593  0.2756 -0.4056 -0.3210
  678MPD2    C510031   3.735   0.111   1.608 -1.5648  0.2228  0.0971
  678MPD2     H10032   3.723   4.547   1.369  2.6438 -0.5275 -0.7190
  678MPD2    H110033   3.528   0.090   1.646  0.1868  2.7743 -3.0175
  678MPD2    H210034   3.939   0.114   1.586 -0.2768 -1.4215  2.3217
  678MPD2    H310035   3.737   0.192   1.680 -3.0954  1.2386 -0.9984
  678MPD2     N10036   3.475   4.606   1.463 -0.0709  0.1384 -0.2158
  678MPD2    H510037   3.481   4.538   1.388  1.2599  1.5381 -1.3644
  678MPD2    N110038   3.963   4.631   1.418 -1.0949  0.0587  0.2470
  678MPD2    H710039   3.955   4.540   1.373 -2.3729 -1.2071  3.0259
  679TMC3    C110040   4.271   4.397   1.292  0.4519  0.5248  0.5391
  679TMC3    C210041   4.171   4.465   1.362  0.8456 -0.1647 -0.1115
  679TMC3    C310042   4.201   4.594   1.396  0.0505  0.2988  0.5499
  679TMC3    C410043   4.390   4.458   1.263 -0.1641 -0.5322 -0.2858
  679TMC3    C510044   4.411   4.592   1.298 -0.0100 -0.2881 -0.0416
  679TMC3    C610045   4.319   4.664   1.368  0.3241 -0.0546  0.0568
  679TMC3     C10046   4.275   4.259   1.281  0.8600  0.4437  0.3813
  679TMC3     O10047   4.351   4.209   1.200 -0.0224  0.3843  0.2616
  679TMC3     H10048   4.083   4.412   1.396  1.1654  0.1042  1.1505
  679TMC3    H110049   4.466   4.406   1.206 -0.6293 -0.1878 -1.2213
  679TMC3    H210050   4.334   0.045   1.392 -0.6451 -0.1467  1.0571
  679TMC3    C710051   4.497   4.673   1.216 -0.0894 -0.0245 -0.4327
  679TMC3    C810052   4.091   4.685   1.431  0.1202  0.2907  0.0121
  679TMC3    O110053   4.460   0.062   1.189 -0.8181  0.0111  0.4798
  679TMC3    O210054   4.131   0.074   1.463  0.1490  0.6060 -0.5483
  680MPD2     C10055   3.902   2.736  13.234 -0.0258  0.1856 -0.2090
  680MPD2    C110056   3.966   2.809  13.340 -0.3304 -0.0546 -0.1844
  680MPD2    C210057   3.900   2.924  13.388  0.7390  0.0313 -0.4423
  680MPD2    C310058   3.766   2.946  13.367 -0.5428  0.5219  0.1190
  680MPD2    C410059   3.691   2.859  13.286 -0.5952 -0.7114  0.0267
  680MPD2    C510060   3.761   2.768  13.224 -0.6605  0.9203  0.5288
  680MPD2     H10061   3.958   2.989  13.452  0.7720 -1.0132  0.5986
  680MPD2    H110062   3.583   2.858  13.278 -0.8177 -1.4705  2.9107
  680MPD2    H210063   3.946   2.648  13.188 -0.0790 -0.0319  0.1521
  680MPD2    H310064   3.702   2.712  13.152  1.9095 -0.8460 -0.2232
  680MPD2     N10065   3.698   3.045  13.440  0.0815  0.4061 -0.7609
  680MPD2    H510066   3.598   3.055  13.424  0.0921  0.7511 -0.6145
  680MPD2    N110067   4.096   2.795  13.387 -0.3549  0.4360 -0.2624
  680MPD2    H710068   4.120   2.864  13.458  0.0104 -1.7411  1.7260
  681TMC3    C110069   4.309   2.725  13.437  0.1740 -0.4493 -0.0041
  681TMC3    C210070   4.268   2.763  13.564  0.0655 -0.1327 -0.1851
  681TMC3    C310071   4.348   2.851  13.640  0.0544  0.7218  0.7495
  681TMC3    C410072   4.437   2.763  13.399 -0.1626 -0.4984 -0.0944
  681TMC3    C510073   4.513   2.847  13.469  0.0926 -0.2283  0.7656
  681TMC3    C610074   4.466   2.898  13.585 -0.2096 -0.3627 -0.2140
  681TMC3     C10075   4.196   2.710  13.348 -0.3331 -0.3628 -0.3842
  681TMC3     O10076   4.201   2.634  13.249 -0.0625  0.1545  1.0899
  681TMC3     H10077   4.182   2.721  13.616  1.4055  0.5397  2.5420
  681TMC3    H110078   4.456   2.737  13.296 -0.4416  1.8401 -0.7382
  681TMC3    H210079   4.520   2.981  13.627 -0.5819  0.2648 -0.9850
  681TMC3    C710080   4.637   2.886  13.407  0.3586 -0.2639 -0.3601
  681TMC3    C810081   4.248   2.941  13.702  0.0409  0.2451 -0.0544
  681TMC3    O110082   0.010   2.909  13.475  0.3301 -0.5563 -0.9760
  681TMC3    O210083   4.145   2.944  13.637 -0.4818 -0.0613  0.5815
  682MPD2     C10084   1.867   4.701  10.372  0.1788  0.2402  0.5534
  682MPD2    C110085   1.884   4.570  10.412  0.1103 -0.3543  0.4351
  682MPD2    C210086   1.831   4.529  10.535 -0.0291 -0.0893 -0.3160
  682MPD2    C310087   1.756   4.620  10.614 -0.2251 -0.2412  0.3572
  682MPD2    C410088   1.761   0.031  10.584  0.4950  0.0094 -0.6975
  682MPD2    C510089   1.821   0.068  10.470 -0.0401  0.6310 -0.2818
  682MPD2     H10090   1.840   4.427  10.570  0.3657 -0.5040 -1.6185
  682MPD2    H110091   1.720   0.111  10.644  3.7297  0.0038  1.5203
  682MPD2    H210092   1.896   0.020  10.277  0.2320 -0.0459  0.4429
  682MPD2    H310093   1.819   0.172  10.439  1.2127  0.9709  0.7816
  682MPD2     N10094   1.690   4.569  10.728 -0.4004 -0.5111  0.2668
  682MPD2    H510095   1.655   4.474  10.719 -0.1475 -0.6373  0.5730
  682MPD2    N110096   1.939   4.472  10.331 -0.0675 -0.2230 -0.7128
  682MPD2    H710097   1.962   4.390  10.386 -1.8614 -0.5267 -0.4364
  683TMC3    C110098   1.562   4.544  11.165  0.4837  0.1709 -0.3683
  683TMC3    C210099   1.473   4.443  11.142  0.3280  0.2594 -0.3007
  683TMC3    C310100   1.456   4.395  11.017 -0.1378  0.4954  0.1982
  683TMC3    C410101   1.622   4.615  11.069 -0.4486 -0.0262 -0.2410
  683TMC3    C510102   1.596   4.567  10.942  0.4009  0.1856  0.4509
  683TMC3    C610103   1.513   4.459  10.907 -0.3139 -0.0791 -0.4627
  683TMC3     C10104   1.562   4.603  11.297 -0.1543  0.4286  0.1193
  683TMC3     O10105   1.582   4.722  11.305 -0.7329  0.6559  0.7492
  683TMC3     H10106   1.422   4.389  11.221 -0.3260 -1.7509 -2.0780
  683TMC3    H110107   1.673   4.708  11.092 -1.1446  0.2919  0.0279
  683TMC3    H210108   1.492   4.430  10.805 -0.7575  0.5188 -0.5434
  683TMC3    C710109   1.676   4.633  10.843 -0.2684 -0.0820  1.2341
  683TMC3    C810110   1.387   4.271  10.986 -0.0220 -0.3604 -0.5859
  683TMC3    O110111   1.732   0.014  10.870  0.4662  0.3361 -0.1579
  683TMC3    O210112   1.345   4.254  10.875  0.1813  0.0628 -0.3606
  684MPD2     C10113   4.369   3.611  16.203 -0.4373 -0.3794  0.3450
  684MPD2    C110114   4.441   3.697  16.126  0.6197  0.2902 -0.5243
  684MPD2    C210115   4.425   3.836  16.141 -1.0485 -0.3528  0.1361
  684MPD2    C310116   4.357   3.889  16.250 -0.8767  0.1833 -0.7621
  684MPD2    C410117   4.290   3.796  16.327  0.1969 -0.3598  0.0604
  684MPD2    C510118   4.293   3.662  16.300 -0.0463 -0.1394 -0.1227
  684MPD2     H10119   4.493   3.890  16.077  1.1085 -2.1442  0.9279
  684MPD2    H110120   4.227   3.838  16.405  1.9268  1.0682  0.7001
  684MPD2    H210121   4.378   3.503  16.195  2.2715 -0.0441 -1.2671
  684MPD2    H310122   4.226   3.598  16.357  0.8835 -3.4670 -2.7158
  684MPD2     N10123   4.353   4.031  16.270  0.1754  0.1643 -0.4994
  684MPD2    H510124   4.344   4.065  16.365 -1.5480 -0.0552 -0.5738
  684MPD2    N110125   4.535   3.662  16.037  0.1579  0.2406  0.0741
  684MPD2    H710126   4.580   3.744  15.998  0.6218 -0.4397 -0.8119
  685TMC3    C110127   4.665   3.542  15.888  0.4379 -0.3619  0.3692
  685TMC3    C210128   4.587   3.537  15.774  0.3889 -0.2943  0.2901
  685TMC3    C310129   4.625   3.612  15.669 -0.9834 -0.9185  0.3767
  685TMC3    C410130   0.062   3.610  15.889 -0.0839  0.0140  0.2858
  685TMC3    C510131   0.096   3.687  15.780  0.7333  0.3387 -0.3070
  685TMC3    C610132   0.018   3.685  15.667  0.3846  0.4917  0.3529
  685TMC3     C10133   4.577   3.535  16.007 -1.3591 -0.4378  0.0370
  685TMC3     O10134   4.535   3.424  16.036  0.1007  0.3234 -0.1158
  685TMC3     H10135   4.498   3.476  15.770 -1.8893  3.2676 -3.3437
  685TMC3    H110136   0.116   3.600  15.983 -0.9006  2.2981  0.9874
  685TMC3    H210137   0.042   3.741  15.578 -2.2678  0.5275 -0.3404
  685TMC3    C710138   0.216   3.771  15.784  0.3744 -0.6949  0.8201
  685TMC3    C810139   4.505   3.680  15.615 -0.6672  0.6519  0.1723
  685TMC3    O110140   0.245   3.833  15.682  0.0179  0.4538 -0.1064
  685TMC3    O210141   4.508   3.748  15.515 -0.2841 -0.4687 -0.0345
  686MPD2     C10142   1.270   3.719  15.307  0.7568 -0.5959 -0.5129
  686MPD2    C110143   1.159   3.650  15.347  0.5626  0.0355  0.0259
  686MPD2    C210144   1.168   3.512  15.338 -0.2766  0.8425 -0.1596
  686MPD2    C310145   1.283   3.449  15.285 -0.6829  0.3160  0.1248
  686MPD2    C410146   1.392   3.527  15.252  0.0259  0.4097  0.6934
  686MPD2    C510147   1.385   3.663  15.267  0.6991 -0.2066 -0.5635
  686MPD2     H10148   1.079   3.452  15.355 -1.2215  2.1140 -0.5686
  686MPD2    H110149   1.488   3.491  15.217 -0.7431  0.7236 -1.7508
  686MPD2    H210150   1.274   3.827  15.320 -0.6200 -0.8805  2.2896
  686MPD2    H310151   1.470   3.718  15.226 -0.4143  1.9534  0.0097
  686MPD2     N10152   1.295   3.313  15.275  0.0756 -0.0918 -0.0520
  686MPD2    H510153   1.376   3.284  15.222  0.2920 -2.9072  1.8245
  686MPD2    N110154   1.044   3.714  15.396 -0.3721 -0.3192  0.3202
  686MPD2    H710155   1.048   3.815  15.391 -1.9679 -0.1532  2.3082
  687TMC3    C110156   1.137   3.248  15.450  0.3843 -0.7268  0.4221
  687TMC3    C210157   1.001   3.210  15.465  0.0741  0.4616 -0.3978
  687TMC3    C310158   0.940   3.228  15.588 -0.7716 -0.9203  0.7124
  687TMC3    C410159   1.213   3.285  15.556 -0.0193 -0.7330  0.9130
  687TMC3    C510160   1.157   3.304  15.679 -0.5831  0.1616  0.7218
  687TMC3    C610161   1.016   3.281  15.693 -0.4998  0.1925 -0.7408
  687TMC3     C10162   1.203   3.220  15.324  0.5746 -0.3548 -0.4429
  687TMC3     O10163   1.174   3.114  15.265  0.2581  0.3162  0.2266
  687TMC3     H10164   0.946   3.171  15.380 -0.1113 -0.1095 -0.0218
  687TMC3    H110165   1.317   3.314  15.547  0.2443 -1.1448  2.5590
  687TMC3    H210166   0.959   3.328  15.772 -2.4657 -0.3965 -1.8118
  687TMC3    C710167   1.207   3.429  15.740  0.1181 -0.4767 -0.0711
  687TMC3    C810168   0.800   3.251  15.600  0.3999  0.3338  0.4264
  687TMC3    O110169   1.315   3.410  15.797  0.3291  0.6683 -0.3297
  687TMC3    O210170   0.743   3.243  15.709 -0.3410  0.3643 -0.1343
  688MPD2     C10171   0.373   2.678  17.018 -0.2374 -0.3224 -1.0496
  688MPD2    C110172   0.436   2.593  17.103 -0.6533 -0.4064 -0.2791
  688MPD2    C210173   0.570   2.555  17.082 -0.1295 -0.7714 -0.0520
  688MPD2    C310174   0.634   2.600  16.969  0.0618  0.8207 -0.5370
  688MPD2    C410175   0.564   2.679  16.880 -0.6164 -0.3855 -0.0125
  688MPD2    C510176   0.432   2.718  16.910  0.9643 -0.5029 -0.2425
  688MPD2     H10177   0.623   2.500  17.159  0.7074 -2.1119 -1.5824
  688MPD2    H110178   0.601   2.714  16.785 -0.9882  0.7370  0.2581
  688MPD2    H210179   0.282   2.730  17.043 -0.7965 -2.5644  1.5686
  688MPD2    H310180   0.379   2.783  16.841 -1.0692 -1.5837  0.3177
  688MPD2     N10181   0.769   2.568  16.936  0.7166  0.3053 -0.4674
  688MPD2    H510182   0.798   2.585  16.841  1.7714  1.6133  0.0863
  688MPD2    N110183   0.375   2.547  17.219 -0.2319  0.0881  0.5902
  688MPD2    H710184   0.430   2.520  17.300 -0.9415 -2.9947  0.0644
  689TMC3    C110185   0.194   2.508  17.359 -0.0967  0.8726  0.0365
  689TMC3    C210186   0.225   2.600  17.452 -0.2938 -0.3054 -0.3288
  689TMC3    C310187   0.175   2.573  17.575  0.0048  0.0706  1.3134
  689TMC3    C410188   0.122   2.397  17.386 -0.7757 -0.7611 -0.1879
  689TMC3    C510189   0.075   2.366  17.516 -0.0974 -0.6458 -0.4991
  689TMC3    C610190   0.093   2.465  17.608  0.1983 -0.4393 -0.5281
  689TMC3     C10191   0.235   2.532  17.227 -0.1513  0.0876  0.2302
  689TMC3     O10192   0.154   2.516  17.137  0.3190 -0.2598  0.1472
  689TMC3     H10193   0.264   2.695  17.416  0.1266  0.1521  1.3570
  689TMC3    H110194   0.112   2.323  17.306  1.5431 -1.7534  0.4449
  689TMC3    H210195   0.069   2.450   0.017 -1.1674  1.0004 -0.6483
  689TMC3    C710196   0.060   2.224  17.553  0.4326 -0.0608  0.2718
  689TMC3    C810197   0.207   2.664  17.692  1.2417 -0.0913  0.5538
  689TMC3    O110198   0.113   2.188  17.659  0.2475 -0.6833  0.2225
  689TMC3    O210199   0.175   2.623   0.104  0.3036  0.3448 -0.2231
  690MPD2     C10200   2.630   0.086  15.963  0.4838 -0.2233  0.0425
  690MPD2    C110201   2.635   0.062  15.826  0.2508  0.5281  0.0060
  690MPD2    C210202   2.752   0.106  15.761 -0.5162 -0.0093 -0.4117
  690MPD2    C310203   2.855   0.168  15.827 -0.8611  0.3470  0.0704
  690MPD2    C410204   2.846   0.189  15.962  0.5289  0.0082 -0.9235
  690MPD2    C510205   2.737   0.140  16.026  0.5784  0.0990 -0.1761
  690MPD2     H10206   2.768   0.091  15.654 -1.2769  1.0187 -0.6704
  690MPD2    H110207   2.929   0.237  16.013 -0.0123  1.0234 -1.0029
  690MPD2    H210208   2.556   0.050  16.034 -0.3074 -0.9406 -1.1441
  690MPD2    H310209   2.737   0.153  16.134 -0.3858 -2.4892  0.1173
  690MPD2     N10210   2.962   0.212  15.746  0.0414  0.1181  0.8302
  690MPD2    H510211   2.970   0.189  15.647 -1.0956 -0.5206  0.8865
  690MPD2    N110212   2.540   4.722  15.749 -0.2738 -0.0255  0.5969
  690MPD2    H710213   2.567   4.705  15.652 -3.2280  1.2709 -0.4600
  691TMC3    C110214   2.366   4.586  15.712 -0.3002 -0.1130  0.7462
  691TMC3    C210215   2.231   4.576  15.714  0.1314  0.3184  0.0709
  691TMC3    C310216   2.178   4.462  15.662  0.2075  0.6003 -0.2036
  691TMC3    C410217   2.447   4.482  15.678  0.1708 -0.0541 -0.2011
  691TMC3    C510218   2.388   4.367  15.629  0.4620  0.2346 -0.1987
  691TMC3    C610219   2.254   4.353  15.627  0.4682  0.1489 -0.0247
  691TMC3     C10220   2.427   4.673  15.802 -0.0964  0.4415 -0.5066
  691TMC3     O10221   2.362   4.691  15.909 -0.4655  0.4971  0.1970
  691TMC3     H10222   2.171   4.657  15.755 -1.2187 -0.3815 -0.5295
  691TMC3    H110223   2.555   4.485  15.677  0.3409 -4.6538  0.4867
  691TMC3    H210224   2.199   4.268  15.588 -1.2824  1.3482 -0.1531
  691TMC3    C710225   2.475   4.251  15.620 -0.2882 -0.1015 -0.0131
  691TMC3    C810226   2.043   4.450  15.641  0.7675 -0.7420  0.3822
  691TMC3    O110227   2.597   4.263  15.609 -0.5005 -0.2344 -0.0433
  691TMC3    O210228   2.013   4.380  15.543  0.6765  0.2846  0.2135
  692TMC3    C110229   4.425   0.672  15.657  0.0867  0.1961  0.2838
  692TMC3    C210230   4.527   0.695  15.749  0.1183  0.2919  0.0541
  692TMC3    C310231   4.577   0.589  15.819  0.6334 -0.4777  0.4314
  692TMC3    C410232   4.371   0.554  15.626 -0.3631  0.0717  0.3058
  692TMC3    C510233   4.426   0.450  15.693 -0.0768 -0.0374  1.2017
  692TMC3    C610234   4.510   0.469  15.804  0.1967 -0.1254  0.4278
  692TMC3     C10235   4.336   0.782  15.620 -1.0939 -0.1875  0.1676
  692TMC3     O10236   4.237   0.756  15.553  0.3654  0.1870  0.2257
  692TMC3     H10237   4.602   0.767  15.718 -1.1055  0.4701 -2.4668
  692TMC3    H110238   4.310   0.538  15.538 -0.4275 -2.1059  0.7406
  692TMC3    H210239   4.553   0.383  15.855 -0.6522  1.0713  3.1928
  692TMC3    C710240   4.365   0.321  15.663 -0.4707  1.5458 -0.4798
  692TMC3    C810241   4.595   0.631  15.951 -0.5994  0.1581  0.2925
  692TMC3    O110242   4.327   0.296  15.549  0.6388 -0.1021  0.1051
  692TMC3    O210243   4.622   0.547  16.037  0.2541 -0.5265 -0.1857
  693MPD2     C10244   4.004   4.324  10.696  0.5666  0.7216 -0.2988
  693MPD2    C110245   3.956   4.222  10.614  0.2666  0.5115 -0.8696
  693MPD2    C210246   4.042   4.116  10.586 -0.3684 -0.1287  0.1262
  693MPD2    C310247   4.155   4.108  10.659  0.3467  0.4934  0.3892
  693MPD2    C410248   4.194   4.199  10.757  0.0719 -0.2314  0.1840
  693MPD2    C510249   4.128   4.318  10.761  0.0551  0.3289  1.0243
  693MPD2     H10250   4.011   4.028  10.530 -0.1451  0.0578 -0.2870
  693MPD2    H110251   4.283   4.185  10.817 -0.4294 -1.1181  0.7087
  693MPD2    H210252   3.937   4.405  10.724 -0.7160 -1.2541  2.3766
  693MPD2    H310253   4.167   4.396  10.826  0.4589 -0.7716  2.1035
  693MPD2     N10254   4.237   4.000  10.635 -0.6071  0.1307 -0.3362
  693MPD2    H510255   4.299   3.969  10.710  0.3512  0.7600 -0.8612
  693MPD2    N110256   3.821   4.221  10.580  0.3425 -0.3969 -0.1939
  693MPD2    H710257   3.759   4.291  10.621  0.7029  0.3780 -0.9672
  694TMC3    C110258   3.618   4.087  10.545 -0.4087 -0.0628 -0.1233
  694TMC3    C210259   3.574   3.978  10.472  0.6802  0.1226 -0.2002
  694TMC3    C310260   3.512   3.882  10.554  0.0971  0.5703  0.4437
  694TMC3    C410261   3.596   4.112  10.674 -0.1756  0.1764  0.3803
  694TMC3    C510262   3.547   4.008  10.745 -0.4835 -0.0044  0.4330
  694TMC3    C610263   3.503   3.894  10.689  0.5960 -0.6633 -0.1875
  694TMC3     C10264   3.753   4.126  10.502  0.3175 -0.2707 -0.4604
  694TMC3     O10265   3.807   4.036  10.436 -0.1151 -0.1123  0.1128
  694TMC3     H10266   3.605   3.947  10.373  0.0143 -0.0522 -0.3587
  694TMC3    H110267   3.616   4.212  10.712 -0.7119  0.4678 -0.1102
  694TMC3    H210268   3.452   3.817  10.746 -0.8683  1.6244  1.5922
  694TMC3    C710269   3.538   4.033  10.881 -0.0986 -0.5274 -0.6638
  694TMC3    C810270   3.474   3.747  10.503  0.1172  0.1544 -0.3220
  694TMC3    O110271   3.534   4.148  10.921  0.3396  0.9439 -0.3481
  694TMC3    O210272   3.444   3.662  10.588 -0.1332 -0.4273  0.0333
  695MPD2     C10273   0.094   0.495  13.618 -0.3752  0.1848  0.1512
  695MPD2    C110274   0.007   0.496  13.719  0.5673 -0.4910 -0.3802
  695MPD2    C210275   4.593   0.506  13.685 -0.1081  0.2941 -0.2224
  695MPD2    C310276   4.554   0.530  13.556 -0.0581 -0.0639 -0.1445
  695MPD2    C410277   4.647   0.520  13.459 -0.5437 -0.0119 -0.3041
  695MPD2    C510278   0.055   0.514  13.492  0.5482 -0.5808 -0.3194
  695MPD2     H10279   4.529   0.523  13.771 -1.6135  0.2365 -1.3383
  695MPD2    H110280   4.618   0.544  13.357 -0.5560  0.3785 -0.2108
  695MPD2    H210281   0.198   0.496  13.648 -0.2701  0.3309 -0.2273
  695MPD2    H310282   0.131   0.526  13.416 -0.3854  0.8326 -1.0381
  695MPD2     N10283   4.418   0.573  13.541  0.3158  0.2785 -0.4591
  695MPD2    H510284   4.363   0.597  13.623 -0.1690  0.6212 -0.8876
  695MPD2    N110285   0.035   0.492  13.855  1.1703 -0.3916 -0.6075
  695MPD2    H710286   4.680   0.479  13.919 -1.2164  2.0922 -3.0899
  696TMC3    C110287   4.243   0.677  13.423  0.2788 -0.7801 -1.0072
  696TMC3    C210288   4.178   0.693  13.541 -0.0113  0.4795 -0.3757
  696TMC3    C310289   4.088   0.791  13.546  0.3411 -0.0906  1.2709
  696TMC3    C410290   4.244   0.777  13.331  0.3902 -0.5622  0.2767
  696TMC3    C510291   4.170   0.885  13.354 -0.3203 -0.6432  0.0569
  696TMC3    C610292   4.083   0.891  13.453  0.8044  0.1611  0.5080
  696TMC3     C10293   4.360   0.593  13.420  0.0847 -0.0762  0.2982
  696TMC3     O10294   4.393   0.562  13.307 -0.0484  0.6364  0.0205
  696TMC3     H10295   4.175   0.610  13.611  0.5791  0.1279 -0.7607
  696TMC3    H110296   4.309   0.773  13.244 -0.1039  1.4338 -0.1729
  696TMC3    H210297   4.000   0.959  13.470 -0.4873 -1.2638 -0.0487
  696TMC3    C710298   4.236   1.009  13.310  1.0468  0.0956 -0.0575
  696TMC3    C810299   4.059   0.838  13.677 -1.1764  0.3708  0.3545
  696TMC3    O110300   4.330   1.007  13.238  0.6425 -0.6752 -0.2010
  696TMC3    O210301   3.974   0.778  13.739 -1.1691  0.4124 -0.2999
  697MPD2     C10302   3.676   2.587  15.581  1.0255 -0.0013  0.2912
  697MPD2    C110303   3.736   2.557  15.460  0.3751 -0.4124  0.3048
  697MPD2    C210304   3.806   2.659  15.397 -0.2388 -0.5691  0.2564
  697MPD2    C310305   3.811   2.783  15.450 -0.2494 -0.1845 -0.2826
  697MPD2    C410306   3.748   2.816  15.568  0.4314 -0.1256 -0.1521
  697MPD2    C510307   3.682   2.712  15.630  0.1221 -0.8347 -0.5010
  697MPD2     H10308   3.846   2.648  15.296 -0.9134  3.3900 -0.4595
  697MPD2    H110309   3.764   2.911  15.616 -1.1652  0.7434 -1.3366
  697MPD2    H210310   3.628   2.511  15.641  0.1081 -0.7167 -1.3488
  697MPD2    H310311   3.644   2.729  15.730  1.0240  3.2914 -0.8765
  697MPD2     N10312   3.885   2.884  15.371  0.0587 -0.0605 -0.1370
  697MPD2    H510313   3.938   2.857  15.289  2.0706  2.8396  0.2199
  697MPD2    N110314   3.734   2.428  15.397 -0.0967 -0.7417 -0.3857
  697MPD2    H710315   3.752   2.420  15.297  1.8260  1.2610 -0.2030
  698TMC3    C110316   3.961   3.099  15.297 -0.3523 -0.0298 -0.2136
  698TMC3    C210317   3.950   3.233  15.315  0.1474 -0.5000  0.6195
  698TMC3    C310318   4.034   3.311  15.241 -0.8763 -0.1591 -0.5215
  698TMC3    C410319   4.056   3.032  15.230 -0.7194  0.0877 -0.0189
  698TMC3    C510320   4.147   3.112  15.166 -0.0395  0.4706 -0.6068
  698TMC3    C610321   4.138   3.247  15.169  0.2701  0.3500 -0.0048
  698TMC3     C10322   3.876   3.019  15.386  0.0349 -0.4272  0.6507
  698TMC3     O10323   3.817   3.083  15.471  0.0606 -0.4850 -0.2877
  698TMC3     H10324   3.873   3.279  15.376  0.4336 -0.9993  1.3555
  698TMC3    H110325   4.072   2.926  15.216 -1.0191  0.0558 -0.1094
  698TMC3    H210326   4.210   3.305  15.111 -0.7683 -0.0767 -1.7063
  698TMC3    C710327   4.192   3.073  15.035  0.2852  1.0481 -0.5046
  698TMC3    C810328   3.940   3.350  15.129 -0.3406  0.9017  0.0355
  698TMC3    O110329   4.099   3.059  14.948  0.3352  0.1101 -0.1601
  698TMC3    O210330   3.826   3.302  15.137 -0.1650  0.2791 -0.1000
  699TMC3    C110331   4.195   1.257  12.831  0.1402  0.3357  0.3119
  699TMC3    C210332   4.171   1.123  12.846 -0.1571 -0.0373 -0.4249
  699TMC3    C310333   4.115   1.087  12.965  0.3848  0.2869  0.0359
  699TMC3    C410334   4.159   1.346  12.922  0.4546  0.6033  0.3238
  699TMC3    C510335   4.092   1.306  13.036  0.0330  0.2494 -0.3977
  699TMC3    C610336   4.061   1.173  13.053  0.3216  0.4582  0.9658
  699TMC3     C10337   4.238   1.295  12.697 -0.0540  0.4329  0.3535
  699TMC3     O10338   4.214   1.411  12.672  0.0688 -0.1932 -0.1551
  699TMC3     H10339   4.203   1.050  12.773 -2.2807 -0.4756 -0.9302
  699TMC3    H110340   4.152   1.449  12.891 -0.5935  1.1430  2.3257
  699TMC3    H210341   4.013   1.135  13.142  3.3961 -0.0969  2.4001
  699TMC3    C710342   4.090   1.393  13.150 -0.3305  0.0491  0.1721
  699TMC3    C810343   4.095   0.950  12.999  0.3965 -0.1042 -0.1374
  699TMC3    O110344   4.001   1.374  13.235  0.1859  0.6060 -0.4261
  699TMC3    O210345   4.006   0.923  13.078 -0.8876 -0.1895  0.1513
  700TMC3    C110346   3.001   2.941  17.306 -0.7610 -0.0851 -0.0190
  700TMC3    C210347   2.969   2.806  17.318  0.4815  0.3035 -1.1800
  700TMC3    C310348   3.036   2.736  17.413 -0.5876  0.5515 -0.7393
  700TMC3    C410349   3.095   3.008  17.389 -0.0807  0.2844 -0.3182
  700TMC3    C510350   3.159   2.925  17.482  0.0376 -0.0185 -0.3390
  700TMC3    C610351   3.131   2.789  17.496 -0.5856  0.5298 -0.0272
  700TMC3     C10352   2.932   3.011  17.197 -0.1269 -0.1163  0.5223
  700TMC3     O10353   2.831   2.964  17.152  0.2667  0.7582  0.0030
  700TMC3     H10354   2.904   2.757  17.246 -0.4219  0.2827 -0.3595
  700TMC3    H110355   3.110   3.114  17.379  2.0570  0.0229  0.0669
  700TMC3    H210356   3.165   2.734  17.583  0.8887  2.0948  0.4017
  700TMC3    C710357   3.268   2.986  17.559 -0.1814  1.1730 -0.8011
  700TMC3    C810358   2.986   2.596  17.432  0.1318 -0.0122 -0.0905
  700TMC3    O110359   3.260   3.107  17.582  0.0219 -0.9910 -0.2523
  700TMC3    O210360   3.070   2.511  17.463  0.6878 -0.0100 -0.0283
  701TMC3    C110361   2.909   1.782  15.008 -0.5237  0.4781 -0.2273
  701TMC3    C210362   2.939   1.723  14.889 -0.0368  0.0413 -0.6150
  701TMC3    C310363   3.066   1.751  14.847 -0.6623 -0.1827  0.1725
  701TMC3    C410364   2.984   1.871  15.072  0.3465  0.2885 -0.0163
  701TMC3    C510365   3.109   1.906  15.022 -0.6975 -0.4812  0.0007
  701TMC3    C610366   3.153   1.851  14.902  0.7354 -0.5972  0.1099
  701TMC3     C10367   2.780   1.756  15.065  0.7620  0.4794 -0.2605
  701TMC3     O10368   2.739   1.645  15.048  0.1099 -0.7723  0.0846
  701TMC3     H10369   2.873   1.655  14.837 -1.8839  0.0219  1.7545
  701TMC3    H110370   2.949   1.917  15.164  0.7844  0.3280  0.1347
  701TMC3    H210371   3.250   1.869  14.857  1.4419 -1.7070  1.1908
  701TMC3    C710372   3.196   2.008  15.088  1.0817 -0.9363 -0.7262
  701TMC3    C810373   3.107   1.711  14.711 -0.3376 -0.1726  0.0606
  701TMC3    O110374   3.284   2.072  15.030  0.1638  0.1570 -0.8993
  701TMC3    O210375   3.194   1.780  14.659  0.0441  0.2293  0.1735
  702MPD2     C10376   2.826   4.509  10.278  0.6563  0.2129  0.1782
  702MPD2    C110377   2.735   4.590  10.344  0.3664  0.1285 -0.0023
  702MPD2    C210378   2.754   4.723  10.348  0.4120 -0.0945  0.3300
  702MPD2    C310379   2.868   0.056  10.296 -0.2613  0.1575  0.0394
  702MPD2    C410380   2.953   4.700  10.229  0.1518 -0.2137 -0.1491
  702MPD2    C510381   2.922   4.571  10.206 -0.2514  0.8224  0.1387
  702MPD2     H10382   2.685   0.059  10.406 -0.9313  0.0845 -1.4527
  702MPD2    H110383   3.047   0.007  10.183  0.0057  1.1290  0.4413
  702MPD2    H210384   2.804   4.403  10.267  0.0060  0.5940 -2.2380
  702MPD2    H310385   2.980   4.508  10.140 -0.2638 -0.1389  1.0427
  702MPD2     N10386   2.897   0.183  10.347  0.2506 -0.6527  0.1656
  702MPD2    H510387   2.828   0.230  10.405  0.3958 -0.7603  0.4265
  702MPD2    N110388   2.639   4.546  10.438 -0.2437 -0.1067  0.3921
  702MPD2    H710389   2.587   4.611  10.496 -1.1154 -0.2003 -0.2859
  703TMC3    C110390   3.035   0.365  10.411  0.1879  0.1579  0.0032
  703TMC3    C210391   2.932   0.392  10.502  0.0770  0.0579 -0.2420
  703TMC3    C310392   2.930   0.525  10.534 -0.1340  0.0826  0.6312
  703TMC3    C410393   3.139   0.449  10.377  0.2917  0.3361 -0.2294
  703TMC3    C510394   3.135   0.573  10.429  0.3419 -0.1048  0.2476
  703TMC3    C610395   3.029   0.619  10.497  0.3554 -0.6446  0.0405
  703TMC3     C10396   3.017   0.250  10.330  0.5609  0.0542 -0.6415
  703TMC3     O10397   3.108   0.222  10.249  0.2565  0.5890  0.2275
  703TMC3     H10398   2.846   0.331  10.523  0.5139 -0.6323 -0.4497
  703TMC3    H110399   3.219   0.420  10.310 -2.4413 -0.5475 -3.1009
  703TMC3    H210400   2.999   0.721  10.519 -0.4059 -0.8581 -0.0028
  703TMC3    C710401   3.235   0.673  10.389 -0.3516  0.1773 -0.2046
  703TMC3    C810402   2.816   0.582  10.609  0.7452  0.5224 -0.0824
  703TMC3    O110403   3.202   0.786  10.416  0.2427  0.0568  0.3666
  703TMC3    O210404   2.841   0.678  10.685 -0.2702 -0.1435 -0.3953
  704TMC3    C110405   0.050   2.576  12.191  0.0021 -0.2658 -0.7517
  704TMC3    C210406   0.166   2.649  12.191  0.4838 -0.0634  1.3256
  704TMC3    C310407   0.250   2.632  12.303  0.3649 -0.2644  0.4413
  704TMC3    C410408   0.020   2.493  12.290 -0.4848  0.3065  0.5481
  704TMC3    C510409   0.098   2.487  12.404  0.2645  0.1821 -0.8906
  704TMC3    C610410   0.215   2.559  12.413  0.2021  0.3403 -0.1905
  704TMC3     C10411   4.664   2.632  12.100  0.3720 -0.0319  0.2180
  704TMC3     O10412   4.552   2.591  12.122 -0.1029  0.4623  0.4213
  704TMC3     H10413   0.184   2.740  12.135  0.5545  0.4305  2.1519
  704TMC3    H110414   4.658   2.429  12.272 -0.0275  0.0646 -0.7899
  704TMC3    H210415   0.285   2.536  12.493  2.1159 -0.4310 -2.0659
  704TMC3    C710416   0.113   2.360  12.469  0.2632  0.4919  0.4820
  704TMC3    C810417   0.388   2.617  12.268  0.2703  0.1338  0.1839
  704TMC3    O110418   0.213   2.337  12.531 -0.3421  0.3590 -0.3299
  704TMC3    O210419   0.416   2.627  12.149  0.4288 -0.3123  0.1695
  705MPD2     C10420   0.088   0.266  16.422  1.4863  0.1273 -0.1331
  705MPD2    C110421   0.021   0.366  16.347  0.3652 -0.3779  0.1434
  705MPD2    C210422   4.609   0.380  16.359 -0.4687  0.5519  0.0046
  705MPD2    C310423   4.533   0.299  16.439  0.3561  0.5743 -0.0016
  705MPD2    C410424   4.597   0.186  16.495  0.6823  0.1075  0.0609
  705MPD2    C510425   0.010   0.177  16.490  1.4160  0.3195  0.0441
  705MPD2     H10426   4.565   0.473  16.326 -1.4369 -0.3883 -1.3430
  705MPD2    H110427   4.536   0.114  16.548  1.3746 -0.9180 -0.5358
  705MPD2    H210428   0.194   0.247  16.410  1.1853 -1.0997 -0.9074
  705MPD2    H310429   0.051   0.088  16.538  2.3234  1.3308  1.1321
  705MPD2     N10430   4.390   0.311  16.445 -0.3199 -0.6998 -0.2677
  705MPD2    H510431   4.337   0.242  16.497  0.0857  0.1954  1.3222
  705MPD2    N110432   0.081   0.454  16.256 -0.3546  0.6166  0.0040
  705MPD2    H710433   0.021   0.522  16.209  0.1651  0.2734 -1.1279
  706TMC3    C110434   0.396   0.618  15.949 -0.1132  0.4638  0.4513
  706TMC3    C210435   0.338   0.739  15.933 -0.2478 -0.0284 -0.0399
  706TMC3    C310436   0.234   0.766  16.021  0.6414  0.2134 -0.0256
  706TMC3    C410437   0.352   0.525  16.044 -0.4300  0.2060 -0.1888
  706TMC3    C510438   0.241   0.549  16.118  0.8064 -0.0707  0.8241
  706TMC3    C610439   0.180   0.674  16.111  0.9368 -0.4934  0.1617
  706TMC3     C10440   0.515   0.583  15.874  0.3460  0.6176 -0.2746
  706TMC3     O10441   0.579   0.492  15.920 -0.2383 -0.1246  0.4838
  706TMC3     H10442   0.371   0.816  15.864  3.9249 -0.6277  1.3104
  706TMC3    H110443   0.403   0.430  16.040  1.0991  1.0657 -1.1200
  706TMC3    H210444   0.112   0.702  16.190 -0.6732 -1.1910 -0.9734
  706TMC3    C710445   0.207   0.455  16.217 -0.3988  0.0419 -0.9270
  706TMC3    C810446   0.183   0.902  16.019  0.0636  0.2057 -0.0509
  706TMC3    O110447   0.295   0.377  16.252 -0.3291  0.8762 -0.1107
  706TMC3    O210448   0.191   0.962  15.911 -0.1998  0.0958 -0.0638
  707TMC3    C110449   1.294   0.282   1.164 -0.1519  0.3160 -0.0709
  707TMC3    C210450   1.182   0.209   1.157  0.0106  0.3694 -0.7866
  707TMC3    C310451   1.078   0.253   1.077  0.1237  0.1034 -0.0496
  707TMC3    C410452   1.309   0.407   1.119  0.5968 -0.6193  0.0421
  707TMC3    C510453   1.200   0.452   1.040  0.0119 -0.3643 -0.7826
  707TMC3    C610454   1.086   0.378   1.018 -0.6802  0.2428  0.5712
  707TMC3     C10455   1.402   0.212   1.237  0.2842 -0.0917  0.1155
  707TMC3     O10456   1.395   0.090   1.241 -0.2233  0.2822 -0.0202
  707TMC3     H10457   1.167   0.132   1.231 -0.3900  0.3196 -0.9178
  707TMC3    H110458   1.408   0.451   1.122 -0.4082  1.4912  2.3434
  707TMC3    H210459   1.006   0.401   0.949 -2.9599 -2.8345  2.1868
  707TMC3    C710460   1.223   0.574   0.964 -0.2719 -0.5448 -0.1279
  707TMC3    C810461   1.002   0.145   1.025 -0.6599 -0.4687 -0.6419
  707TMC3    O110462   1.336   0.615   0.955  0.0063 -0.4214 -0.0162
  707TMC3    O210463   0.887   0.165   0.989 -0.2453  0.4835 -0.5022
  708MPD2     C10464   3.017   4.008  13.790  0.3871 -0.0048 -0.6223
  708MPD2    C110465   2.889   3.987  13.841  0.4864  0.3846  0.1694
  708MPD2    C210466   2.876   3.890  13.951 -0.1444 -1.0522 -0.3635
  708MPD2    C310467   2.984   3.817  13.995  0.2715 -0.9955 -0.0627
  708MPD2    C410468   3.110   3.846  13.945 -0.4223 -0.1876 -0.2213
  708MPD2    C510469   3.124   3.940  13.849  0.2886  0.1120 -0.2140
  708MPD2     H10470   2.780   3.873  13.998  0.6542  1.1338  2.0645
  708MPD2    H110471   3.207   3.814  13.982  0.2366 -0.6279 -2.3506
  708MPD2    H210472   3.027   4.099  13.731 -0.3061 -0.8361 -2.0293
  708MPD2    H310473   3.222   3.961  13.808 -0.2558 -0.4707 -1.8128
  708MPD2     N10474   2.976   3.717  14.091  0.5045 -0.4995 -0.2681
  708MPD2    H510475   3.059   3.660  14.105  0.0866 -1.8872 -3.4950
  708MPD2    N110476   2.775   4.057  13.798  0.5948 -0.3629  0.6163
  708MPD2    H710477   2.783   4.107  13.710 -0.6144 -1.3283 -0.0370
  709TMC3    C110478   2.558   4.156  13.820 -0.2652  0.7082 -0.5439
  709TMC3    C210479   2.522   4.100  13.698  0.2566 -0.5813  0.2286
  709TMC3    C310480   2.384   4.103  13.670 -0.9141  0.1816  0.6920
  709TMC3    C410481   2.461   4.188  13.912 -0.5830 -0.0939  0.1840
  709TMC3    C510482   2.328   4.166  13.880 -0.4896  0.0505  0.5050
  709TMC3    C610483   2.286   4.125  13.761 -0.1812 -0.0718  0.1589
  709TMC3     C10484   2.671   4.087  13.882  0.1324 -0.3544 -0.2325
  709TMC3     O10485   2.660   4.081  14.004 -0.4721  0.0103  0.1355
  709TMC3     H10486   2.599   4.064  13.631  0.1436 -1.0002  0.3249
  709TMC3    H110487   2.484   4.231  14.009  0.3711  2.6968 -1.2761
  709TMC3    H210488   2.183   4.110  13.729  1.7148 -2.8576 -4.5984
  709TMC3    C710489   2.269   4.091  13.989  0.0248 -0.4224  0.0184
  709TMC3    C810490   2.353   4.022  13.561  0.0764  0.8219 -0.3016
  709TMC3    O110491   2.147   4.084  13.991 -0.1304 -0.6780  0.2058
  709TMC3    O210492   2.259   3.937  13.576 -0.4805  0.3216 -0.3301
  710TMC3    C110493   4.431   0.426   0.501  0.4807  0.2406  0.4845
  710TMC3    C210494   4.474   0.374   0.380 -0.4533  0.1815  0.8032
  710TMC3    C310495   4.518   0.243   0.381  0.0679 -0.9703  0.1041
  710TMC3    C410496   4.434   0.360   0.617  0.3239 -0.0766 -0.0239
  710TMC3    C510497   4.496   0.234   0.614 -0.2066  0.4165  0.6773
  710TMC3    C610498   4.545   0.177   0.500  0.3924 -0.9027 -0.1654
  710TMC3     C10499   4.417   0.571   0.504 -0.3257 -0.2671  0.3276
  710TMC3     O10500   4.468   0.629   0.410  0.2529 -0.0459 -0.2577
  710TMC3     H10501   4.490   0.441   0.296 -0.3057 -1.7251 -0.7008
  710TMC3    H110502   4.400   0.405   0.709 -1.5263 -0.2884 -0.6022
  710TMC3    H210503   4.593   0.080   0.491  1.0535 -0.6658  0.8697
  710TMC3    C710504   4.520   0.166   0.738  0.6455  0.3380 -0.0801
  710TMC3    C810505   4.542   0.190   0.251 -0.1919  0.4282  0.2143
  710TMC3    O110506   4.457   0.203   0.840 -0.3590 -0.8446  0.3302
  710TMC3    O210507   4.616   0.096   0.235  0.5443  0.2213 -0.7132
  711TMC3    C110508   3.861   1.469  14.896 -1.0824  0.1119 -0.2121
  711TMC3    C210509   3.891   1.553  14.996 -0.8034 -0.7510 -0.7621
  711TMC3    C310510   4.008   1.529  15.051 -0.0152 -0.4216  0.0168
  711TMC3    C410511   3.928   1.354  14.862  0.0347 -0.0476 -0.3077
  711TMC3    C510512   4.037   1.320  14.932 -0.2912  0.0251 -0.0306
  711TMC3    C610513   4.073   1.412  15.024 -0.0133 -0.7139 -0.1079
  711TMC3     C10514   3.728   1.481  14.836  0.6407 -0.0148  0.2264
  711TMC3     O10515   3.694   1.401  14.749  0.0885  0.2924 -0.2717
  711TMC3     H10516   3.835   1.643  15.022  0.0782  0.1286 -1.9413
  711TMC3    H110517   3.885   1.287  14.788  0.0638 -1.4025  0.9043
  711TMC3    H210518   4.152   1.377  15.090 -0.7614 -2.2879 -0.0665
  711TMC3    C710519   4.087   1.184  14.944 -0.0582 -0.2101  0.0628
  711TMC3    C810520   4.010   1.586  15.186  0.1791  0.2662  0.1936
  711TMC3    O110521   4.168   1.157  15.031 -0.1097  0.0603  0.0357
  711TMC3    O210522   3.906   1.577  15.251  0.1200  0.6733 -0.3213
  712MPD2     C10523   0.739   2.451  12.887  0.0979  0.1488 -0.1752
  712MPD2    C110524   0.665   2.505  12.981 -0.2768  0.2214  0.7326
  712MPD2    C210525   0.709   2.615  13.056 -0.1546  0.0655  0.1480
  712MPD2    C310526   0.817   2.689  13.002 -0.6754  0.2882 -0.6591
  712MPD2    C410527   0.895   2.642  12.899 -0.3358  0.6372  0.8847
  712MPD2    C510528   0.858   2.522  12.844  0.1178 -0.1933  0.3155
  712MPD2     H10529   0.653   2.645  13.143 -0.7700 -1.8466  0.4067
  712MPD2    H110530   0.973   2.704  12.856 -0.9167  1.0419  0.4066
  712MPD2    H210531   0.722   2.357  12.838 -0.1175  0.8453 -1.4312
  712MPD2    H310532   0.918   2.495  12.758 -1.0207 -0.4873 -0.3822
  712MPD2     N10533   0.842   2.813  13.058  0.3164  0.2535  0.3501
  712MPD2    H510534   0.901   2.868  12.996 -0.4147  0.0890 -0.4709
  712MPD2    N110535   0.546   2.430  13.018  0.0011 -0.3377 -0.9397
  712MPD2    H710536   0.524   2.356  12.952  1.4205 -0.1579 -1.6123
  713TMC3    C110537   0.707   3.002  13.123  0.4046 -0.4218  0.2013
  713TMC3    C210538   0.736   3.065  13.004 -0.4330 -0.2134 -0.7549
  713TMC3    C310539   0.650   3.160  12.959 -0.1577 -0.2541  0.0866
  713TMC3    C410540   0.604   3.046  13.204  0.0992  0.4595 -0.4405
  713TMC3    C510541   0.524   3.152  13.153  0.6343 -0.0921 -0.1860
  713TMC3    C610542   0.549   3.213  13.031 -0.0513  1.0160  0.2706
  713TMC3     C10543   0.769   2.878  13.163 -0.6725 -0.4187 -0.0920
  713TMC3     O10544   0.730   2.829  13.267 -0.3452 -0.3379 -0.4411
  713TMC3     H10545   0.809   3.022  12.935 -0.9056  0.8017 -1.8752
  713TMC3    H110546   0.573   2.998  13.296  0.0390  2.4202  0.5559
  713TMC3    H210547   0.500   3.304  13.000  1.0469  0.7901 -2.0930
  713TMC3    C710548   0.401   3.177  13.227 -1.2089 -0.0050  0.0098
  713TMC3    C810549   0.682   3.232  12.840 -0.3540 -0.6724 -0.5627
  713TMC3    O110550   0.401   3.157  13.346 -0.5378  0.0001 -0.3457
  713TMC3    O210551   0.586   3.278  12.780 -0.4240 -0.4090  0.2872
  714MPD2     C10552   2.817   0.731   1.669  0.3015 -0.3093  0.2185
  714MPD2    C110553   2.848   0.678   1.548 -0.8796  0.3281 -0.6642
  714MPD2    C210554   2.776   0.713   1.432  0.9770 -0.1921 -0.2796
  714MPD2    C310555   2.665   0.796   1.439  0.3965  0.3209 -0.0715
  714MPD2    C410556   2.643   0.851   1.560 -0.3716 -0.0735 -0.0382
  714MPD2    C510557   2.715   0.830   1.674 -0.3440  0.7463  0.2195
  714MPD2     H10558   2.804   0.678   1.333  2.6016 -0.1687  0.1800
  714MPD2    H110559   2.567   0.926   1.581 -0.6736  0.2158 -2.1434
  714MPD2    H210560   2.875   0.701   1.756 -0.4726 -0.0614  0.8151
  714MPD2    H310561   2.689   0.876   1.769  0.1142  1.1481  0.1490
  714MPD2     N10562   2.578   0.811   1.327 -0.2005 -0.6715  0.5054
  714MPD2    H510563   2.593   0.757   1.243  0.7235  1.4464 -0.6776
  714MPD2    N110564   2.961   0.590   1.547 -0.2446 -0.1247  0.3284
  714MPD2    H710565   3.010   0.584   1.636  2.1883  1.3834 -0.9081
  715TMC3    C110566   3.132   0.454   1.463  0.2365  0.3107 -0.0632
  715TMC3    C210567   3.152   0.351   1.381  0.4225 -0.3726  0.2211
  715TMC3    C310568   3.270   0.287   1.392  0.7496  0.1758 -0.3771
  715TMC3    C410569   3.222   0.516   1.547 -0.1028  0.2481 -0.4917
  715TMC3    C510570   3.337   0.437   1.562 -0.3432 -0.4516  0.3892
  715TMC3    C610571   3.357   0.324   1.486 -0.0380 -0.9775  0.8684
  715TMC3     C10572   3.001   0.511   1.442 -0.6470 -0.5153 -0.1302
  715TMC3     O10573   2.955   0.521   1.326 -0.3026 -0.1248 -0.2430
  715TMC3     H10574   3.082   0.316   1.306  0.0639  1.4414 -0.3009
  715TMC3    H110575   3.204   0.619   1.576  0.5260  0.0970  0.4387
  715TMC3    H210576   3.442   0.257   1.498  0.4370 -0.2779  1.4671
  715TMC3    C710577   3.428   0.458   1.679 -0.2800  0.0659 -0.0463
  715TMC3    C810578   3.308   0.201   1.282 -0.0946  0.1045  0.0376
  715TMC3    O110579   3.500   0.361   1.709 -0.3791 -0.2280 -0.0224
  715TMC3    O210580   3.214   0.157   1.216 -0.3023  0.9910  0.4347
  716MPD2     C10581   3.133   3.973   9.677  0.6524  0.0815 -0.4512
  716MPD2    C110582   3.075   4.015   9.554  0.0346 -0.9187  0.3412
  716MPD2    C210583   3.134   3.967   9.444  0.3223  0.1483 -0.3924
  716MPD2    C310584   3.239   3.878   9.450  0.7816 -0.6016 -0.0953
  716MPD2    C410585   3.290   3.829   9.564 -0.4397  0.0929  0.1806
  716MPD2    C510586   3.237   3.880   9.681  0.2836  0.0729 -0.1621
  716MPD2     H10587   3.090   4.005   9.352 -1.0651 -1.4690 -0.3947
  716MPD2    H110588   3.365   3.751   9.569 -0.6991 -0.0704  1.6502
  716MPD2    H210589   3.101   4.015   9.772 -1.6627 -0.1335 -1.1294
  716MPD2    H310590   3.281   3.855   9.777  0.7588  0.7120 -0.2107
  716MPD2     N10591   3.299   3.844   9.327 -0.2785  0.0240 -0.1898
  716MPD2    H510592   3.253   3.878   9.244  0.1217  0.6247 -0.1675
  716MPD2    N110593   2.985   4.122   9.545 -0.1499 -0.9484 -0.7311
  716MPD2    H710594   2.960   4.158   9.454  0.3012  0.1358 -0.4276
  717TMC3    C110595   3.438   3.741   9.168 -0.8773 -0.3133 -0.5828
  717TMC3    C210596   3.331   3.699   9.098 -0.5520  0.0882  0.2313
  717TMC3    C310597   3.352   3.613   8.995 -0.2163 -0.0052  0.5839
  717TMC3    C410598   3.572   3.707   9.144 -0.2994  0.1047 -0.1097
  717TMC3    C510599   3.584   3.626   9.035  0.5981 -0.1792 -0.3283
  717TMC3    C610600   3.483   3.580   8.953 -0.6007  0.8797 -0.5679
  717TMC3     C10601   3.413   3.771   9.301  0.6623 -0.6865 -0.1471
  717TMC3     O10602   3.505   3.736   9.375  0.4165  0.2107 -0.4966
  717TMC3     H10603   3.228   3.708   9.129  0.3947  1.1375  3.0922
  717TMC3    H110604   3.650   3.757   9.200 -0.3497 -0.2883  0.3026
  717TMC3    H210605   3.503   3.510   8.873 -1.0005 -0.8537  0.8535
  717TMC3    C710606   3.720   3.586   8.995  0.1325  0.2977  0.6437
  717TMC3    C810607   3.228   3.560   8.934  0.0438  0.5756 -0.0274
  717TMC3    O110608   3.724   3.504   8.906 -0.1307 -0.1788 -0.4289
  717TMC3    O210609   3.127   3.632   8.929  0.6151 -0.3484 -0.1797
  718MPD2     C10610   2.282   2.929  12.474  0.0800 -0.0374 -0.3842
  718MPD2    C110611   2.252   3.014  12.365  0.4975 -0.2390 -0.0884
  718MPD2    C210612   2.183   2.968  12.253 -0.0600  0.3322 -0.3977
  718MPD2    C310613   2.129   2.842  12.260 -0.4886  0.0760  1.1032
  718MPD2    C410614   2.157   2.755  12.365 -0.5319 -0.3254 -0.2181
  718MPD2    C510615   2.235   2.799  12.467  0.7354 -0.5978 -0.4858
  718MPD2     H10616   2.148   3.032  12.173 -0.5880  0.3157 -0.1806
  718MPD2    H110617   2.115   2.655  12.366 -3.3212  0.8305 -0.9003
  718MPD2    H210618   2.319   2.973  12.566 -1.6523  2.0751 -0.7127
  718MPD2    H310619   2.244   2.735  12.554 -2.0681  0.4682  0.5830
  718MPD2     N10620   2.044   2.786  12.168  0.7123  0.1960  0.0545
  718MPD2    H510621   1.995   2.699  12.189  1.2519 -0.3129 -0.7988
  718MPD2    N110622   2.269   3.151  12.388 -0.2997 -0.1758  0.0406
  718MPD2    H710623   2.292   3.185  12.480 -0.4899 -0.9458  0.3745
  719TMC3    C110624   2.209   3.378  12.353 -0.4549 -0.3681 -0.8371
  719TMC3    C210625   2.111   3.436  12.276  1.4372 -0.7162 -0.4101
  719TMC3    C310626   2.130   3.552  12.218 -0.1438  0.0530 -0.5174
  719TMC3    C410627   2.316   3.450  12.390 -0.4043 -0.4188 -0.2183
  719TMC3    C510628   2.328   3.580  12.341 -0.7012 -0.3799 -0.8447
  719TMC3    C610629   2.238   3.627  12.259 -0.1402 -0.2451  0.2014
  719TMC3     C10630   2.219   3.248  12.301  0.1222 -0.5937  1.0503
  719TMC3     O10631   2.184   3.241  12.185  0.0565 -0.5024  0.0852
  719TMC3     H10632   2.018   3.383  12.256  1.6669 -2.0050  1.9047
  719TMC3    H110633   2.396   3.400  12.443  1.7298 -0.4593 -3.5098
  719TMC3    H210634   2.266   3.716  12.204  2.0439 -0.5988  0.7417
  719TMC3    C710635   2.451   3.651  12.363  1.0086  0.1465 -0.2708
  719TMC3    C810636   2.082   3.574  12.081 -0.4360  0.0363 -0.1592
  719TMC3    O110637   2.548   3.575  12.381  0.2261  0.0752  0.4688
  719TMC3    O210638   2.102   3.677  12.014 -0.5737  0.0378  0.3391
  720MPD2     C10639   0.163   4.464  13.798 -0.1441 -0.6029  0.0426
  720MPD2    C110640   0.271   4.514  13.725 -0.0190  0.7211  0.4187
  720MPD2    C210641   0.402   4.485  13.756  0.3338 -0.6247  0.1349
  720MPD2    C310642   0.422   4.396  13.861  0.2844  0.1283  0.5054
  720MPD2    C410643   0.318   4.336  13.928  0.1215  1.0445  0.0557
  720MPD2    C510644   0.187   4.380  13.899  0.0480 -0.9013  0.8335
  720MPD2     H10645   0.482   4.535  13.703  1.2012  0.1882  2.2306
  720MPD2    H110646   0.332   4.277  14.018  1.6756  0.9338 -0.2535
  720MPD2    H210647   0.059   4.485  13.778 -0.0441  0.8323  1.0718
  720MPD2    H310648   0.105   4.355  13.965 -0.5326 -2.4252 -0.4764
  720MPD2     N10649   0.557   4.363  13.889 -0.2774  0.8062  0.1811
  720MPD2    H510650   0.619   4.438  13.861 -0.1373  0.5354 -0.2337
  720MPD2    N110651   0.258   4.604  13.612 -0.3804 -0.3192 -0.1552
  720MPD2    H710652   0.340   4.652  13.576  0.3311 -1.0219  0.5196
  721TMC3    C110653   0.727   4.282  14.035 -0.3583 -0.1222  0.2452
  721TMC3    C210654   0.751   4.213  14.155  0.1859  0.4339  0.2192
  721TMC3    C310655   0.848   4.245  14.235  0.0869 -0.5507  0.8258
  721TMC3    C410656   0.818   4.377  13.993 -0.3224  0.1335  0.0099
  721TMC3    C510657   0.926   4.401  14.082 -0.2182 -0.0262 -0.4601
  721TMC3    C610658   0.942   4.332  14.201  0.4128  0.4997 -0.5042
  721TMC3     C10659   0.589   4.277  13.983 -0.2657 -0.7927 -0.4817
  721TMC3     O10660   0.527   4.178  14.015 -0.2198  0.0210  0.6778
  721TMC3     H10661   0.693   4.125  14.181  1.4789  0.0511  1.7797
  721TMC3    H110662   0.817   4.439  13.904  2.8846  0.6148  0.3129
  721TMC3    H210663   1.017   4.367  14.270  0.8306  2.2567 -1.8456
  721TMC3    C710664   1.015   4.511  14.035  0.3445 -0.0524  0.4565
  721TMC3    C810665   0.832   4.213  14.371  0.1198 -0.1833 -0.2716
  721TMC3    O110666   1.013   4.529  13.913 -0.3653  0.0096 -0.5629
  721TMC3    O210667   0.719   4.174  14.407 -0.1084 -0.0710  0.1885
  722MPD2     C10668   4.113   3.578  13.215 -0.1571 -0.2108 -0.4690
  722MPD2    C110669   4.088   3.592  13.078  0.1699 -0.9792 -0.6008
  722MPD2    C210670   3.964   3.544  13.029 -0.2971 -0.2251 -0.0400
  722MPD2    C310671   3.866   3.492  13.110  0.3760  0.2080 -0.5229
  722MPD2    C410672   3.893   3.479  13.243  0.3774 -0.7239 -0.6565
  722MPD2    C510673   4.014   3.521  13.291  0.1803  0.2868 -0.3082
  722MPD2     H10674   3.943   3.565  12.924  1.3751 -0.3826 -0.3993
  722MPD2    H110675   3.825   3.435  13.315 -1.9530  1.8145 -1.2894
  722MPD2    H210676   4.203   3.624  13.255 -0.1669  0.4537 -1.1997
  722MPD2    H310677   4.032   3.509  13.397 -1.7378  0.0810 -0.0183
  722MPD2     N10678   3.746   3.434  13.054 -0.4589 -0.6702  0.1485
  722MPD2    H510679   3.732   3.453  12.956 -0.8851  0.3369  0.3997
  722MPD2    N110680   4.202   3.617  12.991  0.4643  0.1035  0.1620
  722MPD2    H710681   4.282   3.655  13.042 -0.0755  2.3246 -0.6464
  723TMC3    C110682   3.554   3.301  13.037  0.5351  0.3197  0.2864
  723TMC3    C210683   3.543   3.160  13.030 -0.0021 -0.3625  0.1909
  723TMC3    C310684   3.492   3.093  12.924 -0.0974 -0.6428 -0.2949
  723TMC3    C410685   3.500   3.377  12.933 -0.0048 -0.1434 -0.5778
  723TMC3    C510686   3.446   3.302  12.829 -0.5152 -0.2297 -0.0123
  723TMC3    C610687   3.443   3.171  12.826  0.3711 -0.5033  0.1507
  723TMC3     C10688   3.656   3.361  13.124 -0.1108  0.2675 -0.5276
  723TMC3     O10689   3.677   3.300  13.226 -0.0800 -0.0566 -0.3624
  723TMC3     H10690   3.592   3.108  13.111  1.4128 -0.6191 -0.8189
  723TMC3    H110691   3.520   3.484  12.927 -0.6420 -0.0139 -0.3811
  723TMC3    H210692   3.397   3.124  12.740  0.0311 -0.8229  0.5060
  723TMC3    C710693   3.390   3.376  12.711  0.3793  1.1775 -0.0345
  723TMC3    C810694   3.516   2.950  12.895  0.0913 -0.4020  0.0735
  723TMC3    O110695   3.393   3.322  12.601 -0.2060  0.2905  0.3006
  723TMC3    O210696   3.544   2.907  12.784 -0.4453 -0.3494 -0.2049
  724TMC3    C110697   0.266   1.420   9.780 -0.8294 -1.0067 -0.4883
  724TMC3    C210698   0.162   1.450   9.694 -0.1671 -0.3193 -0.7653
  724TMC3    C310699   0.189   1.506   9.573  0.6992 -0.2001 -0.1654
  724TMC3    C410700   0.392   1.451   9.747 -0.6941  0.2141  0.4100
  724TMC3    C510701   0.419   1.519   9.629 -0.1704 -0.1543 -0.7650
  724TMC3    C610702   0.319   1.532   9.543  0.2418  0.0863 -0.1114
  724TMC3     C10703   0.233   1.341   9.895  0.0523  0.0610 -0.1137
  724TMC3     O10704   0.318   1.332   9.983  0.5929 -0.6579  0.2801
  724TMC3     H10705   0.059   1.451   9.729 -0.4816 -0.6548 -1.6752
  724TMC3    H110706   0.466   1.438   9.825 -1.0952 -0.8167  0.6250
  724TMC3    H210707   0.349   1.557   9.442  3.1327  1.5620  1.0756
  724TMC3    C710708   0.478   1.653   9.644  0.0574 -0.3317  0.1731
  724TMC3    C810709   0.089   1.602   9.525 -0.3458  0.3377  0.5555
  724TMC3    O110710   0.414   1.746   9.595  0.5599  0.0839 -0.3233
  724TMC3    O210711   4.694   1.594   9.556  0.5644 -0.5169 -0.4406
  725TMC3    C110712   1.087   4.691  12.869 -0.6718 -0.0795 -0.1197
  725TMC3    C210713   1.016   4.703  12.749  1.3098  0.0862  0.4663
  725TMC3    C310714   1.019   4.594  12.669 -0.2380  0.6313 -0.9594
  725TMC3    C410715   1.144   4.571  12.908  0.5319 -0.7414  0.6656
  725TMC3    C510716   1.129   4.463  12.832 -0.2326 -0.0032  0.1206
  725TMC3    C610717   1.074   4.476  12.704  0.0671  0.0351  0.0728
  725TMC3     C10718   1.096   0.090  12.947  0.5112 -0.1647  0.1486
  725TMC3     O10719   1.042   0.195  12.907  0.2589  0.2210  0.0803
  725TMC3     H10720   0.985   0.075  12.710 -1.7008 -0.8871  0.4089
  725TMC3    H110721   1.204   4.574  12.999  1.2207  1.4321  0.1600
  725TMC3    H210722   1.078   4.401  12.625  0.8156 -0.5246  0.6381
  725TMC3    C710723   1.238   4.365  12.840  0.3899 -1.1499 -1.0530
  725TMC3    C810724   0.985   4.611  12.531 -0.2797  0.3652 -0.5768
  725TMC3    O110725   1.260   4.297  12.742  0.1093  0.0577 -0.0498
  725TMC3    O210726   0.942   4.511  12.475 -0.1766  0.4362  0.1658
  726MPD2     C10727   3.991   1.710  10.335 -0.1337  0.2060 -0.0757
  726MPD2    C110728   3.927   1.817  10.280  0.7360 -1.0989 -0.3630
  726MPD2    C210729   3.790   1.826  10.295  0.0477  0.1344  0.0464
  726MPD2    C310730   3.718   1.743  10.375 -0.1479  0.1145 -0.1716
  726MPD2    C410731   3.789   1.643  10.438 -0.4168  0.6119 -0.3983
  726MPD2    C510732   3.921   1.623  10.413  0.5907 -0.0019 -0.7467
  726MPD2     H10733   3.755   1.916  10.245 -1.9892 -0.1635  0.9600
  726MPD2    H110734   3.748   1.579  10.515  4.1578 -0.3943  1.2437
  726MPD2    H210735   4.099   1.700  10.322  0.1777  1.3271  1.6388
  726MPD2    H310736   3.985   1.547  10.454  1.0844 -0.0653 -1.6303
  726MPD2     N10737   3.583   1.761  10.402  0.5241  0.7066 -0.1719
  726MPD2    H510738   3.545   1.702  10.476  0.5700 -0.0021 -0.7062
  726MPD2    N110739   4.001   1.912  10.205  0.2121 -0.3742 -0.0942
  726MPD2    H710740   3.940   1.973  10.152  0.0848 -2.5702 -2.4799
  727TMC3    C110741   4.171   2.063  10.140  0.0915 -0.3484 -0.0827
  727TMC3    C210742   4.267   2.143  10.199 -0.5683 -0.8877 -0.5397
  727TMC3    C310743   4.264   2.275  10.164  0.0411  0.8400  0.1063
  727TMC3    C410744   4.097   2.117  10.040 -0.6352  0.2762  0.3402
  727TMC3    C510745   4.116   2.242   9.990  0.5446  0.1838 -0.1673
  727TMC3    C610746   4.190   2.328  10.058 -0.5905 -0.2855 -0.3192
  727TMC3     C10747   4.137   1.941  10.211 -0.4394  0.4487 -0.2481
  727TMC3     O10748   4.227   1.887  10.276 -0.4235 -0.8832  0.1331
  727TMC3     H10749   4.327   2.108  10.283 -1.0574  2.1365  1.0713
  727TMC3    H110750   4.035   2.056   9.975  1.5268 -2.8551  1.2110
  727TMC3    H210751   4.208   2.430  10.025 -0.9236  0.4472  1.7712
  727TMC3    C710752   4.032   2.289   9.877  0.1771  0.0327 -0.5403
  727TMC3    C810753   4.355   2.362  10.243  0.4857 -0.4872 -0.0114
  727TMC3    O110754   3.950   2.208   9.836  0.4284 -0.0356  0.1227
  727TMC3    O210755   4.436   2.305  10.308 -0.3832  0.3087 -0.1356
  728TMC3    C110756   3.179   0.297  15.677 -0.0039  0.1328 -0.3901
  728TMC3    C210757   3.312   0.291  15.710 -0.7935  0.2030 -0.1405
  728TMC3    C310758   3.401   0.340  15.624 -0.7110  0.0145 -0.1247
  728TMC3    C410759   3.138   0.322  15.546  0.2037 -0.1212 -0.2778
  728TMC3    C510760   3.233   0.366  15.461  0.2362 -0.1904 -0.1192
  728TMC3    C610761   3.365   0.375  15.498 -0.3130  0.2966 -0.0531
  728TMC3     C10762   3.083   0.265  15.786 -0.1270 -0.4343 -0.2082
  728TMC3     O10763   3.127   0.297  15.895 -0.1163  0.8182 -0.3879
  728TMC3     H10764   3.340   0.268  15.812 -1.4630  0.0257  0.0025
  728TMC3    H110765   3.031   0.336  15.529  0.1080 -1.2537 -0.5808
  728TMC3    H210766   3.436   0.390  15.418 -1.2293 -1.0047 -1.1092
  728TMC3    C710767   3.200   0.421  15.329 -0.1224 -0.4103 -0.1233
  728TMC3    C810768   3.542   0.330  15.661  0.2690 -0.9229  0.3251
  728TMC3    O110769   3.276   0.508  15.288  0.8394  0.1070  0.1310
  728TMC3    O210770   3.618   0.415  15.612 -0.0621 -0.1479 -0.0806
  729MPD2     C10771   0.060   1.579  16.577 -0.7577  0.1743 -0.7590
  729MPD2    C110772   0.105   1.486  16.665  0.6128  0.1942  0.4658
  729MPD2    C210773   0.065   1.499  16.796  0.4793  0.0675 -0.0422
  729MPD2    C310774   4.702   1.599  16.843  0.4792 -0.0966 -0.6105
  729MPD2    C410775   4.639   1.672  16.751  0.3460  0.2609 -0.8738
  729MPD2    C510776   4.683   1.668  16.622 -0.0213 -0.3785  0.0605
  729MPD2     H10777   0.118   1.440  16.870  0.8642 -0.0342 -0.3999
  729MPD2    H110778   4.560   1.745  16.765  0.1182 -0.2737  0.6558
  729MPD2    H210779   0.104   1.576  16.478  1.8803  0.4829  0.4223
  729MPD2    H310780   4.643   1.745  16.557 -0.3666 -0.2127  0.4725
  729MPD2     N10781   4.667   1.610  16.982  0.5946 -0.1485  0.3808
  729MPD2    H510782   4.613   1.690  17.010 -2.6094 -1.1999 -2.8501
  729MPD2    N110783   0.214   1.401  16.623 -0.4005  0.1862  0.2395
  729MPD2    H710784   0.254   1.418  16.531  1.5550 -1.2280  0.8220
  730TMC3    C110785   0.005   1.626  17.203 -0.6769  0.8197 -0.3239
  730TMC3    C210786   0.048   1.547  17.309 -0.2584 -0.3118  0.5221
  730TMC3    C310787   0.142   1.595  17.402  0.7571 -0.3905  0.3908
  730TMC3    C410788   0.055   1.747  17.179 -0.8174  0.2712  0.3057
  730TMC3    C510789   0.155   1.791  17.269 -1.0729  0.1988  0.4117
  730TMC3    C610790   0.198   1.717  17.380 -0.2939  0.8780 -0.1746
  730TMC3     C10791   4.721   1.540  17.084 -0.3962  0.3137 -0.0673
  730TMC3     O10792   0.044   1.430  17.095 -0.3164  0.0633 -0.0353
  730TMC3     H10793   0.009   1.447  17.324 -1.8273  0.2388  0.0880
  730TMC3    H110794   0.030   1.815  17.098 -0.2978 -2.1458 -1.8667
  730TMC3    H210795   0.270   1.755  17.451 -0.6687 -1.0439  1.2373
  730TMC3    C710796   0.211   1.929  17.256 -0.2119 -0.5387 -0.0366
  730TMC3    C810797   0.218   1.530  17.511 -0.5693  0.2834  0.5008
  730TMC3    O110798   0.199   1.977  17.142 -0.0409  0.0557  0.0537
  730TMC3    O210799   0.233   1.588  17.616 -0.8540 -0.1912  0.1400
  731MPD2     C10800   0.537   3.974  12.157 -0.7267  0.4136  0.2735
  731MPD2    C110801   0.624   4.081  12.134  0.1560 -0.1445 -0.2753
  731MPD2    C210802   0.585   4.201  12.181 -0.5262 -0.4890 -0.1908
  731MPD2    C310803   0.466   4.225  12.240  0.0909 -0.5291  0.8399
  731MPD2    C410804   0.377   4.119  12.249  0.6109 -0.1994 -0.1498
  731MPD2    C510805   0.409   3.992  12.200  0.0396 -0.5300  0.0355
  731MPD2     H10806   0.660   4.280  12.180 -0.0227 -0.9925 -2.2575
  731MPD2    H110807   0.279   4.127  12.294 -0.9374  0.8288 -3.7024
  731MPD2    H210808   0.563   3.873  12.128  2.8722  1.5561 -0.4096
  731MPD2    H310809   0.348   3.908  12.233  1.1298 -0.8052  1.3553
  731MPD2     N10810   0.442   4.356  12.296 -0.0409  0.2491 -0.2484
  731MPD2    H510811   0.519   4.420  12.281  0.2227  0.1571  0.6958
  731MPD2    N110812   0.754   4.075  12.075 -0.6857  0.5003 -0.0539
  731MPD2    H710813   0.807   4.162  12.070  1.6292 -0.9644 -0.8278
  732TMC3    C110814   0.913   3.993  11.929  0.2173 -1.1481  0.6959
  732TMC3    C210815   0.890   3.939  11.801 -0.0017 -0.3896  0.2202
  732TMC3    C310816   0.915   4.023  11.690  0.6810 -0.4214  0.4024
  732TMC3    C410817   0.982   4.110  11.951  0.7020 -0.0524 -0.4408
  732TMC3    C510818   1.014   4.173  11.835 -0.0436 -0.5245  0.2270
  732TMC3    C610819   0.977   4.144  11.705  0.0243 -0.2308  0.4891
  732TMC3     C10820   0.796   3.964  12.009 -0.0291 -0.1253 -0.1895
  732TMC3     O10821   0.739   3.855  12.002  0.0164  0.0519 -0.1079
  732TMC3     H10822   0.820   3.856  11.798 -0.1247 -0.2954  0.4481
  732TMC3    H110823   1.015   4.137  12.050 -0.7699  1.6761 -0.4182
  732TMC3    H210824   1.012   4.203  11.621 -0.2024 -0.2467  0.3826
  732TMC3    C710825   1.091   4.300  11.845 -0.6330  0.3558  0.0238
  732TMC3    C810826   0.797   4.023  11.615  0.6781 -0.3858 -0.0074
  732TMC3    O110827   1.042   4.397  11.790 -0.2527  0.2090  0.3275
  732TMC3    O210828   0.792   3.939  11.529 -0.4889 -0.1378  0.0548
  733TMC3    C110829   1.683   2.762  12.009  0.0182 -0.1785 -0.1548
  733TMC3    C210830   1.809   2.738  12.050 -0.4762 -0.1445 -0.7850
  733TMC3    C310831   1.910   2.784  11.972  0.4610 -0.1498  0.6810
  733TMC3    C410832   1.659   2.846  11.899 -0.7010  0.2221 -0.1972
  733TMC3    C510833   1.764   2.878  11.812  0.0496  0.4477 -0.3903
  733TMC3    C610834   1.894   2.846  11.851  0.0244  0.6470 -0.0326
  733TMC3     C10835   1.578   2.768  12.105 -0.4327  0.1945  0.4076
  733TMC3     O10836   1.475   2.831  12.086 -0.1081  0.1071 -0.1541
  733TMC3     H10837   1.821   2.689  12.146 -0.9037 -1.3696 -1.3543
  733TMC3    H110838   1.559   2.867  11.863 -0.8538 -0.5351 -0.1997
  733TMC3    H210839   1.987   2.861  11.798  0.5193  0.3763  0.7648
  733TMC3    C710840   1.763   3.011  11.753 -0.0343 -0.1261  0.0754
  733TMC3    C810841   2.021   2.841  12.039  0.5498 -0.2228 -0.3873
  733TMC3    O110842   1.654   3.047  11.719  0.0820 -0.2476  0.0478
  733TMC3    O210843   2.072   2.939  11.988 -0.2804  0.3850  0.4687
  734MPD2     C10844   3.627   1.042  12.063 -0.4667  0.0844  0.4517
  734MPD2    C110845   3.535   0.973  11.996  0.0667 -0.8383  0.9019
  734MPD2    C210846   3.519   0.997  11.859  0.4234  0.0086  0.5596
  734MPD2    C310847   3.615   1.066  11.790  0.4505  0.2800 -0.2569
  734MPD2    C410848   3.707   1.133  11.868  0.2109 -0.3952 -0.5585
  734MPD2    C510849   3.714   1.122  12.003 -0.2252  0.1878  0.0952
  734MPD2     H10850   3.438   0.953  11.803  1.2867 -1.2168  0.2777
  734MPD2    H110851   3.790   1.187  11.825  1.0482 -2.3186 -1.3514
  734MPD2    H210852   3.643   1.041  12.171 -0.7162  0.4390  0.4947
  734MPD2    H310853   3.783   1.176  12.066 -0.0359 -0.9316  0.8542
  734MPD2     N10854   3.617   1.046  11.645 -0.2998 -0.3769  1.0860
  734MPD2    H510855   3.534   1.009  11.598 -1.1694  1.7088  1.0016
  734MPD2    N110856   3.469   0.875  12.066 -0.2630  0.4665 -0.1980
  734MPD2    H710857   3.486   0.864  12.165  2.5828  0.5355 -0.6781
  735TMC3    C110858   3.335   0.685  12.095  0.3735  0.5618  0.3281
  735TMC3    C210859   3.220   0.632  12.050 -0.8214  0.1966  0.1347
  735TMC3    C310860   3.197   0.493  12.040 -0.3389 -0.0432 -0.2827
  735TMC3    C410861   3.435   0.598  12.126  0.2705 -0.5000  0.0418
  735TMC3    C510862   3.409   0.461  12.132 -0.9278  0.0328  0.2930
  735TMC3    C610863   3.289   0.401  12.093  0.6519 -0.3484 -1.2888
  735TMC3     C10864   3.377   0.790  12.014 -0.4577 -0.8866 -0.4608
  735TMC3     O10865   3.346   0.765  11.899 -0.1924 -0.7883 -0.0897
  735TMC3     H10866   3.141   0.701  12.024 -1.8671 -0.2711  2.0434
  735TMC3    H110867   3.534   0.630  12.158  0.6797 -0.7422 -0.9716
  735TMC3    H210868   3.269   0.295  12.098  0.6991 -0.3383 -0.8660
  735TMC3    C710869   3.520   0.373  12.162  0.0194  0.2294 -0.7329
  735TMC3    C810870   3.143   0.445  11.918 -0.1699 -0.3815 -0.7324
  735TMC3    O110871   3.626   0.434  12.162  0.0718  0.7664  0.0349
  735TMC3    O210872   3.121   0.327  11.912  0.0248  0.3039 -0.1155
  736MPD2     C10873   3.527   0.003  12.250  0.8347 -0.1089 -0.2259
  736MPD2    C110874   3.582   0.131  12.223  0.1111 -0.0417  0.5497
  736MPD2    C210875   3.720   0.145  12.211  0.3425  0.5416  0.1889
  736MPD2    C310876   3.801   0.031  12.236  0.3222 -0.2724 -0.1835
  736MPD2    C410877   3.743   4.636  12.271 -0.4289 -0.5144  0.0667
  736MPD2    C510878   3.603   4.618  12.276  1.1292  0.1880  0.0081
  736MPD2     H10879   3.758   0.240  12.175  0.0283 -0.0660 -1.7787
  736MPD2    H110880   3.801   4.548  12.296 -2.2022 -1.8051 -0.2655
  736MPD2    H210881   3.420   4.710  12.260  0.5212  1.8382 -0.1859
  736MPD2    H310882   3.559   4.520  12.288 -2.2305  1.4875 -1.3406
  736MPD2     N10883   3.939   0.025  12.218 -0.5677  0.1602 -0.8116
  736MPD2    H510884   3.989   4.663  12.241 -0.4868  1.3832  3.6675
  736MPD2    N110885   3.496   0.239  12.189 -0.1458 -0.1836 -0.1164
  736MPD2    H710886   3.397   0.220  12.200 -0.6564  1.1470 -2.4308
  737TMC3    C110887   4.156   0.086  12.138  0.3729  1.3351 -0.1002
  737TMC3    C210888   4.242   0.191  12.126  0.0356  0.0887 -0.6756
  737TMC3    C310889   4.351   0.171  12.048  0.1918 -0.7315  0.0113
  737TMC3    C410890   4.192   4.679  12.101  0.3202  0.2288 -0.3129
  737TMC3    C510891   4.308   4.668  12.031 -0.2303  0.4014 -0.6399
  737TMC3    C610892   4.390   0.049  12.004  0.0792 -0.1855 -0.0377
  737TMC3     C10893   4.017   0.128  12.173 -0.2623 -0.5485 -0.9545
  737TMC3     O10894   3.987   0.248  12.173 -0.1754 -0.1606 -0.3441
  737TMC3     H10895   4.209   0.290  12.156  2.2043 -0.0992  2.3720
  737TMC3    H110896   4.125   4.594  12.092  1.5997 -0.7483 -0.6662
  737TMC3    H210897   4.491   0.042  11.964  0.4251 -0.6971  0.9346
  737TMC3    C710898   4.357   4.532  12.028  0.0387  0.3790 -0.4298
  737TMC3    C810899   4.411   0.286  11.984  0.6723 -0.1659  0.4873
  737TMC3    O110900   4.321   4.450  12.113 -0.0907  1.0666  0.0564
  737TMC3    O210901   4.405   0.392  12.045 -0.1439 -0.2214 -0.1975
  738MPD2     C10902   3.826   3.390  14.862  0.3704  0.1098 -0.4600
  738MPD2    C110903   3.933   3.461  14.909 -0.3631 -0.2655 -0.4402
  738MPD2    C210904   3.984   3.558  14.824  0.2725 -0.6905  0.1942
  738MPD2    C310905   3.919   3.589  14.705 -0.7466 -0.0668 -0.5449
  738MPD2    C410906   3.810   3.516  14.668 -0.4359  0.1216 -0.4072
  738MPD2    C510907   3.763   3.412  14.743 -0.1647  0.0987 -0.0946
  738MPD2     H10908   4.071   3.617  14.849  0.8142 -2.3454  2.2169
  738MPD2    H110909   3.749   3.540  14.581  1.6682  0.0744 -1.8790
  738MPD2    H210910   3.781   3.312  14.922  2.4812 -0.7304  0.0214
  738MPD2    H310911   3.681   3.351  14.708 -0.3713  0.7151 -0.6697
  738MPD2     N10912   3.959   3.690  14.622  0.0798 -0.4105  0.3341
  738MPD2    H510913   3.909   3.700  14.533  0.5720  0.8941  0.1993
  738MPD2    N110914   3.999   3.435  15.033 -0.9144  0.2163 -0.0523
  738MPD2    H710915   4.088   3.474  15.061  0.0435 -2.1365  0.1843
  739TMC3    C110916   4.078   3.864  14.527  0.7656 -0.7570  0.9316
  739TMC3    C210917   4.055   3.819  14.402  0.0585 -0.1126  0.0602
  739TMC3    C310918   4.118   3.873  14.295  0.1599  1.5967  0.1852
  739TMC3    C410919   4.149   3.982  14.545 -0.0662 -0.4695  0.2830
  739TMC3    C510920   4.217   4.034  14.437 -1.0385  0.2892  0.2467
  739TMC3    C610921   4.202   3.986  14.309  0.8860 -0.3493  0.2432
  739TMC3     C10922   4.057   3.784  14.646  0.3541 -0.3975  0.2350
  739TMC3     O10923   4.117   3.820  14.744  0.2211  0.1455  0.3190
  739TMC3     H10924   3.981   3.746  14.373 -1.1128  0.3752  1.8357
  739TMC3    H110925   4.174   4.017  14.644  2.3454 -2.1022  0.2526
  739TMC3    H210926   4.271   4.013  14.229 -1.3176  0.2141 -1.4680
  739TMC3    C710927   4.298   4.151  14.458 -0.3750 -0.0689  0.3221
  739TMC3    C810928   4.072   3.822  14.167  0.1075  0.1787 -0.5158
  739TMC3    O110929   4.328   4.182  14.571  0.1193 -0.0498 -0.6501
  739TMC3    O210930   3.952   3.824  14.145  0.5724 -0.2210  0.7015
  740TMC3    C110931   0.324   0.060  13.949  0.2014  0.2561 -0.4722
  740TMC3    C210932   0.327   4.699  14.055  0.6932 -0.2691  0.1431
  740TMC3    C310933   0.442   4.638  14.095  0.1871  0.1887 -0.0028
  740TMC3    C410934   0.437   0.085  13.874  0.0661 -0.4104 -0.5218
  740TMC3    C510935   0.557   0.036  13.926  0.0089  0.0729  0.0094
  740TMC3    C610936   0.559   4.672  14.038  0.2551 -0.3647  0.7479
  740TMC3     C10937   0.191   0.106  13.898  0.1776 -1.0615  0.2520
  740TMC3     O10938   0.186   0.152  13.787 -0.0866  0.6726  0.1579
  740TMC3     H10939   0.229   4.679  14.096  0.2746  1.0932 -0.1917
  740TMC3    H110940   0.417   0.142  13.784  1.4579 -0.0740 -0.6205
  740TMC3    H210941   0.649   4.617  14.063  0.4422  0.0688  1.0230
  740TMC3    C710942   0.675   0.026  13.843 -0.2982  0.4135  0.0257
  740TMC3    C810943   0.455   4.555  14.213 -0.3102  0.2483 -1.0648
  740TMC3    O110944   0.744   4.650  13.841 -0.4713 -0.5062  0.2209
  740TMC3    O210945   0.566   4.513  14.234 -0.4801 -0.0935  0.0559
  741TMC3    C110946   3.946   4.419  13.037  0.6480  0.1426 -0.7014
  741TMC3    C210947   3.915   4.341  13.142 -1.0982 -0.8740 -0.4749
  741TMC3    C310948   4.021   4.265  13.189 -0.6543 -0.5132  0.4908
  741TMC3    C410949   4.062   4.428  12.967 -0.0322  0.1934  0.2688
  741TMC3    C510950   4.163   4.353  13.017 -0.2986 -0.5777 -0.7042
  741TMC3    C610951   4.146   4.269  13.124  0.1893 -0.1079  0.7261
  741TMC3     C10952   3.846   4.520  13.012 -0.0505 -0.1773 -0.0337
  741TMC3     O10953   3.727   4.490  13.024 -0.2640 -0.3637  0.1107
  741TMC3     H10954   3.828   4.361  13.204  0.5007  0.2625  1.3840
  741TMC3    H110955   4.060   4.484  12.874 -0.7831 -0.3091 -0.0247
  741TMC3    H210956   4.227   4.203  13.154  0.0855 -0.6283 -0.1251
  741TMC3    C710957   4.283   4.352  12.942 -0.3903  0.8427 -0.7744
  741TMC3    C810958   4.002   4.193  13.315  0.2625  0.4055 -0.1617
  741TMC3    O110959   4.284   4.414  12.839 -0.5291  0.3450 -0.4418
  741TMC3    O210960   3.889   4.202  13.353  0.5442 -0.6130 -0.4889
  742TMC3    C110961   4.341   2.698  15.159 -0.7861  0.2890 -0.4223
  742TMC3    C210962   4.284   2.711  15.036  0.1680 -0.2623 -0.5576
  742TMC3    C310963   4.355   2.720  14.924 -0.3052 -0.1958 -0.0459
  742TMC3    C410964   4.479   2.696  15.166 -0.1263  0.8178  0.3734
  742TMC3    C510965   4.549   2.700  15.053  0.6749 -0.2148  0.0809
  742TMC3    C610966   4.490   2.716  14.931 -0.8577 -0.0125  0.0816
  742TMC3     C10967   4.259   2.671  15.269  0.2564  0.1601  0.0774
  742TMC3     O10968   4.140   2.701  15.257  0.2365  0.4220 -0.4927
  742TMC3     H10969   4.177   2.706  15.027  0.3311 -0.3131 -2.3376
  742TMC3    H110970   4.530   2.700  15.261 -2.0646  1.9908  1.3743
  742TMC3    H210971   4.553   2.720  14.843  0.5891 -1.3957  1.0623
  742TMC3    C710972   4.676   2.645  15.041  0.2557 -0.7136  0.4130
  742TMC3    C810973   4.289   2.726  14.795  0.2687  0.6338  0.2443
  742TMC3    O110974   4.685   2.539  14.979  0.5697  0.0403  0.2090
  742TMC3    O210975   4.360   2.702  14.697  0.0693  0.3870 -0.7896
  743MPD2     C10976   1.690   4.494   1.668  0.0525 -0.0066 -0.1152
  743MPD2    C110977   1.703   4.366   1.617  0.2661  0.6866  0.0559
  743MPD2    C210978   1.811   4.288   1.663 -0.3836  0.5610 -0.0226
  743MPD2    C310979   1.884   4.327   1.771  0.5786  0.1927  0.3037
  743MPD2    C410980   1.853   4.447   1.833  0.0608 -0.7403  0.3382
  743MPD2    C510981   1.756   4.528   1.779  0.4385 -0.9515 -0.0517
  743MPD2     H10982   1.843   4.197   1.612  0.0976  0.6759  0.0738
  743MPD2    H110983   1.893   4.479   1.929 -1.7461 -0.9850  1.1728
  743MPD2    H210984   1.621   4.567   1.627  1.8751  1.5966 -0.3353
  743MPD2    H310985   1.732   4.623   1.827  1.8439 -0.4176 -0.4077
  743MPD2     N10986   1.994   4.246   1.812 -0.3183 -0.5372 -0.2924
  743MPD2    H510987   2.023   4.160   1.768  0.6306 -0.5062  0.2660
  743MPD2    N110988   1.613   4.315   1.523  0.6284 -0.0173  0.5921
  743MPD2    H710989   1.548   4.377   1.476  0.7092 -0.8958 -0.6590
  744TMC3    C110990   1.537   4.156   1.360  0.3178  0.3526  0.2640
  744TMC3    C210991   1.432   4.236   1.325  0.3977  0.0252  0.1856
  744TMC3    C310992   1.367   4.200   1.212 -0.0504  0.1033  0.5829
  744TMC3    C410993   1.574   4.047   1.290 -0.1316  0.2376 -0.1678
  744TMC3    C510994   1.511   4.020   1.174 -0.0238 -0.5487  0.5547
  744TMC3    C610995   1.403   4.093   1.132 -0.3659 -0.2477  0.1853
  744TMC3     C10996   1.616   4.178   1.478  0.0761  0.3374  0.3410
  744TMC3     O10997   1.669   4.080   1.531 -0.0083  0.4577  0.3504
  744TMC3     H10998   1.393   4.327   1.371  1.0390  0.7980 -0.8126
  744TMC3    H110999   1.658   3.989   1.326 -1.6014 -2.2380 -0.7284
  744TMC3    H211000   1.361   4.081   1.033 -2.3033  0.6299  0.8962
  744TMC3    C711001   1.594   3.959   1.071  0.1046  0.3672  0.1488
  744TMC3    C811002   1.306   4.311   1.140  0.4555 -0.5096 -0.1922
  744TMC3    O111003   1.713   3.977   1.075  0.1615 -0.3541  0.1388
  744TMC3    O211004   1.372   4.415   1.156  0.8222 -0.9940  0.2395
  745TMC3    C111005   0.333   2.423  13.112 -0.5378  0.0929  0.5020
  745TMC3    C211006   0.262   2.443  13.228 -0.8346  0.4896 -0.4238
  745TMC3    C311007   0.143   2.510  13.223 -0.5172  0.3050  0.1196
  745TMC3    C411008   0.284   2.464  12.991 -0.3764  0.5475 -0.2858
  745TMC3    C511009   0.161   2.524  12.994  0.2330 -0.0749 -0.4144
  745TMC3    C611010   0.083   2.544  13.107 -0.4179  0.0504  0.7662
  745TMC3     C11011   0.476   2.441  13.132 -0.2963  0.5026  0.0971
  745TMC3     O11012   0.483   2.510  13.235 -0.2327 -0.6880  0.0882
  745TMC3     H11013   0.306   2.408  13.321 -1.1904 -0.6983 -0.7025
  745TMC3    H111014   0.337   2.441  12.899  0.3568  0.6275  0.1183
  745TMC3    H211015   4.716   2.604  13.108 -0.2715  0.2826  0.1538
  745TMC3    C711016   0.131   2.625  12.898  0.1557  0.3475 -0.3933
  745TMC3    C811017   0.084   2.549  13.348 -0.0793  0.6270 -0.3095
  745TMC3    O111018   0.014   2.629  12.858  0.4148  0.3861  0.2589
  745TMC3    O211019   4.686   2.579  13.337  0.1913  0.1810 -1.0497
  746TMC3    C111020   2.595   4.473  10.821  0.1430  0.0731 -0.2008
  746TMC3    C211021   2.633   4.478  10.686  0.2800  0.1171 -0.3733
  746TMC3    C311022   2.558   4.396  10.604  0.2231  0.5343  0.4941
  746TMC3    C411023   2.494   4.387  10.870  0.1106 -0.4339 -0.0840
  746TMC3    C511024   2.426   4.305  10.782  0.3292 -0.4180  0.4305
  746TMC3    C611025   2.463   4.303  10.649 -0.3142  1.0237  0.2525
  746TMC3     C11026   2.601   4.601  10.893  0.4084 -0.5019  0.0568
  746TMC3     O11027   2.517   4.627  10.978  0.2760  0.1697  0.3563
  746TMC3     H11028   2.727   4.522  10.653  1.4736 -0.8114  1.7646
  746TMC3    H111029   2.477   4.385  10.977 -2.1071  1.5260 -0.3907
  746TMC3    H211030   2.412   4.234  10.583 -0.3729 -0.0295  1.3950
  746TMC3    C711031   2.345   4.193  10.826  1.1717 -0.7313 -0.4553
  746TMC3    C811032   2.593   4.414  10.459 -0.6295 -0.6665 -0.7967
  746TMC3    O111033   2.335   4.096  10.748  0.0787  0.2737  0.3837
  746TMC3    O211034   2.598   4.315  10.388  0.4476 -0.3394 -0.0476
  747TMC3    C111035   0.236   4.241  11.215  0.0994  0.6624 -0.4432
  747TMC3    C211036   0.129   4.252  11.295  0.1318  0.5759 -0.0812
  747TMC3    C311037   0.149   4.280  11.427  0.4811 -0.2458  0.0908
  747TMC3    C411038   0.364   4.261  11.256  0.2369 -0.6614 -0.5199
  747TMC3    C511039   0.379   4.291  11.390  0.0247 -0.6628 -0.4273
  747TMC3    C611040   0.272   4.296  11.478 -0.7585  0.2812  0.7336
  747TMC3     C11041   0.209   4.272  11.084 -0.3358  0.0679  0.9005
  747TMC3     O11042   0.113   4.347  11.063 -0.2285 -0.3043  0.1054
  747TMC3     H11043   0.032   4.225  11.254  0.1795 -1.2073  0.9611
  747TMC3    H111044   0.443   4.267  11.181  0.9457  0.2269  0.2967
  747TMC3    H211045   0.292   4.306  11.584 -0.4825  1.7221  0.5451
  747TMC3    C711046   0.517   4.322  11.429 -0.3304  0.0382 -0.4706
  747TMC3    C811047   0.053   4.228  11.516  0.3030 -0.5653 -0.3891
  747TMC3    O111048   0.538   4.390  11.528  0.0813 -0.9604 -0.2638
  747TMC3    O211049   0.012   4.113  11.489  1.0316 -0.4157  0.5422
  748MPD2     C11050   1.516   0.959   1.077 -0.0649  0.0456  0.0343
  748MPD2    C111051   1.504   0.832   1.127  0.1847  1.2146  0.3213
  748MPD2    C211052   1.612   0.744   1.117 -0.0637 -0.3879 -0.4316
  748MPD2    C311053   1.731   0.781   1.067 -0.3723  0.2131 -0.4666
  748MPD2    C411054   1.737   0.910   1.017 -0.3560  0.2359 -0.1668
  748MPD2    C511055   1.635   1.005   1.028 -0.3896  0.0411  0.1910
  748MPD2     H11056   1.599   0.643   1.156  0.1650 -1.4388 -3.0956
  748MPD2    H111057   1.821   0.936   0.955 -2.2158 -0.1881 -2.8690
  748MPD2    H211058   1.439   1.035   1.078  0.8464  0.9651  0.4188
  748MPD2    H311059   1.641   1.109   0.999 -0.0772 -0.2635 -0.8468
  748MPD2     N11060   1.834   0.685   1.051 -0.9941 -0.2635  0.2560
  748MPD2    H511061   1.830   0.592   1.093  2.5480 -1.4308 -1.9153
  748MPD2    N111062   1.382   0.811   1.191 -0.2824  0.2330  0.6299
  748MPD2    H711063   1.312   0.885   1.190  1.0400  1.4835 -1.1201
  749TMC3    C111064   2.044   0.610   1.009  0.6778 -0.0935 -0.0910
  749TMC3    C211065   2.051   0.558   1.131  0.2885  0.0602  0.0756
  749TMC3    C311066   2.173   0.507   1.172 -0.1227  0.2068 -0.3183
  749TMC3    C411067   2.151   0.597   0.918  0.3971 -0.1951 -0.0879
  749TMC3    C511068   2.266   0.532   0.960 -0.1668 -0.7257 -0.7118
  749TMC3    C611069   2.278   0.479   1.087 -0.4794  0.1021 -0.3729
  749TMC3     C11070   1.947   0.709   0.979 -0.1923 -0.0777  0.8279
  749TMC3     O11071   1.972   0.788   0.890  0.3641  0.4057  0.3599
  749TMC3     H11072   1.972   0.557   1.206 -1.6762  2.0101 -1.9732
  749TMC3    H111073   2.135   0.630   0.816 -1.0779 -1.3734 -0.2263
  749TMC3    H211074   2.374   0.441   1.122 -1.9442 -1.7536  1.6552
  749TMC3    C711075   2.370   0.512   0.862  0.4327  0.8943 -0.0653
  749TMC3    C811076   2.193   0.486   1.314 -0.0677 -0.1293  0.1217
  749TMC3    O111077   2.487   0.501   0.910 -0.3388  0.4327 -0.5093
  749TMC3    O211078   2.132   0.562   1.391  0.0612  0.2109  0.3188
  750MPD2     C11079   2.729   1.705  10.743 -0.0487 -0.0503 -0.4789
  750MPD2    C111080   2.674   1.629  10.842  0.7806 -0.3880 -0.0609
  750MPD2    C211081   2.620   1.511  10.801  0.2203 -0.2674  0.6566
  750MPD2    C311082   2.628   1.467  10.674 -0.1333  0.1401 -0.5635
  750MPD2    C411083   2.678   1.552  10.575 -0.1897 -0.1033  0.2287
  750MPD2    C511084   2.723   1.669  10.615  0.5356 -0.0257 -0.6036
  750MPD2     H11085   2.577   1.440  10.872 -0.8891 -0.3168 -0.0652
  750MPD2    H111086   2.679   1.530  10.469 -0.2345  1.0773 -0.0206
  750MPD2    H211087   2.774   1.803  10.757  2.6938 -1.0678 -2.2804
  750MPD2    H311088   2.742   1.749  10.544 -0.3502 -0.0030 -0.8082
  750MPD2     N11089   2.583   1.337  10.642 -0.4222 -0.2386 -0.6456
  750MPD2    H511090   2.546   1.280  10.718 -0.2600 -0.3822 -0.6754
  750MPD2    N111091   2.684   1.671  10.970 -0.3219  0.2842 -0.1010
  750MPD2    H711092   2.752   1.744  10.988  2.2586 -1.9981 -0.5287
  751TMC3    C111093   2.579   1.132  10.529  0.2820 -0.3257  0.9138
  751TMC3    C211094   2.452   1.079  10.558 -0.7148 -0.1729 -0.0688
  751TMC3    C311095   2.427   0.950  10.520  0.0768 -0.4539 -0.2208
  751TMC3    C411096   2.664   1.058  10.445 -0.0811 -0.0262 -0.3945
  751TMC3    C511097   2.638   0.927  10.425 -0.4788 -0.0883  0.4194
  751TMC3    C611098   2.524   0.870  10.462  0.6022 -0.1164  0.3175
  751TMC3     C11099   2.602   1.274  10.520  0.0876  1.0365  0.8068
  751TMC3     O11100   2.647   1.308  10.410  0.5024 -0.0140  0.2512
  751TMC3     H11101   2.373   1.143  10.596  1.4961 -0.2520  4.6311
  751TMC3    H111102   2.752   1.100  10.397 -0.6053 -0.1053 -1.4243
  751TMC3    H211103   2.504   0.767  10.434  0.8827  0.1074 -0.7176
  751TMC3    C711104   2.746   0.849  10.362  0.8280 -0.5117  0.2494
  751TMC3    C811105   2.312   0.891  10.573 -0.3651 -0.0390  0.2049
  751TMC3    O111106   2.847   0.912  10.385  0.2813 -0.1862 -0.2677
  751TMC3    O211107   2.278   0.787  10.522 -0.1487 -0.0112  0.2903
  752TMC3    C111108   0.325   0.766  17.537  0.1645  0.2317 -0.1951
  752TMC3    C211109   0.338   0.705  17.659 -0.0395 -0.0006 -0.5855
  752TMC3    C311110   0.272   0.765   0.071 -0.0614  0.0725 -0.5948
  752TMC3    C411111   0.258   0.888  17.521  0.0492  0.3686 -0.7606
  752TMC3    C511112   0.202   0.942  17.633  0.4282 -0.7843 -0.1497
  752TMC3    C611113   0.197   0.879   0.054 -0.0079 -0.3082  0.7218
  752TMC3     C11114   0.421   0.736  17.435  0.1746 -0.0193  0.4412
  752TMC3     O11115   0.483   0.630  17.454 -0.1372  0.4020  0.4454
  752TMC3     H11116   0.407   0.623  17.675 -2.0209 -1.6670 -0.5129
  752TMC3    H111117   0.240   0.932  17.424  2.1489 -0.0554 -1.3428
  752TMC3    H211118   0.126   0.915   0.127  0.2553  0.6141  0.5231
  752TMC3    C711119   0.104   1.049  17.608  0.2186  0.4798 -0.2329
  752TMC3    C811120   0.290   0.712   0.206 -0.4405 -0.9118  0.7466
  752TMC3    O111121   0.083   1.075  17.492 -0.1024  0.3795  0.4464
  752TMC3    O211122   0.330   0.599   0.214 -0.3129  0.1535 -0.0974
  753TMC3    C111123   3.689   2.507  13.489  0.6471 -0.3656 -0.7256
  753TMC3    C211124   3.805   2.519  13.559 -0.7770  0.2963 -0.1341
  753TMC3    C311125   3.908   2.447  13.516 -0.0966 -0.5712  0.0357
  753TMC3    C411126   3.667   2.422  13.386  0.0498 -0.3741 -0.0555
  753TMC3    C511127   3.775   2.339  13.353 -0.1177  0.1567  0.5986
  753TMC3    C611128   3.892   2.344  13.425 -0.0053  1.0603 -0.1021
  753TMC3     C11129   3.578   2.599  13.517  0.1460  0.1518  0.0774
  753TMC3     O11130   3.470   2.579  13.464  0.0790  0.4439 -0.2201
  753TMC3     H11131   3.812   2.600  13.631  0.8909 -0.0194  0.0675
  753TMC3    H111132   3.579   2.426  13.323  0.6956 -0.7611 -1.0008
  753TMC3    H211133   3.979   2.290  13.388  0.6131  1.4394  0.8134
  753TMC3    C711134   3.774   2.274  13.223  0.6289 -0.6749 -0.3395
  753TMC3    C811135   4.038   2.458  13.585 -0.5390  0.5079 -0.3801
  753TMC3    O111136   3.883   2.265  13.167 -0.3530  0.4269  0.1021
  753TMC3    O211137   4.141   2.434  13.517 -0.3758  0.3149  0.7863
  754MPD2     C11138   1.694   1.137  12.637  0.4779  0.0901 -0.2326
  754MPD2    C111139   1.667   1.012  12.685 -0.1176 -1.2429  0.5584
  754MPD2    C211140   1.547   0.997  12.747 -0.2400  0.2560  0.7324
  754MPD2    C311141   1.451   1.102  12.753  0.6375  0.7341  0.1901
  754MPD2    C411142   1.481   1.219  12.694  0.1765 -0.4775  0.4341
  754MPD2    C511143   1.607   1.234  12.638  0.6893 -0.1848 -0.2799
  754MPD2     H11144   1.517   0.905  12.794  0.2460 -0.1275  0.2868
  754MPD2    H111145   1.410   1.300  12.682 -0.0127 -0.3207  2.5533
  754MPD2    H211146   1.793   1.146  12.593  1.8499 -1.2880  2.6087
  754MPD2    H311147   1.636   1.328  12.592  0.0325 -1.3947 -3.1669
  754MPD2     N11148   1.331   1.083  12.815 -0.2233  0.5474  0.3405
  754MPD2    H511149   1.270   1.160  12.836 -0.3266  1.2121 -2.4131
  754MPD2    N111150   1.776   0.919  12.689  0.0887  0.0980  0.4929
  754MPD2    H711151   1.869   0.947  12.663  1.3201 -1.3236  3.3941
  755MPD2     C11152   1.656   1.322  13.544  0.3055  0.2667 -0.1781
  755MPD2    C111153   1.543   1.393  13.505  0.1438 -0.6094  0.2876
  755MPD2    C211154   1.456   1.336  13.419 -0.1221 -0.3137  0.3171
  755MPD2    C311155   1.472   1.209  13.372  0.5046 -0.4428 -0.6315
  755MPD2    C411156   1.591   1.148  13.408 -0.2477 -0.1252  0.0611
  755MPD2    C511157   1.685   1.198  13.494  0.6205 -0.1431 -0.6497
  755MPD2     H11158   1.367   1.394  13.398 -0.3039 -1.4033 -1.9037
  755MPD2    H111159   1.615   1.055  13.358  1.6813 -0.4650  1.6480
  755MPD2    H211160   1.734   1.353  13.613  0.7491  0.6628 -0.8651
  755MPD2    H311161   1.778   1.147  13.516  0.6767  0.8003  1.3043
  755MPD2     N11162   1.380   1.145  13.285  0.2475  0.0956  0.2911
  755MPD2    H511163   1.294   1.196  13.270  0.2562  0.6716  2.1565
  755MPD2    N111164   1.503   1.514  13.568 -0.1265 -0.4907  0.2808
  755MPD2    H711165   1.425   1.559  13.522 -0.4204 -1.0235  0.2584
  756MPD2     C11166   2.995   2.056   9.427  1.0322 -0.1373  0.2447
  756MPD2    C111167   2.879   2.082   9.495 -0.1750  0.0135 -0.3007
  756MPD2    C211168   2.771   1.994   9.485  0.6444 -0.4179 -0.2228
  756MPD2    C311169   2.782   1.890   9.392  0.1658  0.6092 -1.0401
  756MPD2    C411170   2.904   1.856   9.335 -0.3126 -0.0615  0.6956
  756MPD2    C511171   3.010   1.942   9.357  0.5816  0.3029  0.3084
  756MPD2     H11172   2.683   2.019   9.542  0.7999  0.0715 -0.2014
  756MPD2    H111173   2.915   1.776   9.263  2.2787 -0.2087  1.2547
  756MPD2    H211174   3.082   2.119   9.439  1.0824 -0.5293  1.9398
  756MPD2    H311175   3.103   1.915   9.307  0.1628  0.9421 -0.8031
  756MPD2     N11176   2.669   1.806   9.374  0.3416  0.0393  0.6938
  756MPD2    H511177   2.584   1.842   9.418 -0.3158  0.0475 -0.5785
  756MPD2    N111178   2.862   2.185   9.591 -0.1402  0.4853  0.3253
  756MPD2    H711179   2.767   2.195   9.626  0.3777  0.1518  1.8041
  757MPD2     C11180   2.221   0.814   9.258 -0.7456  0.1422 -0.1298
  757MPD2    C111181   2.148   0.897   9.329 -0.3864 -0.2496 -0.4060
  757MPD2    C211182   2.192   1.023   9.342  0.3683  0.0077  1.1454
  757MPD2    C311183   2.306   1.069   9.285 -0.1059  0.1803  0.6124
  757MPD2    C411184   2.383   0.991   9.202  0.5150 -0.7124  0.7107
  757MPD2    C511185   2.339   0.860   9.201 -0.3924 -0.0889 -0.5304
  757MPD2     H11186   2.129   1.095   9.393  2.0395  1.4549  1.1800
  757MPD2    H111187   2.480   1.021   9.165 -0.4153  1.2473 -0.1434
  757MPD2    H211188   2.203   0.707   9.258  1.0430 -0.1618  1.4126
  757MPD2    H311189   2.396   0.794   9.137  1.5803  0.8404  0.2728
  757MPD2     N11190   2.324   1.207   9.302 -0.3369 -0.8582 -0.4320
  757MPD2    H511191   2.261   1.238   9.375  1.3580 -0.1757  0.7485
  757MPD2    N111192   2.030   0.851   9.386 -0.3155  0.1689 -0.7231
  757MPD2    H711193   2.010   0.754   9.364  0.8626 -0.3523  0.5477
  758MPD2     C11194   1.904   0.657  16.102  0.0359 -0.4423  0.1080
  758MPD2    C111195   1.983   0.581  16.190  0.8746 -0.5009 -0.0096
  758MPD2    C211196   1.940   0.538  16.314  0.1137 -0.1831 -0.4813
  758MPD2    C311197   1.813   0.563  16.345 -0.0011  0.4014 -0.0144
  758MPD2    C411198   1.730   0.630  16.259  0.1830 -0.0946 -0.3081
  758MPD2    C511199   1.774   0.680  16.140  0.1000 -0.0589 -0.0400
  758MPD2     H11200   2.007   0.492  16.385 -0.2476 -1.0337 -0.6995
  758MPD2    H111201   1.628   0.651  16.289 -0.1908  1.8987 -2.9415
  758MPD2    H211202   1.948   0.706  16.016  0.6007 -1.0251  0.0656
  758MPD2    H311203   1.709   0.743  16.081 -1.2836 -1.4589 -0.0096
  758MPD2     N11204   1.757   0.515  16.464  1.2343 -0.1841  0.7483
  758MPD2    H511205   1.663   0.547  16.482  1.3051 -0.9422  2.4489
  758MPD2    N111206   2.117   0.572  16.154 -0.5315 -0.0896  0.1981
  758MPD2    H711207   2.142   0.607  16.062  0.0809 -0.1637  0.3385
  759MPD2     C11208   1.752   3.874   9.983  0.4166  0.1682 -0.6888
  759MPD2    C111209   1.822   3.757   9.953 -0.6749 -0.7805 -0.2181
  759MPD2    C211210   1.910   3.755   9.849 -0.1315  0.1160 -0.2421
  759MPD2    C311211   1.943   3.860   9.777  0.0353  0.4355  0.2083
  759MPD2    C411212   1.873   3.976   9.795  0.4464 -0.4955  0.4068
  759MPD2    C511213   1.786   3.979   9.903  0.2721 -0.0401 -0.4614
  759MPD2     H11214   1.967   3.663   9.848  2.6631  1.8329  2.1054
  759MPD2    H111215   1.896   4.063   9.735  1.1923 -0.7917  0.2641
  759MPD2    H211216   1.667   3.881  10.049  1.2768 -0.0743  0.4427
  759MPD2    H311217   1.722   4.065   9.921 -0.1778 -0.3121 -0.7704
  759MPD2     N11218   2.029   3.845   9.661  0.2325 -0.0572  0.7331
  759MPD2    H511219   2.072   3.753   9.659 -0.7640 -0.5640  2.2279
  759MPD2    N111220   1.821   3.638  10.033  0.5449  0.5762 -0.9006
  759MPD2    H711221   1.884   3.565  10.000  0.9294  0.5654 -0.1420
  760MPD2     C11222   0.903   1.051  12.098 -0.5679  0.0272  0.4639
  760MPD2    C111223   0.996   1.089  12.003 -0.8970 -0.3595 -0.4574
  760MPD2    C211224   1.091   0.985  11.983 -0.3144  0.7663 -0.9651
  760MPD2    C311225   1.095   0.867  12.051  0.6080  0.9133  0.1963
  760MPD2    C411226   1.002   0.836  12.141  0.2255  0.0341  0.6961
  760MPD2    C511227   0.902   0.927  12.159 -0.0315 -0.0563 -0.1254
  760MPD2     H11228   1.175   1.013  11.921  1.4194  2.4678  2.1684
  760MPD2    H111229   1.005   0.747  12.202 -1.9782 -1.1197 -0.9229
  760MPD2    H211230   0.823   1.120  12.120 -0.1430  0.6281  0.1150
  760MPD2    H311231   0.829   0.906  12.236  1.9978  0.5290  1.9567
  760MPD2     N11232   1.193   0.764  12.028 -0.1006  0.0944  0.2975
  760MPD2    H511233   1.198   0.680  12.085 -0.7184 -0.3302 -0.2826
  760MPD2    N111234   1.007   1.212  11.937 -0.5081 -0.6797  0.0908
  760MPD2    H711235   1.096   1.227  11.890  0.2773 -0.7329  1.5747
  761MPD2     C11236   1.973   0.835  10.943 -0.0257  0.1969  0.2833
  761MPD2    C111237   2.001   0.751  10.836 -0.3034  0.4956 -0.3394
  761MPD2    C211238   2.094   0.795  10.745 -0.6037 -0.1163 -0.3538
  761MPD2    C311239   2.145   0.918  10.747  0.0114  0.7166  0.4307
  761MPD2    C411240   2.105   1.003  10.844 -0.1544  0.0722 -0.3164
  761MPD2    C511241   2.024   0.962  10.939  0.0334  0.2932 -0.5330
  761MPD2     H11242   2.136   0.718  10.682 -0.8758  1.5289 -2.5599
  761MPD2    H111243   2.151   1.099  10.865  2.6582 -1.1234 -1.0834
  761MPD2    H211244   1.909   0.806  11.026 -0.6251  0.9324  0.0709
  761MPD2    H311245   2.000   1.029  11.021 -2.2662  1.8879 -2.5145
  761MPD2     N11246   2.256   0.959  10.674 -0.1624  0.8041 -0.0204
  761MPD2    H511247   2.300   1.047  10.700  0.4280  1.3417 -2.8299
  761MPD2    N111248   1.950   0.621  10.838 -0.5359  0.2519  0.6636
  761MPD2    H711249   1.907   0.590  10.925  1.2970  2.0051  2.1844
  762MPD2     C11250   2.363   0.597  10.845 -0.1606 -0.0148  0.0832
  762MPD2    C111251   2.380   0.473  10.787  0.5298 -0.5707 -0.1449
  762MPD2    C211252   2.488   0.448  10.704  0.5264  0.2517  0.2234
  762MPD2    C311253   2.579   0.543  10.695 -0.1362  0.2210  0.0679
  762MPD2    C411254   2.559   0.668  10.745 -0.7225  0.3741  0.8288
  762MPD2    C511255   2.448   0.698  10.824 -0.4522  0.0772 -0.5656
  762MPD2     H11256   2.518   0.353  10.661 -1.2288 -1.1448  2.0776
  762MPD2    H111257   2.633   0.745  10.726 -1.9100  1.1670 -0.5118
  762MPD2    H211258   2.275   0.623  10.903 -0.3362  2.1530 -1.1513
  762MPD2    H311259   2.432   0.799  10.859 -1.2530  0.0823 -0.9574
  762MPD2     N11260   2.695   0.514  10.616  0.7928  0.1374  0.2212
  762MPD2    H511261   2.691   0.424  10.571 -0.5645  0.6228 -0.6502
  762MPD2    N111262   2.275   0.384  10.815 -0.0554  0.7038  0.1140
  762MPD2    H711263   2.196   0.407  10.875  2.0561  1.4711  2.6118
  763MPD2     C11264   3.903   0.605  15.942  0.2055  0.0809  0.7946
  763MPD2    C111265   3.922   0.714  15.858 -0.7929 -0.2013  0.8078
  763MPD2    C211266   3.937   0.840  15.906  0.3265 -0.5141 -0.5601
  763MPD2    C311267   3.918   0.861  16.043 -0.9537  0.6968  0.1762
  763MPD2    C411268   3.904   0.746  16.133  0.1301 -1.1015 -0.3812
  763MPD2    C511269   3.889   0.620  16.078 -0.1410 -0.0996  0.3823
  763MPD2     H11270   3.956   0.922  15.837 -1.9944  0.3138 -0.2151
  763MPD2    H111271   3.896   0.752  16.241  3.7574 -1.6341 -0.0855
  763MPD2    H211272   3.894   0.503  15.907 -2.5054  0.7056 -0.3386
  763MPD2    H311273   3.872   0.536  16.143 -1.1359  0.2089  0.5268
  763MPD2     N11274   3.937   0.983  16.104 -0.4475  0.2127  0.0384
  763MPD2    H511275   3.936   0.985  16.205  1.0271  2.1940  0.0143
  763MPD2    N111276   3.935   0.695  15.718 -0.3009 -0.4676  0.3265
  763MPD2    H711277   3.918   0.781  15.666  0.7060 -1.0189 -0.8939
  764MPD2     C11278   2.120   1.501  17.275 -0.6927 -0.7049 -0.6106
  764MPD2    C111279   1.994   1.460  17.316  0.3077  0.3497 -0.7053
  764MPD2    C211280   1.984   1.333  17.373 -0.8481  0.4756  0.7679
  764MPD2    C311281   2.094   1.256  17.390 -0.6145 -0.4551  0.0298
  764MPD2    C411282   2.215   1.299  17.360 -0.3032  0.7214  0.4399
  764MPD2    C511283   2.225   1.419  17.299  0.7890  0.7285  0.4041
  764MPD2     H11284   1.886   1.291  17.393  0.5531 -2.2526  1.8535
  764MPD2    H111285   2.302   1.236  17.365 -1.5889 -0.9454  1.7950
  764MPD2    H211286   2.138   1.591  17.218  1.2985 -0.0299  1.0764
  764MPD2    H311287   2.323   1.449  17.263  1.3628 -0.9656  0.5341
  764MPD2     N11288   2.068   1.128  17.443 -0.4604  0.5665  0.5179
  764MPD2    H511289   1.970   1.106  17.455 -0.2393 -0.4913  0.4278
  764MPD2    N111290   1.877   1.535  17.299 -0.5824 -0.3678 -0.1650
  764MPD2    H711291   1.784   1.499  17.318 -0.6047 -0.6342 -0.7904
  765MPD2     C11292   1.563   4.630  15.656  0.2874  0.0583 -0.1942
  765MPD2    C111293   1.639   4.713  15.736 -0.2707  0.5759  0.2003
  765MPD2    C211294   1.772   4.677  15.753  0.2708  0.0292 -0.1198
  765MPD2    C311295   1.830   4.567  15.685 -0.5064 -0.1654  0.7806
  765MPD2    C411296   1.748   4.488  15.610 -0.5266  0.2410 -0.3946
  765MPD2    C511297   1.618   4.527  15.585  0.5160 -0.2929  0.6657
  765MPD2     H11298   1.838   0.014  15.814 -1.7207  0.8107  1.2550
  765MPD2    H111299   1.789   4.403  15.556  2.9158  2.2258 -0.8905
  765MPD2    H211300   1.458   4.654  15.645  0.2495 -0.7977 -1.7313
  765MPD2    H311301   1.558   4.469  15.516  0.5099 -0.5717  0.9055
  765MPD2     N11302   1.966   4.545  15.702 -0.4156  0.1055  0.6693
  765MPD2    H511303   2.005   4.609  15.771 -0.5949 -0.5011  1.3304
  765MPD2    N111304   1.581   0.103  15.797 -0.4566 -0.4132 -0.0099
  765MPD2    H711305   1.483   0.101  15.773 -0.3142  1.1919 -0.6866
  766MPD2     C11306   1.032   0.297  15.639 -0.5946  0.5693  0.0639
  766MPD2    C111307   1.166   0.268  15.641  0.1629 -0.1585  0.2852
  766MPD2    C211308   1.221   0.189  15.539  0.2631 -0.7816  0.5967
  766MPD2    C311309   1.141   0.128  15.446 -0.4343 -0.0502  0.3256
  766MPD2    C411310   1.008   0.153  15.443  0.5768  0.2487  0.3413
  766MPD2    C511311   0.950   0.228  15.543  0.9587 -0.0346 -0.0029
  766MPD2     H11312   1.327   0.167  15.546  0.4597  0.4575  1.4216
  766MPD2    H111313   0.945   0.115  15.364 -0.2500 -0.1307  1.1951
  766MPD2    H211314   0.986   0.355  15.718  2.7398  1.1046  1.6160
  766MPD2    H311315   0.843   0.240  15.545  0.9946  0.3064 -0.1540
  766MPD2     N11316   1.198   0.036  15.349 -0.4782 -0.1597 -0.3436
  766MPD2    H511317   1.126   4.719  15.290  0.7911 -3.1540  0.2132
  766MPD2    N111318   1.259   0.323  15.733  0.3556  0.1905 -0.0038
  766MPD2    H711319   1.352   0.326  15.691  0.6610  0.4220  0.6884
  767MPD2     C11320   0.876   0.352  15.254 -0.2088  0.1843 -0.1628
  767MPD2    C111321   0.991   0.327  15.184 -0.1161 -0.2864 -0.1888
  767MPD2    C211322   1.010   0.227  15.092  0.4459 -0.2372  0.7235
  767MPD2    C311323   0.901   0.146  15.069  0.3874  0.1687  0.3298
  767MPD2    C411324   0.775   0.170  15.131 -0.5229 -0.1039  0.3733
  767MPD2    C511325   0.766   0.277  15.221  0.7929 -0.1667 -0.5901
  767MPD2     H11326   1.105   0.213  15.043 -0.2768 -2.5461 -0.0027
  767MPD2    H111327   0.694   0.099  15.116  0.2905 -1.1287  0.8056
  767MPD2    H211328   0.864   0.424  15.334  2.2936  0.6113 -0.1905
  767MPD2    H311329   0.672   0.292  15.272  1.2076  0.4158  0.0122
  767MPD2     N11330   0.915   0.047  14.970 -0.2342 -0.3805  0.5129
  767MPD2    H511331   1.009   0.036  14.934  0.3886  0.9751  1.7407
  767MPD2    N111332   1.104   0.411  15.202  0.1001 -0.2493  0.0013
  767MPD2    H711333   1.196   0.369  15.187  0.5956  1.1891 -0.9904
  768MPD2     C11334   2.267   3.137  11.045  0.3644  0.1165  0.2571
  768MPD2    C111335   2.271   3.275  11.032 -0.0514  0.7494  0.7238
  768MPD2    C211336   2.392   3.343  11.058 -0.4425 -0.1877  0.1576
  768MPD2    C311337   2.504   3.273  11.102  0.1871 -0.2730  0.9526
  768MPD2    C411338   2.499   3.139  11.120 -0.7046 -0.8299 -0.3512
  768MPD2    C511339   2.380   3.068  11.085  0.3553  0.4903 -0.1054
  768MPD2     H11340   2.385   3.448  11.031 -0.1881 -0.3853 -0.7009
  768MPD2    H111341   2.589   3.083  11.144 -0.5696  0.1872  1.5101
  768MPD2    H211342   2.183   3.079  11.009  0.4677 -0.2665  0.6324
  768MPD2    H311343   2.374   2.960  11.078 -1.6312  0.5800  0.2353
  768MPD2     N11344   2.631   3.331  11.132  0.1307  0.1925  0.2502
  768MPD2    H511345   2.704   3.274  11.172  0.3870 -0.3580 -1.0177
  768MPD2    N111346   2.164   3.354  10.989  0.2672  0.2222  0.5088
  768MPD2    H711347   2.188   3.449  10.962  0.3511 -0.5490 -2.1281
  769MPD2     C11348   3.115   1.403  14.309  0.1725 -0.0831  0.1906
  769MPD2    C111349   3.014   1.361  14.397  0.7369  0.5352 -0.1511
  769MPD2    C211350   2.987   1.429  14.515  0.1513  0.2540  0.0567
  769MPD2    C311351   3.055   1.548  14.543 -0.1418 -0.5232  0.0134
  769MPD2    C411352   3.158   1.589  14.452  0.7143  0.0346 -1.0633
  769MPD2    C511353   3.184   1.517  14.338  0.2972  0.9858  0.5163
  769MPD2     H11354   2.906   1.394  14.579  0.9991 -1.0703  0.3900
  769MPD2    H111355   3.227   1.672  14.453  0.3919  0.2442  2.8752
  769MPD2    H211356   3.135   1.342  14.222 -0.0775  0.9768 -0.6062
  769MPD2    H311357   3.267   1.554  14.280  0.5572 -2.1800 -1.1134
  769MPD2     N11358   3.027   1.605  14.667  0.8028 -1.1086 -0.2589
  769MPD2    H511359   2.960   1.561  14.729  0.7839 -1.0564 -0.2425
  769MPD2    N111360   2.931   1.256  14.349  0.3781 -0.0476 -0.2421
  769MPD2    H711361   2.950   1.230  14.253  0.2539 -0.0109 -0.2775
  770MPD2     C11362   2.655   0.237  14.623  0.3786 -0.2070 -0.3889
  770MPD2    C111363   2.539   0.306  14.633 -0.0638  0.1326  0.1397
  770MPD2    C211364   2.543   0.436  14.575  0.6276 -0.0854  0.1624
  770MPD2    C311365   2.666   0.494  14.527 -0.4834 -0.5585 -0.8630
  770MPD2    C411366   2.773   0.411  14.511  0.3753  0.3071 -0.6727
  770MPD2    C511367   2.770   0.286  14.559  0.1042 -0.1841  0.5771
  770MPD2     H11368   2.451   0.492  14.585  2.1329  2.2172  1.4110
  770MPD2    H111369   2.864   0.453  14.468 -0.3055  2.2725 -0.1761
  770MPD2    H211370   2.667   0.133  14.654 -0.1439  0.0476  0.6755
  770MPD2    H311371   2.856   0.224  14.540  2.2004  1.9689  3.0839
  770MPD2     N11372   2.667   0.629  14.484 -0.2430  0.5561  0.5485
  770MPD2    H511373   2.582   0.683  14.474 -0.9316 -0.7512 -0.6874
  770MPD2    N111374   2.435   0.255  14.719 -0.6074 -0.5789 -0.5179
  770MPD2    H711375   2.446   0.163  14.760  0.1742  0.0507  0.6642
  771MPD2     C11376   3.638   4.439  13.380 -0.2680  0.3609  0.2114
  771MPD2    C111377   3.584   4.550  13.307  0.2515  0.0521 -0.4466
  771MPD2    C211378   3.473   4.525  13.229 -0.5915  0.1131  0.1626
  771MPD2    C311379   3.413   4.400  13.221 -0.1783 -0.0022 -0.1751
  771MPD2    C411380   3.469   4.296  13.292 -0.7338 -0.8270 -0.4805
  771MPD2    C511381   3.579   4.311  13.369  0.1948 -0.3763  0.2563
  771MPD2     H11382   3.439   4.600  13.158  0.9924  1.5570  0.9464
  771MPD2    H111383   3.432   4.194  13.293 -0.9738 -0.7296  0.6163
  771MPD2    H211384   3.709   4.460  13.459  0.0922  1.0739 -0.3006
  771MPD2    H311385   3.603   4.238  13.445  1.4410  0.1360  0.3487
  771MPD2     N11386   3.322   4.379  13.114  0.6937  0.1223 -1.2173
  771MPD2    H511387   3.282   4.469  13.090 -1.5394 -0.9070 -1.3502
  771MPD2    N111388   3.628   4.682  13.315  0.5819 -0.0251 -0.1392
  771MPD2    H711389   3.569   0.033  13.280  0.2681  0.7058  1.9147
  772MPD2     C11390   3.303   0.549  13.189  0.1938  0.3777 -0.3028
  772MPD2    C111391   3.341   0.464  13.299 -0.3326  0.0542 -0.4876
  772MPD2    C211392   3.240   0.415  13.383 -0.0081  0.0932  0.4736
  772MPD2    C311393   3.104   0.441  13.359  0.1020  0.3566  0.7208
  772MPD2    C411394   3.073   0.517  13.246  0.3250 -0.3996  0.0886
  772MPD2    C511395   3.171   0.565  13.162  0.3253 -0.4119 -0.2150
  772MPD2     H11396   3.281   0.359  13.466  1.5078 -1.3923 -1.2628
  772MPD2    H111397   2.971   0.530  13.211  0.4684  0.8661  0.1589
  772MPD2    H211398   3.374   0.590  13.118  0.2342  0.3684 -0.2677
  772MPD2    H311399   3.153   0.622  13.072 -0.6699  2.3469  1.7572
  772MPD2     N11400   3.002   0.401  13.440 -0.6585  0.2367  0.7564
  772MPD2    H511401   2.905   0.418  13.415 -0.2600 -0.4544 -1.3233
  772MPD2    N111402   3.476   0.408  13.317 -0.1966 -0.3529  0.1790
  772MPD2    H711403   3.489   0.354  13.402  0.5383 -0.1663  0.1923
  773MPD2     C11404   2.783   0.084  17.399 -0.4749 -0.1977  0.3393
  773MPD2    C111405   2.680   0.093  17.492 -0.3177 -0.6331  0.5287
  773MPD2    C211406   2.695   0.053  17.629  0.2418  0.3489  0.5997
  773MPD2    C311407   2.823   0.005  17.667 -0.5940 -0.2886  0.0502
  773MPD2    C411408   2.921   0.010  17.579 -0.0412  0.1134  0.3174
  773MPD2    C511409   2.903   0.049  17.449  0.1490  0.2095 -0.2420
  773MPD2     H11410   2.612   0.062   0.002 -0.1471  0.4471  0.1251
  773MPD2    H111411   3.022   4.721  17.616 -0.1799  0.4103  0.8057
  773MPD2    H211412   2.774   0.109  17.293  0.3183 -2.3049 -0.2162
  773MPD2    H311413   2.993   0.061  17.388 -1.4732 -0.4336 -2.7823
  773MPD2     N11414   2.853   4.680   0.106 -0.1636  0.2242  0.1234
  773MPD2    H511415   2.782   4.697   0.177 -0.9206 -0.1558 -0.5462
  773MPD2    N111416   2.558   0.140  17.443 -0.3566 -0.0771  0.5178
  773MPD2    H711417   2.475   0.126  17.501  1.1015  0.1239  2.6387
  774MPD2     C11418   1.578   0.021  13.095 -0.3631 -0.0922  0.1398
  774MPD2    C111419   1.648   0.102  13.178  0.4295 -0.4422 -0.5998
  774MPD2    C211420   1.731   0.193  13.131  0.2455  0.4084 -0.3444
  774MPD2    C311421   1.751   0.211  12.997 -0.6773  0.6070  0.2284
  774MPD2    C411422   1.688   0.121  12.911  0.0533  0.6774  1.1329
  774MPD2    C511423   1.602   0.030  12.959  0.2211 -0.2400  0.2194
  774MPD2     H11424   1.772   0.255  13.210 -3.2135  1.0371  0.9885
  774MPD2    H111425   1.694   0.137  12.804  0.8893  0.0139  1.0822
  774MPD2    H211426   1.517   4.662  13.128  1.1965 -0.6842  1.5349
  774MPD2    H311427   1.545   4.688  12.895  0.2528  1.4389 -1.5365
  774MPD2     N11428   1.833   0.315  12.955 -0.1415  0.1771 -0.8179
  774MPD2    H511429   1.857   0.374  13.034 -0.2532 -0.6857 -0.1381
  774MPD2    N111430   1.654   0.091  13.322  0.2859  0.3297 -0.1596
  774MPD2    H711431   1.723   0.148  13.369 -0.7777  0.5489  1.1023
  775MPD2     C11432   3.373   1.402  15.383 -0.7871  0.0559  0.0461
  775MPD2    C111433   3.322   1.528  15.385 -0.0379  0.0397  0.2743
  775MPD2    C211434   3.403   1.640  15.375 -0.4855  0.0207  0.2536
  775MPD2    C311435   3.537   1.624  15.372 -0.4429  0.3003  0.0862
  775MPD2    C411436   3.588   1.502  15.356 -0.4253 -0.0869 -0.3653
  775MPD2    C511437   3.505   1.390  15.358  0.2188  0.4659 -0.5090
  775MPD2     H11438   3.356   1.738  15.380 -3.3070 -1.4389  2.4725
  775MPD2    H111439   3.692   1.484  15.331 -0.0769  0.9201  0.3890
  775MPD2    H211440   3.318   1.309  15.390  0.4570 -0.6736  0.2546
  775MPD2    H311441   3.550   1.292  15.344 -4.1213 -1.5449 -0.4893
  775MPD2     N11442   3.627   1.736  15.367 -0.2478  0.0640  0.4494
  775MPD2    H511443   3.723   1.725  15.335 -1.3776  1.8140 -3.5213
  775MPD2    N111444   3.184   1.538  15.397 -0.8083 -0.1532  0.2050
  775MPD2    H711445   3.136   1.452  15.423 -0.0564 -0.7706 -0.4580
  776MPD2     C11446   3.187   1.949  11.165  0.0792 -0.0450 -0.1945
  776MPD2    C111447   3.099   1.959  11.267 -0.4045  0.2365 -0.1985
  776MPD2    C211448   3.128   2.057  11.357 -0.7251 -0.5628  0.1428
  776MPD2    C311449   3.225   2.153  11.339 -0.0612 -0.2759 -0.1436
  776MPD2    C411450   3.317   2.140  11.237  0.7392 -0.6998  0.1759
  776MPD2    C511451   3.294   2.041  11.149 -0.1619  0.7244 -0.5584
  776MPD2     H11452   3.058   2.063  11.438 -2.3624  1.3990 -1.4136
  776MPD2    H111453   3.408   2.198  11.227 -0.3426  0.8477 -0.6191
  776MPD2    H211454   3.179   1.861  11.102  1.8822 -0.8868  0.7563
  776MPD2    H311455   3.358   2.032  11.062  1.4006 -0.7851  0.7477
  776MPD2     N11456   3.238   2.270  11.415 -0.0795 -0.2236 -0.4536
  776MPD2    H511457   3.315   2.328  11.385 -0.0002  0.1201  0.3920
  776MPD2    N111458   3.000   1.861  11.283 -0.0560  0.1308  0.5146
  776MPD2    H711459   2.991   1.802  11.201  0.9717  2.8015 -1.5356
  777MPD2     C11460   2.802   4.007   1.010 -0.2448  1.1643 -0.0764
  777MPD2    C111461   2.684   4.073   1.042 -0.1118 -0.4942 -0.0507
  777MPD2    C211462   2.573   4.056   0.963 -0.8163  0.2314  0.2273
  777MPD2    C311463   2.585   3.964   0.861 -0.0145  0.3573 -0.7285
  777MPD2    C411464   2.707   3.914   0.819 -0.5329 -0.4637 -0.1434
  777MPD2    C511465   2.819   3.933   0.897  0.7757 -0.8326  1.2963
  777MPD2     H11466   2.477   4.091   1.000 -0.6156  0.5666  0.4293
  777MPD2    H111467   2.736   3.845   0.741 -0.2962  0.5354 -0.9357
  777MPD2    H211468   2.891   4.011   1.072  0.1136 -0.0810 -0.5074
  777MPD2    H311469   2.916   3.896   0.864  0.0610 -2.4084  0.9861
  777MPD2     N11470   2.464   3.921   0.793  0.3263  0.8539  0.0847
  777MPD2    H511471   2.379   3.954   0.837  1.3287  1.4616  1.5633
  777MPD2    N111472   2.683   4.155   1.154  0.3877 -0.0876  0.3310
  777MPD2    H711473   2.774   4.176   1.195 -0.1704  1.1778  0.9145
  778MPD2     C11474   3.542   4.083  14.967  0.1111  1.0534 -0.2269
  778MPD2    C111475   3.458   4.081  14.861  0.3111 -0.1700  0.0624
  778MPD2    C211476   3.471   4.174  14.758 -0.1639 -0.0379 -0.4897
  778MPD2    C311477   3.576   4.261  14.762 -0.3003  0.3700  0.2280
  778MPD2    C411478   3.663   4.259  14.872 -0.2424  0.2574  0.0653
  778MPD2    C511479   3.643   4.170  14.976 -0.4017 -0.3825  0.1265
  778MPD2     H11480   3.401   4.171  14.674  0.1917  1.2720 -0.8431
  778MPD2    H111481   3.745   4.328  14.884 -0.6004  0.0714  3.5341
  778MPD2    H211482   3.531   4.012  15.048 -0.7890 -1.2799 -2.3960
  778MPD2    H311483   3.702   4.174  15.066 -1.6798 -0.0814  0.9542
  778MPD2     N11484   3.596   4.352  14.652 -0.4002  0.2759 -0.4301
  778MPD2    H511485   3.541   4.351  14.567  1.0063 -1.8285 -1.3369
  778MPD2    N111486   3.356   3.983  14.854  0.0395  0.2959 -0.2637
  778MPD2    H711487   3.302   3.986  14.767 -1.8397 -0.6656  0.8652
  779MPD2     C11488   3.694   3.365  14.373  0.6414 -0.4240  0.6129
  779MPD2    C111489   3.808   3.409  14.310 -0.0031  0.7302  0.2014
  779MPD2    C211490   3.810   3.532  14.245 -0.4931 -0.2572 -0.2721
  779MPD2    C311491   3.692   3.607  14.233  0.4281 -0.0547 -0.2062
  779MPD2    C411492   3.576   3.551  14.293 -0.3090 -0.3653 -0.1366
  779MPD2    C511493   3.583   3.434  14.360 -0.1615 -0.1817 -0.1458
  779MPD2     H11494   3.899   3.566  14.193 -0.0514 -0.5735  0.2766
  779MPD2    H111495   3.476   3.591  14.292 -0.0183  0.4242  2.1591
  779MPD2    H211496   3.693   3.278  14.437 -1.2673 -0.1134  0.9929
  779MPD2    H311497   3.493   3.402  14.411 -0.4292  0.4173 -0.2476
  779MPD2     N11498   3.696   3.734  14.172  0.3433 -0.2872  0.1438
  779MPD2    H511499   3.785   3.772  14.141  1.0344 -2.4465 -0.5208
  779MPD2    N111500   3.920   3.323  14.308 -0.1434 -0.3693  0.0806
  779MPD2    H711501   4.001   3.360  14.259 -1.1675  1.0370 -0.5624
  780MPD2     C11502   1.813   2.139   0.429 -0.1665  0.1521  0.0904
  780MPD2    C111503   1.868   2.046   0.349  0.3329 -0.5415 -0.2086
  780MPD2    C211504   1.962   2.092   0.262  0.3388  0.0200  0.8515
  780MPD2    C311505   2.001   2.219   0.253  0.4167  0.1972 -0.2892
  780MPD2    C411506   1.942   2.318   0.326 -0.3873 -0.0156 -0.2039
  780MPD2    C511507   1.847   2.277   0.410 -0.3857  0.4772 -0.1288
  780MPD2     H11508   2.020   2.012   0.217  0.7812  0.3433  0.8494
  780MPD2    H111509   1.972   2.422   0.324  2.4149 -0.8546 -1.1111
  780MPD2    H211510   1.735   2.101   0.495  0.1754  1.9625  1.5391
  780MPD2    H311511   1.797   2.356   0.465 -1.1766 -1.0058  1.2828
  780MPD2     N11512   2.099   2.246   0.158 -0.7669  0.3255 -0.3562
  780MPD2    H511513   2.120   2.170   0.094  1.6453  1.3357 -0.7749
  780MPD2    N111514   1.827   1.913   0.374 -0.2500  0.5873 -0.2825
  780MPD2    H711515   1.767   1.892   0.453  1.8387  1.5353  1.5580
  781MPD2     C11516   0.610   0.526  11.700  0.5442  0.4763  1.4719
  781MPD2    C111517   0.643   0.431  11.794  0.3513  0.1500  0.0150
  781MPD2    C211518   0.745   0.346  11.762  0.6427 -0.1017  0.5812
  781MPD2    C311519   0.831   0.362  11.652 -0.6134  0.1483  0.3670
  781MPD2    C411520   0.795   0.461  11.567  0.1758 -0.0540 -0.1960
  781MPD2    C511521   0.691   0.540  11.595  0.0470 -0.7682  0.4556
  781MPD2     H11522   0.763   0.266  11.833 -1.9044 -0.8309  0.4168
  781MPD2    H111523   0.858   0.484  11.482 -1.4108 -1.6102 -1.7715
  781MPD2    H211524   0.529   0.598  11.700  0.4220  0.3376  1.3175
  781MPD2    H311525   0.651   0.617  11.530  1.6376  2.2134  3.0155
  781MPD2     N11526   0.941   0.274  11.612 -0.2442 -0.9001  0.7205
  781MPD2    H511527   1.000   0.294  11.532 -0.4647  0.5248  0.9168
  781MPD2    N111528   0.558   0.412  11.910 -0.0333 -0.4122  0.4316
  781MPD2    H711529   0.580   0.334  11.971 -0.9082 -0.3806  0.7982
  782MPD2     C11530   2.917   1.375   9.941  0.5378  0.6474 -0.0590
  782MPD2    C111531   3.046   1.367   9.980  0.0165  0.6542 -0.1103
  782MPD2    C211532   3.105   1.470  10.047 -0.4234  0.3237 -0.0848
  782MPD2    C311533   3.029   1.575  10.096 -0.4940  0.4086  0.5286
  782MPD2    C411534   2.892   1.582  10.057  0.1024  0.6171  0.6671
  782MPD2    C511535   2.836   1.472   9.992  0.2939 -0.6025  0.5422
  782MPD2     H11536   3.209   1.466  10.075 -0.7562 -2.0385  0.7671
  782MPD2    H111537   2.832   1.671  10.077 -2.3002 -0.4830 -1.6575
  782MPD2    H211538   2.868   1.302   9.878 -0.5868  1.5619 -0.2551
  782MPD2    H311539   2.735   1.466   9.954  0.2929  0.7982  0.3224
  782MPD2     N11540   3.092   1.672  10.176  0.3816 -0.2905 -0.3650
  782MPD2    H511541   3.189   1.652  10.196  0.6032  0.7097 -0.4632
  782MPD2    N111542   3.125   1.264   9.922 -0.0308 -0.2283  0.2916
  782MPD2    H711543   3.086   1.186   9.870  0.4490  0.2850 -0.8380
  783MPD2     C11544   2.828   0.541  10.185 -0.3104 -0.2683 -0.8739
  783MPD2    C111545   2.826   0.676  10.223 -0.0956  0.0957 -0.4595
  783MPD2    C211546   2.926   0.753  10.165  0.1242 -0.0363  0.6901
  783MPD2    C311547   3.031   0.707  10.097 -0.5824 -0.0228 -1.2850
  783MPD2    C411548   3.039   0.575  10.072  0.7971 -0.4702  0.2926
  783MPD2    C511549   2.936   0.492  10.113 -0.2939 -0.6371  1.0175
  783MPD2     H11550   2.925   0.861  10.175  1.4180 -0.0687  1.1372
  783MPD2    H111551   3.113   0.526  10.009 -0.2495 -1.1398 -0.4223
  783MPD2    H211552   2.757   0.469  10.225 -0.8788  0.8301  0.1213
  783MPD2    H311553   2.945   0.391  10.077  0.0558 -0.3748  0.3694
  783MPD2     N11554   3.121   0.801  10.046 -0.3213  0.2455  0.1857
  783MPD2    H511555   3.092   0.897  10.064 -1.8670 -0.2571  0.3275
  783MPD2    N111556   2.719   0.737  10.290 -0.0661  0.2661 -0.4722
  783MPD2    H711557   2.638   0.676  10.287  0.1787 -0.0259 -0.9861
  784MPD2     C11558   0.151   1.212   1.358 -0.3663 -0.6639  0.3653
  784MPD2    C111559   0.198   1.339   1.364  0.4566  0.1389 -0.6321
  784MPD2    C211560   0.117   1.444   1.316  0.0476 -0.0337  0.6066
  784MPD2    C311561   4.718   1.410   1.261  0.0709 -0.7479  0.3507
  784MPD2    C411562   4.677   1.278   1.249 -0.1122  0.0207 -0.2908
  784MPD2    C511563   0.035   1.184   1.300 -0.1985 -0.3998  0.2234
  784MPD2     H11564   0.159   1.544   1.314 -2.0768  0.8173 -0.8158
  784MPD2    H111565   4.589   1.239   1.200 -1.6187 -0.9424  3.1865
  784MPD2    H211566   0.206   1.130   1.403  0.3746  0.2117  1.0632
  784MPD2    H311567   4.722   1.081   1.302 -0.1757 -0.4213 -0.7224
  784MPD2     N11568   4.625   1.508   1.205 -0.1800 -0.2544  0.1476
  784MPD2    H511569   4.539   1.481   1.158  0.4076 -3.0203  0.6688
  784MPD2    N111570   0.311   1.379   1.434 -0.7549  0.1459 -0.2331
  784MPD2    H711571   0.325   1.480   1.442  0.3674  0.2016 -3.1280
  785MPD2     C11572   1.081   4.460  10.529 -0.0748 -0.2789 -0.4232
  785MPD2    C111573   1.034   4.516  10.646 -0.4816  0.2037 -0.3474
  785MPD2    C211574   0.904   4.512  10.675  0.0532 -0.1855 -0.0181
  785MPD2    C311575   0.812   4.462  10.581  0.2175  0.0779 -0.6314
  785MPD2    C411576   0.849   4.406  10.462 -0.5530  0.4122  0.3491
  785MPD2    C511577   0.983   4.416  10.439 -0.3835 -0.1072 -0.9936
  785MPD2     H11578   0.868   4.558  10.766  1.1598 -0.1921  0.4324
  785MPD2    H111579   0.785   4.345  10.400 -1.2325  1.6156 -0.1233
  785MPD2    H211580   1.181   4.455  10.486  0.6906 -0.3719  1.3553
  785MPD2    H311581   1.025   4.378  10.347 -0.1614  1.3063 -1.4781
  785MPD2     N11582   0.674   4.462  10.628 -0.1257 -0.2974  0.1164
  785MPD2    H511583   0.658   4.504  10.719  1.0411  1.1694 -0.3529
  785MPD2    N111584   1.119   4.558  10.751 -0.3853  0.1262  0.3266
  785MPD2    H711585   1.077   4.592  10.836  1.6717  2.6154  0.3461
  786MPD2     C11586   3.933   2.774  14.437  0.3418  0.3217  0.9751
  786MPD2    C111587   4.035   2.685  14.453 -0.3884  0.6156 -0.1805
  786MPD2    C211588   4.107   2.687  14.570 -0.0493 -0.0674 -0.0671
  786MPD2    C311589   4.089   2.782  14.670 -0.1253  0.8263  0.6983
  786MPD2    C411590   3.975   2.858  14.659  0.1446 -0.0639  0.1333
  786MPD2    C511591   3.902   2.858  14.545 -0.3309  0.0863  0.2654
  786MPD2     H11592   4.179   2.607  14.577 -0.0678  0.0427  1.3543
  786MPD2    H111593   3.954   2.937  14.730  1.5775 -2.1952  2.9418
  786MPD2    H211594   3.881   2.783  14.342  0.3011 -0.6699  0.8985
  786MPD2    H311595   3.836   2.940  14.522  0.5980  0.4778 -1.0072
  786MPD2     N11596   4.167   2.785  14.792 -0.5477  0.5314  0.2114
  786MPD2    H511597   4.130   2.830  14.875 -2.1947 -0.8289  0.1992
  786MPD2    N111598   4.091   2.601  14.355 -0.1782  0.2856 -0.4410
  786MPD2    H711599   4.179   2.555  14.376  0.2719  0.6351 -1.5370
  787MPD2     C11600   4.403   2.284  14.621 -0.3244 -0.3291 -0.9194
  787MPD2    C111601   4.418   2.214  14.507 -0.7994  0.4613  0.8042
  787MPD2    C211602   4.473   2.086  14.511 -0.0902  0.1057  0.4438
  787MPD2    C311603   4.510   2.021  14.627 -0.2169  0.0059  0.5320
  787MPD2    C411604   4.503   2.094  14.740  0.4681  0.0133 -0.2885
  787MPD2    C511605   4.449   2.218  14.731  0.3491 -0.4814  0.3826
  787MPD2     H11606   4.481   2.037  14.415  0.9261  0.2535  0.4486
  787MPD2    H111607   4.533   2.047  14.834  1.3858  0.1805 -0.4999
  787MPD2    H211608   4.350   2.377  14.634 -0.8175 -0.6920 -0.2811
  787MPD2    H311609   4.450   2.270  14.826  0.5685 -0.7652  0.5338
  787MPD2     N11610   4.566   1.894  14.607  0.4750 -0.4618 -0.2504
  787MPD2    H511611   4.576   1.862  14.512  1.6677 -1.5034  0.2305
  787MPD2    N111612   4.352   2.264  14.391  0.3997  0.2277  0.0615
  787MPD2    H711613   4.309   2.354  14.410  0.5202  0.4754 -0.8543
  788MPD2     C11614   0.539   4.641   0.926 -0.3983 -0.0776 -0.0982
  788MPD2    C111615   0.539   4.627   0.783  0.1025  0.2368 -0.5011
  788MPD2    C211616   0.548   0.015   0.700 -0.8624 -0.0973  0.0205
  788MPD2    C311617   0.565   0.138   0.758 -1.1131 -0.3750 -0.6146
  788MPD2    C411618   0.562   0.154   0.897  0.4193 -0.0571 -0.1764
  788MPD2    C511619   0.545   0.040   0.978  0.5513  0.1527 -0.2223
  788MPD2     H11620   0.531   0.005   0.594  0.4119  2.7025 -0.4338
  788MPD2    H111621   0.573   0.252   0.941  1.0932  0.3953 -1.3388
  788MPD2    H211622   0.538   4.560   0.998  1.9726 -0.3559 -0.4023
  788MPD2    H311623   0.549   0.050   1.086  1.0671  1.0266 -0.3271
  788MPD2     N11624   0.562   0.261   0.683 -0.0064  0.5201 -0.3534
  788MPD2    H511625   0.578   0.343   0.741  0.9771  1.2253 -1.6385
  788MPD2    N111626   0.540   4.498   0.729 -0.4532 -0.5658  0.0954
  788MPD2    H711627   0.546   4.483   0.628  0.1862 -0.0278  0.0547
  789MPD2     C11628   1.581   0.206  16.203  0.0666 -0.8494 -0.3444
  789MPD2    C111629   1.492   0.101  16.193 -0.0562 -0.1530  0.0341
  789MPD2    C211630   1.359   0.128  16.222  0.8829 -0.5930 -0.3453
  789MPD2    C311631   1.316   0.245  16.276 -0.7000  0.5783 -0.0597
  789MPD2    C411632   1.411   0.349  16.280 -0.5910 -0.0515  0.3050
  789MPD2    C511633   1.541   0.328  16.245  0.2482  0.3018 -0.5106
  789MPD2     H11634   1.288   0.047  16.209  0.8702 -0.4263 -1.3065
  789MPD2    H111635   1.381   0.451  16.303  2.1381  0.7619  0.2113
  789MPD2    H211636   1.688   0.202  16.187  0.2093 -0.7797  0.5596
  789MPD2    H311637   1.611   0.411  16.241 -0.4856  0.8547 -1.7880
  789MPD2     N11638   1.185   0.280  16.314  0.5227 -0.3171  0.9926
  789MPD2    H511639   1.164   0.374  16.345  1.8252  0.5072 -0.6077
  789MPD2    N111640   1.525   4.695  16.148 -0.3349  0.4912 -0.1488
  789MPD2    H711641   1.451   4.625  16.144  1.1702 -1.1689  0.7253
  790MPD2     C11642   2.779   2.564  13.434 -0.5797 -0.0560 -0.6800
  790MPD2    C111643   2.739   2.432  13.438 -0.5394  0.1802  0.4353
  790MPD2    C211644   2.683   2.372  13.325 -1.2765  0.5319 -0.8808
  790MPD2    C311645   2.693   2.440  13.201  0.0891 -0.0930  0.0041
  790MPD2    C411646   2.746   2.571  13.196  0.1255 -0.1965 -0.0261
  790MPD2    C511647   2.787   2.629  13.311  0.0221 -0.1350 -0.1813
  790MPD2     H11648   2.641   2.272  13.323  0.5835 -0.3101  1.9096
  790MPD2    H111649   2.751   2.628  13.105 -1.6703 -0.3147 -0.1951
  790MPD2    H211650   2.823   2.618  13.516 -0.3391  0.9265 -1.4540
  790MPD2    H311651   2.834   2.727  13.317 -0.8241  0.3180 -0.9920
  790MPD2     N11652   2.643   2.373  13.092  0.1703  0.2505  0.2108
  790MPD2    H511653   2.597   2.283  13.104  1.0821 -0.3985 -1.2494
  790MPD2    N111654   2.753   2.360  13.562  0.1301  0.8293  0.3862
  790MPD2    H711655   2.803   2.410  13.635 -2.0564  0.5765  2.0741
  791MPD2     C11656   2.034   2.207  13.134  0.1693  0.4339  0.4227
  791MPD2    C111657   2.083   2.163  13.013  0.5314  0.5478  0.0574
  791MPD2    C211658   2.003   2.082  12.942  0.2765  0.4302 -0.0373
  791MPD2    C311659   1.883   2.045  12.985 -0.5473  0.1202 -0.0820
  791MPD2    C411660   1.831   2.088  13.110 -0.2624  0.1602 -0.2124
  791MPD2    C511661   1.914   2.163  13.191  0.2258  0.3334  0.6802
  791MPD2     H11662   2.029   2.040  12.845 -2.5055  0.9361 -1.0076
  791MPD2    H111663   1.732   2.054  13.138 -0.9829  0.2029 -2.7105
  791MPD2    H211664   2.100   2.270  13.193  2.7840 -2.2676  0.4076
  791MPD2    H311665   1.890   2.203  13.290 -0.4613  2.1481 -0.2148
  791MPD2     N11666   1.812   1.952  12.897  0.4892  0.1755  0.0672
  791MPD2    H511667   1.860   1.924  12.813  1.0784  1.3404  0.0093
  791MPD2    N111668   2.217   2.190  12.984 -0.0111 -0.1991  0.1631
  791MPD2    H711669   2.271   2.257  13.038  1.6744 -2.3733  1.1900
  792MPD2     C11670   2.788   2.156  11.294  0.5188  0.3570 -0.1151
  792MPD2    C111671   2.816   2.159  11.157  0.3445 -0.1749 -0.7931
  792MPD2    C211672   2.732   2.093  11.068  0.0504 -0.3655  0.9653
  792MPD2    C311673   2.614   2.033  11.108 -0.2318 -0.0696 -0.2620
  792MPD2    C411674   2.579   2.048  11.242  0.1189 -0.2801 -0.3327
  792MPD2    C511675   2.671   2.100  11.335 -0.0548 -1.0367  0.1024
  792MPD2     H11676   2.760   2.091  10.964  0.3878  0.7450  1.0381
  792MPD2    H111677   2.483   2.021  11.284  0.1891 -1.6731 -1.0706
  792MPD2    H211678   2.856   2.199  11.366  0.8178 -0.9873  0.4194
  792MPD2    H311679   2.641   2.100  11.439  1.5624 -0.9321  0.5673
  792MPD2     N11680   2.516   1.995  11.019  0.4755  0.0743 -0.1467
  792MPD2    H511681   2.429   1.956  11.055  1.2063 -1.2815  0.1297
  792MPD2    N111682   2.929   2.226  11.111  0.9054 -0.2825  0.2218
  792MPD2    H711683   2.959   2.300  11.173 -0.5204  0.0422  0.5042
  793MPD2     C11684   2.338   2.247  10.050  0.2350 -0.1504 -0.4399
  793MPD2    C111685   2.451   2.262  10.131 -0.3896 -0.3539  0.4460
  793MPD2    C211686   2.440   2.224  10.262 -0.0696  0.3341 -0.0262
  793MPD2    C311687   2.321   2.175  10.319 -0.7827  1.3077  0.3406
  793MPD2    C411688   2.209   2.177  10.237  1.1430 -0.0975  0.4937
  793MPD2    C511689   2.220   2.209  10.105 -0.9617 -0.2040  0.2324
  793MPD2     H11690   2.524   2.230  10.330 -1.5269  2.4861  1.5903
  793MPD2    H111691   2.115   2.150  10.283  2.2505 -1.2929  2.0673
  793MPD2    H211692   2.332   2.277   9.946 -3.1086  1.5655  0.2645
  793MPD2    H311693   2.138   2.202  10.035  0.1744 -2.8124 -0.8198
  793MPD2     N11694   2.321   2.117  10.448 -0.4236  0.6956  0.0060
  793MPD2    H511695   2.410   2.099  10.493 -0.6749  0.2562  0.3254
  793MPD2    N111696   2.575   2.301  10.068 -0.0393  0.2511 -0.7706
  793MPD2    H711697   2.652   2.315  10.133 -1.6760  3.0473  0.5765
  794MPD2     C11698   2.285   0.491  16.732  0.2428 -0.0479  0.3100
  794MPD2    C111699   2.178   0.511  16.813  0.3581  0.5514 -0.3687
  794MPD2    C211700   2.079   0.604  16.776  0.3513 -0.9571  0.0680
  794MPD2    C311701   2.099   0.683  16.661 -0.7025  0.4435  0.1656
  794MPD2    C411702   2.206   0.659  16.579 -0.2966  0.2793  0.2602
  794MPD2    C511703   2.294   0.562  16.616 -0.0037  0.9474 -0.1816
  794MPD2     H11704   1.992   0.610  16.840  0.1390  0.5628 -0.3671
  794MPD2    H111705   2.220   0.719  16.490  0.8215 -1.4672 -0.7631
  794MPD2    H211706   2.355   0.409  16.746 -0.7920 -1.0484 -0.4109
  794MPD2    H311707   2.377   0.542  16.550 -1.4931 -1.6095 -1.2685
  794MPD2     N11708   2.002   0.771  16.605 -0.0206 -0.3166 -0.1666
  794MPD2    H511709   2.035   0.807  16.516 -2.3361 -0.4559 -1.1036
  794MPD2    N111710   2.168   0.446  16.942 -0.4040 -0.0066  0.4301
  794MPD2    H711711   2.120   0.497  17.016  0.1442  0.3327  0.5614
  795MPD2     C11712   0.008   3.482  13.271  0.3295  0.3836  0.2023
  795MPD2    C111713   0.031   3.464  13.134 -0.2738 -0.1866 -0.1704
  795MPD2    C211714   0.135   3.384  13.096 -0.5878  0.0674 -0.3707
  795MPD2    C311715   0.217   3.329  13.193 -0.7351 -0.1879  0.5241
  795MPD2    C411716   0.195   3.360  13.328  0.3374  0.3030  0.2495
  795MPD2    C511717   0.092   3.439  13.365 -0.4064  0.3588  0.0116
  795MPD2     H11718   0.155   3.362  12.992 -0.1828 -0.8627 -0.0951
  795MPD2    H111719   0.259   3.322  13.406 -0.7524  1.7641  1.8800
  795MPD2    H211720   4.657   3.556  13.299 -1.6817 -1.1856 -0.9572
  795MPD2    H311721   0.068   3.463  13.468 -0.6756  0.5629 -0.1027
  795MPD2     N11722   0.317   3.242  13.148 -0.2631  0.0108 -0.1593
  795MPD2    H511723   0.325   3.236  13.047 -1.2165 -1.7522 -0.1318
  795MPD2    N111724   4.664   3.530  13.040  0.0849  0.2473 -0.6407
  795MPD2    H711725   4.582   3.571  13.082 -0.0584 -0.3166 -0.3761
  796MPD2     C11726   4.186   4.575  15.794 -0.1056  0.4001  0.3274
  796MPD2    C111727   4.249   4.635  15.901  0.0066 -0.3389  0.3046
  796MPD2    C211728   4.312   0.033  15.883 -0.1510  0.1521 -0.1135
  796MPD2    C311729   4.299   0.106  15.767  0.0847 -0.3684 -0.2325
  796MPD2    C411730   4.221   0.051  15.668  0.3371 -0.2494 -0.4630
  796MPD2    C511731   4.163   4.654  15.685  0.3014  0.8072 -0.5241
  796MPD2     H11732   4.383   0.068  15.957 -0.5847 -0.6827  0.7140
  796MPD2    H111733   4.198   0.105  15.577  2.8741  2.9819  0.7784
  796MPD2    H211734   4.140   4.478  15.806  2.5922 -1.0672 -1.4321
  796MPD2    H311735   4.102   4.611  15.606 -0.1372 -2.4675  1.5975
  796MPD2     N11736   4.365   0.231  15.764 -0.2632  0.0025 -0.1467
  796MPD2    H511737   4.408   0.250  15.854  1.5698 -0.4356 -0.9306
  796MPD2    N111738   4.272   4.556  16.016  0.3264  0.0838  1.0349
  796MPD2    H711739   4.259   4.456  16.001  2.3220 -0.1914  1.2143
  797MPD2     C11740   0.855   4.050  17.353  0.2587  0.2754  0.2020
  797MPD2    C111741   0.933   4.166  17.341  0.2240  0.4518 -0.0442
  797MPD2    C211742   0.871   4.282  17.295 -0.0455 -0.6426  0.1445
  797MPD2    C311743   0.743   4.270  17.247 -0.0008 -0.0051  0.1876
  797MPD2    C411744   0.669   4.161  17.262 -0.6712  0.7847 -0.3791
  797MPD2    C511745   0.720   4.052  17.316 -0.7034  0.3821  0.4964
  797MPD2     H11746   0.926   4.375  17.302  0.6869 -1.0983  0.4843
  797MPD2    H111747   0.570   4.150  17.219  0.5318  1.3084 -3.2640
  797MPD2    H211748   0.883   3.964  17.413  0.5839  0.4443  0.2936
  797MPD2    H311749   0.654   3.972  17.347  1.3461 -1.3363  0.4944
  797MPD2     N11750   0.684   4.388  17.194 -0.2544  0.0407 -1.3061
  797MPD2    H511751   0.736   4.474  17.181  1.0400 -0.5379  0.0412
  797MPD2    N111752   1.071   4.164  17.366  0.1718 -0.3317 -0.3603
  797MPD2    H711753   1.118   4.254  17.358  2.7217 -1.5770  0.6720
  798MPD2     C11754   1.174   4.576  16.767 -0.1146 -0.7650  0.3799
  798MPD2    C111755   1.109   4.578  16.891 -0.0669 -0.7317  0.0463
  798MPD2    C211756   1.166   4.515  16.999  0.4114 -0.5239  0.5970
  798MPD2    C311757   1.289   4.455  16.978  0.0490  0.1805 -0.0849
  798MPD2    C411758   1.357   4.462  16.864  0.2368  0.3338  0.2339
  798MPD2    C511759   1.297   4.519  16.757  0.3450  0.1766  0.3308
  798MPD2     H11760   1.118   4.506  17.095 -1.3670 -0.8719 -0.3180
  798MPD2    H111761   1.459   4.426  16.849  0.2095  0.7726 -1.0029
  798MPD2    H211762   1.129   4.617  16.677 -0.2750 -1.1559  0.2797
  798MPD2    H311763   1.346   4.513  16.660 -1.9517 -1.1500 -0.7579
  798MPD2     N11764   1.347   4.395  17.090  0.0451 -0.0819  0.0797
  798MPD2    H511765   1.306   4.392  17.182  0.1507 -0.4921  0.1140
  798MPD2    N111766   0.970   4.615  16.885 -0.1764 -0.2865  1.2350
  798MPD2    H711767   0.926   4.635  16.796  0.4008 -2.8320  0.3969
  799MPD2     C11768   4.394   1.468  14.706  0.4586  0.1619 -0.1076
  799MPD2    C111769   4.394   1.377  14.603  0.6547 -0.3056  0.0123
  799MPD2    C211770   4.364   1.427  14.476  0.0521  0.4253 -0.1253
  799MPD2    C311771   4.348   1.564  14.449  0.2971 -0.0593 -0.8409
  799MPD2    C411772   4.362   1.654  14.559 -0.7145 -0.0969  0.0747
  799MPD2    C511773   4.374   1.601  14.687  0.5216 -0.4367  0.1150
  799MPD2     H11774   4.356   1.354  14.397  1.1104  0.5674 -0.3552
  799MPD2    H111775   4.349   1.760  14.543 -2.7052 -0.3116  0.2919
  799MPD2    H211776   4.401   1.431  14.808  2.1311 -0.5439 -0.4851
  799MPD2    H311777   4.381   1.665  14.775  0.9708 -0.2283 -0.0705
  799MPD2     N11778   4.306   1.618  14.328 -0.0228  0.1671  0.3552
  799MPD2    H511779   4.286   1.717  14.318 -1.6866  0.0125  2.1516
  799MPD2    N111780   4.389   1.234  14.603  0.4100  0.6509 -0.2953
  799MPD2    H711781   4.375   1.192  14.512 -1.2194  0.4384  0.0456
  800MPD2     C11782   0.092   2.706  13.838 -0.1917  0.4401 -0.6297
  800MPD2    C111783   0.223   2.695  13.794  0.0770 -0.0026 -0.0284
  800MPD2    C211784   0.246   2.646  13.667 -0.7322 -0.1276 -0.6695
  800MPD2    C311785   0.143   2.598  13.582  0.2730 -0.4777 -0.7638
  800MPD2    C411786   0.016   2.602  13.633  0.4255 -0.3901  0.9940
  800MPD2    C511787   4.715   2.659  13.757  0.4247  0.0699  0.0964
  800MPD2     H11788   0.342   2.645  13.615 -1.1596  1.7880 -1.5129
  800MPD2    H111789   4.653   2.561  13.583  2.7087 -1.6600 -1.8724
  800MPD2    H211790   0.063   2.753  13.932  1.0012 -2.1053  0.9992
  800MPD2    H311791   4.618   2.637  13.800  0.5516  0.3576  0.5286
  800MPD2     N11792   0.177   2.554  13.456 -0.5840 -0.3485  0.1020
  800MPD2    H511793   0.277   2.551  13.438 -0.4043  0.4021  1.0043
  800MPD2    N111794   0.325   2.749  13.879 -0.1725  0.8963 -0.3970
  800MPD2    H711795   0.294   2.789  13.967  0.7182 -0.8296  0.6982
  801MPD2     C11796   0.502   3.320  14.349 -0.0411 -0.2648 -0.0824
  801MPD2    C111797   0.410   3.247  14.277  0.7411  0.2348  0.2031
  801MPD2    C211798   0.274   3.285  14.274  0.2812  0.1593 -0.7479
  801MPD2    C311799   0.230   3.372  14.368 -0.4419 -0.7617 -0.2820
  801MPD2    C411800   0.331   3.441  14.444  0.9526 -0.0462 -0.2298
  801MPD2    C511801   0.460   3.411  14.440 -1.0814  0.1527  0.1275
  801MPD2     H11802   0.206   3.227  14.214 -0.9805  1.3158 -0.4344
  801MPD2    H111803   0.300   3.512  14.520 -0.4965 -0.9887  0.0559
  801MPD2    H211804   0.608   3.300  14.348 -0.1057 -0.7174  1.5346
  801MPD2    H311805   0.522   3.472  14.506  0.2042 -0.8481 -0.1499
  801MPD2     N11806   0.099   3.404  14.394  0.0759  1.0373 -0.3500
  801MPD2    H511807   0.089   3.475  14.466 -0.7214  1.3512 -0.7709
  801MPD2    N111808   0.447   3.143  14.185  0.3416  0.1152  0.0567
  801MPD2    H711809   0.371   3.111  14.126 -1.4632  2.1786  1.2630
  802MPD2     C11810   3.842   2.524   0.339  0.3873 -0.4695 -0.1456
  802MPD2    C111811   3.816   2.454   0.223 -0.3383  0.1047 -0.2253
  802MPD2    C211812   3.891   2.484   0.106 -0.2133 -0.6558  0.0525
  802MPD2    C311813   3.975   2.590   0.112  0.3527 -1.0189  0.0184
  802MPD2    C411814   3.984   2.672   0.220  0.3640  0.5154  0.6843
  802MPD2    C511815   3.922   2.634   0.335  0.1205  0.2945 -0.1089
  802MPD2     H11816   3.872   2.433   0.013  0.5698 -0.6515 -0.1061
  802MPD2    H111817   4.047   2.760   0.232  0.7055  0.2599  0.7657
  802MPD2    H211818   3.770   2.508   0.419 -0.9217  1.4495 -0.9398
  802MPD2    H311819   3.922   2.698   0.423 -0.6685 -1.9153  1.5000
  802MPD2     N11820   4.050   2.619  17.692  0.0771  0.2249 -0.2698
  802MPD2    H511821   4.038   2.563  17.608 -0.6675 -1.2073  0.7972
  802MPD2    N111822   3.714   2.357   0.223  0.2189  0.3640 -0.6980
  802MPD2    H711823   3.679   2.337   0.316 -1.9115  0.4656 -1.4636
  803MPD2     C11824   0.598   1.838  11.784  0.4660  0.2784  0.3288
  803MPD2    C111825   0.645   1.889  11.903  0.3132  0.2081 -0.2843
  803MPD2    C211826   0.618   1.837  12.030  0.1396  0.0775 -0.8827
  803MPD2    C311827   0.529   1.730  12.040  0.6380  0.0339  0.9709
  803MPD2    C411828   0.475   1.682  11.918  0.2724 -0.4056 -0.1027
  803MPD2    C511829   0.509   1.731  11.795 -0.6962 -0.8540 -0.1532
  803MPD2     H11830   0.672   1.881  12.113 -1.3491 -0.6268  0.4384
  803MPD2    H111831   0.411   1.594  11.920 -0.4769  0.1356  0.1345
  803MPD2    H211832   0.626   1.885  11.690 -2.3431  1.1198 -0.0703
  803MPD2    H311833   0.451   1.699  11.709  1.2534 -2.1096 -1.0056
  803MPD2     N11834   0.497   1.672  12.167  0.0162  0.4752  0.4163
  803MPD2    H511835   0.411   1.618  12.171  0.5707 -0.6042 -2.2451
  803MPD2    N111836   0.724   2.005  11.918  0.1588  0.1139  0.1059
  803MPD2    H711837   0.755   2.036  12.009 -0.7902 -0.1458  0.5136
  804MPD2     C11838   4.716   2.891  16.703 -0.0950  0.0637 -0.0627
  804MPD2    C111839   4.706   2.848  16.832  0.5614 -0.6925  0.4587
  804MPD2    C211840   0.063   2.903  16.921  0.4327  0.3860  0.2768
  804MPD2    C311841   0.164   2.989  16.878 -0.8295 -0.7839 -0.0682
  804MPD2    C411842   0.177   3.027  16.749 -0.5940 -0.1455 -0.4439
  804MPD2    C511843   0.084   2.986  16.665  0.1417  0.4647  0.5475
  804MPD2     H11844   0.058   2.871  17.025  1.2814  0.7071  0.4169
  804MPD2    H111845   0.254   3.095  16.714 -0.1473 -0.1806  0.4729
  804MPD2    H211846   4.653   2.849  16.625 -0.4229  0.5469 -0.0552
  804MPD2    H311847   0.080   3.018  16.561  3.0855  1.5401  0.7419
  804MPD2     N11848   0.256   3.038  16.977  0.3624 -0.3794  0.3743
  804MPD2    H511849   0.220   3.032  17.072 -1.8292  2.2429 -0.2812
  804MPD2    N111850   4.627   2.744  16.881  0.2281 -0.3380  0.0978
  804MPD2    H711851   4.636   2.721  16.980 -0.0521 -0.8934 -0.0026
  805MPD2     C11852   4.087   1.701  15.452 -0.7344  0.3908 -0.6371
  805MPD2    C111853   4.179   1.662  15.361  0.2284  0.0337  0.0226
  805MPD2    C211854   4.310   1.646  15.394  0.1723  0.0875 -0.5468
  805MPD2    C311855   4.343   1.655  15.527 -0.6229 -0.0927  0.0958
  805MPD2    C411856   4.244   1.683  15.624 -0.1634 -0.2115  0.0116
  805MPD2    C511857   4.115   1.715  15.585  0.7898 -0.6037 -0.1692
  805MPD2     H11858   4.385   1.615  15.321 -1.1617  0.3680 -2.0486
  805MPD2    H111859   4.266   1.695  15.730  0.5300 -1.9611  0.0792
  805MPD2    H211860   3.986   1.716  15.416 -0.9607 -0.8346 -0.5113
  805MPD2    H311861   4.041   1.753  15.655  0.0845  1.6633 -2.1080
  805MPD2     N11862   4.483   1.654  15.553 -0.4068 -0.0005 -0.0970
  805MPD2    H511863   4.537   1.630  15.471  0.0418 -0.0605  0.2141
  805MPD2    N111864   4.141   1.619  15.232  0.0577 -0.2399 -0.2299
  805MPD2    H711865   4.222   1.611  15.171  0.7073 -0.3087  0.6378
  806MPD2     C11866   0.141   1.324   0.966 -1.0892  0.1582 -0.1066
  806MPD2    C111867   0.041   1.313   0.871 -1.0141 -0.2315 -0.0866
  806MPD2    C211868   0.016   1.423   0.797  0.6522 -0.1628  0.3811
  806MPD2    C311869   0.076   1.541   0.806 -0.0809  0.0750  0.1941
  806MPD2    C411870   0.178   1.554   0.906 -0.4290 -0.0205 -1.0549
  806MPD2    C511871   0.205   1.439   0.985 -0.4386  0.2521 -0.2587
  806MPD2     H11872   4.654   1.424   0.729  0.6874 -1.1937  0.3199
  806MPD2    H111873   0.224   1.647   0.936  2.7674 -1.0619 -2.7658
  806MPD2    H211874   0.156   1.249   1.043 -0.2732 -0.3813 -0.8027
  806MPD2    H311875   0.271   1.455   1.070  0.3286 -0.1198 -0.7800
  806MPD2     N11876   0.019   1.639   0.731 -0.1031 -0.1209 -0.4306
  806MPD2    H511877   4.664   1.615   0.671  0.5150 -3.8553  0.3053
  806MPD2    N111878   4.698   1.191   0.857 -0.0949 -0.2145 -0.2262
  806MPD2    H711879   0.010   1.107   0.901  0.0843 -0.3167 -0.5633
  807MPD2     C11880   4.408   1.103   1.460 -0.1694 -0.4553 -1.0015
  807MPD2    C111881   4.425   0.971   1.419 -0.1388  0.0128  0.2048
  807MPD2    C211882   4.446   0.870   1.512 -0.6057 -0.0808 -0.1111
  807MPD2    C311883   4.417   0.894   1.646  0.9338  0.0354 -0.1286
  807MPD2    C411884   4.397   1.024   1.684  0.1824  0.0998  0.1189
  807MPD2    C511885   4.405   1.124   1.592 -0.5739 -0.0903  0.3922
  807MPD2     H11886   4.480   0.771   1.484  2.6664  1.5478 -1.9499
  807MPD2    H111887   4.375   1.049   1.788  0.8866 -1.6516  0.6880
  807MPD2    H211888   4.407   1.189   1.393 -1.4263 -0.4995 -1.0431
  807MPD2    H311889   4.396   1.227   1.624 -0.5255  0.1016 -0.2170
  807MPD2     N11890   4.422   0.787   1.737 -0.2393 -0.2871  0.1886
  807MPD2    H511891   4.441   0.697   1.695  1.2209 -0.0818  0.4134
  807MPD2    N111892   4.444   0.935   1.283 -0.3034  0.0229  0.1157
  807MPD2    H711893   4.494   0.847   1.271  0.7990  0.4674  1.3767
  808MPD2     C11894   0.507   2.907   9.061  0.4822 -0.7672 -0.6500
  808MPD2    C111895   0.532   2.891   9.198 -0.3250  0.1243 -0.1171
  808MPD2    C211896   0.619   2.980   9.264  0.6333  0.2349  0.4740
  808MPD2    C311897   0.692   3.071   9.191  0.4566  0.1949  0.2591
  808MPD2    C411898   0.673   3.079   9.054  0.2870  0.3588  0.0209
  808MPD2    C511899   0.583   3.005   8.995 -0.7562  0.3613 -0.0986
  808MPD2     H11900   0.635   2.962   9.370  1.5776  0.8992  0.4389
  808MPD2    H111901   0.728   3.161   9.011  0.7347  0.4118  0.7076
  808MPD2    H211902   0.432   2.859   8.999  0.3351 -1.8276  0.3470
  808MPD2    H311903   0.555   3.014   8.890 -0.0034 -1.8374 -0.4804
  808MPD2     N11904   0.788   3.148   9.252 -0.6073 -0.1802 -0.3798
  808MPD2    H511905   0.848   3.198   9.187 -1.4340  0.7163 -0.4361
  808MPD2    N111906   0.464   2.798   9.274  0.2738 -0.5225 -0.1005
  808MPD2    H711907   0.494   2.785   9.371  0.6386  2.5801  0.1897
  809MPD2     C11908   1.489   3.873   9.202 -0.1531 -0.1752  0.7371
  809MPD2    C111909   1.482   3.744   9.152 -0.2678  0.4709 -0.4737
  809MPD2    C211910   1.399   3.645   9.215 -0.5818 -0.4623 -0.2738
  809MPD2    C311911   1.309   3.685   9.316 -0.4116  0.2258 -0.9007
  809MPD2    C411912   1.311   3.817   9.363 -0.8246 -0.2416  0.0058
  809MPD2    C511913   1.409   3.905   9.309  0.4339  0.0477  0.0654
  809MPD2     H11914   1.410   3.539   9.193  1.3636 -0.3161 -0.0574
  809MPD2    H111915   1.243   3.851   9.440 -0.7434 -0.4821  0.1832
  809MPD2    H211916   1.564   3.942   9.165  3.1241 -2.8109  2.3950
  809MPD2    H311917   1.419   4.005   9.351  1.2250 -0.3700  0.8742
  809MPD2     N11918   1.221   3.596   9.382  0.0996  0.4610  0.3322
  809MPD2    H511919   1.180   3.628   9.469 -1.2895  0.3381 -0.2812
  809MPD2    N111920   1.577   3.698   9.060  0.0595 -0.5850 -0.0394
  809MPD2    H711921   1.592   3.599   9.041  1.9621 -0.5678  1.3947
  810MPD2     C11922   0.635   1.851  10.153 -0.2565 -0.7340 -0.1607
  810MPD2    C111923   0.516   1.917  10.103 -0.2744 -0.2455 -0.2411
  810MPD2    C211924   0.479   2.040  10.150  0.2394 -1.0290 -0.8826
  810MPD2    C311925   0.556   2.106  10.254 -0.0317  1.0153 -0.2966
  810MPD2    C411926   0.682   2.045  10.269 -0.0763 -0.2021  0.0690
  810MPD2    C511927   0.720   1.925  10.234 -0.4115 -0.5627 -0.7259
  810MPD2     H11928   0.386   2.085  10.118 -0.8126 -2.0988  0.6882
  810MPD2    H111929   0.753   2.089  10.338  2.6435  0.5021 -3.1436
  810MPD2    H211930   0.663   1.750  10.125 -0.3739 -0.0110 -2.9142
  810MPD2    H311931   0.808   1.881  10.280 -0.6659  1.4912  1.7045
  810MPD2     N11932   0.518   2.236  10.299 -1.0195 -0.0673  0.1651
  810MPD2    H511933   0.595   2.284  10.346 -1.3774  1.5529 -0.9230
  810MPD2    N111934   0.425   1.840  10.021  0.3429 -0.2526  0.2945
  810MPD2    H711935   0.447   1.741  10.021 -1.9230 -0.7492 -0.3752
  811MPD2     C11936   4.329   1.943   9.600  0.4694 -0.5993 -1.5117
  811MPD2    C111937   4.433   2.011   9.654 -0.2522 -0.0049 -0.3709
  811MPD2    C211938   4.430   2.147   9.677  0.2915  0.1751  0.0288
  811MPD2    C311939   4.321   2.219   9.633  0.0668  0.4644 -0.8935
  811MPD2    C411940   4.219   2.153   9.573 -0.0229 -0.4194 -0.0466
  811MPD2    C511941   4.223   2.016   9.561 -0.0961 -0.5874 -0.5503
  811MPD2     H11942   4.513   2.198   9.726  0.6053  0.9379 -1.2930
  811MPD2    H111943   4.128   2.210   9.555  1.0260  1.4017  0.4289
  811MPD2    H211944   4.330   1.837   9.580  0.8944 -0.6320 -1.3245
  811MPD2    H311945   4.132   1.974   9.518 -0.4619  1.9492 -2.2320
  811MPD2     N11946   4.329   2.361   9.648  0.0567  0.2601  0.4194
  811MPD2    H511947   4.397   2.401   9.712  0.5832  0.1848 -0.0928
  811MPD2    N111948   4.540   1.926   9.686  0.3651  0.0994 -0.4902
  811MPD2    H711949   4.522   1.826   9.682 -1.8589  0.4192  1.7997
  812MPD2     C11950   3.702   2.194  11.928 -0.5820  0.1278  0.3396
  812MPD2    C111951   3.644   2.236  12.054 -0.2400 -0.1480 -0.0751
  812MPD2    C211952   3.580   2.137  12.128 -0.2143  0.1386  0.1271
  812MPD2    C311953   3.558   2.009  12.078 -0.5714 -0.2408 -0.1834
  812MPD2    C411954   3.604   1.973  11.949  0.3071 -0.0437  0.1645
  812MPD2    C511955   3.678   2.063  11.881  0.8627  0.3593  0.3328
  812MPD2     H11956   3.544   2.148  12.230  0.4962 -1.3049  0.5400
  812MPD2    H111957   3.597   1.872  11.909  1.1077 -0.0940  0.1686
  812MPD2    H211958   3.748   2.270  11.866 -1.5134  0.9464  0.6574
  812MPD2    H311959   3.724   2.025  11.791  1.3111 -0.0867  0.7437
  812MPD2     N11960   3.492   1.911  12.159  0.2514 -0.5453 -0.0039
  812MPD2    H511961   3.482   1.931  12.258  0.5547 -0.4645  0.0108
  812MPD2    N111962   3.665   2.369  12.095 -0.5506  0.3439  0.0606
  812MPD2    H711963   3.717   2.430  12.032  0.8432  0.3742  1.2422
  813MPD2     C11964   2.442   3.676  12.708  0.0965 -0.1340 -0.3332
  813MPD2    C111965   2.438   3.814  12.728  0.1604  0.2318  0.3580
  813MPD2    C211966   2.350   3.867  12.812  0.5070 -0.0745  0.5968
  813MPD2    C311967   2.264   3.777  12.886  0.5741  0.0706 -0.0511
  813MPD2    C411968   2.268   3.639  12.859  0.2288  0.2271  0.2059
  813MPD2    C511969   2.366   3.583  12.779  0.0866 -0.3675 -0.2237
  813MPD2     H11970   2.335   3.973  12.830  0.0222 -0.2271  1.0836
  813MPD2    H111971   2.205   3.565  12.907  1.7672 -1.6598 -0.6854
  813MPD2    H211972   2.509   3.627  12.639 -0.4179 -0.6415 -0.4798
  813MPD2    H311973   2.374   3.475  12.777 -1.3864 -0.5258  2.1754
  813MPD2     N11974   2.169   3.827  12.977  0.1511  0.0223  0.2241
  813MPD2    H511975   2.177   3.926  12.994  1.0390  0.2229 -1.3743
  813MPD2    N111976   2.538   3.888  12.663  0.3787  0.0658 -0.4763
  813MPD2    H711977   2.613   3.831  12.625  0.7027 -1.7131  2.7850
  814MPD2     C11978   2.757   0.618  11.905  1.0078 -0.2790 -0.1930
  814MPD2    C111979   2.816   0.646  11.787 -0.7033  0.0158  1.0840
  814MPD2    C211980   2.890   0.764  11.785  0.6049  0.0494 -0.2785
  814MPD2    C311981   2.905   0.848  11.896  0.1490 -0.0404  0.0633
  814MPD2    C411982   2.837   0.817  12.012 -0.4379 -0.4921  0.2443
  814MPD2    C511983   2.767   0.695  12.019 -0.3995  1.2987 -0.0703
  814MPD2     H11984   2.943   0.794  11.695  1.5047 -1.9788 -0.4146
  814MPD2    H111985   2.842   0.881  12.099 -0.3129  2.1493 -1.6967
  814MPD2    H211986   2.704   0.525  11.921  1.2912 -0.1575  1.4464
  814MPD2    H311987   2.728   0.674  12.117  0.4550 -2.0582 -0.4603
  814MPD2     N11988   2.989   0.956  11.906  0.3485 -0.9642  0.2330
  814MPD2    H511989   2.989   0.991  12.001 -0.9987 -0.6393  0.1169
  814MPD2    N111990   2.810   0.561  11.675 -0.6933  0.8046  1.2861
  814MPD2    H711991   2.841   0.599  11.586 -2.5230 -1.7259 -0.4483
  815MPD2     C11992   3.793   4.140  11.688  0.3261  0.2804  0.0495
  815MPD2    C111993   3.771   4.009  11.674  0.3678 -0.3290 -0.2643
  815MPD2    C211994   3.679   3.941  11.748  0.4558 -0.2312  0.3257
  815MPD2    C311995   3.601   4.009  11.844 -0.9377  0.3066  0.1047
  815MPD2    C411996   3.624   4.146  11.854 -0.0042  0.0870 -0.5047
  815MPD2    C511997   3.710   4.210  11.772  0.0328 -0.2932 -0.5282
  815MPD2     H11998   3.657   3.835  11.740 -0.2182  0.0201 -1.0765
  815MPD2    H111999   3.573   4.203  11.931 -0.4428 -0.5518 -0.3140
  815MPD2    H212000   3.868   4.194  11.631 -0.2235  0.0371 -0.8946
  815MPD2    H312001   3.716   4.318  11.774 -1.0791 -0.2244 -0.8438
  815MPD2     N12002   3.510   3.930  11.922  0.3189  0.0684 -0.4697
  815MPD2    H512003   3.513   3.829  11.913 -0.1471 -0.3636  4.4556
  815MPD2    N112004   3.858   3.937  11.583 -0.1761  1.3919  0.1403
  815MPD2    H712005   3.921   4.000  11.534  1.2332 -0.8541 -0.9456
  816MPD2     C12006   2.657   2.479  17.329 -1.1787  0.1372  0.1231
  816MPD2    C112007   2.794   2.467  17.348 -0.1433  0.5064  0.4833
  816MPD2    C212008   2.861   2.352  17.317  0.4518 -0.5751  1.0716
  816MPD2    C312009   2.794   2.247  17.272 -0.3181 -0.4110 -1.0791
  816MPD2    C412010   2.658   2.258  17.247  0.0866  0.8497  0.1537
  816MPD2    C512011   2.596   2.368  17.278 -0.0915  0.1554 -0.6134
  816MPD2     H12012   2.965   2.345  17.346  0.3784  0.9528  1.7034
  816MPD2    H112013   2.603   2.177  17.200  1.6611 -1.4614  2.3122
  816MPD2    H212014   2.602   2.572  17.339 -1.4469  0.1077 -1.1310
  816MPD2    H312015   2.491   2.383  17.255  0.2315  0.9977 -1.5360
  816MPD2     N12016   2.863   2.124  17.243 -0.2583  0.1084  0.4298
  816MPD2    H512017   2.957   2.123  17.281 -0.2533 -1.4830  0.4054
  816MPD2    N112018   2.854   2.587  17.396 -0.8113  0.9080  0.4678
  816MPD2    H712019   2.801   2.673  17.402  0.5523  1.8252 -0.6595
  817MPD2     C12020   3.093   4.471   9.818  0.2553 -0.1949 -0.5323
  817MPD2    C112021   3.163   4.469   9.698 -0.7476  0.2383  0.1760
  817MPD2    C212022   3.153   4.579   9.616 -0.1530 -0.1584  0.2037
  817MPD2    C312023   3.056   4.678   9.637 -0.7936 -0.2996 -0.4132
  817MPD2    C412024   2.986   4.673   9.754  0.2050  0.1114 -0.0169
  817MPD2    C512025   3.006   4.571   9.843  0.0906  0.0892 -0.1439
  817MPD2     H12026   3.216   4.588   9.528 -0.1549 -1.2127  0.0953
  817MPD2    H112027   2.906   0.016   9.783  0.0096  0.6491 -1.7633
  817MPD2    H212028   3.097   4.386   9.886  1.6374  1.3033  1.2551
  817MPD2    H312029   2.941   4.563   9.929  1.0299 -1.0204  0.4626
  817MPD2     N12030   3.036   0.054   9.535 -0.2077  0.3022  0.1400
  817MPD2    H512031   3.086   0.034   9.449 -1.0857 -2.2965  0.2328
  817MPD2    N112032   3.267   4.377   9.662  0.3835  0.4614  0.0305
  817MPD2    H712033   3.306   4.389   9.569  0.2268 -0.2132 -0.1180
  818MPD2     C12034   2.382   4.170   9.629  0.2699 -1.4683 -0.2995
  818MPD2    C112035   2.392   4.117   9.753  0.6666  0.4094  0.4446
  818MPD2    C212036   2.495   4.028   9.780 -0.0747  0.0953  0.6326
  818MPD2    C312037   2.589   3.995   9.689 -0.9859 -0.0249  0.3454
  818MPD2    C412038   2.575   4.054   9.564  0.4618  0.4224  0.1649
  818MPD2    C512039   2.473   4.142   9.533  0.2806  0.0754  0.2608
  818MPD2     H12040   2.497   3.985   9.880  1.6313  2.2841  1.5426
  818MPD2    H112041   2.640   4.030   9.481  1.1654 -0.8234  1.0738
  818MPD2    H212042   2.296   4.232   9.606  1.7021  0.3799 -0.7128
  818MPD2    H312043   2.477   4.189   9.435 -0.5974  1.8255  1.0566
  818MPD2     N12044   2.704   3.914   9.707  0.4377  0.2508 -0.0015
  818MPD2    H512045   2.758   3.880   9.628 -3.2659 -0.8038 -2.0644
  818MPD2    N112046   2.300   4.153   9.858 -1.0072 -0.0090 -0.5535
  818MPD2    H712047   2.322   4.103   9.943  2.5514  0.2170 -1.3623
  819MPD2     C12048   4.612   1.165  15.454 -0.1491  0.3702 -0.4589
  819MPD2    C112049   4.671   1.041  15.459 -0.2577 -0.6045 -0.7184
  819MPD2    C212050   0.075   1.029  15.519 -0.8106  0.2597  0.3308
  819MPD2    C312051   0.137   1.146  15.567 -0.6733  0.5778  0.1083
  819MPD2    C412052   0.073   1.261  15.567  0.1345 -0.0341 -0.0192
  819MPD2    C512053   4.675   1.273  15.511 -0.1462  0.1682 -0.7706
  819MPD2     H12054   0.133   0.937  15.517 -1.9597 -0.4577 -0.2793
  819MPD2    H112055   0.119   1.350  15.609  0.4991  0.4754 -1.5142
  819MPD2    H212056   4.521   1.181  15.398  0.1959 -2.4684 -1.8460
  819MPD2    H312057   4.636   1.374  15.516 -2.4761 -0.7348 -0.4502
  819MPD2     N12058   0.264   1.132  15.619 -0.6150  0.1786  0.7262
  819MPD2    H512059   0.315   1.045  15.614  0.0651  0.5073  1.9651
  819MPD2    N112060   4.604   0.932  15.395 -0.0602  0.3453 -0.1541
  819MPD2    H712061   4.516   0.958  15.353 -0.3810  1.1221  1.0006
  820MPD2     C12062   3.931   0.879  14.798  0.4248 -0.2031  0.1264
  820MPD2    C112063   4.021   0.955  14.868  0.0349  0.0779 -0.7031
  820MPD2    C212064   4.126   0.886  14.925 -0.4307 -0.1386  0.2356
  820MPD2    C312065   4.116   0.751  14.953 -0.2859  0.0663 -0.3891
  820MPD2    C412066   4.012   0.679  14.907 -0.2650 -0.0117  0.2188
  820MPD2    C512067   3.931   0.740  14.816 -0.2610 -0.0758 -0.3170
  820MPD2     H12068   4.207   0.943  14.969  0.4592 -1.5441  0.4183
  820MPD2    H112069   4.007   0.575  14.938 -0.0534  0.0846  0.5699
  820MPD2    H212070   3.857   0.917  14.728 -1.2450 -1.0948  1.4253
  820MPD2    H312071   3.860   0.672  14.770  1.0225 -0.4966 -1.6791
  820MPD2     N12072   4.217   0.681  15.024  0.0585 -1.1557 -0.2943
  820MPD2    H512073   4.203   0.582  15.038  0.9800 -1.1636  0.5677
  820MPD2    N112074   4.017   1.101  14.861 -0.4941  0.1360 -0.1656
  820MPD2    H712075   3.949   1.124  14.789  2.2897 -0.3812 -3.0083
  821MPD2     C12076   0.150   2.794  12.661  0.2363 -0.1142 -0.0738
  821MPD2    C112077   0.259   2.757  12.740  0.2434 -0.2614 -0.1872
  821MPD2    C212078   0.388   2.803  12.711  0.3223 -0.6146 -0.1215
  821MPD2    C312079   0.413   2.889  12.606 -0.2628 -0.4621 -0.6323
  821MPD2    C412080   0.309   2.925  12.527 -0.3202  0.6347 -0.3561
  821MPD2    C512081   0.181   2.880  12.558  0.7128 -0.2225 -0.4620
  821MPD2     H12082   0.472   2.779  12.774 -0.6062 -2.4272  0.4079
  821MPD2    H112083   0.325   2.996  12.446 -0.1711  0.9198 -0.0776
  821MPD2    H212084   0.048   2.769  12.689  0.3641 -0.9715 -0.3883
  821MPD2    H312085   0.103   2.922  12.496  2.0534  0.0056 -2.0182
  821MPD2     N12086   0.541   2.938  12.575  0.0857 -0.2565  0.1048
  821MPD2    H512087   0.545   2.984  12.485 -1.1474  0.5024  0.4337
  821MPD2    N112088   0.248   2.680  12.853 -0.1788  0.1972 -0.0112
  821MPD2    H712089   0.331   2.676  12.912  0.5716 -0.8687 -1.1671
  822MPD2     C12090   0.780   2.438  15.535 -0.2680  0.3902  0.7863
  822MPD2    C112091   0.792   2.413  15.668 -0.5953 -0.9514  0.0079
  822MPD2    C212092   0.747   2.503  15.756 -0.1581  0.1283  0.3193
  822MPD2    C312093   0.679   2.617  15.714 -0.3937  0.7820  0.2645
  822MPD2    C412094   0.668   2.646  15.575  0.1722  0.2362 -0.4400
  822MPD2    C512095   0.720   2.550  15.490 -0.1699  0.7065  0.2188
  822MPD2     H12096   0.768   2.485  15.861  3.2217  3.2788  0.2061
  822MPD2    H112097   0.609   2.727  15.533 -0.2089  0.9168  1.4135
  822MPD2    H212098   0.829   2.374  15.463  1.0698  3.4614 -0.9932
  822MPD2    H312099   0.722   2.571  15.384 -0.5601 -0.8981 -0.1022
  822MPD2     N12100   0.647   2.711  15.820 -0.1452 -0.1670 -0.3130
  822MPD2    H512101   0.675   2.689  15.915 -1.2381  1.0857  0.2915
  822MPD2    N112102   0.869   2.309  15.721  0.2804  0.4245  0.3883
  822MPD2    H712103   0.875   2.306  15.823  2.6702 -0.2338  0.2412
  823MPD2     C12104   0.219   2.711  16.528 -0.2207 -0.3593 -0.4110
  823MPD2    C112105   0.330   2.678  16.455  0.0842  0.2799  0.7677
  823MPD2    C212106   0.414   2.571  16.495  0.0650 -0.4685 -0.0246
  823MPD2    C312107   0.399   2.514  16.617  0.2231  0.0982  0.0164
  823MPD2    C412108   0.287   2.543  16.687 -0.0779  1.1472 -0.2533
  823MPD2    C512109   0.194   2.634  16.634  0.1954 -0.1685  0.0918
  823MPD2     H12110   0.501   2.544  16.436  0.5088  0.7508  0.0619
  823MPD2    H112111   0.246   2.481  16.766  1.2553  1.8743  0.9935
  823MPD2    H212112   0.138   2.774  16.494  0.0990 -0.8854 -2.1742
  823MPD2    H312113   0.103   2.641  16.692  0.0578  2.1590 -0.4158
  823MPD2     N12114   0.478   2.411  16.666 -0.0810  0.3403  0.6184
  823MPD2    H512115   0.445   2.368  16.751  2.3730 -3.6989 -0.4958
  823MPD2    N112116   0.347   2.745  16.332  0.3730  0.5882 -0.3174
  823MPD2    H712117   0.295   2.832  16.319  1.6485  1.2229 -1.1116
  824MPD2     C12118   0.926   1.473  15.659  0.2614  0.2736  0.3995
  824MPD2    C112119   1.018   1.579  15.662 -0.0841 -0.4896  0.1328
  824MPD2    C212120   1.146   1.568  15.611 -0.3990  0.4942  0.2907
  824MPD2    C312121   1.182   1.448  15.555  0.1295 -0.9036 -0.2180
  824MPD2    C412122   1.091   1.343  15.546  0.2961 -0.1415  0.5378
  824MPD2    C512123   0.962   1.356  15.597  0.5961 -0.6293 -0.4368
  824MPD2     H12124   1.197   1.663  15.601  0.9623 -0.4271 -1.3750
  824MPD2    H112125   1.115   1.243  15.512 -0.7365 -0.6226  1.2186
  824MPD2    H212126   0.828   1.498  15.697  0.7122 -1.7127  2.8964
  824MPD2    H312127   0.890   1.281  15.566 -0.8413  1.3131 -1.8464
  824MPD2     N12128   1.312   1.439  15.502  0.8190 -0.2009  0.0774
  824MPD2    H512129   1.378   1.516  15.510 -0.9605  1.2008  1.3107
  824MPD2    N112130   0.982   1.706  15.708  0.0085  0.4074  0.2085
  824MPD2    H712131   1.055   1.775  15.694 -0.4486  0.8858  0.1928
  825MPD2     C12132   2.061   1.748  15.205  0.3714 -0.0124  0.0514
  825MPD2    C112133   1.937   1.759  15.272 -0.0064  0.4078 -0.7561
  825MPD2    C212134   1.892   1.889  15.294 -0.3389  0.7122 -0.0983
  825MPD2    C312135   1.961   2.007  15.258  0.4144  0.0758  0.4488
  825MPD2    C412136   2.079   1.991  15.189 -0.1151  1.0095  0.2026
  825MPD2    C512137   2.130   1.858  15.173 -0.0844 -0.7171  0.5306
  825MPD2     H12138   1.791   1.906  15.331 -0.2949 -0.1822  0.4349
  825MPD2    H112139   2.142   2.073  15.155  2.1508 -0.4561  0.8794
  825MPD2    H212140   2.099   1.651  15.178  1.2886  0.3322  0.1055
  825MPD2    H312141   2.222   1.846  15.116  0.3035 -2.7680  1.6089
  825MPD2     N12142   1.899   2.131  15.286 -0.1588 -0.4256 -0.0882
  825MPD2    H512143   1.818   2.124  15.347  0.7331 -0.1712  1.1285
  825MPD2    N112144   1.866   1.639  15.303 -0.2497  0.3173 -0.3598
  825MPD2    H712145   1.916   1.557  15.271  0.5593  0.8600 -0.4793
  826MPD2     C12146   1.837   2.022  13.564  0.4254 -0.7801  0.1033
  826MPD2    C112147   1.777   1.912  13.507 -0.6015  0.8887 -0.3354
  826MPD2    C212148   1.663   1.928  13.432  0.0723 -0.0460  0.7440
  826MPD2    C312149   1.616   2.054  13.420  0.7784 -0.1042 -0.0417
  826MPD2    C412150   1.666   2.157  13.483  0.6892 -0.7012  0.7180
  826MPD2    C512151   1.784   2.150  13.548 -0.1654 -0.2357  0.9227
  826MPD2     H12152   1.614   1.837  13.400  3.1637 -1.8789  1.3042
  826MPD2    H112153   1.615   2.252  13.476  0.2021 -1.2628 -3.5115
  826MPD2    H212154   1.934   2.008  13.610  0.0350 -1.6708  0.6740
  826MPD2    H312155   1.834   2.233  13.597 -1.8089  0.7757  0.8819
  826MPD2     N12156   1.492   2.081  13.355 -0.2486  0.6268 -0.5848
  826MPD2    H512157   1.457   2.177  13.356  0.2949  0.8227 -0.0297
  826MPD2    N112158   1.842   1.789  13.532  0.3966 -0.5873 -0.0189
  826MPD2    H712159   1.929   1.786  13.585  0.1196 -1.0199  0.4138
  827MPD2     C12160   2.941   2.973   9.878 -0.5376  0.4016  0.1717
  827MPD2    C112161   2.861   2.964   9.991 -0.3559  0.6232 -0.0475
  827MPD2    C212162   2.740   2.900   9.979 -0.0824  0.2584 -0.2030
  827MPD2    C312163   2.697   2.853   9.858  0.7366 -0.2612 -0.2865
  827MPD2    C412164   2.764   2.886   9.744  0.4288  0.5859  0.1805
  827MPD2    C512165   2.890   2.938   9.755 -0.3055  0.2161 -0.4411
  827MPD2     H12166   2.677   2.890  10.066  0.4167  1.8406  0.3417
  827MPD2    H112167   2.732   2.861   9.644 -1.0863  2.8131  0.1086
  827MPD2    H212168   3.041   3.014   9.877 -0.7323  0.8838  0.2490
  827MPD2    H312169   2.947   2.962   9.667  0.3847 -0.7268 -0.2524
  827MPD2     N12170   2.579   2.771   9.857 -0.5022  0.6670 -0.4012
  827MPD2    H512171   2.537   2.756   9.948  2.8717 -0.3599  1.0103
  827MPD2    N112172   2.912   3.011  10.115  0.0973 -0.1532 -0.9078
  827MPD2    H712173   3.005   3.050  10.105  0.9146 -1.7315  0.5356
  828MPD2     C12174   0.923   2.789  12.144 -0.0336 -0.1946  0.4350
  828MPD2    C112175   0.885   2.844  12.026 -0.1373  0.4398 -0.6005
  828MPD2    C212176   0.952   2.810  11.905  0.6248 -0.3001  0.2257
  828MPD2    C312177   1.042   2.703  11.899 -0.2697 -0.3283 -0.5392
  828MPD2    C412178   1.087   2.660  12.021 -0.6577  0.9176 -0.0111
  828MPD2    C512179   1.029   2.708  12.140 -0.3837  0.2140 -0.2225
  828MPD2     H12180   0.933   2.862  11.812  2.4819 -2.0383 -1.1349
  828MPD2    H112181   1.177   2.602  12.036  0.4449  2.3879 -0.8753
  828MPD2    H212182   0.888   2.822  12.240 -1.4382  0.7296 -0.4007
  828MPD2    H312183   1.063   2.688  12.241  1.1519  2.2630 -0.3322
  828MPD2     N12184   1.100   2.658  11.779 -0.9601 -0.0142 -0.2673
  828MPD2    H512185   1.185   2.603  11.773 -0.6917  0.0179  3.6023
  828MPD2    N112186   0.771   2.932  12.014  1.0220  0.5154  0.4695
  828MPD2    H712187   0.761   2.982  11.926 -2.5207  0.1985  0.6837
  829MPD2     C12188   0.634   3.166  11.272 -1.0920 -0.5639  0.1096
  829MPD2    C112189   0.557   3.255  11.344 -0.3054 -0.0566 -0.0025
  829MPD2    C212190   0.525   3.225  11.474  0.0820  0.3904  0.2727
  829MPD2    C312191   0.566   3.098  11.525 -0.2270  0.2927  0.2766
  829MPD2    C412192   0.650   3.015  11.452 -0.5483  0.2630  0.0692
  829MPD2    C512193   0.682   3.047  11.326 -1.3305  0.1170 -0.0813
  829MPD2     H12194   0.467   3.290  11.539  0.1787 -1.2802  2.0181
  829MPD2    H112195   0.678   2.918  11.491  1.2591 -0.0614 -2.0950
  829MPD2    H212196   0.640   3.183  11.165  1.4492  1.5471  0.5787
  829MPD2    H312197   0.740   2.973  11.271 -0.1597  0.7731  0.2707
  829MPD2     N12198   0.536   3.056  11.649  0.1100 -0.1159 -0.0588
  829MPD2    H512199   0.584   2.971  11.675 -1.5075 -1.3257 -1.0433
  829MPD2    N112200   0.512   3.381  11.297 -0.4584  0.1724  1.0526
  829MPD2    H712201   0.448   3.433  11.356 -0.7070 -0.0544  0.9855
  830MPD2     C12202   1.084   0.948  15.601 -0.0435 -0.0702 -0.2520
  830MPD2    C112203   0.978   0.988  15.519 -0.6859 -0.5249 -0.0942
  830MPD2    C212204   1.005   1.010  15.389 -0.4308  0.7241  0.2452
  830MPD2    C312205   1.133   0.983  15.338  0.5905 -0.1927 -0.1972
  830MPD2    C412206   1.235   0.952  15.425 -0.8615 -0.0235  0.5673
  830MPD2    C512207   1.210   0.929  15.557  0.0729 -0.4513 -0.3286
  830MPD2     H12208   0.931   1.061  15.329 -0.3353  0.2734 -0.2538
  830MPD2    H112209   1.339   0.944  15.396 -0.5955  2.0108  0.9832
  830MPD2    H212210   1.061   0.929  15.705  0.9822 -3.2975 -0.6136
  830MPD2    H312211   1.288   0.889  15.620 -1.7225 -1.3671  1.3247
  830MPD2     N12212   1.177   1.036  15.214  0.1874  0.6964 -0.5670
  830MPD2    H512213   1.277   1.045  15.204  0.3243 -0.9627 -0.7840
  830MPD2    N112214   0.848   1.012  15.577  0.0627 -0.1900  0.2082
  830MPD2    H712215   0.839   0.989  15.676  0.9781 -1.1306  0.0776
  831MPD2     C12216   0.896   2.758  16.101 -0.6064  0.6506 -0.5374
  831MPD2    C112217   0.940   2.638  16.035 -0.6819  0.6955  0.6635
  831MPD2    C212218   0.885   2.518  16.077 -0.4504 -0.3806 -0.4185
  831MPD2    C312219   0.786   2.515  16.178  0.1210  0.4869 -0.1722
  831MPD2    C412220   0.754   2.630  16.248  0.0012  0.4116 -0.7409
  831MPD2    C512221   0.817   2.751  16.214 -0.5231  0.5211  0.0273
  831MPD2     H12222   0.914   2.428  16.025  0.9703 -0.1184 -0.0649
  831MPD2    H112223   0.697   2.622  16.340 -1.2504 -3.0318 -1.8120
  831MPD2    H212224   0.947   2.852  16.082 -1.6259  0.8881 -2.0587
  831MPD2    H312225   0.781   2.840  16.263 -1.5780  1.1176 -1.7938
  831MPD2     N12226   0.711   2.399  16.209 -0.4029  0.2121  0.2963
  831MPD2    H512227   0.648   2.407  16.288 -0.3700 -1.9651  0.5310
  831MPD2    N112228   1.020   2.650  15.919 -0.0091  0.2668  0.5912
  831MPD2    H712229   1.041   2.738  15.873 -1.4843  0.7567  0.8785
  832MPD2     C12230   3.867   3.498  17.348 -0.1529 -0.0799  0.1451
  832MPD2    C112231   3.905   3.593  17.261 -0.0845 -0.2688 -0.6076
  832MPD2    C212232   3.819   3.638  17.162  1.0001  0.4806 -0.0210
  832MPD2    C312233   3.694   3.584  17.148  0.4020  0.4027  0.5067
  832MPD2    C412234   3.659   3.476  17.228 -0.0815  0.5132 -0.0302
  832MPD2    C512235   3.748   3.429  17.330 -0.3056  0.0896 -0.1165
  832MPD2     H12236   3.846   3.738  17.131  1.1986  0.3031 -0.4083
  832MPD2    H112237   3.570   3.416  17.217 -0.2959  0.8163  0.0636
  832MPD2    H212238   3.922   3.458  17.433 -1.2338  0.4837  1.1122
  832MPD2    H312239   3.724   3.347  17.397 -3.8285  0.9291 -0.3562
  832MPD2     N12240   3.597   3.645  17.063  0.4211 -0.3481 -0.4541
  832MPD2    H512241   3.504   3.605  17.070  0.6958 -0.4827  2.2660
  832MPD2    N112242   4.038   3.646  17.282 -0.3766 -0.0399 -0.0619
  832MPD2    H712243   4.106   3.602  17.342 -1.2696 -2.2739 -0.7146
  833MPD2     C12244   1.498   0.502  12.595 -0.0344  1.0632 -0.4618
  833MPD2    C112245   1.555   0.593  12.506  0.8132  0.1042  0.2006
  833MPD2    C212246   1.667   0.557  12.430 -0.4743 -0.3742  0.0696
  833MPD2    C312247   1.699   0.421  12.423  1.0854  0.6516 -0.1534
  833MPD2    C412248   1.637   0.336  12.503  0.4861 -0.1629  0.3620
  833MPD2    C512249   1.550   0.377  12.603  0.0009  0.0323  0.6465
  833MPD2     H12250   1.716   0.625  12.362  0.8531 -0.7270  0.6742
  833MPD2    H112251   1.672   0.233  12.509 -1.8157 -1.0196 -0.8093
  833MPD2    H212252   1.412   0.514  12.660  0.1988 -0.6247  0.1728
  833MPD2    H312253   1.523   0.312  12.686 -0.6031 -2.2480 -1.3179
  833MPD2     N12254   1.772   0.371  12.311  0.0326  0.4949  0.3766
  833MPD2    H512255   1.790   0.271  12.318  1.9880  0.6505 -2.1535
  833MPD2    N112256   1.489   0.719  12.486 -0.4186  0.0317 -0.1468
  833MPD2    H712257   1.409   0.733  12.547 -1.0415  1.2475 -1.2450
  834MPD2     C12258   1.542   4.422  11.613 -0.5563  0.3159 -0.1153
  834MPD2    C112259   1.543   4.532  11.529  0.1245  0.5756 -0.0296
  834MPD2    C212260   1.586   4.655  11.584  0.0421  0.7048  0.3707
  834MPD2    C312261   1.618   4.665  11.720  0.1299 -0.7990 -0.0549
  834MPD2    C412262   1.627   4.553  11.795 -0.6816 -0.4906  0.1905
  834MPD2    C512263   1.591   4.434  11.740  0.3061 -0.4061 -0.0834
  834MPD2     H12264   1.594   0.027  11.533  2.1889 -1.2498 -2.9607
  834MPD2    H112265   1.648   4.556  11.902 -1.8207 -2.3145  0.4514
  834MPD2    H212266   1.509   4.325  11.578 -0.7958 -0.1342  1.3334
  834MPD2    H312267   1.604   4.351  11.808 -1.2480  0.9618  1.8664
  834MPD2     N12268   1.657   0.065  11.773 -0.0980  0.0093 -0.0291
  834MPD2    H512269   1.642   0.143  11.710 -0.6278 -1.0533 -1.2290
  834MPD2    N112270   1.543   4.508  11.393  0.2004  0.0075 -0.7402
  834MPD2    H712271   1.528   4.411  11.366 -0.2270  0.2509 -1.3753
  835MPD2     C12272   1.970   3.100  10.663  0.1383 -0.0840  0.7975
  835MPD2    C112273   1.840   3.045  10.692  0.2511  0.6226  0.1057
  835MPD2    C212274   1.839   2.924  10.752  0.3535 -0.2710 -0.1772
  835MPD2    C312275   1.948   2.851  10.799 -0.1947  0.3479 -0.2999
  835MPD2    C412276   2.067   2.913  10.774  0.5321  0.3530  0.2304
  835MPD2    C512277   2.074   3.034  10.712  0.6373 -0.1964  0.0884
  835MPD2     H12278   1.742   2.878  10.770  1.3684 -2.4315 -0.2075
  835MPD2    H112279   2.157   2.868  10.815 -0.1371  0.0021  1.3266
  835MPD2    H212280   1.997   3.172  10.586  0.1750 -0.2822  0.6260
  835MPD2    H312281   2.171   3.076  10.687  0.6505 -0.4499 -0.2917
  835MPD2     N12282   1.937   2.734  10.880 -0.2249  0.2820  0.2079
  835MPD2    H512283   2.008   2.721  10.952  0.8902  0.5839 -0.8402
  835MPD2    N112284   1.721   3.095  10.633  0.0282  0.3459 -0.0433
  835MPD2    H712285   1.631   3.050  10.651 -0.3961  2.0126  1.9897
  836MPD2     C12286   1.247   2.840  10.971 -0.6260  0.7684  0.5953
  836MPD2    C112287   1.291   2.813  11.100 -0.0471  0.1884 -0.7615
  836MPD2    C212288   1.228   2.883  11.199  0.4543  0.1376 -0.4341
  836MPD2    C312289   1.117   2.962  11.170  0.4221  1.4459 -0.0641
  836MPD2    C412290   1.073   2.977  11.034 -0.3480 -0.4784 -0.1097
  836MPD2    C512291   1.140   2.914  10.934 -0.7337 -0.0053 -1.1976
  836MPD2     H12292   1.266   2.878  11.301  2.9226 -1.3938 -1.4193
  836MPD2    H112293   0.986   3.037  11.010  0.4067  0.0704 -1.4434
  836MPD2    H212294   1.295   2.790  10.888 -1.7892 -0.1271  0.4564
  836MPD2    H312295   1.109   2.930  10.831 -0.7924 -1.7599 -1.4474
  836MPD2     N12296   1.042   3.035  11.265  0.4948 -0.0663  0.1305
  836MPD2    H512297   0.972   3.097  11.226  0.6459 -0.6636 -1.0615
  836MPD2    N112298   1.415   2.742  11.109  0.1618 -0.3963  0.0897
  836MPD2    H712299   1.452   2.694  11.027  0.6045  0.8497 -0.4453
  837MPD2     C12300   4.363   3.057  10.025 -0.3943  0.3141 -0.1003
  837MPD2    C112301   4.350   3.063   9.889 -0.6447 -0.4387  0.0888
  837MPD2    C212302   4.341   3.182   9.824 -0.1559 -0.1187 -0.0789
  837MPD2    C312303   4.371   3.301   9.891 -0.1848 -0.1671 -0.0453
  837MPD2    C412304   4.389   3.295  10.027 -0.3509  0.2455  0.1847
  837MPD2    C512305   4.374   3.176  10.097 -0.2928 -0.4537 -0.3741
  837MPD2     H12306   4.311   3.195   9.720  0.3472  0.1147 -0.1905
  837MPD2    H112307   4.408   3.391  10.073 -0.4984  0.3186  0.0928
  837MPD2    H212308   4.362   2.963  10.079  4.0831  0.2105 -0.2667
  837MPD2    H312309   4.375   3.176  10.206  1.1996 -1.5590 -0.3814
  837MPD2     N12310   4.370   3.421   9.815  0.3891 -0.0328 -0.1626
  837MPD2    H512311   4.355   3.405   9.716 -1.0922 -0.4066  0.1357
  837MPD2    N112312   4.326   2.942   9.814 -0.6812  0.4948  0.2875
  837MPD2    H712313   4.310   2.954   9.714 -2.3671  0.6912  0.5714
  838MPD2     C12314   2.414   0.974  11.120 -0.1345  0.3449 -0.0733
  838MPD2    C112315   2.415   1.070  11.218  0.0325  0.4954  0.2391
  838MPD2    C212316   2.313   1.055  11.321  0.2829 -0.1921  0.4614
  838MPD2    C312317   2.216   0.957  11.307 -0.0368 -0.8424  0.2534
  838MPD2    C412318   2.207   0.871  11.201  0.2722  0.5504 -0.2868
  838MPD2    C512319   2.316   0.877  11.113  0.5096 -0.4298  0.2353
  838MPD2     H12320   2.325   1.114  11.411 -2.0044  0.7648  0.1308
  838MPD2    H112321   2.134   0.792  11.187  1.9443 -1.2225  1.1003
  838MPD2    H212322   2.488   0.983  11.042  1.0974  3.5239  1.4593
  838MPD2    H312323   2.322   0.802  11.035  1.9519 -0.3582  0.2793
  838MPD2     N12324   2.125   0.951  11.410 -0.0261  0.2726 -0.6173
  838MPD2    H512325   2.138   1.020  11.482  1.3859 -0.7489  0.1169
  838MPD2    N112326   2.513   1.174  11.232 -0.4713 -0.0041  0.0607
  838MPD2    H712327   2.502   1.231  11.314 -1.8002 -1.2032  0.7199
  839MPD2     C12328   2.562   0.880  11.697 -0.0263  0.2750  0.0986
  839MPD2    C112329   2.610   0.876  11.570  0.1470  0.1688  0.0195
  839MPD2    C212330   2.704   0.976  11.530 -0.1436 -0.5850  0.1777
  839MPD2    C312331   2.719   1.086  11.614 -0.2440  0.1163  0.1538
  839MPD2    C412332   2.661   1.090  11.738  0.8134 -0.1971  0.0457
  839MPD2    C512333   2.594   0.981  11.782  0.2889  0.2585 -0.1664
  839MPD2     H12334   2.754   0.962  11.435  3.2101  1.0797  1.7033
  839MPD2    H112335   2.655   1.176  11.803 -1.2869  0.7114 -1.3218
  839MPD2    H212336   2.494   0.807  11.739 -0.3224 -0.1505 -1.1125
  839MPD2    H312337   2.553   0.964  11.881  2.3640  2.6356  1.0997
  839MPD2     N12338   2.778   1.205  11.569  0.5314  0.2609  0.1587
  839MPD2    H512339   2.755   1.296  11.607  0.0236  0.1295  0.1679
  839MPD2    N112340   2.574   0.778  11.477 -0.1450 -0.0142  0.3841
  839MPD2    H712341   2.632   0.766  11.395 -0.3178 -1.4562  0.4838
  840MPD2     C12342   3.354   3.429  10.110 -0.0505  0.1179  0.3594
  840MPD2    C112343   3.335   3.409  10.246  0.0394  0.2787  0.4714
  840MPD2    C212344   3.370   3.513  10.337  0.6264  0.0551  0.1264
  840MPD2    C312345   3.428   3.627  10.287  0.0242  1.1183 -0.7990
  840MPD2    C412346   3.447   3.643  10.153  0.3368  0.4199 -0.1956
  840MPD2    C512347   3.414   3.543  10.072 -0.0360  0.8655  0.1048
  840MPD2     H12348   3.348   3.500  10.442  1.5972 -0.3381  0.2883
  840MPD2    H112349   3.499   3.725  10.105 -1.0745  0.2292 -2.0741
  840MPD2    H212350   3.325   3.360  10.031  2.1429  0.5634 -0.8519
  840MPD2    H312351   3.444   3.553   9.968 -2.0230  0.0355 -0.5299
  840MPD2     N12352   3.464   3.741  10.369  0.3832 -0.1126 -0.1591
  840MPD2    H512353   3.500   3.823  10.322  2.4919 -0.6834  0.4488
  840MPD2    N112354   3.264   3.289  10.272 -0.1186  0.7873  0.3889
  840MPD2    H712355   3.238   3.233  10.190 -0.7513  2.5089 -0.5853
  841MPD2     C12356   2.004   2.492  14.779  0.3395 -0.2761 -0.0989
  841MPD2    C112357   2.053   2.456  14.660 -0.6457  0.2449  0.3190
  841MPD2    C212358   2.143   2.541  14.592  0.1842 -0.2375 -0.5939
  841MPD2    C312359   2.188   2.668  14.640  0.2464 -0.1502  0.1501
  841MPD2    C412360   2.122   2.708  14.753  0.3884  0.0533  0.9392
  841MPD2    C512361   2.041   2.617  14.824  0.1985 -0.0702  0.2246
  841MPD2     H12362   2.179   2.514  14.494  2.6514 -0.0139  0.2572
  841MPD2    H112363   2.152   2.798  14.805 -0.0323  1.8892 -2.0649
  841MPD2    H212364   1.942   2.429  14.842  2.8772  0.2219  2.9040
  841MPD2    H312365   2.009   2.643  14.924  0.3008  0.5926  0.0808
  841MPD2     N12366   2.274   2.746  14.558 -0.8517 -0.0966 -0.1344
  841MPD2    H512367   2.316   2.703  14.477 -2.7688 -1.0896 -0.5979
  841MPD2    N112368   1.996   2.352  14.583 -0.3511  0.2232 -0.5604
  841MPD2    H712369   2.042   2.338  14.494  0.2062 -0.4460 -0.1737
  842MPD2     C12370   3.146   4.085  16.785  0.4446  0.3159  1.1345
  842MPD2    C112371   3.015   4.040  16.797 -0.6084  0.1804  0.5968
  842MPD2    C212372   2.972   3.977  16.914 -0.1860  0.1281  0.8081
  842MPD2    C312373   3.054   3.966  17.020 -0.2024  0.2038  0.6139
  842MPD2    C412374   3.179   4.024  17.011 -0.3258 -0.4431 -0.2482
  842MPD2    C512375   3.222   4.077  16.893  0.0187 -0.5587  0.5005
  842MPD2     H12376   2.865   3.965  16.929 -0.2693  0.6148  0.5976
  842MPD2    H112377   3.242   4.035  17.099 -0.4173  0.0493 -0.2475
  842MPD2    H212378   3.170   4.146  16.699 -3.4186  0.9152  0.4829
  842MPD2    H312379   3.313   4.136  16.899  0.1390 -0.4843 -1.8944
  842MPD2     N12380   3.029   3.909  17.145  0.8123 -0.3692 -0.4794
  842MPD2    H512381   3.098   3.914  17.220  0.7484 -0.8283 -0.3898
  842MPD2    N112382   2.933   4.077  16.684  0.6589 -0.2378  0.0309
  842MPD2    H712383   2.983   4.116  16.605  0.2088 -1.3317 -0.7898
  843MPD2     C12384   0.196   3.750  17.389 -0.0972 -0.2851 -0.3271
  843MPD2    C112385   0.293   3.733  17.490  0.6759 -0.4032 -0.7860
  843MPD2    C212386   0.367   3.841  17.525  0.1454  0.3319  0.1687
  843MPD2    C312387   0.354   3.961  17.457  0.7270 -0.6688  0.3158
  843MPD2    C412388   0.271   3.971  17.351  0.4325 -0.3997 -1.1332
  843MPD2    C512389   0.189   3.864  17.320 -0.1150 -0.0514 -1.1273
  843MPD2     H12390   0.436   3.827  17.608  1.1513  4.2051 -0.0056
  843MPD2    H112391   0.266   4.064  17.295 -3.7902 -0.8717 -1.4851
  843MPD2    H212392   0.125   3.670  17.374 -1.2123  0.3557  1.5031
  843MPD2    H312393   0.114   3.850  17.243 -0.5091 -2.2277 -0.3340
  843MPD2     N12394   0.428   4.079  17.494 -0.4386 -0.0798  0.3923
  843MPD2    H512395   0.407   4.161  17.437  0.9597 -0.0984 -0.1353
  843MPD2    N112396   0.278   3.615  17.568  0.0356 -0.4985 -0.2269
  843MPD2    H712397   0.205   3.551  17.538 -0.4182 -0.3034  0.4809
  844MPD2     C12398   3.163   2.958  16.732  0.0299 -0.4415 -0.6853
  844MPD2    C112399   3.232   2.970  16.615  0.7352 -0.2975  0.1179
  844MPD2    C212400   3.308   3.084  16.605 -0.1312 -0.7336 -0.8906
  844MPD2    C312401   3.341   3.166  16.715  0.1934 -0.2337  0.6710
  844MPD2    C412402   3.267   3.149  16.833  0.9162 -0.5313  0.2676
  844MPD2    C512403   3.179   3.044  16.836  0.0048 -0.1000 -0.2187
  844MPD2     H12404   3.357   3.098  16.509  0.5690  0.3687 -0.3731
  844MPD2    H112405   3.275   3.217  16.917  0.6056 -0.3269  0.1318
  844MPD2    H212406   3.084   2.884  16.731 -1.0575  0.6837  0.9109
  844MPD2    H312407   3.118   3.037  16.926 -0.2547 -0.7728 -0.4473
  844MPD2     N12408   3.443   3.262  16.711 -0.3311  0.2196  0.3795
  844MPD2    H512409   3.482   3.259  16.617 -0.5976 -0.9352  0.3100
  844MPD2    N112410   3.218   2.886  16.498  0.1960  0.5649  0.5173
  844MPD2    H712411   3.254   2.920  16.410  2.2642 -0.6318  0.9059
  845MPD2     C12412   3.866   4.151  16.593  0.0385  0.6430 -0.4767
  845MPD2    C112413   3.959   4.102  16.676 -0.4075 -0.8351 -0.7112
  845MPD2    C212414   3.964   3.964  16.690 -0.1807  0.5912 -0.3601
  845MPD2    C312415   3.874   3.881  16.617  0.6830 -0.1008  0.5008
  845MPD2    C412416   3.779   3.930  16.528  0.0837 -0.1145 -0.1412
  845MPD2    C512417   3.774   4.075  16.526  0.3818 -0.4565  0.4958
  845MPD2     H12418   4.025   3.920  16.768 -1.4384  1.5223  1.1455
  845MPD2    H112419   3.711   3.877  16.462  1.5425 -1.4190 -0.6093
  845MPD2    H212420   3.854   4.257  16.573  1.5512  1.0950  1.0225
  845MPD2    H312421   3.702   4.125  16.462  0.7466 -1.1305 -0.4567
  845MPD2     N12422   3.871   3.745  16.648  0.0012  0.0882  0.0363
  845MPD2    H512423   3.924   3.723  16.732  1.2158 -1.0931 -1.0407
  845MPD2    N112424   4.034   4.196  16.757 -0.4689  0.4180 -0.0654
  845MPD2    H712425   3.998   4.291  16.753 -0.5769  0.4376  1.5041
  846MPD2     C12426   0.904   0.195  13.407  0.3398 -0.9886 -0.2709
  846MPD2    C112427   0.818   0.293  13.460 -0.7681  0.1044  0.1882
  846MPD2    C212428   0.761   0.271  13.585  0.6222  0.1128 -0.1477
  846MPD2    C312429   0.769   0.151  13.649  0.1790  1.0168  0.1876
  846MPD2    C412430   0.856   0.055  13.607  0.4621  0.1649  0.3059
  846MPD2    C512431   0.924   0.081  13.488  0.1354 -0.1257 -0.1094
  846MPD2     H12432   0.686   0.343  13.616 -0.7257 -0.7361 -1.4184
  846MPD2    H112433   0.871   4.686  13.661  1.3716 -0.4985 -1.0870
  846MPD2    H212434   0.949   0.199  13.308  0.3526 -0.1365 -0.2324
  846MPD2    H312435   0.999   0.010  13.457 -0.4405 -0.1449 -1.4596
  846MPD2     N12436   0.695   0.142  13.769  0.4441  0.3590  0.0993
  846MPD2    H512437   0.635   0.222  13.788  0.5670  0.6020 -0.5565
  846MPD2    N112438   0.787   0.413  13.400  0.1918  0.2565  0.4017
  846MPD2    H712439   0.733   0.480  13.454  0.0186  0.2381  0.2511
  847MPD2     C12440   0.912   0.998  13.748 -0.8953 -0.2545 -0.5395
  847MPD2    C112441   0.961   1.116  13.811 -0.4105 -0.8301  0.1841
  847MPD2    C212442   1.049   1.108  13.912 -0.2370 -0.4224 -0.4792
  847MPD2    C312443   1.093   0.984  13.956  0.1995  0.3188 -0.1538
  847MPD2    C412444   1.036   0.868  13.905 -0.2960  0.3031 -0.5018
  847MPD2    C512445   0.954   0.879  13.791  0.3316 -0.0622 -0.5281
  847MPD2     H12446   1.086   1.197  13.963 -1.1937 -1.3654  1.8775
  847MPD2    H112447   1.056   0.768  13.941 -0.2349 -0.0872 -1.6094
  847MPD2    H212448   0.842   1.002  13.666 -0.6630 -0.8014 -0.7637
  847MPD2    H312449   0.915   0.788  13.745 -0.1401 -0.0512 -0.1536
  847MPD2     N12450   1.188   0.982  14.061 -0.0625  0.1936  0.6705
  847MPD2    H512451   1.213   1.072  14.100 -0.1442  0.8523 -0.8025
  847MPD2    N112452   0.912   1.241  13.778 -0.0419 -0.2830  0.5452
  847MPD2    H712453   0.963   1.319  13.819  0.3144  0.3320 -1.0933
  848MPD2     C12454   3.398   3.860  16.288 -0.2817  0.8210 -0.0504
  848MPD2    C112455   3.430   3.951  16.387 -0.4522  0.1368  0.0210
  848MPD2    C212456   3.462   4.083  16.352 -0.3940  0.5629 -0.3761
  848MPD2    C312457   3.478   4.117  16.218 -0.5991 -0.1667 -0.1080
  848MPD2    C412458   3.458   4.023  16.122 -0.1736 -0.4488  0.2524
  848MPD2    C512459   3.404   3.900  16.155  0.2037 -0.4138 -0.6638
  848MPD2     H12460   3.477   4.153  16.434  0.2398  0.0571 -0.0589
  848MPD2    H112461   3.470   4.047  16.017 -0.1665  2.3618  0.9025
  848MPD2    H212462   3.359   3.759  16.300 -0.2092  0.7888 -0.0869
  848MPD2    H312463   3.376   3.836  16.073 -0.6601 -0.6261 -0.2065
  848MPD2     N12464   3.518   4.240  16.165  0.0970 -0.3722 -0.0455
  848MPD2    H512465   3.526   4.239  16.064  1.7640  2.9012  0.0527
  848MPD2    N112466   3.432   3.919  16.524 -0.2999  0.3665 -0.1756
  848MPD2    H712467   3.462   3.986  16.594  0.5935  0.1413 -0.3495
  849MPD2     C12468   2.242   3.922  14.237  0.2101  0.2906 -0.0757
  849MPD2    C112469   2.354   3.939  14.159 -0.1893  0.1129  0.0574
  849MPD2    C212470   2.464   3.867  14.202  0.9289  0.6282 -0.2728
  849MPD2    C312471   2.462   3.788  14.314  0.1889 -0.1625  0.7375
  849MPD2    C412472   2.357   3.789  14.394  0.1449 -0.1430  0.5128
  849MPD2    C512473   2.247   3.860  14.356  0.2246  0.2980 -0.2736
  849MPD2     H12474   2.550   3.881  14.138  0.0691 -0.7073 -1.7368
  849MPD2    H112475   2.344   3.733  14.485 -1.2544  1.2393  1.1612
  849MPD2    H212476   2.150   3.967  14.201  0.2925  1.7715  1.5846
  849MPD2    H312477   2.171   3.887  14.428 -0.7790  1.8100 -1.8908
  849MPD2     N12478   2.574   3.709  14.343 -0.0654 -0.2134 -0.1629
  849MPD2    H512479   2.646   3.707  14.271 -0.9417 -2.8639 -0.9851
  849MPD2    N112480   2.372   4.016  14.041  0.4295  0.0287 -0.1320
  849MPD2    H712481   2.467   4.027  14.007  0.7678  0.1886  0.8668
  850MPD2     C12482   0.835   1.985  14.442 -0.1952 -0.3983  0.4225
  850MPD2    C112483   0.828   2.089  14.532 -1.0068  0.0610  0.1174
  850MPD2    C212484   0.926   2.187  14.531  0.3477 -0.5812 -0.4164
  850MPD2    C312485   1.042   2.170  14.457 -0.4114 -0.9651  0.5866
  850MPD2    C412486   1.034   2.076  14.355  0.1929  0.2739  0.2948
  850MPD2    C512487   0.933   1.983  14.345  0.7512  0.8645  0.2203
  850MPD2     H12488   0.934   2.256  14.614  0.6683  0.9126 -1.6878
  850MPD2    H112489   1.115   2.062  14.284 -1.0821  0.5098 -1.2092
  850MPD2    H212490   0.753   1.916  14.428 -1.4901  1.4027 -0.8104
  850MPD2    H312491   0.925   1.917  14.260  2.0263  0.0167  0.7669
  850MPD2     N12492   1.170   2.238  14.487  0.6050 -0.4554 -0.1618
  850MPD2    H512493   1.249   2.215  14.428  0.3041 -1.0600 -0.3316
  850MPD2    N112494   0.721   2.081  14.624 -0.1426 -0.0730  0.5175
  850MPD2    H712495   0.681   1.989  14.643 -0.4002 -0.4987 -2.0500
  851MPD2     C12496   0.928   1.878  15.324 -0.2633 -0.8059 -0.2861
  851MPD2    C112497   0.876   1.839  15.196 -0.3936 -0.5599  0.6000
  851MPD2    C212498   0.932   1.730  15.128  1.3515 -0.3641  0.3294
  851MPD2    C312499   1.046   1.673  15.180 -0.0958  0.0081  0.0115
  851MPD2    C412500   1.104   1.719  15.296  0.3626  0.3732  0.2413
  851MPD2    C512501   1.047   1.822  15.367  0.4254  0.2816  0.4499
  851MPD2     H12502   0.888   1.679  15.043  0.3733 -1.3039  1.4066
  851MPD2    H112503   1.198   1.674  15.328 -0.0923 -1.1378 -0.5662
  851MPD2    H212504   0.887   1.963  15.378  1.0868 -0.7778  0.6979
  851MPD2    H312505   1.089   1.847  15.463 -0.9026  0.7713  0.9030
  851MPD2     N12506   1.094   1.569  15.099  0.4794  0.3216  0.2987
  851MPD2    H512507   1.029   1.535  15.029  1.1539  1.0314 -0.6822
  851MPD2    N112508   0.763   1.909  15.156  0.0777 -0.2712  0.3210
  851MPD2    H712509   0.740   1.994  15.207  0.0245 -1.0609  1.5974
  852MPD2     C12510   0.289   0.319  10.331 -0.0174 -0.0345 -0.1806
  852MPD2    C112511   0.370   0.317  10.441  0.2178  0.5902 -0.2544
  852MPD2    C212512   0.454   0.419  10.461 -0.3966 -0.4620  0.3453
  852MPD2    C312513   0.475   0.522  10.371 -0.2289  0.4632  0.1779
  852MPD2    C412514   0.399   0.519  10.250 -0.0920 -0.0862  0.1415
  852MPD2    C512515   0.307   0.420  10.232 -0.3908  0.6813 -0.2854
  852MPD2     H12516   0.514   0.420  10.551 -1.3288  1.2487  0.9657
  852MPD2    H112517   0.417   0.588  10.169  0.3804 -1.4850 -0.9437
  852MPD2    H212518   0.219   0.240  10.304  1.9266 -1.6731 -0.3679
  852MPD2    H312519   0.252   0.428  10.139  0.0775  1.0544 -0.5347
  852MPD2     N12520   0.581   0.620  10.394  0.3856  0.2691 -0.4867
  852MPD2    H512521   0.627   0.622  10.484 -0.2930  1.8768 -0.1732
  852MPD2    N112522   0.377   0.208  10.529  0.3953 -0.2901  0.5275
  852MPD2    H712523   0.418   0.212  10.622  1.5126  1.1610 -0.0269
  853MPD2     C12524   2.713   4.444  12.321  0.2271  0.5045  0.2743
  853MPD2    C112525   2.599   4.507  12.285 -0.4282 -0.1982  0.5090
  853MPD2    C212526   2.557   4.488  12.155  0.7692 -0.0547  0.0225
  853MPD2    C312527   2.634   4.421  12.057  0.5117  0.1659  0.2896
  853MPD2    C412528   2.757   4.378  12.096  0.5620 -0.9621 -0.4596
  853MPD2    C512529   2.792   4.384  12.229 -0.0240  0.4761 -0.2218
  853MPD2     H12530   2.465   4.536  12.123  0.9212  0.8217  0.9053
  853MPD2    H112531   2.823   4.326  12.028  2.4044 -0.7896  1.2074
  853MPD2    H212532   2.745   4.452  12.424  1.5349 -2.1203  0.0606
  853MPD2    H312533   2.890   4.343  12.252 -0.3995 -0.7137 -0.7629
  853MPD2     N12534   2.583   4.394  11.931  1.3352  0.8240 -0.0235
  853MPD2    H512535   2.652   4.373  11.859  3.2340  0.0289  2.0123
  853MPD2    N112536   2.535   4.582  12.385  0.5689 -0.0530  0.3597
  853MPD2    H712537   2.570   4.575  12.480  2.5435  0.5437 -0.3329
  854MPD2     C12538   3.403   4.543  12.579 -0.3041  0.0532  0.6501
  854MPD2    C112539   3.538   4.591  12.591 -0.5266 -0.1702 -0.5294
  854MPD2    C212540   3.625   4.489  12.610 -0.5983  0.3397 -0.0711
  854MPD2    C312541   3.588   4.358  12.638  0.2289 -0.4683  0.1898
  854MPD2    C412542   3.458   4.322  12.631 -0.2647  0.0923  0.2705
  854MPD2    C512543   3.365   4.413  12.591 -1.2943 -0.7645 -0.2237
  854MPD2     H12544   3.731   4.507  12.624 -0.3864 -1.8125  0.9708
  854MPD2    H112545   3.422   4.220  12.642 -2.0718  0.7593  0.4277
  854MPD2    H212546   3.329   4.617  12.551 -0.2305 -0.3871 -0.7203
  854MPD2    H312547   3.264   4.379  12.573 -0.4446 -2.3560 -2.0013
  854MPD2     N12548   3.676   4.250  12.668  0.1521 -0.2378  0.0269
  854MPD2    H512549   3.632   4.161  12.690 -1.2073  0.6303  0.8364
  854MPD2    N112550   3.566   0.005  12.581  0.0711 -0.7541 -0.8129
  854MPD2    H712551   3.485   0.066  12.582 -0.2055 -1.1562  0.4801
  855MPD2     C12552   3.369   3.614  13.173 -0.0707  0.8755 -1.2074
  855MPD2    C112553   3.492   3.644  13.227  0.4060  0.6187 -0.0457
  855MPD2    C212554   3.573   3.731  13.162 -0.2639 -0.5580 -0.4596
  855MPD2    C312555   3.548   3.785  13.044 -0.0328  0.2906  0.1732
  855MPD2    C412556   3.419   3.768  13.004  0.3719  0.1067 -0.0196
  855MPD2    C512557   3.332   3.683  13.063  0.1691 -0.2798 -1.0510
  855MPD2     H12558   3.668   3.754  13.209 -1.6995  0.2201  2.0716
  855MPD2    H112559   3.389   3.826  12.917  0.5069  1.2166  0.6659
  855MPD2    H212560   3.290   3.566  13.230  0.5354 -0.1886 -1.2581
  855MPD2    H312561   3.227   3.688  13.038  0.3361  0.6054 -1.5604
  855MPD2     N12562   3.638   3.864  12.966  1.0274 -0.6782 -0.4773
  855MPD2    H512563   3.599   3.901  12.880 -0.6070 -1.6119 -0.1281
  855MPD2    N112564   3.535   3.590  13.351  0.0672  0.0703  0.1934
  855MPD2    H712565   3.617   3.625  13.399 -0.5004  0.7618  0.6554
  856MPD2     C12566   1.665   0.404  13.574  0.1820  0.2515  0.2461
  856MPD2    C112567   1.761   0.501  13.555  0.4464 -0.1291 -0.3657
  856MPD2    C212568   1.727   0.633  13.591 -0.2238 -0.0352 -0.2331
  856MPD2    C312569   1.598   0.669  13.645 -0.9027 -0.0951  0.2231
  856MPD2    C412570   1.499   0.570  13.651 -0.8087  0.7672 -0.4053
  856MPD2    C512571   1.540   0.440  13.624 -0.0704 -0.0507 -0.3446
  856MPD2     H12572   1.804   0.707  13.575 -0.0493 -0.1232  0.2148
  856MPD2    H112573   1.399   0.591  13.687  0.6043  3.3562  1.9974
  856MPD2    H212574   1.675   0.302  13.539  1.1359  0.3487  0.2264
  856MPD2    H312575   1.472   0.356  13.639  0.8879 -0.7791 -0.0558
  856MPD2     N12576   1.579   0.792  13.703  0.6894 -0.6504 -0.4591
  856MPD2    H512577   1.483   0.816  13.725  1.3809  1.3113  0.3798
  856MPD2    N112578   1.892   0.475  13.515 -0.6000  0.0857 -0.1057
  856MPD2    H712579   1.958   0.551  13.497  0.7988 -1.2899 -0.7713
  857MPD2     C12580   3.433   2.448  13.038 -0.4472 -0.4558 -0.0575
  857MPD2    C112581   3.492   2.503  12.932  0.0449 -0.6167  0.2349
  857MPD2    C212582   3.501   2.639  12.913 -0.3576  0.1325  0.8795
  857MPD2    C312583   3.455   2.732  13.008  0.5421  0.2881  0.1464
  857MPD2    C412584   3.401   2.673  13.121  0.3001  0.0614  0.2129
  857MPD2    C512585   3.393   2.533  13.134  0.3253  1.1717  0.4753
  857MPD2     H12586   3.545   2.676  12.821 -0.7026 -0.0265  0.6530
  857MPD2    H112587   3.380   2.742  13.201 -0.2357  0.4983 -0.3044
  857MPD2    H212588   3.430   2.341  13.051 -0.3867 -0.2212  1.9014
  857MPD2    H312589   3.332   2.499  13.217  1.7462  1.4640  1.6458
  857MPD2     N12590   3.467   2.872  13.002 -0.2168 -0.8613 -0.0768
  857MPD2    H512591   3.432   2.917  13.086 -0.0573 -2.0578  0.6292
  857MPD2    N112592   3.531   2.411  12.830  0.2984  0.0521 -0.1754
  857MPD2    H712593   3.481   2.323  12.831  0.1242  0.1676  1.1602
  858MPD2     C12594   4.264   1.067  16.750 -0.6915  0.0338 -0.4808
  858MPD2    C112595   4.158   1.150  16.706 -0.3064 -0.3110  0.5781
  858MPD2    C212596   4.076   1.218  16.794  0.2186  0.2397 -0.1899
  858MPD2    C312597   4.099   1.202  16.933 -0.9236  0.1175 -0.0360
  858MPD2    C412598   4.213   1.140  16.978  0.4219  0.1336  0.9478
  858MPD2    C512599   4.287   1.074  16.885 -0.3102  0.0443  0.3859
  858MPD2     H12600   3.997   1.286  16.764 -0.2322 -0.6613 -1.0585
  858MPD2    H112601   4.242   1.138  17.082  0.2343 -1.6897  0.9762
  858MPD2    H212602   4.315   1.003  16.679 -1.0436  0.9958 -1.5991
  858MPD2    H312603   4.370   1.020  16.929 -0.6484 -1.5795 -0.9455
  858MPD2     N12604   4.019   1.257  17.038 -0.2923  0.3600 -0.0706
  858MPD2    H512605   4.055   1.241  17.131  0.9276  0.4784 -0.5222
  858MPD2    N112606   4.141   1.169  16.567  0.7683 -0.3017  0.2154
  858MPD2    H712607   4.207   1.116  16.511  1.7161  2.0049 -0.8350
  859MPD2     C12608   2.454   3.221  14.947  0.1428 -0.2527 -0.4895
  859MPD2    C112609   2.568   3.296  14.911 -0.0843 -0.4196 -0.3088
  859MPD2    C212610   2.681   3.229  14.878  0.1564 -0.1170  0.4355
  859MPD2    C312611   2.693   3.097  14.874  0.2947  0.1013  0.2973
  859MPD2    C412612   2.580   3.024  14.903  0.5099 -0.1708  0.1528
  859MPD2    C512613   2.468   3.089  14.945  0.0728 -0.0803 -0.3258
  859MPD2     H12614   2.770   3.284  14.852  0.4416  0.2937  2.2557
  859MPD2    H112615   2.593   2.917  14.907 -1.5193 -0.3660  1.3793
  859MPD2    H212616   2.364   3.266  14.987  0.2789  1.2728 -1.9010
  859MPD2    H312617   2.382   3.033  14.980  1.6279 -0.7229  2.4367
  859MPD2     N12618   2.808   3.026  14.832  0.1599  0.9913  0.3248
  859MPD2    H512619   2.801   2.926  14.820  2.3031  0.7135  1.3619
  859MPD2    N112620   2.568   3.432  14.925 -0.6274 -0.4820  0.5574
  859MPD2    H712621   2.481   3.467  14.964  0.2109 -0.1300  2.1400
  860MPD2     C12622   0.503   3.980  11.568 -0.0374 -0.1575 -0.1858
  860MPD2    C112623   0.553   4.050  11.675 -1.1801  0.6464  0.5828
  860MPD2    C212624   0.465   4.094  11.769  0.1655 -0.0374  0.2766
  860MPD2    C312625   0.332   4.064  11.768  0.2320  0.4042  0.5528
  860MPD2    C412626   0.284   3.986  11.671 -0.0817 -0.4728  0.6011
  860MPD2    C512627   0.370   3.945  11.570  0.6440  0.4404  0.2851
  860MPD2     H12628   0.509   4.151  11.850  0.2408 -3.4332  2.6075
  860MPD2    H112629   0.182   3.949  11.680 -0.4516  0.8289  1.7434
  860MPD2    H212630   0.562   3.940  11.486 -1.0682 -0.9991 -0.5098
  860MPD2    H312631   0.337   3.891  11.482 -2.1674  1.5414  0.6469
  860MPD2     N12632   0.258   4.123  11.872  0.3869  0.3779  0.7594
  860MPD2    H512633   0.299   4.203  11.919 -0.3776  0.8550  0.6068
  860MPD2    N112634   0.690   4.076  11.689 -0.6210  0.5120 -0.8871
  860MPD2    H712635   0.723   4.131  11.768 -1.8535 -0.4528  0.2954
  861MPD2     C12636   3.801   2.464  10.895  0.1886  0.6190  0.4479
  861MPD2    C112637   3.841   2.584  10.944  0.7955  0.6941  0.7283
  861MPD2    C212638   3.789   2.696  10.883 -0.4378 -0.1300  0.6295
  861MPD2    C312639   3.712   2.688  10.761 -0.0288 -0.3907  0.2450
  861MPD2    C412640   3.695   2.566  10.706  0.2210  0.5114 -0.0069
  861MPD2    C512641   3.741   2.452  10.772 -0.6905  0.1496 -0.2204
  861MPD2     H12642   3.796   2.790  10.937  0.4937 -0.4111  0.9975
  861MPD2    H112643   3.625   2.544  10.626 -0.4322 -1.1778  1.0237
  861MPD2    H212644   3.815   2.371  10.949  2.3440  1.7741  1.9071
  861MPD2    H312645   3.705   2.357  10.735 -1.8222  0.8351 -0.8941
  861MPD2     N12646   3.646   2.790  10.692  0.5403 -0.0787  0.3999
  861MPD2    H512647   3.595   2.761  10.609 -0.3955  0.7402  0.6995
  861MPD2    N112648   3.943   2.597  11.048 -0.2660  0.0827  0.0890
  861MPD2    H712649   3.956   2.693  11.077  0.5362 -0.2355  0.7661
  862MPD2     C12650   3.629   2.887  10.050  0.5905  0.5348  0.3139
  862MPD2    C112651   3.704   2.864  10.163  0.2806 -0.5067 -0.3175
  862MPD2    C212652   3.757   2.735  10.183 -1.2576 -0.2932  0.1909
  862MPD2    C312653   3.749   2.632  10.089  0.3061  0.5444 -0.0571
  862MPD2    C412654   3.680   2.655   9.977  0.0443  0.0579  0.0179
  862MPD2    C512655   3.624   2.787   9.959 -0.1603 -0.8778 -0.6211
  862MPD2     H12656   3.811   2.706  10.273 -0.9026 -0.4060 -0.0626
  862MPD2    H112657   3.676   2.586   9.893 -1.2979  1.1795 -0.8475
  862MPD2    H212658   3.581   2.983  10.032 -1.9256 -1.2181 -2.3879
  862MPD2    H312659   3.553   2.797   9.879 -1.1118  1.2233  0.4961
  862MPD2     N12660   3.784   2.497  10.130 -0.1216  0.2287  0.4700
  862MPD2    H512661   3.753   2.425  10.066  0.7890 -0.6935  1.0603
  862MPD2    N112662   3.711   2.956  10.267 -0.4211  0.0760  0.3343
  862MPD2    H712663   3.766   2.932  10.349 -3.6584  0.3916  2.5675
  863MPD2     C12664   1.941   0.237  17.340  0.2013 -0.4342  0.0452
  863MPD2    C112665   1.948   0.194  17.210 -0.4910 -1.0156  0.5010
  863MPD2    C212666   2.029   0.086  17.179  0.2262  0.0364  0.1711
  863MPD2    C312667   2.090   0.016  17.277  0.5465  0.7060 -0.1103
  863MPD2    C412668   2.082   0.056  17.410 -0.0883  0.3347  0.2503
  863MPD2    C512669   2.012   0.168  17.441 -0.1668 -1.1496 -0.2468
  863MPD2     H12670   2.038   0.054  17.076 -0.8510 -0.1441  0.1396
  863MPD2    H112671   2.123   4.719  17.490  0.1672 -3.5284 -2.7803
  863MPD2    H212672   1.881   0.324  17.361  2.1273  0.8981  0.0610
  863MPD2    H312673   2.000   0.192  17.546  0.6146  0.4330 -0.5300
  863MPD2     N12674   2.170   4.626  17.244 -0.1787 -0.0496  0.6081
  863MPD2    H512675   2.220   4.583  17.321  1.2610  0.4508 -0.0333
  863MPD2    N112676   1.874   0.261  17.110 -0.1828  0.1068 -0.2731
  863MPD2    H712677   1.826   0.348  17.133  2.5506  1.9721 -1.6053
  864MPD2     C12678   2.494   1.808  16.698  0.1600 -0.4783 -0.2196
  864MPD2    C112679   2.551   1.710  16.621  0.3691  0.3328 -0.5978
  864MPD2    C212680   2.681   1.718  16.593 -0.1130  0.0936 -0.1392
  864MPD2    C312681   2.753   1.829  16.635 -0.1914  0.5209 -0.2417
  864MPD2    C412682   2.694   1.924  16.714  0.4253  0.1520 -0.4168
  864MPD2    C512683   2.562   1.918  16.742  0.5504  0.5738 -0.5046
  864MPD2     H12684   2.718   1.657  16.511  1.7572 -1.5756  1.9307
  864MPD2    H112685   2.753   2.006  16.753 -0.6489  2.6640 -4.1218
  864MPD2    H212686   2.388   1.812  16.722 -0.0176  1.7412 -1.3840
  864MPD2    H312687   2.513   1.995  16.800  1.0797  1.0372 -0.6652
  864MPD2     N12688   2.890   1.851  16.592  0.1530 -0.6617 -0.0563
  864MPD2    H512689   2.933   1.934  16.630  0.9794 -0.7150 -0.8689
  864MPD2    N112690   2.461   1.625  16.560  0.4784  0.0763 -0.1200
  864MPD2    H712691   2.363   1.650  16.571  0.4013  0.4064 -1.5121
  865MPD2     C12692   2.919   2.179  15.707 -0.2973  0.1395  0.1005
  865MPD2    C112693   2.926   2.041  15.717 -0.4559 -0.0047 -0.2920
  865MPD2    C212694   2.986   1.981  15.824 -0.0624 -0.4377 -0.5513
  865MPD2    C312695   3.035   2.058  15.927 -0.0904 -0.3320  0.8657
  865MPD2    C412696   3.029   2.196  15.912  0.3080 -0.1112  0.2819
  865MPD2    C512697   2.973   2.252  15.804  0.2217 -0.1465 -0.4507
  865MPD2     H12698   2.986   1.872  15.830  2.3753 -0.3488  0.9328
  865MPD2    H112699   3.085   2.256  15.983  0.1727  1.6910 -1.1170
  865MPD2    H212700   2.864   2.210  15.619  0.4724  0.6277 -0.2061
  865MPD2    H312701   2.963   2.360  15.805  0.6413 -0.1370  1.2753
  865MPD2     N12702   3.099   1.990  16.034 -0.5331  0.0836 -0.4044
  865MPD2    H512703   3.116   1.891  16.026  0.9965  0.1504  1.7315
  865MPD2    N112704   2.864   1.966  15.609 -0.1032 -0.2257 -0.0264
  865MPD2    H712705   2.837   2.012  15.522  0.4307  0.2584  0.0627
  866MPD2     C12706   4.697   3.195  10.750  0.5763  0.6791  0.5911
  866MPD2    C112707   4.647   3.099  10.834 -0.6386  0.2688  0.1964
  866MPD2    C212708   4.526   3.118  10.894 -0.2089 -0.2380  0.4064
  866MPD2    C312709   4.462   3.241  10.884  0.0170 -0.1111  0.2648
  866MPD2    C412710   4.520   3.333  10.808 -0.5376 -0.1815 -0.7415
  866MPD2    C512711   4.633   3.314  10.741 -0.3312  0.6243 -0.7915
  866MPD2     H12712   4.480   3.034  10.946 -0.3006  0.5006  1.5105
  866MPD2    H112713   4.472   3.430  10.796  0.4503  0.1324 -2.1438
  866MPD2    H212714   0.069   3.188  10.700  0.0811  0.2714 -0.2956
  866MPD2    H312715   4.672   3.397  10.684  4.1195 -0.3268  0.8207
  866MPD2     N12716   4.336   3.268  10.939 -0.3259  0.3669  0.5642
  866MPD2    H512717   4.291   3.358  10.924  1.1191  1.0275  0.2756
  866MPD2    N112718   0.007   2.985  10.861  0.4177  0.0249  0.4440
  866MPD2    H712719   0.097   2.984  10.813  1.1024 -1.6615  1.7788
  867MPD2     C12720   1.289   1.401  16.557 -0.7179 -0.1877  0.1114
  867MPD2    C112721   1.396   1.345  16.621 -0.5352  0.5415 -0.2536
  867MPD2    C212722   1.430   1.402  16.745  0.2666 -0.5682 -0.1472
  867MPD2    C312723   1.367   1.513  16.795 -0.1990 -0.6605  0.0916
  867MPD2    C412724   1.262   1.567  16.724 -0.3736 -0.6798  0.1709
  867MPD2    C512725   1.226   1.512  16.608 -0.5586 -0.1560 -0.2242
  867MPD2     H12726   1.524   1.369  16.788  0.5040  0.3440  0.0470
  867MPD2    H112727   1.211   1.658  16.754 -1.0566 -0.7061 -0.9175
  867MPD2    H212728   1.238   1.356  16.472 -1.1232  1.5062 -0.5597
  867MPD2    H312729   1.147   1.560  16.552  1.5378  0.3762 -2.7363
  867MPD2     N12730   1.407   1.582  16.914 -0.2102  0.1904  0.4690
  867MPD2    H512731   1.352   1.664  16.939  2.4117  2.0486  0.0905
  867MPD2    N112732   1.455   1.224  16.579 -0.2269  0.0142 -0.7554
  867MPD2    H712733   1.417   1.184  16.494 -0.4619 -1.1481 -0.1096
  868MPD2     C12734   4.324   1.680  13.236  0.9788  0.2485  0.2178
  868MPD2    C112735   4.205   1.601  13.237 -0.3128  0.3428 -0.1195
  868MPD2    C212736   4.131   1.612  13.356  0.2539  0.7538 -0.5897
  868MPD2    C312737   4.158   1.704  13.455 -1.3404 -0.6676  0.5295
  868MPD2    C412738   4.283   1.763  13.448  0.5025 -1.1021 -0.4570
  868MPD2    C512739   4.359   1.755  13.338 -0.3181 -0.2693 -0.0598
  868MPD2     H12740   4.041   1.553  13.370  0.6009 -0.0870 -1.8786
  868MPD2    H112741   4.330   1.828  13.521 -1.8406 -0.8705  0.8450
  868MPD2    H212742   4.392   1.671  13.152  1.5628  2.2217  0.4839
  868MPD2    H312743   4.453   1.808  13.329 -0.8623  0.4081 -1.7343
  868MPD2     N12744   4.064   1.718  13.558  0.1712  0.2921  0.0812
  868MPD2    H512745   3.985   1.656  13.550  1.2618 -1.2041  0.7352
  868MPD2    N112746   4.181   1.502  13.140 -0.3908  0.0228  0.6548
  868MPD2    H712747   4.254   1.491  13.070 -1.8642  0.9735 -1.0466
  869MPD2     C12748   0.671   3.768   1.426  0.3539 -0.1285  0.4750
  869MPD2    C112749   0.564   3.723   1.501  0.9038  0.5479 -0.0626
  869MPD2    C212750   0.442   3.729   1.444 -0.4695 -0.0214 -0.0161
  869MPD2    C312751   0.430   3.751   1.307  0.4644  0.0465  0.0309
  869MPD2    C412752   0.536   3.801   1.234 -0.2231 -0.0137  0.4983
  869MPD2    C512753   0.655   3.806   1.302 -0.5146 -0.5790 -0.3615
  869MPD2     H12754   0.356   3.691   1.498 -1.1135 -0.6384 -1.4903
  869MPD2    H112755   0.531   3.830   1.130 -0.1150 -2.4536 -0.1764
  869MPD2    H212756   0.763   3.786   1.481  0.2887 -0.4875  0.7053
  869MPD2    H312757   0.744   3.855   1.266 -1.4879  1.0563 -0.5758
  869MPD2     N12758   0.314   3.747   1.236  0.2743 -1.0314 -0.0442
  869MPD2    H512759   0.320   3.746   1.135  0.0631  1.9549 -0.0832
  869MPD2    N112760   0.588   3.660   1.627 -0.0171  0.1462  0.2131
  869MPD2    H712761   0.687   3.646   1.646  0.3474  0.9204 -1.1232
  870MPD2     C12762   4.057   2.340   1.559 -0.2415  0.4550  0.1272
  870MPD2    C112763   4.171   2.413   1.548  0.4516  0.1100  0.5709
  870MPD2    C212764   4.163   2.547   1.502 -0.6878  0.0683  0.6269
  870MPD2    C312765   4.044   2.588   1.443  0.1811 -0.6462 -0.4621
  870MPD2    C412766   3.925   2.515   1.441 -0.7584 -0.3174 -0.7069
  870MPD2    C512767   3.939   2.390   1.500 -0.6193  0.0186  0.0816
  870MPD2     H12768   4.250   2.606   1.479  0.2502 -1.4461  0.2949
  870MPD2    H112769   3.829   2.538   1.396  1.0994  2.6506 -3.1621
  870MPD2    H212770   4.062   2.245   1.610 -3.3193  0.7360  0.9557
  870MPD2    H312771   3.851   2.327   1.502  0.3365 -1.3097  0.2190
  870MPD2     N12772   4.055   2.705   1.368  0.1199 -0.2749  0.1263
  870MPD2    H512773   4.145   2.748   1.385  0.8977 -2.0238  0.4345
  870MPD2    N112774   4.293   2.353   1.595  0.5570 -0.1478 -0.1362
  870MPD2    H712775   4.282   2.256   1.625  0.8765 -0.3916 -0.7868
  871MPD2     C12776   0.770   1.818  16.312 -0.1018 -0.0526  0.0952
  871MPD2    C112777   0.749   1.811  16.447  0.5334  0.1730  0.3643
  871MPD2    C212778   0.718   1.686  16.500  0.6299 -0.2195  1.1426
  871MPD2    C312779   0.711   1.572  16.421 -1.1601 -0.1250  1.1047
  871MPD2    C412780   0.727   1.579  16.284  0.4429 -0.3863  0.4545
  871MPD2    C512781   0.762   1.707  16.234  0.7237 -0.8456  0.0318
  871MPD2     H12782   0.712   1.669  16.607 -0.6476 -2.3519  0.7287
  871MPD2    H112783   0.718   1.499  16.211  1.4723 -0.4675  0.4109
  871MPD2    H212784   0.765   1.915  16.265 -0.1543 -1.3757 -2.6584
  871MPD2    H312785   0.767   1.715  16.126  0.7610  1.4473  0.1968
  871MPD2     N12786   0.673   1.457  16.492  0.3427  1.0802 -0.1586
  871MPD2    H512787   0.635   1.475  16.585 -3.2204 -1.0711 -1.1817
  871MPD2    N112788   0.766   1.927  16.532 -0.2442  0.4047 -0.0525
  871MPD2    H712789   0.804   2.011  16.490  0.4540 -0.2788 -0.7852
  872MPD2     C12790   1.449   0.071  14.116  0.3094 -1.2996 -0.6116
  872MPD2    C112791   1.388   0.027  14.000  0.5340 -0.0336  0.0485
  872MPD2    C212792   1.267   4.685  14.005  0.7735 -0.2209  0.2400
  872MPD2    C312793   1.205   4.655  14.128  0.2520  0.6103 -0.4590
  872MPD2    C412794   1.266   4.703  14.244 -1.1687 -0.3521  0.1937
  872MPD2    C512795   1.393   0.039  14.239 -0.0971 -0.5987  0.3731
  872MPD2     H12796   1.223   4.650  13.912 -3.2261  1.6903  1.4371
  872MPD2    H112797   1.220   4.665  14.334 -2.0965 -1.6898 -0.8561
  872MPD2    H212798   1.541   0.127  14.129  1.2621 -2.5272 -1.9892
  872MPD2    H312799   1.452   0.061  14.328  0.3062 -2.9675  0.6806
  872MPD2     N12800   1.082   4.578  14.137 -0.0089  0.3929 -0.3993
  872MPD2    H512801   1.058   4.554  14.233 -0.2651  1.1126 -0.2809
  872MPD2    N112802   1.440   0.046  13.869  0.1177  0.0241  0.5087
  872MPD2    H712803   1.387   0.007  13.791 -3.4891 -0.9945  3.5059
  873MPD2     C12804   3.424   4.049   1.156 -0.2871  0.1914  0.1002
  873MPD2    C112805   3.299   4.086   1.205 -0.1287 -0.1628  0.6107
  873MPD2    C212806   3.197   3.991   1.194 -0.0123 -0.1555  0.0918
  873MPD2    C312807   3.218   3.867   1.131 -0.0229 -0.4602 -0.4854
  873MPD2    C412808   3.341   3.841   1.073 -0.1190 -0.2707  0.0209
  873MPD2    C512809   3.444   3.928   1.092  0.0419  0.8139  0.7789
  873MPD2     H12810   3.099   4.009   1.237 -0.4594 -0.9396 -0.5787
  873MPD2    H112811   3.364   3.743   1.033  1.3984 -0.5976  1.7014
  873MPD2    H212812   3.509   4.116   1.166  0.1555 -0.6482  2.0731
  873MPD2    H312813   3.535   3.893   1.045 -0.8286 -0.7665  0.2555
  873MPD2     N12814   3.115   3.769   1.118 -0.4867 -0.6414 -0.6919
  873MPD2    H512815   3.138   3.678   1.079  0.2131 -0.6835 -0.1776
  873MPD2    N112816   3.278   4.223   1.246  0.1593  0.7967 -0.1001
  873MPD2    H712817   3.364   4.276   1.242  0.9381 -0.4581  0.2299
  874MPD2     C12818   2.836   4.508  16.010 -0.2371  0.1306 -0.2752
  874MPD2    C112819   2.892   4.487  16.133 -0.5205 -0.2993  0.3480
  874MPD2    C212820   3.014   4.545  16.157  0.5996 -0.5882  0.2685
  874MPD2    C312821   3.093   4.595  16.058  0.6470  0.4162  0.2744
  874MPD2    C412822   3.035   4.617  15.937 -0.2946  0.1776 -0.1044
  874MPD2    C512823   2.905   4.580  15.913  0.5225  0.4983 -0.8894
  874MPD2     H12824   3.061   4.545  16.255 -0.6294  0.5214  0.8551
  874MPD2    H112825   3.087   4.657  15.851  1.7755 -1.1321  0.5567
  874MPD2    H212826   2.736   4.477  15.981 -0.2212  1.0115 -1.2902
  874MPD2    H312827   2.865   4.603  15.815  0.6231  1.2084 -0.7617
  874MPD2     N12828   3.225   4.631  16.089  0.1668  0.6420  0.1772
  874MPD2    H512829   3.256   4.615  16.184  1.1111 -0.3219 -0.2914
  874MPD2    N112830   2.814   4.419  16.229 -0.0021 -0.0062 -0.1544
  874MPD2    H712831   2.720   4.385  16.208 -0.6209  1.2410  0.6437
  875MPD2     C12832   4.554   3.090  14.670  0.4944  0.2131  0.9842
  875MPD2    C112833   4.413   3.080  14.665  0.8074 -0.2075  0.1321
  875MPD2    C212834   4.343   3.080  14.782 -0.4117  0.4618 -0.3185
  875MPD2    C312835   4.401   3.101  14.900  0.3358  0.0481  0.3547
  875MPD2    C412836   4.540   3.102  14.907 -1.1882 -0.2576  0.2758
  875MPD2    C512837   4.614   3.096  14.792  0.2015 -0.3820 -0.3409
  875MPD2     H12838   4.237   3.060  14.771 -0.5364  1.0743 -0.2004
  875MPD2    H112839   4.583   3.128  15.003 -2.0126 -1.4143  0.9594
  875MPD2    H212840   4.618   3.091  14.583 -0.5861  1.8442  0.2198
  875MPD2    H312841   4.721   3.085  14.803  0.1534 -0.4815  0.0360
  875MPD2     N12842   4.328   3.098  15.020 -0.1255 -0.4683 -0.2771
  875MPD2    H512843   4.387   3.106  15.102 -2.5360  2.6285  1.1663
  875MPD2    N112844   4.342   3.077  14.542  0.0698 -0.8734 -1.0547
  875MPD2    H712845   4.242   3.088  14.555  0.0975 -0.0131 -1.6107
  876MPD2     C12846   3.179   4.286  15.870 -0.2334 -0.2889 -0.0282
  876MPD2    C112847   3.189   4.209  15.760  0.1988  0.0248 -0.2574
  876MPD2    C212848   3.161   4.072  15.774 -0.1134  0.1555 -0.5784
  876MPD2    C312849   3.137   4.016  15.901 -1.2748  0.5117  0.1282
  876MPD2    C412850   3.133   4.101  16.015 -0.1993 -0.1832 -0.7559
  876MPD2    C512851   3.144   4.235  15.994 -0.7843 -0.1191 -0.5122
  876MPD2     H12852   3.171   4.000  15.693 -0.1816  1.0020 -1.3313
  876MPD2    H112853   3.111   4.064  16.115 -1.1436  0.4226 -0.7429
  876MPD2    H212854   3.201   4.392  15.864  0.7777 -0.4648  0.4884
  876MPD2    H312855   3.156   4.297  16.083  0.6671  0.7054 -1.2903
  876MPD2     N12856   3.137   3.875  15.909 -0.3144 -0.4017 -0.0899
  876MPD2    H512857   3.150   3.820  15.825 -1.3289 -0.3438 -0.2893
  876MPD2    N112858   3.218   4.278  15.638  0.3466  0.2244 -0.0712
  876MPD2    H712859   3.228   4.379  15.641 -0.2469  0.2313  1.3747
  877MPD2     C12860   2.829   4.565  15.111 -0.5407 -0.0985  0.7984
  877MPD2    C112861   2.953   4.583  15.053 -0.1210  0.6285  0.6539
  877MPD2    C212862   2.967   4.604  14.916  0.1008  0.0931  0.2966
  877MPD2    C312863   2.854   4.617  14.836 -0.1180 -0.4682  0.1562
  877MPD2    C412864   2.732   4.607  14.894 -0.0295 -0.0247  0.2384
  877MPD2    C512865   2.716   4.589  15.029 -1.0009 -0.3500  0.2229
  877MPD2     H12866   3.069   4.607  14.879 -0.8522  0.6117 -2.2556
  877MPD2    H112867   2.642   4.620  14.836 -0.2293 -0.4905  0.4399
  877MPD2    H212868   2.816   4.526  15.211 -0.9484  0.0442  0.8011
  877MPD2    H312869   2.615   4.575  15.066 -1.7537 -1.5811 -2.3132
  877MPD2     N12870   2.861   4.632  14.695 -0.0658 -0.0504  0.5493
  877MPD2    H512871   2.771   4.607  14.655  0.0298 -0.8353  0.8218
  877MPD2    N112872   3.073   4.569  15.122  0.5467  0.1555  0.2678
  877MPD2    H712873   3.155   4.579  15.064  1.5550  0.5716  1.7598
  878MPD2     C12874   2.489   3.819  13.125  0.8562 -1.1051  0.0297
  878MPD2    C112875   2.565   3.934  13.147 -0.2050 -0.4905 -0.0958
  878MPD2    C212876   2.543   4.002  13.259  0.5120 -0.0051  0.0589
  878MPD2    C312877   2.454   3.961  13.347 -0.2082 -0.4423 -0.4320
  878MPD2    C412878   2.382   3.848  13.331  0.6146 -0.1180  0.1158
  878MPD2    C512879   2.411   3.764  13.223 -0.5409 -0.2051  0.0469
  878MPD2     H12880   2.595   4.097  13.270 -1.2289  0.7747  1.6324
  878MPD2    H112881   2.320   3.808  13.411 -1.0108 -0.8837 -1.5152
  878MPD2    H212882   2.503   3.751  13.042  0.0489 -1.6155  0.3124
  878MPD2    H312883   2.371   3.663  13.214 -3.0040  0.8846 -0.9696
  878MPD2     N12884   2.444   4.044  13.458  0.7625  0.2853 -0.0613
  878MPD2    H512885   2.502   4.126  13.467 -1.6722  1.9018  0.9216
  878MPD2    N112886   2.639   3.973  13.033 -0.0075  0.3027  0.3294
  878MPD2    H712887   2.650   3.897  12.967  1.1078  0.1866  0.6524
  879MPD2     C12888   3.668   4.440  16.868  0.0964 -0.4718 -0.6528
  879MPD2    C112889   3.577   4.425  16.968 -0.5537 -0.3439 -0.1339
  879MPD2    C212890   3.440   4.433  16.936  0.5125  0.3505  0.0601
  879MPD2    C312891   3.398   4.445  16.803 -0.0130  0.5796 -0.1857
  879MPD2    C412892   3.494   4.462  16.706 -0.8519  0.0787  0.4079
  879MPD2    C512893   3.626   4.457  16.740  0.1646 -0.6217  0.1528
  879MPD2     H12894   3.361   4.417  17.009 -0.7013 -0.4913 -1.4602
  879MPD2    H112895   3.465   4.452  16.602  2.9999 -1.2252 -0.5278
  879MPD2    H212896   3.774   4.448  16.891 -0.3539  0.8400  0.9553
  879MPD2    H312897   3.707   4.463  16.668  1.5448 -0.1739  1.7633
  879MPD2     N12898   3.266   4.448  16.764 -0.0299 -0.0671 -0.6977
  879MPD2    H512899   3.240   4.442  16.666 -1.1749  0.1537 -0.4138
  879MPD2    N112900   3.631   4.408  17.100  0.1378  0.1661  0.0187
  879MPD2    H712901   3.731   4.409  17.113  0.0452 -0.5338  0.7512
  880MPD2     C12902   4.161   1.909   0.393 -0.2826 -0.1730  0.2742
  880MPD2    C112903   4.234   1.998   0.460  0.4903  0.0325  0.3280
  880MPD2    C212904   4.276   1.978   0.589  0.3678 -0.3417  0.7136
  880MPD2    C312905   4.265   1.850   0.645  0.3189  0.2605  0.0931
  880MPD2    C412906   4.187   1.759   0.577 -0.0856  0.5710 -0.2875
  880MPD2    C512907   4.141   1.791   0.458  0.6143  0.2069 -0.0630
  880MPD2     H12908   4.321   2.058   0.647  1.3450 -0.5847  0.2979
  880MPD2    H112909   4.160   1.662   0.616 -0.4610  0.5377 -0.6306
  880MPD2    H212910   4.125   1.931   0.293  0.5417  0.0094  0.0166
  880MPD2    H312911   4.076   1.719   0.410  0.4718  0.7241 -0.6594
  880MPD2     N12912   4.334   1.840   0.768 -0.3409 -0.1776  0.1156
  880MPD2    H512913   4.372   1.921   0.816  0.9687 -1.0158  0.5011
  880MPD2    N112914   4.267   2.120   0.395 -1.2630 -0.2404 -0.4975
  880MPD2    H712915   4.231   2.127   0.300  0.3860  0.1128 -1.1146
  881MPD2     C12916   4.631   2.774  17.421  0.0043  0.5997  0.4485
  881MPD2    C112917   4.577   2.650  17.410  0.3477 -1.2728  0.0705
  881MPD2    C212918   4.517   2.601  17.522  0.2072 -0.3673  0.0132
  881MPD2    C312919   4.526   2.666  17.643  0.5627  0.1245 -0.3512
  881MPD2    C412920   4.577   2.790  17.653  0.6182 -0.3625  0.2226
  881MPD2    C512921   4.644   2.840  17.539 -0.1278  0.1948  0.4794
  881MPD2     H12922   4.474   2.502  17.512 -0.5520 -0.0587  0.2778
  881MPD2    H112923   4.572   2.842   0.052  1.6613 -0.4861  0.3472
  881MPD2    H212924   4.682   2.802  17.330 -0.3176 -0.3578 -0.0317
  881MPD2    H312925   4.706   2.929  17.540  0.1961 -0.0333  0.8316
  881MPD2     N12926   4.486   2.610   0.069 -0.7241 -0.5304 -0.5626
  881MPD2    H512927   4.507   2.675   0.145 -3.1716 -3.1294  2.3370
  881MPD2    N112928   4.542   2.607  17.280  0.1583 -0.1943  0.3527
  881MPD2    H712929   4.562   2.675  17.206  2.2933 -0.8596  0.3325
  882MPD2     C12930   2.564   4.626  13.885  0.0675 -0.2910  0.4220
  882MPD2    C112931   2.573   4.603  14.022 -0.0094  0.7423  0.3395
  882MPD2    C212932   2.455   4.553  14.092  0.3266  0.4257  0.1145
  882MPD2    C312933   2.339   4.526  14.019 -0.3950  0.4808  0.0211
  882MPD2    C412934   2.338   4.540  13.884  0.3181 -0.1817 -0.7679
  882MPD2    C512935   2.450   4.587  13.819  0.1334  0.0782 -0.4992
  882MPD2     H12936   2.462   4.521  14.195  1.5873  1.5825  0.3754
  882MPD2    H112937   2.254   4.521  13.819 -0.4409  0.4974  0.0234
  882MPD2    H212938   2.650   4.669  13.835  0.6212 -1.5295  0.3045
  882MPD2    H312939   2.447   4.594  13.711 -2.6208  0.6372 -0.3889
  882MPD2     N12940   2.224   4.466  14.077 -0.2807 -0.1023 -0.3885
  882MPD2    H512941   2.145   4.462  14.013 -0.9981 -0.5134  0.5092
  882MPD2    N112942   2.695   4.632  14.095  0.0908 -0.6387 -0.7283
  882MPD2    H712943   2.778   4.650  14.040  1.2545  2.8350  2.1643
  883MPD2     C12944   0.059   3.936  16.069  0.5368  0.1115  0.1191
  883MPD2    C112945   0.047   4.057  16.008  0.2386 -0.8197  0.4813
  883MPD2    C212946   0.116   4.166  16.060 -0.2544  0.6482  0.5982
  883MPD2    C312947   0.192   4.156  16.170 -0.6044  0.2857 -0.3060
  883MPD2    C412948   0.199   4.031  16.235 -0.1856 -0.1864 -0.0094
  883MPD2    C512949   0.134   3.923  16.186  0.1137  0.0817  0.0943
  883MPD2     H12950   0.108   4.270  16.028  1.9371  0.9887  1.1544
  883MPD2    H112951   0.255   4.012  16.326  0.7304 -1.4443 -0.8335
  883MPD2    H212952   0.013   3.848  16.025 -0.0743  0.4886 -0.0017
  883MPD2    H312953   0.151   3.835  16.248 -0.8163 -1.3165 -1.6470
  883MPD2     N12954   0.274   4.268  16.193  0.2444  0.6925 -0.3105
  883MPD2    H512955   0.263   4.348  16.132  0.0028  0.9957  0.1383
  883MPD2    N112956   4.679   4.082  15.897 -0.1676 -0.7137  0.7832
  883MPD2    H712957   4.664   4.179  15.870  1.1997 -0.0140  2.5356
  884MPD2     C12958   1.908   0.223  15.446  0.2866  0.1108  0.4048
  884MPD2    C112959   1.915   0.309  15.338 -0.0446 -0.2902  1.1176
  884MPD2    C212960   1.831   0.413  15.324  0.0185  0.3980 -0.1488
  884MPD2    C312961   1.727   0.421  15.417  0.2110 -0.3969 -0.3218
  884MPD2    C412962   1.715   0.331  15.527 -0.2746 -0.5319  0.1421
  884MPD2    C512963   1.812   0.237  15.539 -0.3111 -0.1351 -0.8572
  884MPD2     H12964   1.843   0.492  15.250  0.5087  0.5218  0.0612
  884MPD2    H112965   1.646   0.331  15.611 -0.6189  1.0578 -0.1442
  884MPD2    H212966   1.990   0.155  15.466  1.3230  1.6552  1.4570
  884MPD2    H312967   1.807   0.164  15.618  1.4484  0.0036 -0.6228
  884MPD2     N12968   1.620   0.509  15.392  0.6748 -0.9504  0.6480
  884MPD2    H512969   1.623   0.567  15.309  0.0051 -0.2107  1.1330
  884MPD2    N112970   2.034   0.304  15.267 -0.4397  0.1663  0.1285
  884MPD2    H712971   2.102   0.233  15.290 -0.6278 -0.2507 -0.5892
  885MPD2     C12972   4.620   0.708  17.672 -0.4408 -0.2259 -0.1620
  885MPD2    C112973   4.708   0.621  17.616 -0.6717 -0.4286 -0.4200
  885MPD2    C212974   0.001   0.623  17.477 -0.1401  0.6111  0.1368
  885MPD2    C312975   4.678   0.734  17.405  0.1232  0.0264 -0.1375
  885MPD2    C412976   4.604   0.833  17.469  0.2640  0.3783  0.2397
  885MPD2    C512977   4.566   0.813  17.600  0.2015 -0.1050 -0.2046
  885MPD2     H12978   0.053   0.545  17.423  1.1284  0.5406  1.4792
  885MPD2    H112979   4.565   0.916  17.412  0.3452  0.4108  0.2310
  885MPD2    H212980   4.600   0.711   0.083 -0.0292  0.1394 -0.0987
  885MPD2    H312981   4.495   0.880  17.647  1.8545  2.0033 -0.7210
  885MPD2     N12982   4.710   0.737  17.267 -0.1627  0.0147  0.0934
  885MPD2    H512983   0.053   0.666  17.240  1.5565  1.7636 -0.2236
  885MPD2    N112984   0.050   0.531   0.007  0.3578  0.0697 -0.3729
  885MPD2    H712985   0.014   0.529   0.102  1.8058 -1.6988  0.1317
  886MPD2     C12986   1.636   3.489  15.568 -0.5720  0.9351 -0.6507
  886MPD2    C112987   1.748   3.565  15.617 -0.2894  0.2216 -0.5846
  886MPD2    C212988   1.732   3.698  15.637 -0.5236  0.5757 -0.0919
  886MPD2    C312989   1.603   3.754  15.616 -0.1088  0.0495  0.2510
  886MPD2    C412990   1.499   3.679  15.571  0.7853  0.9084 -1.0035
  886MPD2    C512991   1.512   3.552  15.547  0.0214 -1.1160 -0.6054
  886MPD2     H12992   1.811   3.765  15.670 -1.0792  0.6981  0.9877
  886MPD2    H112993   1.408   3.723  15.532 -1.2630 -2.4722 -0.0713
  886MPD2    H212994   1.648   3.392  15.521 -0.8788  0.7963 -0.4404
  886MPD2    H312995   1.438   3.494  15.493 -0.7479  0.0379 -0.7762
  886MPD2     N12996   1.574   3.892  15.618 -0.0133 -0.2001 -0.4141
  886MPD2    H512997   1.479   3.916  15.591 -0.0564 -0.2384 -0.2987
  886MPD2    N112998   1.875   3.516  15.629  0.0423 -1.0906 -0.6029
  886MPD2    H712999   1.954   3.578  15.648  0.0744 -1.3801  0.1800
  887MPD2     C13000   2.538   3.770  15.474 -0.6581 -0.4879  0.1664
  887MPD2    C113001   2.418   3.785  15.545 -0.5451  0.4982 -0.0907
  887MPD2    C213002   2.377   3.909  15.592  0.5048  0.0248 -0.1931
  887MPD2    C313003   2.463   4.013  15.577  0.7413  0.1841 -0.3923
  887MPD2    C413004   2.574   4.001  15.495  1.2411 -0.5024 -0.6852
  887MPD2    C513005   2.615   3.878  15.454 -0.7715 -0.9488 -0.5822
  887MPD2     H13006   2.276   3.923  15.629  0.8017 -3.0552  1.7402
  887MPD2    H113007   2.639   4.086  15.473 -1.8993  1.4924 -2.2383
  887MPD2    H213008   2.564   3.674  15.432 -0.6784 -0.5982  0.4065
  887MPD2    H313009   2.706   3.877  15.395 -0.8741 -1.6687 -0.7317
  887MPD2     N13010   2.411   4.132  15.625 -0.8731 -0.4845  0.4328
  887MPD2    H513011   2.314   4.123  15.652 -1.1134 -1.1101 -0.6534
  887MPD2    N113012   2.333   3.671  15.565  0.0706  0.7184 -0.2193
  887MPD2    H713013   2.240   3.674  15.605  0.3732 -1.5222  0.6764
  888MPD2     C13014   3.792   4.023  14.451  1.1431  0.4965  0.2817
  888MPD2    C113015   3.824   4.088  14.562  0.0500 -0.4945 -0.4327
  888MPD2    C213016   3.903   4.202  14.561  0.3629 -0.2829  0.2706
  888MPD2    C313017   3.943   4.259  14.443  0.4584  0.9648  0.4759
  888MPD2    C413018   3.895   4.202  14.327  1.0751  0.3793 -0.1405
  888MPD2    C513019   3.817   4.084  14.328  0.2478 -0.7768  0.2112
  888MPD2     H13020   3.939   4.241  14.656 -0.9932  1.5958  0.0000
  888MPD2    H113021   3.895   4.256  14.233  1.1561 -0.3948 -0.5872
  888MPD2    H213022   3.722   3.941  14.450  2.0729 -0.2867 -1.2502
  888MPD2    H313023   3.797   4.034  14.234 -1.0593 -1.7410  1.0048
  888MPD2     N13024   4.007   4.383  14.443 -0.3476  0.0448  0.5175
  888MPD2    H513025   4.031   4.414  14.537 -1.0129 -0.4669  0.8551
  888MPD2    N113026   3.801   4.032  14.692  0.2752  0.7725  0.1640
  888MPD2    H713027   3.856   4.061  14.771  2.8747 -1.3975 -0.8535
  889MPD2     C13028   3.325   3.591  12.523  0.6262  0.3659 -0.9360
  889MPD2    C113029   3.280   3.595  12.656  0.3517 -0.6676  0.7028
  889MPD2    C213030   3.218   3.704  12.712 -0.2038 -0.7668 -0.6653
  889MPD2    C313031   3.207   3.820  12.637 -0.1215 -0.7885 -0.3403
  889MPD2    C413032   3.244   3.816  12.501 -0.5203 -0.3776 -0.3708
  889MPD2    C513033   3.304   3.707  12.450 -0.2623 -0.3401 -0.2599
  889MPD2     H13034   3.191   3.701  12.817 -1.2741 -2.3894 -0.9989
  889MPD2    H113035   3.244   3.906  12.440 -2.2162 -0.4923 -0.5294
  889MPD2    H213036   3.395   3.515  12.489 -0.5110 -0.1117 -2.1822
  889MPD2    H313037   3.349   3.716  12.351  0.7771  1.4257  0.3751
  889MPD2     N13038   3.164   3.939  12.702 -0.1490 -0.7983 -0.3569
  889MPD2    H513039   3.126   3.935  12.796  0.1597 -0.5551 -0.2231
  889MPD2    N113040   3.339   3.499  12.740  1.0550  0.5290  0.8076
  889MPD2    H713041   3.338   3.519  12.840 -0.3330 -3.0623  1.5098
  890MPD2     C13042   2.961   0.437  14.872  0.0946  0.2984 -0.2808
  890MPD2    C113043   3.023   0.536  14.943 -0.7700  0.2755 -0.0482
  890MPD2    C213044   3.063   0.516  15.077 -0.5755 -0.0069 -1.5144
  890MPD2    C313045   3.043   0.393  15.142 -0.1961  0.1295  0.1545
  890MPD2    C413046   2.988   0.288  15.068  0.1276  0.3408  0.5743
  890MPD2    C513047   2.959   0.313  14.936  0.5725  0.6994  0.2447
  890MPD2     H13048   3.108   0.600  15.129  1.4254 -0.7365 -2.0738
  890MPD2    H113049   2.962   0.190  15.106  1.0793 -0.6492 -1.3259
  890MPD2    H213050   2.925   0.454  14.771 -1.3470  1.2609  0.3938
  890MPD2    H313051   2.929   0.226  14.878 -1.1106  0.9247  0.7713
  890MPD2     N13052   3.096   0.362  15.272  0.5048 -0.0028 -0.0278
  890MPD2    H513053   3.054   0.286  15.324 -1.1518 -0.1902 -1.6454
  890MPD2    N113054   3.041   0.663  14.875  0.3889 -0.5004 -0.6504
  890MPD2    H713055   3.009   0.665  14.778 -2.4996 -0.6096  0.2806
  891MPD2     C13056   1.287   3.850  16.474 -0.1818  0.4037 -0.1616
  891MPD2    C113057   1.198   3.778  16.548 -0.1426 -0.0120 -0.4113
  891MPD2    C213058   1.241   3.672  16.627  0.4625 -0.6551 -0.2246
  891MPD2    C313059   1.379   3.650  16.639 -0.0540 -0.7323  0.0644
  891MPD2    C413060   1.467   3.730  16.572  0.0809 -0.2458 -0.6394
  891MPD2    C513061   1.421   3.837  16.497 -0.5722 -0.2733  0.0144
  891MPD2     H13062   1.179   3.615  16.696 -0.4396 -1.1116 -1.4285
  891MPD2    H113063   1.574   3.712  16.576  0.6054  3.0620 -0.3053
  891MPD2    H213064   1.252   3.926  16.406 -0.4159  1.4505  1.1270
  891MPD2    H313065   1.481   3.892  16.426 -1.0476  0.6397  0.3146
  891MPD2     N13066   1.427   3.552  16.728  0.2392 -0.1382  0.3587
  891MPD2    H513067   1.354   3.499  16.775 -0.3391 -0.2439 -0.6324
  891MPD2    N113068   1.061   3.818  16.536  0.1621 -0.1557 -0.1505
  891MPD2    H713069   1.050   3.889  16.464  0.3380  1.2933  1.2296
  892MPD2     C13070   1.943   4.418  15.009 -0.9136  0.6052  0.0932
  892MPD2    C113071   1.831   4.419  14.923 -0.7143 -0.4987 -0.0118
  892MPD2    C213072   1.837   4.377  14.792  0.4078 -0.4579 -0.2740
  892MPD2    C313073   1.961   4.327  14.745  0.0278 -0.1877 -0.5025
  892MPD2    C413074   2.068   4.327  14.828 -0.5076 -0.2272  0.2515
  892MPD2    C513075   2.061   4.368  14.959  0.0146  0.3881  0.4412
  892MPD2     H13076   1.749   4.396  14.732  0.9626 -0.3575 -1.0558
  892MPD2    H113077   2.159   4.284  14.787  0.4191  2.0324 -0.0523
  892MPD2    H213078   1.947   4.454  15.111  3.9749  2.0324 -0.6253
  892MPD2    H313079   2.145   4.358  15.027 -0.1708 -1.2910  0.4223
  892MPD2     N13080   1.981   4.294  14.609 -0.2578  0.1611 -0.8226
  892MPD2    H513081   2.069   4.249  14.589 -0.0355  0.6201 -0.8712
  892MPD2    N113082   1.708   4.476  14.963 -0.4607 -0.1416 -0.2132
  892MPD2    H713083   1.632   4.499  14.899 -0.2377  1.0869 -0.0318
  893MPD2     C13084   4.095   2.516   1.878 -0.0742 -0.4502 -0.8254
  893MPD2    C113085   4.225   2.544   1.900 -0.5603  0.9167 -0.3338
  893MPD2    C213086   4.305   2.446   1.954 -0.3613  0.2140 -0.3958
  893MPD2    C313087   4.253   2.323   1.995 -0.0227  0.1637 -0.0672
  893MPD2    C413088   4.120   2.302   1.976 -0.4366 -0.3535  0.2896
  893MPD2    C513089   4.043   2.397   1.918 -0.1477 -1.0318 -0.4366
  893MPD2     H13090   4.412   2.463   1.955 -0.3727  0.2024  0.7415
  893MPD2    H113091   4.076   2.208   2.007  0.0643 -0.6585  0.0623
  893MPD2    H213092   4.037   2.580   1.814 -1.0212 -1.6923 -1.2046
  893MPD2    H313093   3.935   2.383   1.915 -0.1370 -1.0640 -0.6687
  893MPD2     N13094   4.337   2.213   2.027 -0.0458  0.5301 -0.6224
  893MPD2    H513095   4.299   2.119   2.032  1.2088 -0.0975 -2.6154
  893MPD2    N113096   4.264   2.666   1.844  0.1312 -0.1242  0.4998
  893MPD2    H713097   4.204   2.722   1.785  2.3451  2.0704  0.3511
  894MPD2     C13098   1.694   1.257   1.371  0.1731  0.3470  0.5884
  894MPD2    C113099   1.740   1.147   1.437  0.1441  0.1613  0.3679
  894MPD2    C213100   1.840   1.071   1.385  0.5180 -0.3699  0.1576
  894MPD2    C313101   1.906   1.110   1.275 -0.1952  0.1068 -0.2274
  894MPD2    C413102   1.860   1.215   1.204 -0.0686  0.3181 -0.0353
  894MPD2    C513103   1.748   1.286   1.249  0.1889 -0.7549 -0.2759
  894MPD2     H13104   1.865   0.978   1.435  3.5124  0.0311 -0.5653
  894MPD2    H113105   1.905   1.258   1.116  1.7616 -1.0769  0.2081
  894MPD2    H213106   1.607   1.311   1.406 -0.0672 -0.7255  1.6217
  894MPD2    H313107   1.709   1.372   1.196 -2.4941 -1.5392  0.4377
  894MPD2     N13108   2.012   1.033   1.220  0.0423  0.7272  0.4016
  894MPD2    H513109   2.045   0.956   1.277 -2.9294 -1.2372 -0.5342
  894MPD2    N113110   1.681   1.101   1.562  0.3940  0.0720  0.2333
  894MPD2    H713111   1.708   1.011   1.602  3.2411  1.3879  1.3371
  895MPD2     C13112   0.961   4.253  13.069  0.1716 -0.5100  0.3899
  895MPD2    C113113   0.882   4.339  12.985  0.4802  0.1977  0.6880
  895MPD2    C213114   0.840   4.302  12.860 -0.2802  0.0303 -0.1732
  895MPD2    C313115   0.899   4.188  12.800  0.3895  0.2389 -0.4850
  895MPD2    C413116   0.986   4.111  12.871  0.4597 -0.2712  0.0695
  895MPD2    C513117   1.014   4.140  13.006  0.0213 -0.5583 -0.3446
  895MPD2     H13118   0.783   4.373  12.800  4.0508  2.5108 -1.3738
  895MPD2    H113119   1.032   4.028  12.819 -1.7175 -1.6136  0.2901
  895MPD2    H213120   0.990   4.274  13.171 -0.8969 -1.3238  0.8590
  895MPD2    H313121   1.085   4.077  13.060  1.3205  2.5168  1.5395
  895MPD2     N13122   0.841   4.119  12.690  0.4922  0.2792  0.0368
  895MPD2    H513123   0.859   4.021  12.668  1.4620  1.0207 -2.5422
  895MPD2    N113124   0.839   4.459  13.038  0.0197  0.1167  0.4430
  895MPD2    H713125   0.780   4.513  12.976 -0.1845  0.1667  0.6830
  896MPD2     C13126   3.602   1.548   1.641 -0.2880  0.1587  0.1884
  896MPD2    C113127   3.594   1.467   1.523  0.5211 -0.3995  0.0230
  896MPD2    C213128   3.492   1.372   1.515 -0.4975  0.5067  0.7433
  896MPD2    C313129   3.395   1.362   1.617  0.0260  0.2215 -0.0380
  896MPD2    C413130   3.402   1.452   1.719 -0.1470 -0.1552  0.3275
  896MPD2    C513131   3.507   1.530   1.737 -0.0594 -0.0722  0.3217
  896MPD2     H13132   3.487   1.309   1.427 -1.1621 -2.6109  3.0256
  896MPD2    H113133   3.326   1.463   1.796 -0.3107 -1.0914  0.3037
  896MPD2    H213134   3.683   1.617   1.664 -0.1133 -0.1202  0.4068
  896MPD2    H313135   3.511   1.594   1.824 -0.5545 -1.2852  1.2363
  896MPD2     N13136   3.295   1.255   1.606 -0.0739  0.1204 -0.3156
  896MPD2    H513137   3.299   1.183   1.535  1.5315 -1.6964  1.6168
  896MPD2    N113138   3.701   1.494   1.428  0.3771 -0.0887 -0.1985
  896MPD2    H713139   3.770   1.564   1.456  1.5231 -2.1957  2.2031
  897MPD2     C13140   0.116   3.288  10.311  0.3135  0.1121 -0.2140
  897MPD2    C113141   0.126   3.418  10.351 -0.1668 -0.2209 -0.4609
  897MPD2    C213142   0.013   3.475  10.401 -0.0980  0.0289  0.2576
  897MPD2    C313143   4.609   3.419  10.393  0.2225  0.2954  0.2930
  897MPD2    C413144   4.598   3.286  10.352  0.4583  0.1029 -0.6301
  897MPD2    C513145   4.714   3.226  10.314 -0.6237  0.5660  0.1261
  897MPD2     H13146   0.009   3.577  10.436  0.1850  1.0499 -2.7021
  897MPD2    H113147   4.502   3.236  10.345  0.8443 -1.2623  3.5778
  897MPD2    H213148   0.205   3.229  10.290 -0.6474 -1.8322  1.2025
  897MPD2    H313149   4.711   3.124  10.277 -0.7901  1.1327 -1.4357
  897MPD2     N13150   4.498   3.501  10.431  0.0822  0.5203  0.1015
  897MPD2    H513151   4.520   3.590  10.474  0.9636  0.2237  0.2728
  897MPD2    N113152   0.256   3.480  10.351  0.4716 -0.8232 -0.0610
  897MPD2    H713153   0.331   3.428  10.305 -1.4425 -3.7149  0.0877
  898MPD2     C13154   2.247   3.978  17.550  0.8299 -0.2025 -0.0810
  898MPD2    C113155   2.210   4.086  17.627 -0.2276  0.0056 -0.1754
  898MPD2    C213156   2.112   4.174  17.585  0.2831 -0.0331  0.7730
  898MPD2    C313157   2.071   4.169  17.456  0.3925 -0.9364 -0.8134
  898MPD2    C413158   2.113   4.070  17.370 -0.3810  0.0874  1.3804
  898MPD2    C513159   2.189   3.964  17.425 -0.0375  0.0893 -1.0206
  898MPD2     H13160   2.067   4.245  17.653  1.5977  0.0588  1.5379
  898MPD2    H113161   2.064   4.050  17.275  0.2293  2.8390  0.4877
  898MPD2    H213162   2.310   3.898  17.585 -0.9548 -2.3925 -1.8401
  898MPD2    H313163   2.199   3.878  17.360  0.5528 -0.6982  0.1290
  898MPD2     N13164   1.979   4.265  17.414 -0.1723 -0.2433 -0.3697
  898MPD2    H513165   1.962   4.341  17.479 -4.2946 -0.7700 -0.8366
  898MPD2    N113166   2.258   4.097   0.059 -0.4629  0.1592  0.0071
  898MPD2    H713167   2.209   4.151   0.130  1.3270  0.3737  1.0938
  899MPD2     C13168   2.707   4.362  17.691  0.0967 -0.3362  0.5215
  899MPD2    C113169   2.603   4.438  17.656  0.2629  0.0712 -0.1898
  899MPD2    C213170   2.523   4.504   0.054 -0.0476  0.4859  0.2200
  899MPD2    C313171   2.546   4.474   0.189  0.2295  0.7728 -0.4720
  899MPD2    C413172   2.656   4.396   0.221  0.2333  0.0720  0.0128
  899MPD2    C513173   2.731   4.339   0.123  0.1800  0.1177 -0.4821
  899MPD2     H13174   2.436   4.561   0.023 -2.0187 -1.6297  1.8650
  899MPD2    H113175   2.672   4.357   0.321  0.4417  0.9718  0.3269
  899MPD2    H213176   2.768   4.301  17.625  2.6484  1.5912  1.0816
  899MPD2    H313177   2.805   4.264   0.150  0.7836  0.9411  0.1697
  899MPD2     N13178   2.464   4.523   0.300  0.3246  0.0537 -0.1673
  899MPD2    H513179   2.508   4.521   0.392 -0.0014  2.5480  0.0624
  899MPD2    N113180   2.573   4.446  17.513  0.2266  0.1378 -0.1438
  899MPD2    H713181   2.643   4.398  17.457  0.0074 -2.2054  1.6029
  900MPD2     C13182   2.323   2.245  12.417  0.5830  0.6233 -0.0698
  900MPD2    C113183   2.252   2.129  12.429 -0.4083  0.8166  0.1185
  900MPD2    C213184   2.117   2.126  12.388 -0.5113  0.1296  0.2212
  900MPD2    C313185   2.052   2.245  12.346  0.2893 -0.8802  0.1243
  900MPD2    C413186   2.124   2.366  12.354  0.0637 -0.3976 -0.3383
  900MPD2    C513187   2.259   2.359  12.386 -0.6296  0.2033  0.1626
  900MPD2     H13188   2.069   2.030  12.372  0.5587  0.1835 -3.1885
  900MPD2    H113189   2.075   2.458  12.325 -2.3155 -1.0312  1.6715
  900MPD2    H213190   2.425   2.259  12.448  0.3149  0.1179  1.0287
  900MPD2    H313191   2.312   2.454  12.387 -0.2011 -0.0168 -1.4847
  900MPD2     N13192   1.920   2.232  12.294 -0.7032  0.2564  0.4800
  900MPD2    H513193   1.871   2.145  12.305 -0.8640  0.5522  1.9960
  900MPD2    N113194   2.328   2.018  12.466  0.1398  0.4789  0.4235
  900MPD2    H713195   2.426   2.042  12.475 -0.1489  2.2559 -1.3203
  901MPD2     C13196   2.468   1.017  12.873 -0.0097 -0.3939  0.3407
  901MPD2    C113197   2.504   1.011  12.740  0.4719  0.5884  0.1451
  901MPD2    C213198   2.504   1.129  12.670 -0.2697 -0.0471  0.1833
  901MPD2    C313199   2.467   1.251  12.730 -0.2801  0.2239  0.1791
  901MPD2    C413200   2.415   1.246  12.852 -0.7223  0.3032 -0.2286
  901MPD2    C513201   2.425   1.132  12.928 -0.0265 -0.0162  0.2112
  901MPD2     H13202   2.529   1.125  12.564  0.6318 -1.6391  0.4547
  901MPD2    H113203   2.379   1.330  12.911  0.1623 -0.0875  0.8732
  901MPD2    H213204   2.456   0.931  12.938  2.2046 -0.8098  0.2004
  901MPD2    H313205   2.392   1.137  13.032  0.0083  0.8896  0.1818
  901MPD2     N13206   2.465   1.367  12.652 -0.1820 -0.4954 -0.4870
  901MPD2    H513207   2.494   1.359  12.555  1.9352  0.6287  0.0437
  901MPD2    N113208   2.550   0.886  12.688  0.1459 -0.3022  0.4156
  901MPD2    H713209   2.563   0.809  12.753 -0.6101 -0.4351  0.4065
  902MPD2     C13210   1.518   4.313  13.081  0.2489 -0.0659  0.1852
  902MPD2    C113211   1.462   4.333  12.960  0.5332 -0.1099 -0.2155
  902MPD2    C213212   1.531   4.315  12.841 -0.3680  0.1905 -0.2064
  902MPD2    C313213   1.660   4.274  12.846  0.5184  0.6714 -0.7507
  902MPD2    C413214   1.722   4.246  12.969 -0.2100 -0.2263 -0.6847
  902MPD2    C513215   1.647   4.272  13.087 -0.2030 -0.2219 -0.1918
  902MPD2     H13216   1.476   4.351  12.755 -2.2306 -0.6518  0.6369
  902MPD2    H113217   1.821   4.203  12.971 -0.7109 -1.4093 -0.9518
  902MPD2    H213218   1.460   4.325  13.172  2.2546 -3.1199  1.8740
  902MPD2    H313219   1.699   4.254  13.180 -1.6967 -0.4469  0.6092
  902MPD2     N13220   1.728   4.248  12.727  0.2278 -0.5316  0.3290
  902MPD2    H513221   1.826   4.221  12.728  0.2396 -0.4852  0.4880
  902MPD2    N113222   1.324   4.377  12.949 -0.1605 -0.3359 -0.9546
  902MPD2    H713223   1.288   4.427  13.030  2.9103 -2.8188  1.9318
  903MPD2     C13224   1.449   4.565  12.103  0.3939  0.6825 -0.1665
  903MPD2    C113225   1.485   4.428  12.105  0.3489 -0.8526 -0.4967
  903MPD2    C213226   1.401   4.337  12.042  0.5319 -0.1079 -1.1456
  903MPD2    C313227   1.283   4.390  11.986 -0.0893  0.1283 -0.4903
  903MPD2    C413228   1.252   4.517  11.977 -0.3849 -0.2582  0.1243
  903MPD2    C513229   1.343   4.607  12.030 -0.3230 -0.0196 -0.4188
  903MPD2     H13230   1.415   4.229  12.039  1.9026  0.0626 -0.8868
  903MPD2    H113231   1.160   4.561  11.938  0.3280  0.7638 -0.3935
  903MPD2    H213232   1.510   4.639  12.154  0.3654  2.0779 -2.1548
  903MPD2    H313233   1.312   4.711  12.029  0.3047  0.1804  0.5040
  903MPD2     N13234   1.205   4.284  11.924  0.6169 -0.0139  0.6781
  903MPD2    H513235   1.239   4.188  11.924  0.1241 -0.1947  1.7096
  903MPD2    N113236   1.599   4.396  12.174  0.4908 -0.1816 -0.0110
  903MPD2    H713237   1.647   4.459  12.238  0.0002  1.2577 -1.0776
  904MPD2     C13238   1.194   3.188  13.292 -0.2335  0.6729  0.1305
  904MPD2    C113239   1.109   3.206  13.401 -0.0357  0.1082  0.5225
  904MPD2    C213240   1.167   3.191  13.525  0.5126  0.0118  0.5730
  904MPD2    C313241   1.297   3.151  13.541  0.0505  0.0288 -0.1035
  904MPD2    C413242   1.377   3.134  13.430  0.2319  0.5125 -0.1520
  904MPD2    C513243   1.321   3.143  13.307 -0.2018  0.2061  0.1436
  904MPD2     H13244   1.108   3.209  13.615  0.8657  0.9174  0.6281
  904MPD2    H113245   1.483   3.110  13.434 -0.0204 -0.8156 -1.4269
  904MPD2    H213246   1.158   3.206  13.191 -5.3719  1.0734  2.0195
  904MPD2    H313247   1.388   3.141  13.221 -1.6918 -2.5182 -0.9429
  904MPD2     N13248   1.343   3.146  13.673 -0.2644 -0.4319  0.6703
  904MPD2    H513249   1.273   3.139  13.746 -1.1289  0.4784 -0.0756
  904MPD2    N113250   0.979   3.255  13.385  0.4617 -0.3350 -0.1230
  904MPD2    H713251   0.933   3.275  13.473  1.0855 -1.4118  0.4370
  905MPD2     C13252   0.227   3.713  13.077 -0.6084 -0.2286  0.0475
  905MPD2    C113253   0.356   3.695  13.047 -0.8035 -0.1829 -0.1997
  905MPD2    C213254   0.403   3.736  12.920 -0.0429  0.0566  0.4239
  905MPD2    C313255   0.320   3.799  12.832 -0.0694  0.1821 -0.2366
  905MPD2    C413256   0.195   3.827  12.872 -0.2819 -0.0231 -1.5195
  905MPD2    C513257   0.144   3.775  12.995 -0.3371 -0.0408  0.6122
  905MPD2     H13258   0.507   3.729  12.889 -0.3578  1.0864 -0.8866
  905MPD2    H113259   0.133   3.885  12.804 -0.1148  1.8023 -0.1309
  905MPD2    H213260   0.189   3.692  13.176 -2.1237 -0.9029 -0.6775
  905MPD2    H313261   0.043   3.799  13.024 -0.9873 -1.1361 -0.7708
  905MPD2     N13262   0.362   3.848  12.709 -0.4943 -0.6583 -0.6498
  905MPD2    H513263   0.303   3.923  12.673  0.0098 -0.5834 -1.3313
  905MPD2    N113264   0.433   3.616  13.132 -0.0441  0.4794  0.8654
  905MPD2    H713265   0.390   3.580  13.216  0.5082 -0.5917  0.6834
  906MPD2     C13266   3.550   4.002  11.183 -0.2799 -0.5545 -0.1861
  906MPD2    C113267   3.565   3.902  11.083 -0.6945 -0.2826  0.8065
  906MPD2    C213268   3.571   3.775  11.139  0.3676 -0.6286 -0.0126
  906MPD2    C313269   3.571   3.751  11.274 -0.2968  0.0344 -0.1352
  906MPD2    C413270   3.539   3.847  11.359 -0.3139  0.3113  0.2936
  906MPD2    C513271   3.532   3.977  11.313  0.0900 -0.2828  0.2373
  906MPD2     H13272   3.582   3.700  11.062  1.0402 -0.5581  0.0083
  906MPD2    H113273   3.519   3.820  11.462 -0.7829 -0.2110  0.0643
  906MPD2    H213274   3.514   4.099  11.149 -0.4613 -1.0616 -1.4382
  906MPD2    H313275   3.500   4.052  11.385  0.5337  0.5761 -0.4680
  906MPD2     N13276   3.600   3.623  11.330 -0.4355 -0.8164  0.1030
  906MPD2    H513277   3.564   3.613  11.424  1.0879  1.8804  0.9912
  906MPD2    N113278   3.549   3.916  10.947 -0.3599  0.2977 -0.1923
  906MPD2    H713279   3.571   3.834  10.891  1.2513  2.2355 -2.4115
  907MPD2     C13280   1.923   2.570  15.855 -0.0172 -0.3216 -0.8909
  907MPD2    C113281   1.916   2.444  15.789 -0.2957  0.2710 -0.1986
  907MPD2    C213282   1.975   2.336  15.864 -0.1271  0.7848 -0.6457
  907MPD2    C313283   2.053   2.354  15.975 -0.0353 -0.2484 -0.2359
  907MPD2    C413284   2.051   2.481  16.031 -0.1093  0.2584  0.3243
  907MPD2    C513285   1.979   2.586  15.978 -0.0736  0.5763  0.3167
  907MPD2     H13286   1.986   2.249  15.801 -3.4059 -0.2212  0.1861
  907MPD2    H113287   2.113   2.497  16.119  0.1249  1.7723 -0.1195
  907MPD2    H213288   1.888   2.664  15.814  0.3255  0.5341  0.7815
  907MPD2    H313289   1.974   2.677  16.037  0.8811  2.0045 -1.8207
  907MPD2     N13290   2.123   2.241  16.028 -0.4562  0.0170  0.1362
  907MPD2    H513291   2.113   2.156  15.974  1.1338  1.7947 -2.9113
  907MPD2    N113292   1.865   2.417  15.661 -0.2206 -0.4836  0.4575
  907MPD2    H713293   1.894   2.330  15.619 -2.5414 -0.9084 -0.2753
  908MPD2     C13294   0.746   3.557   9.650  0.3337  0.0850 -0.6836
  908MPD2    C113295   0.620   3.496   9.680 -0.2501  0.4573  0.7226
  908MPD2    C213296   0.569   3.511   9.805 -0.0947  0.3825  0.7861
  908MPD2    C313297   0.625   3.600   9.893  0.0076 -0.0990 -0.4333
  908MPD2    C413298   0.751   3.658   9.867  0.2233 -0.1648 -0.0083
  908MPD2    C513299   0.805   3.637   9.743 -0.6426  0.7853  0.0734
  908MPD2     H13300   0.474   3.467   9.833 -0.7083 -0.4789 -2.6299
  908MPD2    H113301   0.801   3.724   9.938 -0.7942 -0.4035  0.9252
  908MPD2    H213302   0.800   3.539   9.558 -1.0686  1.5501 -1.7819
  908MPD2    H313303   0.901   3.676   9.712 -0.0730 -1.7228 -1.3977
  908MPD2     N13304   0.555   3.626  10.012  0.6241  0.5759  0.5109
  908MPD2    H513305   0.477   3.564  10.031  0.6253  0.1226 -0.9631
  908MPD2    N113306   0.549   3.412   9.586 -0.1264 -0.3536 -0.4959
  908MPD2    H713307   0.463   3.371   9.622 -0.0817 -0.1151 -0.1193
  909MPD2     C13308   0.300   1.262  11.761  0.4925  0.3703 -0.6926
  909MPD2    C113309   0.314   1.391  11.714 -0.5115 -0.1018 -1.0673
  909MPD2    C213310   0.229   1.487  11.753 -0.2366 -0.7133 -0.3373
  909MPD2    C313311   0.126   1.463  11.847  0.5189  0.1125  0.4471
  909MPD2    C413312   0.112   1.331  11.897  0.2136  0.1771  0.0344
  909MPD2    C513313   0.199   1.233  11.854  0.3733 -0.7035 -0.7095
  909MPD2     H13314   0.241   1.585  11.708  0.5849 -0.3104  0.7640
  909MPD2    H113315   0.041   1.308  11.976  1.0741 -2.3723  0.0503
  909MPD2    H213316   0.368   1.185  11.728 -0.1698 -0.3051 -0.4747
  909MPD2    H313317   0.200   1.134  11.900  0.8672 -0.2642  0.2328
  909MPD2     N13318   0.039   1.563  11.891 -0.3715 -0.0696  0.0808
  909MPD2    H513319   0.069   1.658  11.871 -0.3549 -0.0345  0.2759
  909MPD2    N113320   0.401   1.430  11.604 -0.7217  0.0855 -0.4871
  909MPD2    H713321   0.378   1.502  11.536  1.9102  2.0746  0.7517
  910MPD2     C13322   1.559   3.043  15.715 -0.0658 -0.5972  0.0169
  910MPD2    C113323   1.556   2.908  15.691 -0.2806  0.0092  0.1123
  910MPD2    C213324   1.536   2.870  15.555  0.0866  0.8644 -0.3106
  910MPD2    C313325   1.514   2.969  15.454 -0.2189  0.2468  0.0267
  910MPD2    C413326   1.514   3.099  15.491 -0.2561  0.0668 -0.2714
  910MPD2    C513327   1.532   3.137  15.624  0.0039  0.9977  0.4946
  910MPD2     H13328   1.547   2.770  15.515 -0.1752  1.1844 -1.1835
  910MPD2    H113329   1.493   3.170  15.412 -1.0777 -0.2074 -0.2966
  910MPD2    H213330   1.585   3.077  15.815  0.0558 -1.5781  0.3231
  910MPD2    H313331   1.535   3.243  15.649  0.1162  1.1768 -0.2639
  910MPD2     N13332   1.496   2.939  15.316  0.5826 -0.1844  0.1973
  910MPD2    H513333   1.495   3.017  15.251  0.0377  1.0308  1.6391
  910MPD2    N113334   1.578   2.807  15.786  0.0125  0.4679  0.3170
  910MPD2    H713335   1.580   2.714  15.746  0.0412  0.0522  1.2943
  911MPD2     C13336   4.036   3.182  16.661  0.4674  0.8731  0.5778
  911MPD2    C113337   4.108   3.293  16.611  0.4359 -0.5528 -0.2375
  911MPD2    C213338   4.045   3.363  16.504 -0.0075  0.2021 -0.2643
  911MPD2    C313339   3.921   3.327  16.465  0.4231 -0.1480 -0.4605
  911MPD2    C413340   3.859   3.220  16.521 -0.0395 -0.4445 -0.0844
  911MPD2    C513341   3.911   3.143  16.624 -0.7235 -0.3754  0.1946
  911MPD2     H13342   4.096   3.440  16.447  1.7747 -0.0514  0.9897
  911MPD2    H113343   3.765   3.183  16.480  0.9750 -1.4974 -1.4778
  911MPD2    H213344   4.086   3.120  16.735  0.4014 -0.7123 -0.6949
  911MPD2    H313345   3.859   3.060  16.669 -2.9729  1.7365  1.5068
  911MPD2     N13346   3.852   3.385  16.359 -0.2827  0.1117 -0.8187
  911MPD2    H513347   3.760   3.343  16.352 -0.2228 -0.4351  1.5963
  911MPD2    N113348   4.240   3.318  16.656 -0.2147 -0.1523 -0.0600
  911MPD2    H713349   4.268   3.285  16.748 -1.6880  1.0895  0.8387
  912MPD2     C13350   3.540   3.115  15.770 -0.3089  0.0914 -0.7081
  912MPD2    C113351   3.518   3.161  15.899  0.6272  0.2693  0.0159
  912MPD2    C213352   3.456   3.077  15.996 -0.2983  0.5688 -0.2596
  912MPD2    C313353   3.420   2.950  15.955 -0.0067  0.6250  0.2402
  912MPD2    C413354   3.443   2.909  15.828 -0.3345 -0.5036  0.2885
  912MPD2    C513355   3.489   2.997  15.734  0.4516 -0.2582 -0.6687
  912MPD2     H13356   3.433   3.121  16.092  3.0532 -1.4190  1.4931
  912MPD2    H113357   3.407   2.812  15.795  0.0656 -0.6931  0.4126
  912MPD2    H213358   3.591   3.180  15.700  1.2694 -1.6765 -1.2325
  912MPD2    H313359   3.499   2.957  15.634 -0.7901 -2.0673 -0.0750
  912MPD2     N13360   3.365   2.868  16.053  0.1248  0.8972 -0.6028
  912MPD2    H513361   3.350   2.906  16.146 -0.6404 -1.0046  0.0463
  912MPD2    N113362   3.556   3.293  15.933 -0.3337  0.1857  0.0047
  912MPD2    H713363   3.611   3.349  15.868 -2.7354  1.4979 -0.9009
  913MPD2     C13364   4.345   0.404   9.980  0.4227 -0.0849 -0.4520
  913MPD2    C113365   4.465   0.469   9.996 -0.0887  0.0082 -0.2350
  913MPD2    C213366   4.508   0.541   9.883  0.0717  0.6940 -0.0228
  913MPD2    C313367   4.440   0.538   9.760  0.0267 -0.1908 -0.2326
  913MPD2    C413368   4.320   0.468   9.751  0.9820 -0.2963  0.4887
  913MPD2    C513369   4.269   0.415   9.869 -0.4576 -0.1699 -0.0393
  913MPD2     H13370   4.603   0.594   9.882 -1.1273  2.8418 -1.6184
  913MPD2    H113371   4.268   0.477   9.656  0.7159  0.2991  0.6885
  913MPD2    H213372   4.308   0.347  10.064 -3.4533  0.7930 -1.5275
  913MPD2    H313373   4.174   0.362   9.872 -0.4872 -0.1814 -1.1951
  913MPD2     N13374   4.488   0.604   9.645 -0.1775 -0.6801 -0.1190
  913MPD2    H513375   4.443   0.575   9.559  1.6428 -0.2477 -1.2193
  913MPD2    N113376   4.523   0.472  10.122  0.4714  0.1941 -0.6704
  913MPD2    H713377   4.495   0.396  10.183 -0.5996  0.0471 -1.3437
  914MPD2     C13378   2.320   0.492  11.781 -0.5252  0.3356 -0.2980
  914MPD2    C113379   2.278   0.602  11.853  0.3397  0.8184 -0.9496
  914MPD2    C213380   2.321   0.622  11.985 -0.3445 -1.0822  0.8885
  914MPD2    C313381   2.402   0.533  12.046 -0.0621 -0.7059  0.5821
  914MPD2    C413382   2.452   0.427  11.971  0.0983  0.1424 -0.8144
  914MPD2    C513383   2.408   0.407  11.845  0.0091  0.6542  0.2038
  914MPD2     H13384   2.305   0.715  12.039 -0.6138 -0.5287 -0.1381
  914MPD2    H113385   2.531   0.363  12.007 -0.5884 -0.4101 -0.3088
  914MPD2    H213386   2.289   0.480  11.677 -1.7360  0.4987  0.0468
  914MPD2    H313387   2.460   0.328  11.791 -3.4299 -0.7646 -1.0618
  914MPD2     N13388   2.445   0.557  12.183 -0.0973  0.2362  0.3207
  914MPD2    H513389   2.412   0.645  12.223 -1.7070 -0.5123  0.6312
  914MPD2    N113390   2.178   0.682  11.794 -0.0751 -0.0144 -0.2004
  914MPD2    H713391   2.167   0.668  11.694 -1.0662  0.7523 -0.1967
  915MPD2     C13392   0.876   0.659  15.531 -0.4371 -0.3277 -0.2138
  915MPD2    C113393   0.761   0.699  15.472  0.4583 -0.1229 -0.2015
  915MPD2    C213394   0.649   0.701  15.558  0.2608  0.0323 -0.1741
  915MPD2    C313395   0.655   0.656  15.689  0.8371  0.0907 -0.5114
  915MPD2    C413396   0.773   0.614  15.741  0.1120  0.2876  0.1055
  915MPD2    C513397   0.883   0.621  15.662 -0.0746  0.0809 -1.0324
  915MPD2     H13398   0.555   0.740  15.520  1.4498  2.7611 -0.3304
  915MPD2    H113399   0.780   0.596  15.848 -0.3381 -0.7280 -0.0426
  915MPD2    H213400   0.970   0.653  15.477 -1.2879 -0.2370 -1.6764
  915MPD2    H313401   0.980   0.594  15.703 -0.7526 -1.1114 -0.2046
  915MPD2     N13402   0.539   0.657  15.766  0.2905 -0.7293 -0.5683
  915MPD2    H513403   0.462   0.712  15.730 -0.6135 -1.2816  0.5498
  915MPD2    N113404   0.760   0.731  15.336  0.6075  0.1655 -0.9823
  915MPD2    H713405   0.846   0.710  15.285  1.8640 -0.6950  1.4578
  916MPD2     C13406   3.509   3.512  15.550  0.2126  0.4750  0.0598
  916MPD2    C113407   3.417   3.419  15.598 -0.4646  0.0363 -0.1349
  916MPD2    C213408   3.405   3.291  15.535  0.3850  0.0824  0.1334
  916MPD2    C313409   3.495   3.257  15.433 -0.1196  0.4591 -0.2453
  916MPD2    C413410   3.591   3.350  15.392  0.5345 -0.0347 -0.0566
  916MPD2    C513411   3.582   3.477  15.443  0.4026 -0.1414 -0.0580
  916MPD2     H13412   3.329   3.223  15.571  0.7353  0.1979  1.0812
  916MPD2    H113413   3.659   3.335  15.309  0.2600 -0.2443 -0.2471
  916MPD2    H213414   3.527   3.609  15.596 -0.1690  0.7681 -0.4131
  916MPD2    H313415   3.646   3.552  15.398  1.3708 -1.0800 -0.2392
  916MPD2     N13416   3.494   3.125  15.383 -0.2713  0.3277 -0.3727
  916MPD2    H513417   3.579   3.101  15.333 -0.3447 -1.3989  0.3227
  916MPD2    N113418   3.338   3.465  15.710 -0.1173 -0.2392  0.0546
  916MPD2    H713419   3.357   3.560  15.740 -1.6319  0.6501 -1.8036
  917MPD2     C13420   3.636   1.106  10.597 -0.0892 -0.1233  0.3203
  917MPD2    C113421   3.671   1.148  10.718  0.0549  0.3085  0.6150
  917MPD2    C213422   3.801   1.182  10.738  0.3945 -0.0172 -0.2074
  917MPD2    C313423   3.891   1.201  10.635 -0.3259  0.0548 -0.6955
  917MPD2    C413424   3.848   1.177  10.505 -0.0038 -0.5145  0.5677
  917MPD2    C513425   3.719   1.125  10.494 -0.1502  0.6053 -0.3994
  917MPD2     H13426   3.835   1.226  10.831  0.7197  0.3696 -0.5118
  917MPD2    H113427   3.917   1.184  10.422  1.0272  0.3295  1.4908
  917MPD2    H213428   3.534   1.074  10.574 -0.7743  2.5365 -0.3451
  917MPD2    H313429   3.688   1.091  10.396 -0.4552  2.3627 -0.9122
  917MPD2     N13430   4.020   1.262  10.647  0.2046  0.4319 -0.3136
  917MPD2    H513431   4.059   1.286  10.557  0.4924 -2.0059 -0.8184
  917MPD2    N113432   3.577   1.136  10.819  0.1139  0.6155  0.1392
  917MPD2    H713433   3.485   1.101  10.798 -0.5208  2.2036  0.2317
  918MPD2     C13434   3.537   1.495  11.768  0.1116  0.0155  0.7547
  918MPD2    C113435   3.645   1.444  11.698 -0.6220  0.1774  0.2650
  918MPD2    C213436   3.621   1.396  11.567  0.4390  0.1341  0.3977
  918MPD2    C313437   3.490   1.386  11.521  0.5932 -1.0259  0.1778
  918MPD2    C413438   3.384   1.443  11.590  0.1156  0.6872  0.1258
  918MPD2    C513439   3.416   1.500  11.708 -0.2459 -0.0754  0.5945
  918MPD2     H13440   3.706   1.365  11.509 -0.1240 -0.2052 -0.2365
  918MPD2    H113441   3.279   1.433  11.564  0.3873 -1.3060 -0.1861
  918MPD2    H213442   3.560   1.542  11.863  0.6820 -1.5795  1.4035
  918MPD2    H313443   3.332   1.546  11.760 -0.9554 -1.2336  0.4646
  918MPD2     N13444   3.471   1.311  11.403 -0.6418  0.6347  0.3647
  918MPD2    H513445   3.558   1.286  11.357 -1.9205 -0.0951 -1.6380
  918MPD2    N113446   3.775   1.462  11.732 -0.5161  0.4242 -0.9956
  918MPD2    H713447   3.842   1.419  11.670 -1.5278 -0.0566 -1.7654
  919MPD2     C13448   4.564   0.471  11.822  0.2174 -0.7858 -0.4660
  919MPD2    C113449   4.506   0.357  11.774 -0.5730 -0.5214 -0.2431
  919MPD2    C213450   4.520   0.324  11.636 -0.5549  0.1487  0.0294
  919MPD2    C313451   4.593   0.405  11.553  0.8183 -0.3063 -0.1367
  919MPD2    C413452   4.633   0.527  11.603  0.4571 -1.0345 -0.1995
  919MPD2    C513453   4.623   0.561  11.734  0.3994  0.0497  0.1338
  919MPD2     H13454   4.478   0.230  11.600 -0.0737  0.2046 -0.6775
  919MPD2    H113455   4.687   0.590  11.533 -2.1808  0.9254 -0.4768
  919MPD2    H213456   4.563   0.503  11.925  1.5654 -1.3223 -0.2831
  919MPD2    H313457   4.679   0.645  11.771  1.8546  0.1528 -2.3132
  919MPD2     N13458   4.627   0.365  11.421 -0.0997  0.2615 -0.4377
  919MPD2    H513459   4.686   0.426  11.366 -0.0390  0.2756 -0.3576
  919MPD2    N113460   4.453   0.264  11.857 -0.2156 -0.0596 -0.6714
  919MPD2    H713461   4.442   0.173  11.811 -0.1556 -0.0030 -0.7993
  920MPD2     C13462   4.474   0.778  10.522 -0.4381 -0.1548 -0.6445
  920MPD2    C113463   4.395   0.665  10.508 -1.2902  0.4875  0.7394
  920MPD2    C213464   4.407   0.574  10.610 -0.1796  0.4387  0.0552
  920MPD2    C313465   4.493   0.589  10.720  0.5315  0.4380  0.7779
  920MPD2    C413466   4.571   0.699  10.732  0.1634  0.5148 -0.8164
  920MPD2    C513467   4.558   0.788  10.631 -0.0182  0.0403  0.4901
  920MPD2     H13468   4.344   0.486  10.605  1.4718 -0.8248  1.5889
  920MPD2    H113469   4.630   0.727  10.820 -2.1184 -3.0209  1.8146
  920MPD2    H213470   4.480   0.860  10.451 -0.1206  1.3935  1.1540
  920MPD2    H313471   4.612   0.882  10.633  3.3152 -1.8000 -2.1896
  920MPD2     N13472   4.485   0.499  10.822  0.3378  0.1092 -0.6322
  920MPD2    H513473   4.431   0.416  10.799  1.1618 -2.1243  5.5313
  920MPD2    N113474   4.307   0.643  10.402  0.2928 -0.1469  0.4236
  920MPD2    H713475   4.261   0.552  10.409  0.1992 -0.1752 -0.4284
  921MPD2     C13476   0.213   3.977  16.868 -0.6101 -0.0684 -0.9332
  921MPD2    C113477   0.278   3.871  16.800  0.3238 -0.1306 -0.3486
  921MPD2    C213478   0.210   3.749  16.783  0.0790 -0.0202  0.6352
  921MPD2    C313479   0.084   3.723  16.835 -0.0867  0.0346  0.1495
  921MPD2    C413480   0.026   3.828  16.907  0.2513 -0.5847  0.4064
  921MPD2    C513481   0.086   3.954  16.919  0.0760  0.1325  0.6213
  921MPD2     H13482   0.252   3.669  16.723 -0.5551 -1.2953  1.8913
  921MPD2    H113483   4.651   3.824  16.953  0.9371  0.5745  1.9603
  921MPD2    H213484   0.263   4.072  16.881  0.0328 -0.5814  0.3229
  921MPD2    H313485   0.036   4.038  16.965  0.1793 -0.0968  1.1572
  921MPD2     N13486   0.024   3.598  16.812  0.3109  0.6512  0.4007
  921MPD2    H513487   0.075   3.540  16.746 -1.2935  1.5812 -1.6665
  921MPD2    N113488   0.410   3.892  16.754 -0.1449 -0.1503  0.1244
  921MPD2    H713489   0.436   3.988  16.734 -3.1019  1.1700  2.6495
  922MPD2     C13490   0.535   1.178  17.679  0.5804  0.4750  0.4632
  922MPD2    C113491   0.553   1.193  17.540 -1.0213  0.0001 -0.1870
  922MPD2    C213492   0.478   1.281  17.473  0.5829 -0.1471 -0.1991
  922MPD2    C313493   0.382   1.353  17.535 -0.2465  0.0796 -0.0794
  922MPD2    C413494   0.360   1.335  17.675 -0.2526 -0.0059  0.0262
  922MPD2    C513495   0.448   1.256   0.046  0.1449 -0.0216 -0.8627
  922MPD2     H13496   0.484   1.292  17.365 -2.5930  0.5900 -0.2805
  922MPD2    H113497   0.285   1.393   0.031  0.7152 -0.8613  2.3401
  922MPD2    H213498   0.585   1.105   0.046  0.4590  0.6799  0.7929
  922MPD2    H313499   0.443   1.242   0.154  0.6480 -0.1985 -0.8620
  922MPD2     N13500   0.288   1.427  17.456 -0.0344  0.4451 -0.3524
  922MPD2    H513501   0.283   1.413  17.355 -1.6539  1.6484 -0.4344
  922MPD2    N113502   0.649   1.125  17.468 -0.2163  0.2248 -0.3325
  922MPD2    H713503   0.666   1.153  17.372 -1.9912  0.7324 -0.4905
  923MPD2     C13504   2.942   3.169   8.742  0.8308  0.0786  0.0696
  923MPD2    C113505   2.915   3.303   8.751 -0.0438 -1.0501 -0.8187
  923MPD2    C213506   3.004   3.387   8.818 -0.0896 -0.1985 -0.1235
  923MPD2    C313507   3.129   3.339   8.853 -0.3676  0.1493  0.0785
  923MPD2    C413508   3.150   3.202   8.836  0.4596 -0.5072  1.0082
  923MPD2    C513509   3.062   3.120   8.780  0.9223  0.6087  0.3285
  923MPD2     H13510   2.985   3.493   8.829  0.0024 -0.1347 -0.5968
  923MPD2    H113511   3.246   3.166   8.869  0.9590  0.9313  1.1239
  923MPD2    H213512   2.872   3.092   8.709  0.1737  0.3999  0.7134
  923MPD2    H313513   3.073   3.013   8.768  0.9092  0.2609  3.5508
  923MPD2     N13514   3.236   3.429   8.907  0.6767  0.2223 -0.0005
  923MPD2    H513515   3.323   3.386   8.936  1.2060  1.1450 -0.2156
  923MPD2    N113516   2.791   3.358   8.699  0.4209  0.2553  0.2203
  923MPD2    H713517   2.775   3.455   8.722  1.2368  0.6418 -0.8135
  924MPD2     C13518   1.968   1.395  16.070  0.2266 -0.0412  0.6756
  924MPD2    C113519   1.961   1.454  16.191  0.1961 -0.1771 -0.3532
  924MPD2    C213520   2.043   1.560  16.220 -0.3213  0.0491 -0.1901
  924MPD2    C313521   2.130   1.612  16.128  0.2973  0.1712  0.3464
  924MPD2    C413522   2.136   1.551  16.005  0.2775  0.7184  0.2055
  924MPD2    C513523   2.067   1.438  15.983 -0.1007  0.6994 -0.4817
  924MPD2     H13524   2.048   1.615  16.313 -1.0646 -0.6927  0.2930
  924MPD2    H113525   2.197   1.590  15.925 -0.4448 -0.0157 -0.7059
  924MPD2    H213526   1.911   1.306  16.044  0.0178  0.8258 -1.8644
  924MPD2    H313527   2.095   1.375  15.899  0.5789 -0.4976  0.6279
  924MPD2     N13528   2.216   1.722  16.163 -0.0114  0.0137 -0.4355
  924MPD2    H513529   2.226   1.742  16.262  0.5148 -1.7431 -0.1265
  924MPD2    N113530   1.864   1.406  16.280 -0.2537 -0.0302  0.2148
  924MPD2    H713531   1.807   1.330  16.244 -0.9504  1.0011 -0.8297
  925MPD2     C13532   1.095   4.155  14.627 -0.2403 -0.0355  0.6135
  925MPD2    C113533   0.966   4.165  14.579 -0.1342  0.3300  0.5574
  925MPD2    C213534   0.859   4.137  14.664  0.2808  0.7159  0.3450
  925MPD2    C313535   0.880   4.078  14.785  0.4832  0.3975 -0.8180
  925MPD2    C413536   1.006   4.058  14.827  0.3624 -0.2284 -0.0626
  925MPD2    C513537   1.112   4.102  14.750  0.3925  0.1779  0.5620
  925MPD2     H13538   0.756   4.160  14.636  0.7323  1.7617 -0.4644
  925MPD2    H113539   1.028   4.009  14.921  2.7846  1.1028  0.0632
  925MPD2    H213540   1.181   4.189  14.570  0.9777 -2.7237  0.8643
  925MPD2    H313541   1.212   4.088  14.791  1.0690  1.4823 -0.6605
  925MPD2     N13542   0.776   4.044  14.877 -0.2848  0.1132 -0.5879
  925MPD2    H513543   0.809   4.016  14.969 -0.1896  0.2822 -0.5696
  925MPD2    N113544   0.947   4.219  14.447  0.1034  0.0767 -0.2401
  925MPD2    H713545   1.034   4.250  14.403 -1.0863  0.3609 -2.3925
  926MPD2     C13546   0.137   2.905  13.195 -0.2012 -0.1177  0.2195
  926MPD2    C113547   0.001   2.937  13.176 -0.8473 -0.3271 -0.3008
  926MPD2    C213548   4.693   2.995  13.055  0.1511  0.0315 -0.2674
  926MPD2    C313549   0.061   3.030  12.955 -0.5731  0.5635  0.1437
  926MPD2    C413550   0.191   2.991  12.979 -0.5818  1.0342  0.4753
  926MPD2    C513551   0.229   2.930  13.096 -0.5053  0.9418 -0.0378
  926MPD2     H13552   4.588   3.012  13.034 -0.0835  0.5754  1.3572
  926MPD2    H113553   0.262   3.010  12.899  0.0353 -0.9420  0.5437
  926MPD2    H213554   0.170   2.859  13.287 -3.7032 -1.2804  0.8688
  926MPD2    H313555   0.335   2.914  13.106 -1.0996 -0.7514  3.6102
  926MPD2     N13556   0.034   3.117  12.846 -0.8596 -0.2414 -0.7457
  926MPD2    H513557   0.110   3.125  12.779  1.9120  2.6805  2.7458
  926MPD2    N113558   4.621   2.911  13.269  0.2599  0.2479 -0.4290
  926MPD2    H713559   4.529   2.912  13.226  0.0625 -2.1543 -0.0386
  927MPD2     C13560   4.427   0.337  17.625  0.0684  0.2966  0.0615
  927MPD2    C113561   4.492   0.248   0.014  0.6019  0.4976  0.4923
  927MPD2    C213562   4.586   0.164  17.641  0.8560 -0.1272 -0.4733
  927MPD2    C313563   4.615   0.183  17.504 -0.2246  0.0805  0.3289
  927MPD2    C413564   4.562   0.291  17.437  0.4581  0.1857  0.0436
  927MPD2    C513565   4.464   0.361  17.493  0.5013  0.1241 -0.2240
  927MPD2     H13566   4.632   0.085   0.002  0.7206 -1.3725 -2.1167
  927MPD2    H113567   4.584   0.313  17.333  0.7831  0.0412  0.0790
  927MPD2    H213568   4.358   0.414  17.658  1.7551  1.9175 -0.1153
  927MPD2    H313569   4.409   0.440  17.445 -0.5771 -0.8350 -0.5755
  927MPD2     N13570   0.002   0.107  17.445 -0.5186 -0.4838  1.4051
  927MPD2    H513571   0.049   0.034  17.496  0.3073 -0.6068  0.4767
  927MPD2    N113572   4.477   0.259   0.150  0.0685 -0.0494  0.1631
  927MPD2    H713573   4.407   0.325   0.182  1.0722  1.8016 -1.4374
  928MPD2     C13574   1.486   3.695   0.841 -0.1866  0.3125 -0.5282
  928MPD2    C113575   1.570   3.789   0.891 -0.3753  0.2157  0.1105
  928MPD2    C213576   1.704   3.783   0.863  0.2620 -0.2779  0.6886
  928MPD2    C313577   1.747   3.674   0.786 -0.7869  0.6515  0.0996
  928MPD2    C413578   1.660   3.585   0.726  0.0655  0.0316  0.0510
  928MPD2    C513579   1.531   3.595   0.756  0.3086  0.1447  0.3738
  928MPD2     H13580   1.779   3.847   0.907 -1.1384  2.6040 -1.1695
  928MPD2    H113581   1.692   3.504   0.662 -1.8421  1.2464 -2.4645
  928MPD2    H213582   1.379   3.706   0.857  0.0807  1.3494  0.5328
  928MPD2    H313583   1.460   3.530   0.707  0.6902 -0.2755  0.3813
  928MPD2     N13584   1.883   3.648   0.759 -0.8812 -0.0970 -0.0072
  928MPD2    H513585   1.896   3.579   0.686 -0.7800  0.4931 -0.5410
  928MPD2    N113586   1.516   3.873   0.994 -1.2712  0.7629 -0.5163
  928MPD2    H713587   1.420   3.860   1.025 -1.1913 -0.9342 -1.0216
  929MPD2     C13588   3.183   3.894  10.597 -0.5173 -0.1442 -0.1424
  929MPD2    C113589   3.136   3.768  10.560 -0.0711 -1.0974 -0.8645
  929MPD2    C213590   3.099   3.743  10.424  0.3782  0.1898 -0.6087
  929MPD2    C313591   3.113   3.846  10.334 -0.0480  0.1887 -0.5185
  929MPD2    C413592   3.147   3.972  10.377  0.8252 -0.1806 -0.0111
  929MPD2    C513593   3.184   3.996  10.508 -0.5380  0.4011 -0.1995
  929MPD2     H13594   3.101   3.641  10.387 -0.2049 -0.5577  1.4513
  929MPD2    H113595   3.141   4.058  10.311  3.2020  0.4038  0.5228
  929MPD2    H213596   3.215   3.910  10.700 -2.3551  0.3915  0.3431
  929MPD2    H313597   3.233   4.085  10.545  0.8901 -0.7566  0.7106
  929MPD2     N13598   3.094   3.833  10.193 -0.0932  0.5293  0.4715
  929MPD2    H513599   3.106   3.919  10.141  2.4934  0.6942  1.3741
  929MPD2    N113600   3.148   3.664  10.661  0.3620  0.1605  0.6566
  929MPD2    H713601   3.176   3.685  10.757 -0.0766 -0.5714  0.9460
  930MPD2     C13602   4.158   1.170  14.037 -0.7843  0.5291 -0.0172
  930MPD2    C113603   4.263   1.167  13.953 -0.1172 -0.8282 -0.0339
  930MPD2    C213604   4.265   1.082  13.851 -1.0387 -0.5178  0.5058
  930MPD2    C313605   4.148   1.016  13.822  0.5592 -0.6854 -0.7516
  930MPD2    C413606   4.037   1.018  13.902  0.0989  0.0881  0.4328
  930MPD2    C513607   4.049   1.095  14.015 -0.5657 -0.7243  0.4084
  930MPD2     H13608   4.350   1.062  13.786 -1.9572 -1.5206 -0.3884
  930MPD2    H113609   3.945   0.963  13.885  0.6541 -0.6560 -0.1966
  930MPD2    H213610   4.156   1.217  14.135  0.2934  0.1852  0.1677
  930MPD2    H313611   3.958   1.126  14.065  0.9852  1.6192  1.7724
  930MPD2     N13612   4.156   0.929  13.715 -0.6833  0.6168  0.2014
  930MPD2    H513613   4.235   0.941  13.653 -1.5019  1.8280 -0.6227
  930MPD2    N113614   4.377   1.256  13.976  0.2686 -0.0803  0.1437
  930MPD2    H713615   4.361   1.317  14.056 -0.4203  0.1742 -0.1894
  931MPD2     C13616   0.094   4.688   0.825 -0.0433 -0.3577 -0.8679
  931MPD2    C113617   4.688   0.015   0.835 -0.0500 -0.0967 -0.3907
  931MPD2    C213618   4.625   0.001   0.954 -0.6481 -0.3979 -0.7036
  931MPD2    C313619   4.680   4.645   1.051  0.6170  0.0395  0.5869
  931MPD2    C413620   0.077   4.578   1.030  0.1726 -0.4396  0.4787
  931MPD2    C513621   0.153   4.607   0.923  0.0221 -0.3439  0.0481
  931MPD2     H13622   4.519   0.015   0.972 -0.9879 -1.7947 -1.6857
  931MPD2    H113623   0.118   4.506   1.101  0.3183 -0.0110  0.8370
  931MPD2    H213624   0.157   4.693   0.736  0.6824 -0.0037 -0.3328
  931MPD2    H313625   0.253   4.566   0.918  0.1233 -0.3935  2.3504
  931MPD2     N13626   4.611   4.612   1.173  0.1121  0.0131 -0.3467
  931MPD2    H513627   4.648   4.530   1.220  0.2369  0.5757  0.5323
  931MPD2    N113628   4.638   0.091   0.730 -0.3004 -0.1434  0.1326
  931MPD2    H713629   4.682   0.095   0.639  1.6170 -0.4249  1.0513
  932MPD2     C13630   1.196   4.036  11.028 -0.7381 -0.7290  0.0744
  932MPD2    C113631   1.305   4.067  11.109 -0.4346  0.2332  0.7053
  932MPD2    C213632   1.336   3.986  11.213  0.0092  0.3333 -1.0047
  932MPD2    C313633   1.252   3.877  11.249  0.9788 -0.0200 -0.2971
  932MPD2    C413634   1.145   3.846  11.167 -0.5223 -0.3161  0.3693
  932MPD2    C513635   1.127   3.925  11.056  0.5812  0.4657  0.3653
  932MPD2     H13636   1.422   4.013  11.273 -1.0887 -0.6901  1.0277
  932MPD2    H113637   1.076   3.765  11.181  0.5811 -1.2691  0.3139
  932MPD2    H213638   1.167   4.091  10.939 -1.6056  0.1508  0.8899
  932MPD2    H313639   1.045   3.907  10.987 -0.2547  1.5104  1.0844
  932MPD2     N13640   1.282   3.792  11.359 -0.6561  0.0274  0.2669
  932MPD2    H513641   1.220   3.714  11.380  0.9130 -1.0490  0.9379
  932MPD2    N113642   1.383   4.185  11.096 -0.0905  0.3091  0.4638
  932MPD2    H713643   1.456   4.199  11.165  0.2937  1.6865 -0.2070
  933MPD2     C13644   0.963   4.361   1.023 -0.2682 -0.2110 -0.6059
  933MPD2    C113645   1.088   4.397   1.058 -0.1852  0.2049  0.4890
  933MPD2    C213646   1.133   4.531   1.043  0.4750  0.0447 -0.0831
  933MPD2    C313647   1.036   4.622   1.011  0.6288 -0.2755 -0.4302
  933MPD2    C413648   0.910   4.585   0.983 -0.5526  0.2678  0.5883
  933MPD2    C513649   0.880   4.456   0.982  0.5095  1.1841  0.7433
  933MPD2     H13650   1.235   4.564   1.051  0.4976 -0.0095 -0.1518
  933MPD2    H113651   0.828   4.648   0.952 -0.5016 -0.2884 -0.6669
  933MPD2    H213652   0.927   4.258   1.023  0.6281 -0.5183  0.7226
  933MPD2    H313653   0.778   4.426   0.963  1.5138 -0.6117 -1.8542
  933MPD2     N13654   1.076   0.033   1.030  0.3735  0.2396 -0.0875
  933MPD2    H513655   1.175   0.048   1.044  0.2989 -0.7958  1.5429
  933MPD2    N113656   1.180   4.286   1.093  0.4663 -0.2752 -0.1757
  933MPD2    H713657   1.141   4.192   1.100  1.0835 -0.3023  2.9193
  934MPD2     C13658   3.592   0.744   2.067 -0.2678  0.2081  0.4101
  934MPD2    C113659   3.522   0.831   1.985 -0.0004 -0.3358  0.5172
  934MPD2    C213660   3.457   0.779   1.874 -0.3553  0.1299  0.1478
  934MPD2    C313661   3.474   0.640   1.848  1.0012  0.2508 -0.2813
  934MPD2    C413662   3.558   0.559   1.929  0.1635  0.4244  0.3842
  934MPD2    C513663   3.617   0.614   2.035  0.6444  0.1626 -0.4332
  934MPD2     H13664   3.394   0.838   1.808 -0.4729 -0.8461 -0.6172
  934MPD2    H113665   3.591   0.459   1.905 -1.1159  0.2024 -0.4537
  934MPD2    H213666   3.639   0.787   2.154 -0.2799 -0.0293  0.5354
  934MPD2    H313667   3.676   0.549   2.098 -0.3185  0.6763  1.0008
  934MPD2     N13668   3.416   0.582   1.730 -0.3274  0.8379  0.1368
  934MPD2    H513669   3.364   0.644   1.669  0.5044  2.5835  1.2153
  934MPD2    N113670   3.515   0.969   2.015  0.3201 -0.0244 -0.1677
  934MPD2    H713671   3.564   0.991   2.101  1.3029 -1.8818 -0.2371
  935MPD2     C13672   3.643   0.028   0.931  0.1672 -0.5314  0.3132
  935MPD2    C113673   3.507   0.039   0.927  0.0603 -0.6497  0.2160
  935MPD2    C213674   3.441   0.083   1.039 -0.2471  0.0587  0.5090
  935MPD2    C313675   3.503   0.115   1.155 -0.4294 -0.0207 -0.1403
  935MPD2    C413676   3.638   0.097   1.159 -0.6427  0.6545  0.1548
  935MPD2    C513677   3.706   0.051   1.047 -0.5183 -0.6665 -0.4515
  935MPD2     H13678   3.335   0.098   1.022 -0.1943 -0.2090 -0.0553
  935MPD2    H113679   3.697   0.115   1.248  0.4266  1.2998 -0.6867
  935MPD2    H213680   3.707   0.002   0.847  0.1859  1.9383 -0.4520
  935MPD2    H313681   3.815   0.048   1.049 -0.5286 -1.8776 -1.2740
  935MPD2     N13682   3.440   0.178   1.265 -0.6565  0.4079 -0.5582
  935MPD2    H513683   3.512   0.213   1.326 -2.1519  1.7697  0.4251
  935MPD2    N113684   3.434   0.045   0.802 -0.4253  0.0788  0.2710
  935MPD2    H713685   3.347   0.096   0.810 -0.0632  1.0557 -2.0717
  936MPD2     C13686   1.831   3.316  11.718 -0.1889  0.0071  0.0704
  936MPD2    C113687   1.877   3.231  11.812 -0.5355  0.1663 -0.1291
  936MPD2    C213688   1.956   3.279  11.913  0.3912 -0.6738 -0.2903
  936MPD2    C313689   1.978   3.411  11.916 -0.1305  1.0509 -0.4120
  936MPD2    C413690   1.924   3.501  11.830  0.0097  0.0416  0.0750
  936MPD2    C513691   1.857   3.453  11.722  0.0122 -0.1949  0.2741
  936MPD2     H13692   1.996   3.210  11.987  2.4123  1.1142  0.2935
  936MPD2    H113693   1.935   3.609  11.837  0.9734  0.1783 -3.3159
  936MPD2    H213694   1.766   3.274  11.643  0.6951  1.3600 -1.4469
  936MPD2    H313695   1.802   3.520  11.657 -1.0675 -1.6518 -0.3083
  936MPD2     N13696   2.051   3.452  12.029 -0.5742  0.0589 -0.1325
  936MPD2    H513697   2.075   3.370  12.084  1.1211  0.4568 -0.2696
  936MPD2    N113698   1.861   3.088  11.808 -0.2563  0.2691 -0.5528
  936MPD2    H713699   1.935   3.043  11.861 -2.4768 -0.0409  2.2730
  937MPD2     C13700   4.471   4.275  11.925 -0.2074  0.1518  0.2361
  937MPD2    C113701   4.519   4.401  11.885  0.4656 -0.5991  0.3424
  937MPD2    C213702   4.597   4.410  11.771 -1.1725 -0.3489 -0.0903
  937MPD2    C313703   4.634   4.302  11.701 -0.2272 -0.0887  1.0976
  937MPD2    C413704   4.588   4.180  11.735  0.1708  0.1686  0.1661
  937MPD2    C513705   4.504   4.166  11.847 -0.0735  0.9101  0.8334
  937MPD2     H13706   4.606   4.502  11.716  0.2844 -1.4277 -1.6523
  937MPD2    H113707   4.624   4.090  11.687 -1.3342 -0.1949 -0.3018
  937MPD2    H213708   4.402   4.257  12.006 -1.1957  2.0958 -0.1791
  937MPD2    H313709   4.461   4.070  11.868  1.5815  0.2182  1.0889
  937MPD2     N13710   4.722   4.321  11.596 -0.6382 -0.3117 -0.0013
  937MPD2    H513711   0.037   4.415  11.591 -0.5655 -0.2830  1.1237
  937MPD2    N113712   4.457   4.524  11.930 -0.2939  0.0165  0.1657
  937MPD2    H713713   4.482   4.602  11.870  2.1541  1.1428  2.6552
  938MPD2     C13714   2.555   0.446   0.391 -0.4238 -0.4555 -0.4801
  938MPD2    C113715   2.623   0.452   0.512  0.2210 -0.5244 -0.3078
  938MPD2    C213716   2.551   0.470   0.631 -0.0664 -0.0977 -1.3615
  938MPD2    C313717   2.413   0.479   0.621  0.2802  0.0978 -0.2085
  938MPD2    C413718   2.351   0.476   0.503  0.6188  0.8213  0.7091
  938MPD2    C513719   2.415   0.453   0.387  0.4623  0.6905  0.3779
  938MPD2     H13720   2.607   0.475   0.724 -0.2428 -3.6200 -1.0628
  938MPD2    H113721   2.243   0.473   0.490  0.6754  2.2106 -0.1071
  938MPD2    H213722   2.605   0.446   0.295  0.2500 -1.2297 -0.1249
  938MPD2    H313723   2.353   0.448   0.298  1.9019 -0.9908 -0.5315
  938MPD2     N13724   2.324   0.502   0.731 -0.3140 -0.3558 -0.3596
  938MPD2    H513725   2.227   0.487   0.705 -0.2853  0.1476 -0.7468
  938MPD2    N113726   2.764   0.458   0.529  0.5894 -0.4406  0.4003
  938MPD2    H713727   2.802   0.465   0.623  1.3115  0.4383  0.0496
  939MPD2     C13728   2.993   1.432   1.292  0.0291 -0.4651  0.2647
  939MPD2    C113729   2.906   1.454   1.187  0.1846 -0.1504 -0.1314
  939MPD2    C213730   2.939   1.418   1.062 -0.2081  0.1646  0.5634
  939MPD2    C313731   3.065   1.368   1.038 -0.1253 -0.8047  0.1058
  939MPD2    C413732   3.159   1.359   1.143 -0.2863  0.2119 -0.3224
  939MPD2    C513733   3.118   1.376   1.270 -0.9623 -0.0321 -0.2532
  939MPD2     H13734   2.862   1.415   0.985  2.2545 -0.7544 -1.8587
  939MPD2    H113735   3.258   1.319   1.127 -0.4439 -0.6912  1.0093
  939MPD2    H213736   2.959   1.446   1.395 -1.2325 -3.0970  0.2158
  939MPD2    H313737   3.190   1.358   1.349 -1.4223 -0.3222  0.1024
  939MPD2     N13738   3.097   1.326   0.907 -0.3647 -0.2361  0.0698
  939MPD2    H513739   3.016   1.322   0.845 -0.3023 -0.8530  0.0228
  939MPD2    N113740   2.779   1.508   1.219 -0.3272 -0.0923  0.0195
  939MPD2    H713741   2.745   1.512   1.315  0.0978  1.4655  0.1085
  940MPD2     C13742   2.057   2.498  12.870  0.2328  0.2790 -0.1314
  940MPD2    C113743   2.141   2.567  12.951  0.1300  0.2139  0.2924
  940MPD2    C213744   2.268   2.603  12.906  0.2345 -0.4611  0.3009
  940MPD2    C313745   2.311   2.565  12.784  0.3711 -0.6923 -0.2507
  940MPD2    C413746   2.228   2.488  12.711  0.0842  0.0621 -0.1478
  940MPD2    C513747   2.100   2.465  12.748  0.5847  0.4046 -0.5406
  940MPD2     H13748   2.336   2.659  12.970  1.5050 -2.0662  0.3605
  940MPD2    H113749   2.254   2.459  12.610 -2.7197  1.7559 -1.3543
  940MPD2    H213750   1.956   2.467  12.898  0.2495  0.0169 -0.3627
  940MPD2    H313751   2.026   2.412  12.689  0.6446  0.0542 -0.3033
  940MPD2     N13752   2.432   2.601  12.729  0.2129 -0.0124  0.5203
  940MPD2    H513753   2.458   2.562  12.639 -0.5853 -1.5170  0.9351
  940MPD2    N113754   2.113   2.598  13.083 -0.2228 -0.1667  0.0586
  940MPD2    H713755   2.180   2.659  13.129 -0.7072  1.7557 -1.8531
  941MPD2     C13756   2.323   1.978   9.402 -0.1600 -0.8095 -0.1944
  941MPD2    C113757   2.300   1.919   9.284 -0.3026 -0.5856  0.5850
  941MPD2    C213758   2.208   1.814   9.286 -0.1411  0.1049 -0.1728
  941MPD2    C313759   2.153   1.764   9.401 -0.2866 -0.1321  0.6579
  941MPD2    C413760   2.190   1.824   9.518  0.3153  1.1289  0.3692
  941MPD2    C513761   2.280   1.921   9.516 -0.0908  0.4998  0.1334
  941MPD2     H13762   2.194   1.772   9.187 -2.0083 -1.2657  0.6633
  941MPD2    H113763   2.140   1.794   9.610 -3.5129  2.3135 -1.3076
  941MPD2    H213764   2.376   2.072   9.417 -0.2987 -0.8331  0.4578
  941MPD2    H313765   2.317   1.968   9.607  0.1623 -0.8249  0.7210
  941MPD2     N13766   2.050   1.663   9.410  0.1955  0.0342  0.1304
  941MPD2    H513767   2.004   1.656   9.501  0.0364  0.0584  0.0521
  941MPD2    N113768   2.365   1.967   9.167  0.4282  0.0051 -0.7021
  941MPD2    H713769   2.328   1.932   9.079 -0.9881 -0.1052 -0.0752
  942MPD2     C13770   1.384   4.199   9.990 -0.4377  0.4500  0.1814
  942MPD2    C113771   1.359   4.065  10.008  0.1192 -0.3996  0.1067
  942MPD2    C213772   1.390   3.968   9.906 -0.2452 -0.0314 -0.5400
  942MPD2    C313773   1.455   4.010   9.794  0.0319 -0.4422  0.3035
  942MPD2    C413774   1.479   4.142   9.774  0.1080 -0.1697  0.6933
  942MPD2    C513775   1.427   4.233   9.869 -0.0503 -0.2974 -0.4833
  942MPD2     H13776   1.357   3.866   9.927 -1.6956  0.2547 -1.4098
  942MPD2    H113777   1.515   4.181   9.679 -1.0107 -1.3146 -0.1944
  942MPD2    H213778   1.366   4.280  10.060  2.3909  1.5986 -0.3822
  942MPD2    H313779   1.420   4.339   9.849 -2.6203 -0.5818 -1.0623
  942MPD2     N13780   1.526   3.921   9.702 -0.0579  0.6700 -0.0694
  942MPD2    H513781   1.582   3.964   9.630 -0.3101  2.6084  0.8966
  942MPD2    N113782   1.296   4.012  10.118  1.3110  0.0480 -0.2394
  942MPD2    H713783   1.274   3.913  10.115  1.3958 -0.0097  1.5072
  943MPD2     C13784   0.256   2.327   8.910  0.4482  0.1776  0.5796
  943MPD2    C113785   0.279   2.229   8.995 -0.0960 -0.4252 -0.1014
  943MPD2    C213786   0.388   2.237   9.081  0.0757  0.1664  0.3903
  943MPD2    C313787   0.468   2.355   9.091 -1.0953 -0.0823 -0.2010
  943MPD2    C413788   0.443   2.450   8.995  0.4329  0.1057 -0.0549
  943MPD2    C513789   0.336   2.438   8.913  0.0885 -0.1273  0.5486
  943MPD2     H13790   0.414   2.160   9.153  0.0241 -1.6610 -1.5501
  943MPD2    H113791   0.498   2.543   9.005  0.1482  0.1413  1.2985
  943MPD2    H213792   0.169   2.329   8.846 -1.2955 -1.6449  2.8607
  943MPD2    H313793   0.314   2.513   8.838  1.4701 -0.5744 -0.2775
  943MPD2     N13794   0.581   2.378   9.176  0.0547  0.1088  0.1278
  943MPD2    H513795   0.628   2.467   9.166 -1.4517  0.6986 -1.5533
  943MPD2    N113796   0.196   2.109   8.987  0.0208 -0.4334 -0.8429
  943MPD2    H713797   0.127   2.102   8.913  0.6295 -0.8651 -1.3665
  944MPD2     C13798   0.764   0.926  11.452 -0.6909  0.6527  0.0141
  944MPD2    C113799   0.786   1.010  11.348  0.2742 -0.0336  0.7404
  944MPD2    C213800   0.683   1.073  11.295 -0.1680 -0.7807 -0.6720
  944MPD2    C313801   0.560   1.079  11.355  0.1388 -0.0241 -0.3912
  944MPD2    C413802   0.540   0.995  11.462 -0.0690 -0.0067  0.7488
  944MPD2    C513803   0.643   0.921  11.510  0.4684  0.2400 -0.4626
  944MPD2     H13804   0.703   1.156  11.228 -1.6797  0.7879  0.8069
  944MPD2    H113805   0.442   0.976  11.503 -0.0954  1.0794  1.1949
  944MPD2    H213806   0.849   0.872  11.492  0.4512  2.8841  0.6446
  944MPD2    H313807   0.635   0.854  11.595  0.2537  2.1361  1.0136
  944MPD2     N13808   0.461   1.162  11.303  0.1754 -0.3952 -0.0858
  944MPD2    H513809   0.490   1.226  11.230 -3.7829  1.1522 -0.3376
  944MPD2    N113810   0.918   1.005  11.288 -0.8254 -0.6161  0.5060
  944MPD2    H713811   0.978   0.936  11.331 -0.6919 -0.3779  0.6979
    1TCq1    O113812   2.489   2.778  13.744 -0.5546  0.3337 -0.1411
    1TCq1    C113813   2.597   2.700  13.727 -0.3788  0.5894  0.3269
    1TCq1    O213814   2.709   2.748  13.724  0.0734 -0.1035  0.3033
    1TCq1    C213815   2.574   2.590  13.811  0.0633 -0.2821  0.3446
    1TCq1    C313816   2.490   2.493  13.773  0.1690  0.1406  0.0809
    1TCq1    C413817   2.470   2.389  13.861  0.4203 -0.1025 -0.2546
    1TCq1    C513818   2.536   2.387  13.983 -0.0228 -0.1680  0.4356
    1TCq1    C613819   2.631   2.484  14.010 -0.2526  0.2868 -0.7230
    1TCq1    C713820   2.653   2.589  13.927  0.3890  0.6139 -0.5179
    1TCq1    C813821   2.722   2.467  14.127  0.0957  0.1163  0.5585
    1TCq1    O413822   2.693   2.375  14.196 -0.3225  0.1143  0.0228
    1TCq1    C913823   2.364   2.292  13.837 -0.1354 -0.5211  0.0950
    1TCq1    O513824   2.328   2.225  13.934 -0.8242  0.0406 -0.1453
    1TCq1    O613825   2.319   2.285  13.719 -0.0601 -0.3112 -0.7622
    1TCq1    H113826   2.413   2.725  13.776  0.4915 -0.5598  0.8668
    1TCq1    H213827   2.448   2.488  13.674  1.8511 -0.3111 -0.6188
    1TCq1    H313828   2.517   2.301  14.046 -0.4867  0.1506  0.7306
    1TCq1    H413829   2.716   2.672  13.957 -1.1052  1.4932  0.1549
    2MPD2     C13830   3.184   2.518  14.343  0.1804  0.0242 -0.1917
    2MPD2    C113831   3.179   2.597  14.235 -0.6824 -0.4487  0.3985
    2MPD2    C213832   3.062   2.608  14.157 -1.0711 -0.9759  0.1750
    2MPD2    C313833   2.955   2.536  14.195  0.0655  0.3352  0.6931
    2MPD2    C413834   2.961   2.457  14.304 -0.4398 -0.4469  0.2268
    2MPD2    C513835   3.072   2.447  14.378 -0.2018  0.4096  0.7423
    2MPD2     H13836   3.045   2.663  14.065  1.2610 -0.4735  0.0508
    2MPD2    H113837   2.875   2.401  14.339 -3.6436  5.3531  1.6352
    2MPD2    H213838   3.277   2.509  14.399 -1.4388 -1.6365  2.2017
    2MPD2    H313839   3.068   2.384  14.466  2.7661  0.9325  1.2424
    2MPD2     N13840   2.840   2.541  14.117  0.3461 -0.5104  0.0700
    2MPD2    H513841   2.858   2.601  14.037 -1.2289 -0.0470  0.0733
    2MPD2    N113842   3.288   2.680  14.205  0.0385  0.2028  0.3633
    2MPD2    H713843   3.353   2.695  14.282  0.6312  1.4294 -0.3718
    3TMC2    C113844   3.378   2.880  14.101  0.4658 -0.0705 -0.9217
    3TMC2    C213845   3.448   2.891  14.219  0.7465  0.6935  0.5109
    3TMC2    C313846   3.440   3.016  14.276 -0.4859  0.4694  0.4899
    3TMC2    C413847   3.317   2.983  14.032  0.2748  0.3076 -0.0616
    3TMC2    C513848   3.334   3.108  14.088 -0.3317  0.1603  0.3082
    3TMC2    C613849   3.381   3.127  14.213  0.1288 -0.9629 -0.1981
    3TMC2     C13850   3.312   2.752  14.084  0.2712  0.5913  0.1756
    3TMC2     O13851   3.245   2.747  13.980 -0.1372 -0.4008  0.1630
    3TMC2     H13852   3.500   2.809  14.268 -0.8938 -1.4577 -1.3619
    3TMC2    H113853   3.268   2.966  13.937 -2.3540  1.5090  1.1084
    3TMC2    H213854   3.383   3.224  14.263  0.8046 -0.6873 -0.7689
    3TMC2    C713855   3.280   3.212  14.013 -0.2004 -0.1728  0.3920
    3TMC2    C813856   3.476   3.034  14.411 -0.5739  0.4492 -0.1937
    3TMC2    O113857   3.193   3.177  13.936  0.1649  0.0091 -0.2855
    3TMC2    O213858   3.476   3.149  14.456 -0.1784  0.4825 -0.3425
    3TMC2    O513859   3.440   2.926  14.486 -0.1127 -0.0074 -0.2454
    3TMC2    H513860   3.429   2.842  14.437  0.2254 -0.7935  1.0329
    4MPD2     C13861   2.091   3.504  13.698  0.0242 -0.0936  0.4700
    4MPD2    C113862   2.132   3.497  13.565  0.6945 -0.3228  0.2265
    4MPD2    C213863   2.255   3.548  13.526  0.3172 -0.1469  0.6450
    4MPD2    C313864   2.336   3.606  13.619 -0.7264  0.2849  0.6926
    4MPD2    C413865   2.290   3.617  13.753  0.0704 -0.2698 -0.7330
    4MPD2    C513866   2.171   3.567  13.788  0.7174  0.8239 -0.1456
    4MPD2     H13867   2.277   3.547  13.420 -0.7158  2.0621  0.4196
    4MPD2    H113868   2.347   3.674  13.826  0.4938 -0.8657 -0.5992
    4MPD2    H213869   1.992   3.471  13.730 -1.5110  0.7623 -3.4042
    4MPD2    H313870   2.140   3.583  13.891  1.0201  0.3594  0.0187
    4MPD2     N13871   2.471   3.635  13.586 -0.4497 -0.0565  0.0160
    4MPD2    H513872   2.498   3.603  13.493 -0.6031  2.2086 -0.8081
    4MPD2    N113873   2.037   3.429  13.481  0.0853  0.0582  0.7598
    4MPD2    H713874   1.951   3.395  13.523 -0.0769 -1.3213 -0.6679
    5TCq2    C113875   2.571   3.685  13.663 -0.3504  0.3537  0.2218
    5TCq2    O213876   2.573   3.725  13.780 -0.1185 -0.0862 -0.1750
    5TCq2    C213877   2.694   3.688  13.588 -0.4506  0.5700  0.2191
    5TCq2    C313878   2.709   3.673  13.455 -0.1682 -0.0780  0.0720
    5TCq2    C413879   2.834   3.652  13.393 -0.0338 -0.1761  0.2574
    5TCq2    C513880   2.943   3.632  13.472 -0.1649  0.6038 -0.6689
    5TCq2    C613881   2.924   3.636  13.614  0.5965  0.7734 -0.8141
    5TCq2    C713882   2.807   3.677  13.664 -0.4889  0.1185 -0.0291
    5TCq2    C813883   3.020   3.572  13.706 -0.4210 -0.7350  0.4532
    5TCq2    O413884   2.968   3.510  13.797 -0.2345 -0.4036  0.3042
    5TCq2    C913885   2.835   3.631  13.249  1.3435 -0.1615 -0.3274
    5TCq2    O513886   2.734   3.579  13.193 -0.1924  0.1353 -0.2722
    5TCq2    O613887   2.951   3.631  13.204  0.4747  0.0694 -0.5879
    5TCq2    H213888   2.623   3.694  13.393 -2.4430 -0.5454  3.0481
    5TCq2    H313889   3.038   3.603  13.430 -0.6037 -2.4126  0.4392
    5TCq2    H413890   2.803   3.687  13.772  1.1208 -0.6190  0.1116
    6MPD1     C13891   1.242   3.931  11.817  0.5266 -0.3059  0.5010
    6MPD1    C113892   1.349   3.991  11.875 -0.0486  0.3765 -0.8137
    6MPD1    C213893   1.396   3.950  12.001 -0.3772 -0.1544 -0.0259
    6MPD1    C313894   1.342   3.829  12.045 -0.3866 -0.8404  0.2134
    6MPD1    C413895   1.239   3.769  11.984  0.2170 -0.0489 -0.1470
    6MPD1    C513896   1.190   3.817  11.869 -1.1765 -0.0800  1.4959
    6MPD1     H13897   1.483   3.998  12.045  0.9412 -3.3346  0.8496
    6MPD1    H113898   1.192   3.675  12.013  1.8732 -0.7874  0.1362
    6MPD1    H213899   1.204   3.977  11.727 -0.0837 -1.8333 -0.0146
    6MPD1    H313900   1.095   3.784  11.829 -0.2202 -2.0999  0.9018
    6MPD1     N13901   1.380   3.788  12.172  0.3649 -0.5086 -0.3599
    6MPD1    H513902   1.356   3.690  12.184  3.2236 -1.1354  0.2400
    6MPD1    N113903   1.399   4.106  11.815  0.3554 -0.0099  0.4336
    6MPD1    H613904   1.372   4.120  11.718  0.7390  1.2091  0.5119
    6MPD1    H713905   1.500   4.112  11.829  0.4319 -0.5853  0.1412
    7MPD2     C13906   1.607   3.879  13.027 -0.8515  0.6250  0.5618
    7MPD2    C113907   1.582   3.758  12.972 -0.0436  0.0822  0.0903
    7MPD2    C213908   1.588   3.646  13.054 -0.1524  0.3970 -0.0473
    7MPD2    C313909   1.608   3.652  13.191  0.4189  0.1703 -0.1993
    7MPD2    C413910   1.628   3.780  13.245 -0.1315  0.3165 -0.0469
    7MPD2    C513911   1.627   3.890  13.162 -0.0999  0.2065  1.0298
    7MPD2     H13912   1.582   3.548  13.007  0.6345  0.3146  0.0266
    7MPD2    H113913   1.647   3.799  13.350  0.1557  2.9715 -0.5584
    7MPD2    H213914   1.601   3.968  12.965 -1.7393 -0.8282 -1.4555
    7MPD2    H313915   1.642   3.987  13.208  1.6445 -0.1956  1.2901
    7MPD2     N13916   1.626   3.538  13.272 -0.6534 -0.3525 -0.0166
    7MPD2    H513917   1.670   3.555  13.361 -2.9273 -0.8461  1.2044
    7MPD2    N113918   1.558   3.731  12.830  0.2345  0.0721 -0.1885
    7MPD2    H713919   1.572   3.635  12.799 -0.5257 -0.1792  0.2577
    8TMC3    C113920   1.698   3.311  13.288  0.3982  0.3300 -0.3128
    8TMC3    C213921   1.803   3.376  13.332 -0.0949 -0.1967  0.3803
    8TMC3    C313922   1.931   3.343  13.278 -0.0739  0.4439  0.1401
    8TMC3    C413923   1.717   3.217  13.188 -0.4407 -0.9375  0.0236
    8TMC3    C513924   1.840   3.205  13.119 -0.0006 -0.3067  0.3989
    8TMC3    C613925   1.949   3.270  13.163  0.8304 -1.0358 -0.3876
    8TMC3     C13926   1.611   3.406  13.225 -0.2920  0.8167 -0.3840
    8TMC3     O13927   1.528   3.374  13.144 -0.0318  0.2074  0.7947
    8TMC3     H13928   1.790   3.438  13.421 -2.2891  2.0041 -1.4845
    8TMC3    H113929   1.636   3.165  13.137 -1.2311  0.4975 -0.1938
    8TMC3    H213930   2.051   3.258  13.128  0.5911 -0.7257 -1.1950
    8TMC3    C713931   1.831   3.190  12.974  0.3129  0.7436 -0.0105
    8TMC3    C813932   2.056   3.391  13.352 -0.1183 -0.7671 -0.0650
    8TMC3    O113933   1.918   3.248  12.913 -0.1115 -0.4533 -0.3789
    8TMC3    O213934   2.164   3.388  13.296  0.2989 -0.2183  0.1510
    9TMC3    C113935   1.445   3.776  12.394  0.0200  0.1615  0.3954
    9TMC3    C213936   1.454   3.640  12.373  0.4592 -0.1175  0.5332
    9TMC3    C313937   1.464   3.563  12.491 -0.8818 -0.0731  0.5501
    9TMC3    C413938   1.468   3.846  12.508 -0.3731 -0.2360  0.6371
    9TMC3    C513939   1.479   3.761  12.615 -0.1100 -0.4492 -0.0331
    9TMC3    C613940   1.460   3.626  12.617 -0.1492 -0.3153 -0.2271
    9TMC3     C13941   1.429   3.856  12.276 -0.3013 -0.1438  0.1406
    9TMC3     O13942   1.445   3.979  12.277  0.8021 -0.7908  0.0155
    9TMC3     H13943   1.452   3.596  12.274 -3.0835  0.5187  0.2953
    9TMC3    H113944   1.470   3.955  12.514  0.3245 -0.3092  1.8520
    9TMC3    H213945   1.452   3.565  12.706  0.6874 -1.6107 -1.0285
    9TMC3    C713946   1.512   3.824  12.741 -0.0941 -0.2317  0.0371
    9TMC3    C813947   1.484   3.422  12.484 -0.5548  0.0461  0.5668
    9TMC3    O113948   1.502   3.945  12.752  0.4684  0.0504  0.2431
    9TMC3    O213949   1.440   3.360  12.384 -0.0114  0.0357  0.2812
   10MPD2     C13950   1.601   3.001  12.753 -0.6663  0.1966  0.3365
   10MPD2    C113951   1.679   3.105  12.796  0.2432  0.0568 -0.1498
   10MPD2    C213952   1.667   3.228  12.737  0.2595  0.7143  0.7682
   10MPD2    C313953   1.584   3.249  12.629 -0.5726 -0.5528 -0.0034
   10MPD2    C413954   1.515   3.142  12.572 -0.3828 -0.0954 -0.1676
   10MPD2    C513955   1.523   3.025  12.637 -0.3502  0.3934 -0.4335
   10MPD2     H13956   1.718   3.311  12.784  1.9796 -0.2393  0.5653
   10MPD2    H113957   1.472   3.143  12.473  0.5533 -1.8923 -0.5927
   10MPD2    H213958   1.585   2.912  12.813 -0.7759 -0.0404 -0.0448
   10MPD2    H313959   1.487   2.929  12.602  0.7901 -0.1951  0.0146
   10MPD2     N13960   1.576   3.380  12.584 -0.0469  0.2549  0.3393
   10MPD2    H513961   1.627   3.454  12.630 -0.7383 -0.5490  2.3741
   10MPD2    N113962   1.742   3.095  12.929  0.4005 -0.0738 -0.1368
   10MPD2    H713963   1.712   3.019  12.988 -0.9544  3.0459  3.1293
   11MPD2     C13964   3.472   3.510  13.938  0.8973 -0.6838 -0.1959
   11MPD2    C113965   3.356   3.438  13.942  0.2812  0.2134  0.4490
   11MPD2    C213966   3.249   3.465  13.865  0.1621  0.9170  0.5889
   11MPD2    C313967   3.251   3.580  13.783  0.1807  0.3693 -0.2989
   11MPD2    C413968   3.362   3.659  13.777  0.0812 -0.1799 -0.0343
   11MPD2    C513969   3.468   3.624  13.861 -0.3871  0.3559  0.3897
   11MPD2     H13970   3.167   3.393  13.863  0.9112  0.0721  0.2173
   11MPD2    H113971   3.373   3.745  13.713 -0.0922 -0.8545 -0.9673
   11MPD2    H213972   3.560   3.483  13.995  1.8452 -0.9225 -1.8031
   11MPD2    H313973   3.560   3.679  13.848 -0.2370 -0.2763 -1.1604
   11MPD2     N13974   3.145   3.624  13.704  0.2529  0.0968  0.1921
   11MPD2    H513975   3.163   3.707  13.650  0.1677  0.4759  0.7422
   11MPD2    N113976   3.361   3.327  14.029 -0.3271  0.1089 -0.3600
   11MPD2    H713977   3.447   3.316  14.083 -0.4152  1.3459  0.0267
    1MPD1     C13978   0.543   3.730  17.206  0.7281 -0.7575  0.0669
    1MPD1    C113979   0.664   3.701  17.270  0.1083 -0.5323 -0.1340
    1MPD1    C213980   0.774   3.731  17.194 -0.2356  0.1559  0.4230
    1MPD1    C313981   0.769   3.808  17.080 -0.2209  0.4630  0.4817
    1MPD1    C413982   0.647   3.862  17.042 -0.4331 -0.1320  0.1429
    1MPD1    C513983   0.537   3.811  17.096 -0.5345 -0.0010  0.4981
    1MPD1     H13984   0.867   3.708  17.244  1.6911  0.6739 -2.8942
    1MPD1    H113985   0.633   3.944  16.973 -0.8233 -0.5524 -0.2743
    1MPD1    H213986   0.448   3.700  17.250  1.8124 -2.4276  1.2579
    1MPD1    H313987   0.438   3.844  17.067 -0.5399  0.3921  0.9704
    1MPD1     N13988   0.885   3.857  17.020  0.2782  0.3806 -0.1126
    1MPD1    H513989   0.870   3.937  16.959 -1.8830  1.5166  1.9099
    1MPD1    N113990   0.665   3.621  17.386 -0.2116  0.3931 -0.8282
    1MPD1    H613991   0.596   3.655  17.452  0.8083 -0.4049  0.6463
    1MPD1    H713992   0.759   3.620  17.425 -0.2574  2.0259 -0.6938
    2MPD1     C13993   1.870   3.595  17.146  0.1794  0.2851 -0.0915
    2MPD1    C113994   1.859   3.649  17.023  0.4945 -0.2805 -0.4486
    2MPD1    C213995   1.744   3.723  16.995 -0.0532 -0.0453 -0.1658
    2MPD1    C313996   1.626   3.719  17.078  0.1417 -0.0761 -0.2911
    2MPD1    C413997   1.639   3.660  17.199  0.2455  0.1958  0.2229
    2MPD1    C513998   1.760   3.598  17.227 -0.1473 -0.1198  0.0883
    2MPD1     H13999   1.729   3.772  16.900 -1.8574 -0.9416 -0.3393
    2MPD1    H114000   1.556   3.646  17.267 -0.1663  2.0554  0.0910
    2MPD1    H214001   1.959   3.539  17.173  0.3979  0.7757  0.1900
    2MPD1    H314002   1.765   3.544  17.320 -0.3777  2.8029  1.8091
    2MPD1     N14003   1.497   3.767  17.044 -0.4007  0.7748  0.4921
    2MPD1    H514004   1.421   3.763  17.110 -1.5429  1.2754 -0.7967
    2MPD1    N114005   1.976   3.651  16.942  0.2536  0.4928  0.6276
    2MPD1    H614006   1.951   3.651  16.843  3.7782  0.3242 -0.2421
    2MPD1    H714007   2.034   3.568  16.955 -1.5286 -0.5042  2.3559
    3TMC3    C114008   1.344   3.904  16.930  0.3622 -0.3215  0.1866
    3TMC3    C214009   1.311   4.012  16.849  0.3363 -0.9663  0.1588
    3TMC3    C314010   1.179   4.052  16.844  0.3308 -0.8231  0.1474
    3TMC3    C414011   1.249   3.853  17.010  0.2034  0.1254 -0.1548
    3TMC3    C514012   1.120   3.903  17.019 -0.0447  0.3227 -0.1013
    3TMC3    C614013   1.089   4.013  16.938  0.0463 -0.4396 -0.1156
    3TMC3     C14014   1.482   3.864  16.943  0.2882 -0.3714  0.1848
    3TMC3     O14015   1.560   3.927  16.871 -0.3352 -0.3309  0.8319
    3TMC3     H14016   1.394   4.065  16.804 -0.5748 -1.1320 -1.7042
    3TMC3    H114017   1.255   3.753  17.050  2.9706  0.6819  0.8269
    3TMC3    H214018   0.992   4.057  16.953  1.6946  2.5913  1.6134
    3TMC3    C714019   1.011   3.808  17.051  0.4468 -0.8336  0.3912
    3TMC3    C814020   1.121   4.117  16.730 -0.4666 -0.3946 -0.0505
    3TMC3    O114021   1.043   3.711  17.113 -0.2794  0.1297 -0.2621
    3TMC3    O214022   0.998   4.120  16.723 -0.1230  0.3562 -0.2717
    4MPD1     C14023   1.183   4.164  16.244  0.0805 -0.4255 -0.8428
    4MPD1    C114024   1.308   4.174  16.303  0.2331 -0.0282 -0.0032
    4MPD1    C214025   1.311   4.186  16.443  0.0612 -0.1486  0.2523
    4MPD1    C314026   1.195   4.180  16.511  0.5353  1.0693  0.3160
    4MPD1    C414027   1.073   4.166  16.452 -0.0724 -0.3323 -0.3176
    4MPD1    C514028   1.068   4.165  16.318  0.2323  0.8821 -0.5625
    4MPD1     H14029   1.405   4.204  16.493 -0.1857 -0.7307  0.9239
    4MPD1    H114030   0.976   4.163  16.501 -0.4781  0.3790 -1.0761
    4MPD1    H214031   1.176   4.157  16.136  1.6993 -1.3450 -0.8926
    4MPD1    H314032   0.973   4.177  16.267  0.0135  1.3639 -0.0463
    4MPD1     N14033   1.215   4.163  16.650 -0.3013 -0.4059 -0.0126
    4MPD1    H514034   1.312   4.168  16.679 -0.6124 -2.0368  1.3174
    4MPD1    N114035   1.420   4.216  16.222  0.3832 -1.3538 -0.2312
    4MPD1    H614036   1.416   4.172  16.130 -1.1838  1.6985 -1.6121
    4MPD1    H714037   1.503   4.182  16.270 -0.5196 -0.1216  2.1924
    1TCq1    O114038   2.873   2.977  11.472  0.3165  0.0099  0.5057
    1TCq1    C114039   2.763   3.044  11.435 -0.1987 -0.2747 -0.7062
    1TCq1    O214040   2.759   3.138  11.357 -0.4775  0.3603  0.1055
    1TCq1    C214041   2.640   2.981  11.480 -0.0930  0.8051 -0.2752
    1TCq1    C314042   2.640   2.855  11.531 -0.0642 -0.1716  0.1513
    1TCq1    C414043   2.509   2.802  11.555  0.3844 -0.2371 -0.2156
    1TCq1    C514044   2.401   2.884  11.566  0.4717 -0.2864 -1.3867
    1TCq1    C614045   2.408   3.010  11.519 -0.0014 -0.0014  0.5279
    1TCq1    C714046   2.530   3.055  11.481  0.0464 -0.3147  0.2110
    1TCq1    C814047   2.290   3.096  11.505  0.7061 -0.4457  0.6779
    1TCq1    O414048   2.185   3.034  11.522 -0.2630  0.2904  0.0073
    1TCq1    C914049   2.513   2.689  11.642  0.4027  0.1880 -0.8633
    1TCq1    O514050   2.412   2.666  11.718  0.1689 -1.1866 -0.0899
    1TCq1    O614051   2.627   2.650  11.676  0.2465 -0.0769  0.0203
    1TCq1    H114052   2.873   2.909  11.543  1.8108  0.0583  0.5515
    1TCq1    H214053   2.729   2.793  11.539 -0.4338 -0.4925  1.8377
    1TCq1    H314054   2.304   2.848  11.598  2.1519 -5.3269 -1.9971
    1TCq1    H414055   2.540   3.157  11.446  1.6242 -1.4646 -2.6848
    2MPD1     C14056   2.006   3.509  11.367 -0.3792 -0.3503 -0.3042
    2MPD1    C114057   2.137   3.534  11.326 -0.3560 -0.3058  0.5232
    2MPD1    C214058   2.238   3.438  11.358  0.1074 -0.0396  0.4275
    2MPD1    C314059   2.200   3.318  11.421  0.2638  0.5942 -0.3813
    2MPD1    C414060   2.068   3.299  11.455 -0.0699  0.6266 -0.2338
    2MPD1    C514061   1.973   3.391  11.430  0.2872  0.5171 -0.1100
    2MPD1     H14062   2.343   3.452  11.333  0.3515 -0.9453  0.9631
    2MPD1    H114063   2.040   3.210  11.509  2.3302  1.0824  1.7509
    2MPD1    H214064   1.940   3.592  11.343 -1.5553 -1.2263 -0.0415
    2MPD1    H314065   1.874   3.369  11.469  0.9801 -2.2593  0.0874
    2MPD1     N14066   2.306   3.225  11.446 -0.8104 -0.1633 -0.1971
    2MPD1    H514067   2.402   3.247  11.423  0.2135 -1.7979  2.4784
    2MPD1    N114068   2.166   3.664  11.275  0.2079 -0.0802  0.2412
    2MPD1    H614069   2.082   3.708  11.238  0.0951  0.6918  1.4039
    2MPD1    H714070   2.251   3.671  11.219 -1.0259 -0.3028 -1.6197
    1TCq1    O114071   0.642   0.889   1.406 -0.0282  0.6628  0.0552
    1TCq1    C114072   0.679   0.912   1.535  0.2136  0.3005 -0.5174
    1TCq1    O214073   0.642   0.841   1.632 -0.2714 -0.7753 -0.3036
    1TCq1    C214074   0.814   0.949   1.521  0.3122 -0.1281  0.4326
    1TCq1    C314075   0.835   1.074   1.462  0.1306  0.4440  0.1648
    1TCq1    C414076   0.963   1.119   1.465  0.4699 -0.5763 -0.6478
    1TCq1    C514077   1.063   1.057   1.536  0.7258 -0.0571  0.0808
    1TCq1    C614078   1.036   0.931   1.577 -0.0414 -0.4668  0.0263
    1TCq1    C714079   0.909   0.878   1.578 -0.1223 -0.1999  0.7376
    1TCq1    C814080   1.143   0.850   1.631 -0.1073  0.0052 -0.2900
    1TCq1    O414081   1.100   0.745   1.682 -0.5988 -0.2148  0.1559
    1TCq1    C914082   0.978   1.263   1.446 -0.3349 -0.0745 -1.3004
    1TCq1    O514083   0.893   1.335   1.387 -0.2672  0.1707 -0.2207
    1TCq1    O614084   1.094   1.308   1.467 -1.0021  0.1325  0.2375
    1TCq1    H114085   0.704   0.919   1.336  0.2944  0.7621  0.3818
    1TCq1    H214086   0.756   1.148   1.456 -0.6954 -0.4238  0.3675
    1TCq1    H314087   1.157   1.109   1.552  1.6067 -1.4469 -0.5212
    1TCq1    H414088   0.884   0.784   1.627  0.2404  0.5747  2.4342
    2MPD1     C14089   1.612   0.674   1.707 -0.0375 -0.2735 -0.1698
    2MPD1    C114090   1.616   0.762   1.606  0.0837  0.0535 -0.0376
    2MPD1    C214091   1.506   0.842   1.582  0.5595  0.2960  0.4405
    2MPD1    C314092   1.384   0.819   1.638 -0.3676  0.2749 -0.3279
    2MPD1    C414093   1.389   0.739   1.751  0.3621 -0.1685 -0.0409
    2MPD1    C514094   1.503   0.665   1.784  0.6029 -0.4688 -0.0757
    2MPD1     H14095   1.518   0.919   1.507  0.1320  0.2029  0.2770
    2MPD1    H114096   1.304   0.709   1.811  0.4464  0.4500  0.3868
    2MPD1    H214097   1.706   0.623   1.727 -0.3577 -0.6649  0.3233
    2MPD1    H314098   1.496   0.593   1.864 -1.4137  2.0224  1.9851
    2MPD1     N14099   1.273   0.888   1.594  0.5089  0.6457  1.1952
    2MPD1    H514100   1.293   0.955   1.521 -1.9279 -0.8295 -0.7925
    2MPD1    N114101   1.734   0.782   1.537 -0.2069 -0.3423  0.3148
    2MPD1    H614102   1.721   0.797   1.437 -0.1238 -1.2906  0.1568
    2MPD1    H714103   1.810   0.716   1.556  0.6651  0.6404  0.2827
    1MPD1     C14104   3.085   4.055  11.848  0.3111 -0.4839 -0.3240
    1MPD1    C114105   3.196   4.044  11.771 -0.0832 -0.2806  0.1134
    1MPD1    C214106   3.268   4.168  11.755 -0.9490 -0.2684 -0.2001
    1MPD1    C314107   3.255   4.273  11.841 -0.2455 -0.3669 -0.2021
    1MPD1    C414108   3.154   4.269  11.935  0.7175  0.4364  0.5874
    1MPD1    C514109   3.071   4.156  11.934 -0.2901 -0.0565  0.0642
    1MPD1     H14110   3.355   4.170  11.690  0.6967  0.0154  2.0041
    1MPD1    H114111   3.136   4.343  12.012 -0.0587 -0.2414  1.0497
    1MPD1    H214112   3.008   3.979  11.845  1.5664 -1.9066  3.2420
    1MPD1    H314113   2.982   4.147  11.997 -0.7551  0.0850 -0.5727
    1MPD1     N14114   3.345   4.384  11.837  0.5256 -0.1059 -0.1081
    1MPD1    H514115   3.417   4.383  11.765  0.9501  2.0123  0.2885
    1MPD1    N114116   3.219   3.936  11.681 -0.1143 -0.2052  0.4429
    1MPD1    H614117   3.315   3.933  11.648 -1.0776 -1.7835 -2.2206
    1MPD1    H714118   3.180   3.850  11.719  0.0536  0.2279  1.5992
    2MPD1     C14119   2.843   0.016  11.570  0.4765  0.3985 -0.4627
    2MPD1    C114120   2.800   4.642  11.486 -0.0518 -0.2195  0.1744
    2MPD1    C214121   2.883   4.578  11.399  0.2145  0.1468 -0.4965
    2MPD1    C314122   3.017   4.615  11.392 -0.1045 -0.1046 -0.4901
    2MPD1    C414123   3.064   4.707  11.484  0.1306 -0.0726  0.2465
    2MPD1    C514124   2.979   0.044  11.576  0.1017  0.7665 -0.1130
    2MPD1     H14125   2.854   4.503  11.327 -1.0072  2.9552 -2.8948
    2MPD1    H114126   3.166   0.021  11.490  0.1315  0.0194 -0.3621
    2MPD1    H214127   2.781   0.066  11.644  1.2216  1.3784 -0.4996
    2MPD1    H314128   3.012   0.119  11.647 -0.4045  1.3439 -0.4866
    2MPD1     N14129   3.114   4.574  11.302 -0.2482 -0.5640 -0.0813
    2MPD1    H514130   3.209   4.606  11.319 -0.4701  1.5804 -2.7633
    2MPD1    N114131   2.675   4.576  11.510  0.2741  0.2424 -0.7506
    2MPD1    H614132   2.628   4.533  11.431  1.7914 -2.6523 -0.0839
    2MPD1    H714133   2.612   4.628  11.572  0.5775 -0.6442  0.3011
    3MPD1     C14134   3.302   4.377  10.273 -0.2829 -0.3422  0.2783
    3MPD1    C114135   3.421   4.418  10.332 -0.0308 -0.0196  0.6267
    3MPD1    C214136   3.429   4.406  10.468 -0.8312 -0.9348 -0.3326
    3MPD1    C314137   3.319   4.384  10.547  0.5425 -0.4131  0.0679
    3MPD1    C414138   3.196   4.354  10.483  0.0768  0.5011 -0.4253
    3MPD1    C514139   3.191   4.351  10.349 -0.8051 -0.1969  0.2984
    3MPD1     H14140   3.523   4.429  10.517 -0.8911 -1.3674 -0.0165
    3MPD1    H114141   3.099   4.336  10.527  0.3083 -1.4737 -0.7130
    3MPD1    H214142   3.296   4.381  10.165 -0.8493  0.6249  0.3451
    3MPD1    H314143   3.099   4.339  10.293  0.5709 -3.1213 -1.3298
    3MPD1     N14144   3.326   4.397  10.686 -0.5842 -0.1667  0.1139
    3MPD1    H514145   3.405   4.441  10.731 -1.5357 -0.7088  2.3354
    3MPD1    N114146   3.537   4.430  10.254 -0.0134 -0.0482  0.3139
    3MPD1    H614147   3.611   4.482  10.301  0.4738 -0.0321 -0.4688
    3MPD1    H714148   3.525   4.471  10.161 -0.4447 -0.4724  0.1810
    4MPD2     C14149   3.541   0.280  11.438 -0.0228 -0.1941  0.3739
    4MPD2    C114150   3.632   0.257  11.541  0.6955 -0.7028 -0.3867
    4MPD2    C214151   3.763   0.295  11.518  0.2303  0.2934 -0.4813
    4MPD2    C314152   3.807   0.313  11.387 -0.2251 -1.0892  0.0035
    4MPD2    C414153   3.718   0.314  11.285 -0.4074 -0.2589 -0.8562
    4MPD2    C514154   3.583   0.313  11.309 -0.3066  0.0771 -0.0562
    4MPD2     H14155   3.821   0.273  11.607  1.2233  0.5435 -1.0599
    4MPD2    H114156   3.752   0.332  11.183  0.4591 -0.2438 -0.5614
    4MPD2    H214157   3.436   0.266  11.460  0.1579 -2.0844  0.0300
    4MPD2    H314158   3.517   0.337  11.227  0.4634 -0.6274 -0.8705
    4MPD2     N14159   3.940   0.291  11.349 -0.4706  0.1497 -0.4699
    4MPD2    H514160   3.957   0.244  11.261  0.4059  0.1144 -0.2807
    4MPD2    N114161   3.599   0.211  11.671  0.1752  0.2949 -0.6834
    4MPD2    H714162   3.674   0.201  11.739 -0.0984  1.6871 -0.1772
    5TMC3    C114163   3.468   0.102  11.832  0.1036 -0.3593 -0.1243
    5TMC3    C214164   3.368   0.014  11.843 -0.1263 -0.1843 -1.2415
    5TMC3    C314165   3.404   4.607  11.879 -0.0322 -0.2195 -0.3117
    5TMC3    C414166   3.587   0.085  11.893  0.0760  0.0380  0.2875
    5TMC3    C514167   3.625   4.680  11.930 -0.1115 -0.5212 -0.0398
    5TMC3    C614168   3.535   4.580  11.922  0.4761  0.0628  0.2234
    5TMC3     C14169   3.469   0.174  11.706  0.2460  0.0729 -0.2881
    5TMC3     O14170   3.386   0.141  11.630 -0.1147  0.3445 -0.0995
    5TMC3     H14171   3.266   0.020  11.808 -0.0847 -2.0168 -1.6993
    5TMC3    H114172   3.662   0.163  11.905  1.6230 -1.4395  0.3233
    5TMC3    H214173   3.560   4.483  11.965  1.2773  0.7364  1.2865
    5TMC3    C714174   3.762   4.660  11.896  0.7348  0.9022  0.1634
    5TMC3    C814175   3.305   4.508  11.890  0.1161  0.2941  0.1871
    5TMC3    O114176   3.808   0.027  11.824 -0.5316  0.4902  0.2731
    5TMC3    O214177   3.199   4.544  11.943 -0.1645  0.4177 -0.0778
    6TMC3    C114178   3.205   4.437  11.120 -0.3314 -0.3846  0.7987
    6TMC3    C214179   3.173   4.384  11.004 -0.7422  0.7758  0.1108
    6TMC3    C314180   3.275   4.378  10.913 -1.1128  0.1623 -0.1857
    6TMC3    C414181   3.333   4.476  11.158 -0.1005 -0.0071 -0.1625
    6TMC3    C514182   3.428   4.452  11.073 -0.0151  0.0041 -0.8976
    6TMC3    C614183   3.403   4.417  10.946  0.3611 -0.1031  0.8669
    6TMC3     C14184   3.089   4.484  11.199  0.3936  0.5852  0.1989
    6TMC3     O14185   2.982   4.441  11.162 -0.0501  0.1751  0.1608
    6TMC3     H14186   3.078   4.351  10.965  0.1043 -0.8890 -0.5389
    6TMC3    H114187   3.353   4.514  11.257 -2.2467 -0.4667  0.4474
    6TMC3    H214188   3.487   4.423  10.877 -3.3268 -0.0833 -3.6444
    6TMC3    C714189   3.561   4.465  11.116 -0.2934  0.2424 -0.4544
    6TMC3    C814190   3.233   4.350  10.778 -0.6777 -0.4259 -0.3884
    6TMC3    O114191   3.587   4.535  11.211 -0.3668  0.3371  0.2516
    6TMC3    O214192   3.136   4.277  10.755 -0.5032 -0.0367 -0.2213
    7MPD2     C14193   4.165   4.374  11.773 -0.4866  0.1739  0.1811
    7MPD2    C114194   4.139   4.507  11.746 -0.6243  0.1717 -0.2542
    7MPD2    C214195   4.029   4.569  11.811  0.1308 -0.1270  0.3977
    7MPD2    C314196   3.948   4.492  11.891  0.8097  0.1660  0.0268
    7MPD2    C414197   3.980   4.362  11.929 -0.8022 -0.1125 -0.2665
    7MPD2    C514198   4.076   4.303  11.852 -0.2151 -0.3696  0.2856
    7MPD2     H14199   4.017   4.676  11.797 -2.8620 -0.6928 -1.2077
    7MPD2    H114200   3.906   4.306  11.985  0.1622 -1.2371 -0.1325
    7MPD2    H214201   4.240   4.313  11.725 -0.3555 -0.6265  1.3959
    7MPD2    H314202   4.088   4.196  11.867 -1.2417 -0.8497 -2.2262
    7MPD2     N14203   3.824   4.544  11.941  0.0624 -0.0726  0.0824
    7MPD2    H514204   3.776   4.482  12.005  0.9059  1.1688  1.9180
    7MPD2    N114205   4.214   4.577  11.641  0.9711  0.5299  0.5484
    7MPD2    H714206   4.268   4.518  11.577 -1.3238 -2.0460  0.9883
    8TMC3    C114207   4.251   0.040  11.494  0.0451  0.0576  0.2997
    8TMC3    C214208   4.221   4.687  11.382 -0.4425  0.2394 -0.3697
    8TMC3    C314209   4.169   0.021  11.271  0.2499 -0.2466  0.0688
    8TMC3    C414210   4.236   0.174  11.485  0.5486  0.4115  0.5242
    8TMC3    C514211   4.169   0.235  11.384  0.3373 -0.3502 -0.8313
    8TMC3    C614212   4.142   0.155  11.273  0.0329 -0.0840 -0.0847
    8TMC3     C14213   4.203   4.714  11.626 -0.0889 -0.7081  0.6859
    8TMC3     O14214   4.195   0.075  11.712  0.2739  0.0252 -0.1068
    8TMC3     H14215   4.213   4.579  11.387  0.8828  0.3043  2.7584
    8TMC3    H114216   4.248   0.240  11.571 -0.8509 -0.3264  1.2743
    8TMC3    H214217   4.105   0.191  11.178  0.9818  0.0032 -0.4194
    8TMC3    C714218   4.042   0.293  11.436 -0.3708 -0.4589  0.7007
    8TMC3    C814219   4.056   4.681  11.211  0.1505 -0.1678 -0.6654
    8TMC3    O114220   4.046   0.346  11.545 -0.0631  0.1075  0.1800
    8TMC3    O214221   3.948   0.016  11.219  0.7414 -0.0448 -0.0105
    9MPD2     C14222   4.052   4.335  11.084  0.8007  1.1981 -0.3818
    9MPD2    C114223   4.000   4.455  11.133 -0.1953 -0.8536 -0.2583
    9MPD2    C214224   3.861   4.466  11.133 -0.9524  0.2689  0.8269
    9MPD2    C314225   3.784   4.364  11.068 -0.0630 -0.1212 -0.4341
    9MPD2    C414226   3.848   4.252  11.025 -0.3103  0.6837 -0.5819
    9MPD2    C514227   3.982   4.225  11.051 -0.0882  0.4113 -0.2055
    9MPD2     H14228   3.811   4.552  11.174 -0.0567  0.9063  0.5886
    9MPD2    H114229   3.789   4.166  10.993 -0.8522  1.1530 -0.8300
    9MPD2    H214230   4.160   4.322  11.093  0.8443  0.8166 -1.4295
    9MPD2    H314231   4.022   4.131  11.018  1.1704 -0.2528  3.1619
    9MPD2     N14232   3.640   4.369  11.055 -0.2531 -0.6145  0.0422
    9MPD2    H514233   3.595   4.307  10.988  0.3196 -0.0438 -0.8777
    9MPD2    N114234   4.092   4.554  11.171 -0.3509  0.7146 -0.2077
    9MPD2    H714235   4.190   4.531  11.168 -0.4447  0.1173  1.4470
    1MPD1     C14236   3.660   2.808  16.251  0.0734 -0.7463  0.0379
    1MPD1    C114237   3.624   2.679  16.295 -0.4126  0.4161  0.6165
    1MPD1    C214238   3.571   2.669  16.419  0.1605 -0.6241  0.6243
    1MPD1    C314239   3.546   2.780  16.492  0.3117  0.0840  0.0605
    1MPD1    C414240   3.567   2.905  16.441  0.1738  0.2545  0.1782
    1MPD1    C514241   3.615   2.924  16.316  0.2294 -0.0230  0.9432
    1MPD1     H14242   3.560   2.572  16.466 -0.9951 -0.0506  1.5339
    1MPD1    H114243   3.540   2.995  16.496 -1.1141 -1.0575  1.6838
    1MPD1    H214244   3.705   2.824  16.154  0.0517 -2.1763 -0.2011
    1MPD1    H314245   3.643   3.023  16.282 -1.8264 -0.2390 -1.3806
    1MPD1     N14246   3.503   2.769  16.627  0.1176 -0.2909 -0.7143
    1MPD1    H514247   3.485   2.858  16.672  1.4362 -0.1973 -0.3608
    1MPD1    N114248   3.676   2.563  16.233 -0.4287  0.3004 -0.4505
    1MPD1    H614249   3.617   2.484  16.258  0.6637 -0.0739  0.9560
    1MPD1    H714250   3.668   2.573  16.132 -0.9257  1.3520 -0.3033
    2MPD1     C14251   2.675   2.522  16.807 -0.0700 -0.0701 -0.1415
    2MPD1    C114252   2.748   2.570  16.700 -0.3066 -0.0138 -0.5212
    2MPD1    C214253   2.859   2.643  16.721 -0.1651 -0.1081 -0.6348
    2MPD1    C314254   2.916   2.648  16.852  0.5434  0.4724  0.7939
    2MPD1    C414255   2.832   2.609  16.958  0.0010 -0.6040 -0.1236
    2MPD1    C514256   2.720   2.538  16.934  0.4412 -0.5834  0.1792
    2MPD1     H14257   2.922   2.677  16.639 -1.2655  0.6362 -1.1729
    2MPD1    H114258   2.862   2.607  17.063  0.9310  1.3820 -0.3519
    2MPD1    H214259   2.583   2.467  16.794 -0.2409  0.0493  0.5667
    2MPD1    H314260   2.660   2.496  17.014  0.6858  1.2820  1.3426
    2MPD1     N14261   3.053   2.683  16.867 -0.1397 -0.4896  0.5884
    2MPD1    H514262   3.099   2.685  16.776 -1.7034  1.2043 -0.1654
    2MPD1    N114263   2.684   2.576  16.570  0.3487 -0.4931  0.2675
    2MPD1    H614264   2.753   2.589  16.496 -0.5170  0.0759 -0.4517
    2MPD1    H714265   2.634   2.489  16.554 -0.5124 -0.2696  1.6925
    3TCq2    C114266   3.115   2.682  16.990 -0.5254  0.0035 -0.1116
    3TCq2    O214267   3.082   2.654  17.103  0.0791 -0.2412  0.1367
    3TCq2    C214268   3.257   2.718  16.970  0.2046  0.6923  0.2186
    3TCq2    C314269   3.318   2.815  17.045  0.4991  0.5839 -0.6753
    3TCq2    C414270   3.444   2.864  17.007  0.0385 -0.3605  0.0752
    3TCq2    C514271   3.495   2.821  16.891  0.4853 -0.4708 -0.5537
    3TCq2    C614272   3.441   2.711  16.836  0.6981 -0.7952 -0.3293
    3TCq2    C714273   3.324   2.652  16.874 -0.1297  0.9290 -0.6702
    3TCq2    C814274   3.488   2.661  16.706  0.4759 -0.1402  0.1184
    3TCq2    O414275   3.501   2.543  16.688 -0.0804 -0.5309  0.2052
    3TCq2    C914276   3.525   2.964  17.077  0.1280 -0.2582  0.2697
    3TCq2    O514277   3.478   3.005  17.181  0.4133 -0.0376 -0.1197
    3TCq2    O614278   3.648   2.972  17.045  0.5914 -0.1341  0.4710
    3TCq2    H214279   3.269   2.859  17.132  0.8196 -1.2335  0.4083
    3TCq2    H314280   3.589   2.862  16.855 -0.1975  2.6319  1.2290
    3TCq2    H414281   3.276   2.585  16.803 -0.3711  0.9652 -0.5404
    1TCq1    O114282   1.114   1.698  13.254  0.3869 -0.2054  0.2542
    1TCq1    C114283   1.233   1.660  13.295 -0.4380 -0.0216  0.4414
    1TCq1    O214284   1.264   1.614  13.406 -0.2279  0.5692 -0.2165
    1TCq1    C214285   1.265   1.590  13.170 -0.0839  0.4351  0.1483
    1TCq1    C314286   1.169   1.499  13.125  0.0267 -0.1955  0.2097
    1TCq1    C414287   1.208   1.414  13.024 -1.1565  0.4309  0.5101
    1TCq1    C514288   1.340   1.396  12.994 -0.0343  0.5630 -0.7433
    1TCq1    C614289   1.438   1.484  13.048  0.0224  0.7858  0.1451
    1TCq1    C714290   1.398   1.578  13.138 -0.8156 -0.3766  0.2659
    1TCq1    C814291   1.578   1.462  13.021 -0.7138 -0.3026 -0.2794
    1TCq1    O414292   1.604   1.359  12.964  0.0808 -0.5010 -0.0678
    1TCq1    C914293   1.112   1.337  12.947 -0.3403 -0.4134  0.6987
    1TCq1    O514294   1.155   1.283  12.843  0.3175  0.4296 -0.4489
    1TCq1    O614295   0.989   1.368  12.963  0.2407 -0.5061  0.0008
    1TCq1    H114296   1.115   1.720  13.159  0.0247 -0.8656  0.0933
    1TCq1    H214297   1.064   1.502  13.155 -0.4119  1.3083 -1.4780
    1TCq1    H314298   1.363   1.329  12.912  1.7909 -0.1374  0.3520
    1TCq1    H414299   1.459   1.651  13.190  0.8552  0.5211 -2.9556
    2MPD2     C14300   1.872   1.463  12.984  0.2088 -0.0009 -0.0543
    2MPD2    C114301   1.799   1.560  13.051  0.0569 -0.0364 -0.0339
    2MPD2    C214302   1.862   1.668  13.115 -0.2088 -0.2298 -0.4366
    2MPD2    C314303   1.997   1.679  13.110  0.3330 -0.7262  0.1229
    2MPD2    C414304   2.070   1.584  13.039  0.3662 -0.3795  0.4337
    2MPD2    C514305   2.007   1.483  12.972  0.5156  0.0474 -0.6121
    2MPD2     H14306   1.797   1.737  13.168  0.7889 -0.3712  0.9653
    2MPD2    H114307   2.177   1.599  13.025  0.3882 -2.6214 -1.8105
    2MPD2    H214308   1.830   1.373  12.942  1.3493 -0.3653 -0.4247
    2MPD2    H314309   2.069   1.417  12.913  3.1307  1.7532  0.2279
    2MPD2     N14310   2.055   1.785  13.181  0.0492 -1.1263  0.8117
    2MPD2    H514311   2.000   1.841  13.246 -0.3521  0.3269 -0.8046
    2MPD2    N114312   1.657   1.560  13.065 -0.0669 -0.5604  0.1607
    2MPD2    H714313   1.611   1.624  13.130  1.1946  0.8556 -0.3361
    3TCq1    O114314   2.326   2.309  13.457  0.1709  0.6408  0.2302
    3TCq1    C114315   2.365   2.232  13.356 -0.3929  0.4790 -1.2300
    3TCq1    O214316   2.375   2.264  13.236  0.2585 -0.0457 -0.3549
    3TCq1    C214317   2.320   2.097  13.376  0.2430  0.0634  0.1767
    3TCq1    C314318   2.287   2.051  13.497 -0.0910 -0.0343 -0.7841
    3TCq1    C414319   2.211   1.939  13.511  0.4480 -0.5077 -0.1243
    3TCq1    C514320   2.163   1.874  13.405  0.3179 -0.6462 -0.9521
    3TCq1    C614321   2.207   1.922  13.283  0.6666  0.1839 -0.2267
    3TCq1    C714322   2.297   2.024  13.264 -0.2201  0.0518  0.0544
    3TCq1    C814323   2.185   1.829  13.171  0.3664 -0.5453  0.3189
    3TCq1    O414324   2.270   1.798  13.085  0.0171  0.0896 -0.5247
    3TCq1    C914325   2.187   1.884  13.638  0.2191  0.2287 -0.6311
    3TCq1    O514326   2.271   1.901  13.730  0.4430 -0.0672 -0.7090
    3TCq1    O614327   2.087   1.806  13.657 -0.0159 -0.2980 -0.0618
    3TCq1    H114328   2.336   2.262  13.543  2.5070  2.2003  0.8069
    3TCq1    H214329   2.312   2.099  13.591 -3.1160  1.9821 -1.0100
    3TCq1    H314330   2.114   1.779  13.421  1.7349 -1.5014 -1.6739
    3TCq1    H414331   2.349   2.045  13.171  0.4393  0.1048  0.4374
    1MPD2     C14332   1.043   3.180  14.940  0.4043  0.2929 -0.6172
    1MPD2    C114333   0.987   3.231  14.822  0.0766 -0.1635 -0.3479
    1MPD2    C214334   0.916   3.146  14.737 -0.0914  0.4384  0.2496
    1MPD2    C314335   0.900   3.015  14.770 -0.6101  1.2143  0.0612
    1MPD2    C414336   0.973   2.955  14.874 -0.4211  0.4005  0.1331
    1MPD2    C514337   1.040   3.041  14.955 -0.1092  0.0506  0.2792
    1MPD2     H14338   0.873   3.182  14.644 -0.9534 -1.3034 -0.0276
    1MPD2    H114339   0.957   2.853  14.906 -1.1829  0.8477  1.1893
    1MPD2    H214340   1.102   3.238  15.009  0.9878 -1.5313  0.4248
    1MPD2    H314341   1.093   2.992  15.036  0.9120 -1.0022 -1.0295
    1MPD2     N14342   0.820   2.919  14.698  0.2645 -0.3620 -0.0466
    1MPD2    H514343   0.826   2.821  14.724 -0.4547  0.0731  1.7678
    1MPD2    N114344   0.992   3.371  14.801  0.1062  0.0583  0.1841
    1MPD2    H714345   1.025   3.428  14.878 -0.9213  2.5726 -1.2231
    2TMC3    C114346   0.905   3.576  14.732  0.1121  0.3627  0.6428
    2TMC3    C214347   0.791   3.582  14.807  0.4423  0.8958  0.1189
    2TMC3    C314348   0.693   3.667  14.770  0.1490  0.9229 -0.3007
    2TMC3    C414349   0.918   3.651  14.621 -0.4358  0.2720 -0.0777
    2TMC3    C514350   0.821   3.748  14.591  0.1432 -0.1646 -0.2968
    2TMC3    C614351   0.701   3.736  14.655 -0.5731 -0.2939 -0.5653
    2TMC3     C14352   0.934   3.437  14.703 -0.1109 -0.9750 -0.4501
    2TMC3     O14353   0.868   3.399  14.607 -0.3529  0.1293  0.3342
    2TMC3     H14354   0.779   3.516  14.893 -0.2666 -0.0429 -0.6889
    2TMC3    H114355   1.010   3.642  14.565 -1.0738  1.6739 -1.3525
    2TMC3    H214356   0.621   3.806  14.632  0.5282  0.7351 -1.2222
    2TMC3    C714357   0.814   3.783  14.458 -0.2523  0.6098  0.0601
    2TMC3    C814358   0.559   3.613  14.782  0.8948 -0.3884  0.2302
    2TMC3    O114359   0.715   3.745  14.399  0.2482  0.2931  0.4151
    2TMC3    O214360   0.463   3.683  14.763 -0.8103 -0.2675 -0.2428
    3TCq1    O114361   1.695   4.455  13.769 -1.2564 -0.2604  0.1305
    3TCq1    C114362   1.562   4.425  13.748 -0.6422  0.4103  0.3617
    3TCq1    O214363   1.502   4.448  13.646  0.0087 -0.0424 -0.0392
    3TCq1    C214364   1.504   4.379  13.875  0.1908 -0.4791  0.9209
    3TCq1    C314365   1.550   4.442  13.987 -0.3073 -0.2537  0.0824
    3TCq1    C414366   1.486   4.403  14.103 -0.1518  0.4397 -0.6728
    3TCq1    C514367   1.389   4.303  14.098 -0.7536  0.0756  0.6208
    3TCq1    C614368   1.343   4.252  13.980  0.6213  0.0199 -0.7730
    3TCq1    C714369   1.393   4.299  13.863  0.2135  0.2419 -0.3534
    3TCq1    C814370   1.239   4.149  13.983  0.7028 -0.3438 -0.2278
    3TCq1    O414371   1.192   4.130  13.871 -0.3820  0.1708  0.1032
    3TCq1    C914372   1.536   4.468  14.229 -0.4913  1.6179 -0.5354
    3TCq1    O514373   1.474   4.442  14.336  0.1158  0.1864  0.6201
    3TCq1    O614374   1.647   4.525  14.226  0.1565  0.1277  0.5180
    3TCq1    H114375   1.724   4.405  13.848  0.5814 -1.1088 -1.0779
    3TCq1    H214376   1.630   4.514  13.999 -0.7312  0.1568  0.4203
    3TCq1    H314377   1.361   4.269  14.197 -0.0664 -2.5972 -0.0942
    3TCq1    H414378   1.363   4.257  13.768  0.2045 -2.8670  0.9885
    4MPD2     C14379   0.994   3.985  14.023  0.5231 -0.9965  0.1925
    4MPD2    C114380   1.084   4.011  14.125 -0.7032  0.0379 -0.2715
    4MPD2    C214381   1.053   3.971  14.249  0.1816 -0.8561 -0.2322
    4MPD2    C314382   0.944   3.891  14.279  0.3428 -0.3973  0.1918
    4MPD2    C414383   0.859   3.865  14.178 -0.2871 -0.0629 -0.4267
    4MPD2    C514384   0.882   3.913  14.049 -0.5183  0.0010 -0.2658
    4MPD2     H14385   1.113   3.988  14.338  0.9387 -0.5866 -0.7984
    4MPD2    H114386   0.769   3.806  14.193 -1.1092  0.8006 -1.8592
    4MPD2    H214387   0.990   4.021  13.921  1.6654  1.0638  0.8713
    4MPD2    H314388   0.820   3.900  13.961  0.4030 -1.7339 -0.6536
    4MPD2     N14389   0.925   3.853  14.421  0.1307  0.9220 -0.2182
    4MPD2    H514390   0.994   3.879  14.491  1.9060 -1.0147 -1.2767
    4MPD2    N114391   1.199   4.095  14.107  0.5900 -0.5097 -0.2543
    4MPD2    H714392   1.262   4.111  14.185 -1.4777  1.3205  1.0227
    5TMC2    C114393   0.400   2.866  14.513 -0.4158  0.2139  0.0707
    5TMC2    C214394   0.386   2.757  14.585 -0.6337  0.3510 -0.2577
    5TMC2    C314395   0.494   2.692  14.644  1.0129 -0.2767 -0.1373
    5TMC2    C414396   0.531   2.909  14.484  0.5442 -0.2604  0.1067
    5TMC2    C514397   0.634   2.856  14.556  0.2215 -0.7153  0.8205
    5TMC2    C614398   0.618   2.750  14.648 -1.2766  0.6443 -0.1507
    5TMC2     C14399   0.324   2.964  14.575 -0.0642  0.2262  0.1572
    5TMC2     O14400   0.203   2.951  14.584  0.3646  0.0734  0.1459
    5TMC2     H14401   0.285   2.718  14.591 -1.0107  1.4375  0.4631
    5TMC2    H114402   0.547   2.989  14.412  0.8369  0.9489  1.4925
    5TMC2    H214403   0.694   2.688  14.694 -2.1892 -0.5941 -0.2947
    5TMC2    C714404   0.731   2.958  14.598 -0.5362 -0.2352 -0.4975
    5TMC2    C814405   0.453   2.618  14.756  0.3038 -0.3048 -0.3655
    5TMC2    O114406   0.691   3.075  14.575 -0.0486 -0.0735 -0.0590
    5TMC2    O214407   0.509   2.615  14.865 -0.2700 -0.1698  0.2320
    5TMC2    O514408   0.364   2.522  14.712  0.2447  0.5900  0.1733
    5TMC2    H514409   0.358   2.511  14.615  0.0306 -2.4963  0.5296
    6MPD2     C14410   0.320   3.422  14.810 -0.5948  0.1975  0.3740
    6MPD2    C114411   0.449   3.391  14.776 -0.0751  0.3837  0.4371
    6MPD2    C214412   0.468   3.269  14.725  0.3019 -0.0392 -0.2760
    6MPD2    C314413   0.369   3.177  14.689  0.2953  0.4939 -0.3888
    6MPD2    C414414   0.239   3.212  14.706 -0.3738 -0.2404 -0.3501
    6MPD2    C514415   0.219   3.335  14.768 -0.4914 -0.2009  0.3044
    6MPD2     H14416   0.570   3.239  14.704 -0.3450 -2.2591 -0.2151
    6MPD2    H114417   0.159   3.147  14.674 -0.4824 -0.2714 -0.0213
    6MPD2    H214418   0.300   3.520  14.851  0.7902  0.9915 -0.8598
    6MPD2    H314419   0.121   3.369  14.800  1.1651  1.4181  3.6743
    6MPD2     N14420   0.404   3.065  14.626 -0.4275 -0.9794 -0.3152
    6MPD2    H514421   0.502   3.054  14.600  0.0981  0.2040  1.1784
    6MPD2    N114422   0.563   3.474  14.785  0.0369  0.6495 -0.3514
    6MPD2    H714423   0.648   3.422  14.769 -0.0534  0.3131  0.2641
  945NH3     N114424   0.430   3.856  13.912  0.1659  0.3890 -0.2290
  945NH3     H214425   0.496   3.781  13.894  0.5241  1.1312 -1.9729
  945NH3     H314426   0.495   3.927  13.947 -0.8619  1.2652 -0.1089
  945NH3     H414427   0.399   3.827  14.004  0.2087 -2.5138 -1.1554
  946SOD     NA14428   3.536   1.094  13.054  0.2676  0.9047  0.4846
  947SOD     NA14429   2.109   4.067  16.831  0.0905 -0.7265 -0.1340
  948SOD     NA14430   3.596   2.617  14.828 -0.1700 -0.2741 -0.4978
  949SOD     NA14431   0.225   1.858   1.659  0.0375 -0.4157 -0.0568
  950SOD     NA14432   3.728   0.221   0.234  0.3326  0.0416 -0.2740
  951SOD     NA14433   2.328   0.169  16.689  0.2542  0.0288 -0.3066
  952SOD     NA14434   0.527   2.757   9.824 -0.1223  0.1170  0.0540
  953SOD     NA14435   0.351   2.362   6.650  0.1179 -0.3117 -0.4551
  954SOD     NA14436   1.079   2.205   5.695  0.0661 -0.3123 -0.2009
  955SOD     NA14437   2.650   1.976  14.312 -0.1801 -0.1747 -0.0850
  956SOD     NA14438   2.040   0.080   1.046  0.2138 -0.1116  0.2696
  957SOD     NA14439   1.446   2.123  11.614  0.0462  0.0701 -0.3562
  958SOD     NA14440   3.317   0.161   2.443 -0.0464 -0.0339 -0.1657
  959SOD     NA14441   3.186   4.133   8.125  0.1046 -0.0399 -0.1509
  960SOD     NA14442   1.215   0.934  11.631  0.0245  0.0392 -0.1407
  961SOD     NA14443   1.114   1.701  10.392  0.4220  0.7971 -0.3555
  962SOD     NA14444   1.564   3.060  11.504 -0.0741 -0.1862 -0.1962
  963SOD     NA14445   4.379   2.385   9.071 -0.1894 -0.3015  0.1017
  964SOD     NA14446   2.602   3.098  13.462 -0.1504  0.1635  0.9685
  965SOD     NA14447   1.587   1.204  16.987  0.1171  0.2574 -0.3922
  966SOD     NA14448   0.172   1.230  14.986 -0.1230 -0.0306 -0.7827
  967SOD     NA14449   3.283   1.063   3.319 -0.1391 -0.3054  0.3877
  968SOD     NA14450   1.605   2.018  10.439 -0.3508  0.4006 -0.1351
  969SOD     NA14451   1.501   3.523   1.903 -0.2500 -0.0604  0.4219
  970SOD     NA14452   1.782   1.677  12.206  0.5466  0.2313 -0.1137
  971SOD     NA14453   3.991   1.785  10.654 -0.0670 -0.2125 -0.3018
  972SOD     NA14454   3.089   0.985  16.795 -0.1265 -0.0670 -0.6422
  973SOD     NA14455   2.343   3.666  16.490  0.1198  0.2016 -0.0204
  974SOD     NA14456   3.861   0.456  12.136  0.1681  0.3346  0.1821
  975SOD     NA14457   0.792   3.356  16.848 -0.1065 -0.2441 -0.1515
  976SOD     NA14458   2.731   2.785  11.822  0.0108 -0.1244 -0.0997
  977SOD     NA14459   0.923   1.350  12.752  0.4618  0.1285 -0.1963
  978SOD     NA14460   0.775   1.062   1.057  0.1762  0.1228 -0.4522
  979SOD     NA14461   3.517   0.417  14.868 -0.7285  0.1061 -0.3803
  980SOD     NA14462   2.221   3.162  14.023  0.0762 -0.6151 -0.3583
  981SOD     NA14463   2.732   3.951  10.956  0.2293 -0.0181 -0.0888
  982SOD     NA14464   0.734   2.932   9.608 -0.0556  0.1801  0.7349
  983SOD     NA14465   2.293   2.009  13.932  0.4154  0.0932  0.0125
  984SOD     NA14466   3.128   1.226  16.154  0.4651 -0.3525  0.0370
  985SOD     NA14467   1.695   4.581  14.435  0.3084 -0.0540  0.5770
  986SOD     NA14468   2.470   1.798  14.111 -0.1622 -0.3334  0.5651
  987SOD     NA14469   1.080   1.129   9.146 -0.1406  0.0124  0.0707
  988SOD     NA14470   3.996   4.085   0.831  0.0355  0.0371 -0.2463
  989SOD     NA14471   2.037   1.681   2.077  0.2667 -0.7140 -0.2691
  990SOD     NA14472   2.044   1.418   9.772 -0.1724 -0.0117 -0.0824
  991SOD     NA14473   3.318   0.409   0.099 -0.4268 -0.0732  0.2800
  992SOD     NA14474   1.032   2.445  14.919  0.4257 -0.3162  0.2534
  993SOD     NA14475   0.164   2.193  10.068  0.1536 -0.0717  0.2580
  994SOD     NA14476   2.051   1.716  12.378  0.8097  0.1868 -0.0386
  995SOD     NA14477   3.603   3.015  14.904 -0.7333  0.2844  0.4327
  996SOD     NA14478   1.805   2.243  11.581 -0.2404 -0.4809 -0.0759
  997SOD     NA14479   2.702   2.487  11.798  0.0825 -0.2880 -0.1265
  998SOD     NA14480   4.721   0.510   1.203  0.3321  0.6939  0.1665
  999SOD     NA14481   0.117   2.951   8.114  0.0912  0.2375 -0.2393
 1000SOD     NA14482   1.016   1.401  10.353 -0.3037  0.2178 -0.1032
 1001SOD     NA14483   0.730   1.107  12.849 -0.1813  0.1287 -0.2483
 1002SOD     NA14484   4.050   2.977  13.063  0.0523 -0.2580 -0.0265
 1003SOD     NA14485   4.029   0.752   1.700  0.1634  0.8163 -0.4936
 1004SOD     NA14486   1.460   3.187  11.773 -0.3878  0.2013  0.5868
 1005SOD     NA14487   4.271   2.436  13.156  0.0143 -0.2340 -0.1560
 1006SOD     NA14488   2.556   0.328   6.425 -0.4378 -0.3999 -0.2041
 1007SOD     NA14489   2.604   3.894   4.504 -0.0354  0.0746 -0.3830
 1008SOD     NA14490   1.107   3.116  14.394 -0.5211  0.1830 -0.0257
 1009SOD     NA14491   3.548   0.086   8.255 -0.0228 -0.0775  0.4436
 1010SOD     NA14492   2.454   1.494   3.008 -0.2120 -0.1725 -0.2065
 1011SOD     NA14493   1.011   0.382  10.642 -0.1087  0.1993  0.0296
 1012SOL     OW14494   1.854   4.613  12.194  0.3273 -0.0989 -0.6261
 1012SOL    HW114495   1.892   4.528  12.174  1.3275  0.3716 -0.7356
 1012SOL    HW214496   1.829   4.645  12.107  0.1598  3.2105  0.6242
 1013SOL     OW14497   0.258   1.192   4.898  0.3812 -0.3781 -0.0022
 1013SOL    HW114498   0.252   1.244   4.978 -1.6070  0.0867 -0.4562
 1013SOL    HW214499   0.235   1.255   4.830 -0.1022  1.5094  1.8978
 1014SOL     OW14500   2.526   4.280   7.780 -0.3658  0.1358  0.0470
 1014SOL    HW114501   2.443   4.318   7.749  1.0852  1.2853 -2.4879
 1014SOL    HW214502   2.496   4.198   7.819  1.7077 -0.1396  1.0514
 1015SOL     OW14503   3.809   0.366  11.947 -0.5515  0.0201  0.0769
 1015SOL    HW114504   3.867   0.315  11.890  0.1537 -1.3961  2.0744
 1015SOL    HW214505   3.798   0.439  11.886 -0.4475 -0.1079 -0.0951
 1016SOL     OW14506   2.655   3.003  10.543 -0.5828  0.2195 -0.2218
 1016SOL    HW114507   2.701   2.993  10.460 -0.8687  0.9071 -0.4600
 1016SOL    HW214508   2.676   3.094  10.563  1.0079 -0.7303  2.4574
 1017SOL     OW14509   2.910   3.018   7.575  0.0130 -0.4916  0.9428
 1017SOL    HW114510   2.895   3.074   7.651 -2.3005 -2.7545  2.1396
 1017SOL    HW214511   2.941   3.074   7.504 -1.8921 -3.2268 -2.0353
 1018SOL     OW14512   4.567   3.157  17.026  0.0214  0.1374 -0.5083
 1018SOL    HW114513   4.651   3.140  16.984  1.1829  1.8005  1.1801
 1018SOL    HW214514   4.593   3.172  17.116  1.4705  2.8553 -1.3781
 1019SOL     OW14515   2.625   1.546   1.827 -0.6236  0.1460 -0.2618
 1019SOL    HW114516   2.602   1.594   1.748  0.4585 -0.2461 -0.8145
 1019SOL    HW214517   2.575   1.466   1.811 -0.7026  0.0077  0.6465
 1020SOL     OW14518   2.001   3.926  15.824 -0.2696 -0.1334 -0.4021
 1020SOL    HW114519   1.914   3.942  15.789 -0.0068  2.7375  0.2480
 1020SOL    HW214520   1.999   4.015  15.861  0.2074 -0.3517  0.1495
 1021SOL     OW14521   2.332   1.625  17.594 -0.8391 -0.0854  0.0451
 1021SOL    HW114522   2.391   1.698  17.575 -3.0913  1.8769  0.6661
 1021SOL    HW214523   2.271   1.655  17.527  0.1463  0.4691 -0.5973
 1022SOL     OW14524   1.504   1.895  11.577  0.1947 -0.3914 -0.2929
 1022SOL    HW114525   1.435   1.829  11.572  0.9106 -0.9860 -2.3689
 1022SOL    HW214526   1.583   1.845  11.555  0.2812 -0.3988  0.0350
 1023SOL     OW14527   1.994   3.726   3.770  0.2551 -0.4952 -0.4095
 1023SOL    HW114528   1.901   3.727   3.747  0.2277 -2.6118 -0.4372
 1023SOL    HW214529   1.996   3.715   3.865 -0.2707  1.6480 -0.1556
 1024SOL     OW14530   0.697   1.154   7.280  0.2209  0.2028  0.0444
 1024SOL    HW114531   0.664   1.091   7.344 -0.1724  0.3043 -0.0589
 1024SOL    HW214532   0.681   1.239   7.321 -2.6693  0.9100 -2.5009
 1025SOL     OW14533   2.637   0.978   3.124 -0.2088  0.3162  0.1612
 1025SOL    HW114534   2.642   0.919   3.199  0.3866 -0.0495 -0.1664
 1025SOL    HW214535   2.711   0.952   3.070 -0.5972 -0.0435 -0.2021
 1026SOL     OW14536   1.166   2.389  17.669 -0.1205 -0.1447  0.2937
 1026SOL    HW114537   1.126   2.471  17.640 -0.2655  0.8218  3.2752
 1026SOL    HW214538   1.257   2.392  17.639 -1.1158  1.0981 -2.5550
 1027SOL     OW14539   0.327   3.423  16.817 -0.2395  0.0643  0.7203
 1027SOL    HW114540   0.276   3.413  16.736  0.6069 -0.9286  0.3108
 1027SOL    HW214541   0.374   3.340  16.821  0.7260  0.5542 -0.4220
 1028SOL     OW14542   4.210   2.571   2.768  0.2437  0.0111 -0.2736
 1028SOL    HW114543   4.143   2.507   2.793  0.3880 -0.3858 -0.9131
 1028SOL    HW214544   4.267   2.518   2.713 -0.9425 -1.8118  0.2464
 1029SOL     OW14545   0.294   3.802  14.600 -0.5544  0.3026 -1.1191
 1029SOL    HW114546   0.318   3.794  14.508 -0.3705 -3.4946 -0.7723
 1029SOL    HW214547   0.358   3.751  14.649 -0.7717  1.8055  0.7468
 1030SOL     OW14548   3.291   0.895   5.855 -0.4670 -0.1936 -0.1941
 1030SOL    HW114549   3.367   0.941   5.890 -0.6654 -0.2565  0.3214
 1030SOL    HW214550   3.323   0.856   5.774  0.9139  0.2587  0.1284
 1031SOL     OW14551   0.209   1.593   4.043  0.5017  0.3748 -0.0251
 1031SOL    HW114552   0.170   1.507   4.057  3.7376 -0.8264  1.5998
 1031SOL    HW214553   0.167   1.618   3.961 -0.1694  2.2496  0.8831
 1032SOL     OW14554   4.271   1.959   9.183 -0.8309  0.5191  0.3712
 1032SOL    HW114555   4.193   1.936   9.133 -1.0552  0.5656  0.6987
 1032SOL    HW214556   4.289   1.868   9.204 -2.0335  0.0531 -0.6428
 1033SOL     OW14557   0.810   2.040  10.905 -0.3259 -0.4157  0.2089
 1033SOL    HW114558   0.888   2.003  10.946  0.1687  0.8180  0.3798
 1033SOL    HW214559   0.779   1.977  10.839 -2.0562  2.3177 -1.5751
 1034SOL     OW14560   1.148   4.712   4.733  0.8598 -0.5231  0.5659
 1034SOL    HW114561   1.221   0.037   4.694  2.3354 -3.3023 -0.0904
 1034SOL    HW214562   1.184   4.631   4.769 -0.7488 -1.2068  0.6500
 1035SOL     OW14563   0.012   2.154   2.453  0.5872 -0.5652  0.6035
 1035SOL    HW114564   0.049   2.102   2.381 -1.0570 -1.3295  0.3178
 1035SOL    HW214565   0.004   2.241   2.414  1.7885 -0.8433 -0.2593
 1036SOL     OW14566   0.371   1.621   6.145 -0.0269 -0.3690  0.5279
 1036SOL    HW114567   0.318   1.696   6.120  0.5582 -0.2376 -0.3062
 1036SOL    HW214568   0.367   1.623   6.241 -0.2100 -0.5656  0.5235
 1037SOL     OW14569   3.974   3.759   3.040 -0.3317 -0.5435 -0.6809
 1037SOL    HW114570   3.934   3.841   3.011  0.2603 -0.5448 -1.4953
 1037SOL    HW214571   3.894   3.722   3.080  0.4291 -0.2466  1.1028
 1038SOL     OW14572   0.732   2.845   7.908  0.6167 -0.5520 -0.4779
 1038SOL    HW114573   0.736   2.921   7.850  1.6963 -0.3136 -0.0767
 1038SOL    HW214574   0.787   2.780   7.865  1.8371 -0.0786  0.3712
 1039SOL     OW14575   0.161   0.589   7.315 -0.0896 -0.3997  0.1655
 1039SOL    HW114576   0.220   0.586   7.239  1.4189  1.3997  1.2775
 1039SOL    HW214577   0.138   0.682   7.314  1.9212  0.1022  0.8180
 1040SOL     OW14578   2.343   2.632   6.976  0.7526  0.2118  0.2199
 1040SOL    HW114579   2.315   2.723   6.991 -1.5996 -0.8036  1.9436
 1040SOL    HW214580   2.327   2.596   7.063 -0.0111  0.0955  0.0268
 1041SOL     OW14581   4.431   2.463  12.356  0.8406  0.0545 -0.3485
 1041SOL    HW114582   4.399   2.409  12.283 -1.4949 -1.6810  1.9592
 1041SOL    HW214583   4.447   2.549  12.318  1.2350  0.0923 -0.0924
 1042SOL     OW14584   3.273   0.541   3.734  0.3830 -0.0266 -0.0297
 1042SOL    HW114585   3.187   0.509   3.708  0.4535  0.2242 -0.5789
 1042SOL    HW214586   3.324   0.461   3.718  1.0239  0.1937  0.9271
 1043SOL     OW14587   0.430   4.361   7.543 -0.6262 -0.3984 -0.2651
 1043SOL    HW114588   0.426   4.265   7.548 -1.4983 -0.3350  0.1681
 1043SOL    HW214589   0.411   4.377   7.635  0.6790 -1.9351  0.2720
 1044SOL     OW14590   2.466   3.170   5.893  0.1695  0.4304  0.6303
 1044SOL    HW114591   2.550   3.138   5.861 -0.0431 -0.7649  1.2667
 1044SOL    HW214592   2.491   3.219   5.972  1.3008  0.9503 -0.0595
 1045SOL     OW14593   4.417   1.311   7.087 -0.2058  0.4086  0.1187
 1045SOL    HW114594   4.356   1.325   7.159 -1.0382 -2.4247 -0.0174
 1045SOL    HW214595   4.358   1.355   7.026 -0.8086 -0.1841  0.2730
 1046SOL     OW14596   2.714   4.578   8.605  0.1731 -0.2133  0.2699
 1046SOL    HW114597   2.798   4.532   8.616 -1.3082 -2.7820  1.0311
 1046SOL    HW214598   2.704   4.648   8.670  2.9925  1.1364 -0.7630
 1047SOL     OW14599   0.540   1.115  12.116  0.6856 -0.7987 -0.1714
 1047SOL    HW114600   0.530   1.189  12.056 -0.4338 -0.7426  0.0882
 1047SOL    HW214601   0.622   1.139  12.160 -1.0456 -1.0894  3.2098
 1048SOL     OW14602   0.080   3.732   8.718 -1.0890  0.3089 -0.2407
 1048SOL    HW114603   0.160   3.718   8.770 -1.0984  0.1953 -0.2577
 1048SOL    HW214604   0.081   3.827   8.706 -3.4938  0.0440 -2.3440
 1049SOL     OW14605   0.424   0.653   9.048 -0.2890 -0.1106 -0.0978
 1049SOL    HW114606   0.374   0.664   8.968  1.1661 -2.1213 -1.2757
 1049SOL    HW214607   0.443   0.559   9.050  0.6502  0.0631 -1.2283
 1050SOL     OW14608   4.379   2.670   5.901 -0.3852  0.1578  0.5652
 1050SOL    HW114609   4.344   2.729   5.835 -0.2065 -0.7502 -0.3384
 1050SOL    HW214610   4.470   2.657   5.875 -0.8432  0.7548 -1.3372
 1051SOL     OW14611   1.907   2.802   3.799 -0.4243 -0.5329  0.4479
 1051SOL    HW114612   1.913   2.786   3.894 -1.7668 -0.0479  0.6129
 1051SOL    HW214613   1.813   2.814   3.783 -0.9482 -2.2838  2.2079
 1052SOL     OW14614   3.486   2.429   8.181 -0.1594  1.7150 -0.2869
 1052SOL    HW114615   3.395   2.458   8.169 -1.0165 -0.6008  0.5408
 1052SOL    HW214616   3.529   2.513   8.197  0.8113  1.0960  0.3250
 1053SOL     OW14617   3.785   1.934   7.762 -0.4741 -0.4601  0.3657
 1053SOL    HW114618   3.790   1.875   7.837 -2.7829 -0.0928  0.8012
 1053SOL    HW214619   3.757   1.877   7.690 -0.1095 -1.1610  0.7823
 1054SOL     OW14620   2.167   1.877   8.947  0.2824  0.2523 -0.4520
 1054SOL    HW114621   2.154   1.885   8.852  1.6078 -1.0971 -0.7589
 1054SOL    HW214622   2.191   1.785   8.962  1.0859  0.1950 -2.0574
 1055SOL     OW14623   3.773   2.757  17.142 -0.3458 -0.0457  0.9320
 1055SOL    HW114624   3.708   2.823  17.119 -1.4926 -2.2557 -2.3121
 1055SOL    HW214625   3.708   2.699  17.182  0.6858 -2.4946 -0.9211
 1056SOL     OW14626   1.668   2.701   4.114 -0.0609 -0.4176  0.0532
 1056SOL    HW114627   1.641   2.786   4.079  2.2004  0.1407 -0.3128
 1056SOL    HW214628   1.698   2.720   4.203  1.4577 -0.9763 -0.3380
 1057SOL     OW14629   0.390   3.001   8.408 -0.3846 -0.0240 -0.3981
 1057SOL    HW114630   0.303   3.000   8.368 -0.6934 -0.9636  0.2785
 1057SOL    HW214631   0.437   3.069   8.360  0.4331 -1.3748 -1.4991
 1058SOL     OW14632   4.642   3.724  11.582  0.1752  0.4050 -0.1252
 1058SOL    HW114633   4.598   3.682  11.656  1.7925  1.1985  1.2886
 1058SOL    HW214634   4.584   3.790  11.543 -0.9722 -0.6113 -0.1226
 1059SOL     OW14635   2.833   1.708  13.442 -0.4178  0.3676  0.1663
 1059SOL    HW114636   2.771   1.780  13.453  0.0205  0.9611 -1.2528
 1059SOL    HW214637   2.788   1.627  13.463  2.3497 -1.3017 -0.3996
 1060SOL     OW14638   0.277   4.144   4.358 -0.4306  0.5660  1.0252
 1060SOL    HW114639   0.200   4.167   4.408 -0.1721 -1.4487  2.3400
 1060SOL    HW214640   0.296   4.071   4.417  0.1031 -0.2314 -0.1092
 1061SOL     OW14641   3.465   0.333   3.655  0.1023  0.2951 -0.1903
 1061SOL    HW114642   3.465   0.386   3.575  1.2871  2.5370  1.2869
 1061SOL    HW214643   3.481   0.249   3.612 -1.4189  0.5157 -1.2229
 1062SOL     OW14644   2.999   4.637   7.659 -0.0754  0.4084 -0.3330
 1062SOL    HW114645   2.968   4.559   7.613  0.4758 -0.1990  0.3262
 1062SOL    HW214646   2.948   4.614   7.737  0.4148  0.8139  0.1092
 1063SOL     OW14647   3.241   4.563  17.310 -0.3823  0.2685 -0.1925
 1063SOL    HW114648   3.302   4.493  17.286 -1.1804  0.3859 -2.5531
 1063SOL    HW214649   3.213   4.534  17.396  2.0859 -0.7254  0.2771
 1064SOL     OW14650   2.636   3.688  11.399 -0.3643  0.5209  0.2154
 1064SOL    HW114651   2.571   3.710  11.466 -0.3044  0.7896  0.1859
 1064SOL    HW214652   2.599   3.748  11.334 -0.4269  1.4841  1.1471
 1065SOL     OW14653   1.550   0.887   6.620 -0.1764 -0.1998  0.0512
 1065SOL    HW114654   1.638   0.925   6.623  0.1364 -0.8334 -1.2017
 1065SOL    HW214655   1.503   0.908   6.700 -0.3855  1.7938 -0.5785
 1066SOL     OW14656   0.267   3.515   5.208  0.5136 -0.6281  0.5446
 1066SOL    HW114657   0.262   3.450   5.138 -0.8842 -0.9668  0.9586
 1066SOL    HW214658   0.191   3.571   5.192  0.3366 -1.2762 -0.8279
 1067SOL     OW14659   0.505   4.288   1.683  0.2292  0.1724 -0.6099
 1067SOL    HW114660   0.452   4.312   1.759  4.2916 -0.1363  2.2896
 1067SOL    HW214661   0.543   4.207   1.718 -0.8286  0.5587  1.4691
 1068SOL     OW14662   2.959   2.978   2.017 -0.8146  0.4589 -0.3709
 1068SOL    HW114663   2.974   2.883   2.020  1.5443  0.8553  0.9170
 1068SOL    HW214664   2.878   2.993   1.968 -1.0408  0.7794  0.1067
 1069SOL     OW14665   1.458   0.862  17.228  0.1304 -0.1875 -0.3974
 1069SOL    HW114666   1.396   0.901  17.291  0.2227 -1.0266  0.2157
 1069SOL    HW214667   1.501   0.788  17.270 -0.3152 -0.4463 -0.3907
 1070SOL     OW14668   2.121   2.443   6.379 -0.0886 -0.0453  0.6412
 1070SOL    HW114669   2.212   2.427   6.356 -0.2601  0.5716 -0.4555
 1070SOL    HW214670   2.131   2.530   6.418 -2.0859  1.0073 -1.1913
 1071SOL     OW14671   0.621   2.335   7.980  0.0414  0.3224  0.1965
 1071SOL    HW114672   0.707   2.372   7.960 -0.0559  0.6403  0.3685
 1071SOL    HW214673   0.642   2.253   8.025  0.5601 -0.4489 -1.4542
 1072SOL     OW14674   2.957   4.625  11.979 -0.3933 -0.0125 -0.4990
 1072SOL    HW114675   2.974   4.695  12.042  1.3552 -0.7394 -0.1447
 1072SOL    HW214676   3.046   4.591  11.964 -0.4873 -1.0707  1.3310
 1073SOL     OW14677   2.026   0.004   7.445  0.2281  0.8715 -0.4038
 1073SOL    HW114678   1.988   4.689   7.366 -1.1392 -1.6707  1.4644
 1073SOL    HW214679   2.025   0.099   7.437  0.6780  0.8537 -0.6429
 1074SOL     OW14680   3.853   1.824   3.419 -0.1826 -0.3863 -0.1134
 1074SOL    HW114681   3.879   1.807   3.329 -0.1930  1.0155 -0.3789
 1074SOL    HW214682   3.813   1.741   3.446  1.0850 -1.4523 -1.5392
 1075SOL     OW14683   0.268   1.160   8.883  0.6311  0.2579 -0.0943
 1075SOL    HW114684   0.266   1.178   8.977 -3.0159 -0.8101  0.0603
 1075SOL    HW214685   0.173   1.153   8.872  1.0146 -1.5636 -2.1485
 1076SOL     OW14686   4.009   4.174  14.937  0.3609  0.1967  0.1053
 1076SOL    HW114687   4.103   4.166  14.950  0.3848 -0.5986 -0.4975
 1076SOL    HW214688   3.970   4.216  15.014 -0.0343  1.1326 -0.6210
 1077SOL     OW14689   3.323   3.877   4.132 -0.2574  0.4941 -0.3391
 1077SOL    HW114690   3.269   3.956   4.131 -1.2111 -0.1633 -2.0634
 1077SOL    HW214691   3.302   3.822   4.056  2.4007 -2.4762  1.0808
 1078SOL     OW14692   2.749   1.269   7.755  0.1396 -0.2170 -0.5624
 1078SOL    HW114693   2.769   1.300   7.843 -0.3757 -2.4502  0.3560
 1078SOL    HW214694   2.731   1.353   7.714  0.0345  0.5762  1.1410
 1079SOL     OW14695   2.088   0.308   5.892  0.2998  0.2161  0.2843
 1079SOL    HW114696   2.032   0.250   5.943  2.7518 -0.7837  1.8640
 1079SOL    HW214697   2.035   0.315   5.813 -0.1556  0.5895  0.6268
 1080SOL     OW14698   0.643   2.049   3.710 -0.5263 -0.1654 -0.2678
 1080SOL    HW114699   0.732   2.062   3.743 -0.1009 -4.2396  0.1764
 1080SOL    HW214700   0.630   2.121   3.648  1.7908  0.5637  0.1053
 1081SOL     OW14701   3.184   1.623   7.245  0.0994 -0.4259 -0.9588
 1081SOL    HW114702   3.262   1.621   7.189 -0.9754 -0.5872 -2.4290
 1081SOL    HW214703   3.133   1.542   7.239  1.4929 -1.5219  1.7256
 1082SOL     OW14704   1.184   3.850   3.044 -0.2264 -0.4187  0.4258
 1082SOL    HW114705   1.122   3.886   3.107 -1.2698  0.6548 -1.2066
 1082SOL    HW214706   1.145   3.769   3.011  0.7976 -1.4237  1.6733
 1083SOL     OW14707   0.490   2.780   8.499  0.2594  0.1903  0.1717
 1083SOL    HW114708   0.415   2.733   8.535 -0.0840  0.4921 -0.1541
 1083SOL    HW214709   0.444   2.860   8.473 -2.0208 -1.3060 -0.3252
 1084SOL     OW14710   2.507   4.237   4.967 -0.4946 -0.0765  0.0431
 1084SOL    HW114711   2.461   4.307   4.920  0.1439  0.2288 -0.1276
 1084SOL    HW214712   2.585   4.283   4.997  0.2591 -1.0162 -0.4694
 1085SOL     OW14713   0.300   4.587  11.269  0.2332  0.0170  0.1760
 1085SOL    HW114714   0.382   4.563  11.227 -0.0851  0.2147 -0.5716
 1085SOL    HW214715   0.332   4.629  11.348  1.3236 -1.1991  0.3757
 1086SOL     OW14716   1.448   0.362   5.092 -0.4425 -0.0357  0.2894
 1086SOL    HW114717   1.379   0.389   5.031 -0.3726  2.2165  1.2126
 1086SOL    HW214718   1.391   0.340   5.166  1.9590 -1.4198  1.7408
 1087SOL     OW14719   0.288   4.161  13.692  0.1721 -0.3037  0.3616
 1087SOL    HW114720   0.370   4.110  13.692  0.2086 -0.2442  1.2529
 1087SOL    HW214721   0.311   4.232  13.751 -0.9648 -0.6372  1.2095
 1088SOL     OW14722   0.075   3.490  11.571  0.0705  0.0907 -0.1477
 1088SOL    HW114723   0.105   3.514  11.658  0.5799 -0.2301 -0.2383
 1088SOL    HW214724   4.721   3.546  11.557  0.7648  1.7810  2.9486
 1089SOL     OW14725   0.352   2.852   8.185 -0.2527  0.0937  0.0572
 1089SOL    HW114726   0.399   2.830   8.105  0.1028 -0.7466  0.5023
 1089SOL    HW214727   0.421   2.844   8.250  1.6626  1.0269 -1.8608
 1090SOL     OW14728   4.572   0.585   2.576  0.4968 -0.1434 -0.1934
 1090SOL    HW114729   4.583   0.675   2.545 -2.4401 -0.0188 -0.9249
 1090SOL    HW214730   4.501   0.550   2.522  0.0199 -0.5385  0.6949
 1091SOL     OW14731   0.052   3.906   9.134  0.0274  0.3651 -0.3666
 1091SOL    HW114732   0.135   3.951   9.116  1.1146 -1.1581  0.8487
 1091SOL    HW214733   0.044   3.916   9.229  1.6104  5.7229 -0.7905
 1092SOL     OW14734   1.269   3.634  13.149 -0.8258 -0.9662  0.0976
 1092SOL    HW114735   1.235   3.544  13.150  0.0813 -1.3070  0.4279
 1092SOL    HW214736   1.239   3.675  13.069 -1.1899  0.4972  0.9943
 1093SOL     OW14737   1.250   1.706   6.542  0.2485 -0.0541 -0.8925
 1093SOL    HW114738   1.331   1.749   6.516 -0.0504  2.0736  1.6272
 1093SOL    HW214739   1.178   1.737   6.487 -0.7472  1.1801  1.0959
 1094SOL     OW14740   3.979   2.288   3.617 -0.2244 -0.3377 -0.7737
 1094SOL    HW114741   3.972   2.383   3.608 -0.0065 -0.2461  0.0272
 1094SOL    HW214742   3.911   2.271   3.682 -0.3206  0.0215 -0.7804
 1095SOL     OW14743   0.047   3.909  11.358 -0.5023 -0.0268  0.6350
 1095SOL    HW114744   0.028   3.986  11.411 -3.4114 -0.5488  0.3710
 1095SOL    HW214745   0.026   3.837  11.417 -0.3569 -0.9469 -0.4365
 1096SOL     OW14746   1.605   0.683   6.419 -0.1024  0.0707 -0.2401
 1096SOL    HW114747   1.592   0.748   6.488 -0.2998 -2.2205  1.8805
 1096SOL    HW214748   1.607   0.602   6.470 -0.3508  0.3641  0.2325
 1097SOL     OW14749   3.782   1.144   3.375  0.1314 -0.3163  0.1253
 1097SOL    HW114750   3.687   1.151   3.359  0.8783  0.5026 -3.9018
 1097SOL    HW214751   3.818   1.184   3.296  1.2190 -0.4441  0.5653
 1098SOL     OW14752   0.976   3.254   5.661 -0.0516 -0.4188  0.4372
 1098SOL    HW114753   0.950   3.179   5.607 -0.2814  1.1536 -1.6115
 1098SOL    HW214754   0.921   3.328   5.636 -4.0231 -2.9890  1.5189
 1099SOL     OW14755   4.191   3.740   3.570 -0.5226 -0.5100  0.0255
 1099SOL    HW114756   4.146   3.751   3.654 -1.9857 -0.2629 -0.7963
 1099SOL    HW214757   4.113   3.770   3.523 -1.5859 -2.2877  0.6613
 1100SOL     OW14758   3.117   2.927   0.606 -0.3305 -0.3102  0.2345
 1100SOL    HW114759   3.103   2.992   0.674 -0.2944 -0.5490  0.4711
 1100SOL    HW214760   3.103   2.850   0.661  2.0347 -1.2496 -0.4424
 1101SOL     OW14761   2.258   0.350   8.142  0.4072 -0.1220  0.3924
 1101SOL    HW114762   2.170   0.336   8.107  0.3426 -1.3168  1.0371
 1101SOL    HW214763   2.263   0.284   8.211  3.6316 -0.1265  0.1523
 1102SOL     OW14764   0.943   1.104  12.749 -0.3769  0.0689 -0.0035
 1102SOL    HW114765   1.035   1.124  12.770 -0.3324 -0.7576  0.5443
 1102SOL    HW214766   0.956   1.025  12.696 -0.9717  0.0606 -0.1376
 1103SOL     OW14767   2.763   0.512   7.304 -0.2758  0.4146 -0.0787
 1103SOL    HW114768   2.810   0.450   7.360 -1.7132 -2.5851 -2.2217
 1103SOL    HW214769   2.676   0.509   7.343 -0.4923  3.6362 -0.2517
 1104SOL     OW14770   3.060   2.946  16.090  0.1165 -0.1451  0.1306
 1104SOL    HW114771   2.988   2.883  16.091 -1.1479  1.2902  0.1534
 1104SOL    HW214772   3.038   2.980  16.003 -1.8354  0.7953  0.9873
 1105SOL     OW14773   4.539   3.772   2.001 -0.3635  0.3014 -0.6585
 1105SOL    HW114774   4.533   3.687   1.957  0.3925  0.6048 -1.3403
 1105SOL    HW214775   4.633   3.781   2.017 -0.5798  0.2125  0.6830
 1106SOL     OW14776   0.390   0.541  10.967  0.3662  0.5633  0.5933
 1106SOL    HW114777   0.323   0.602  10.998 -0.5820  0.5599 -1.4662
 1106SOL    HW214778   0.432   0.600  10.904  0.4081 -1.2860 -1.1031
 1107SOL     OW14779   2.877   2.438   4.430 -0.4495 -0.4187 -0.2981
 1107SOL    HW114780   2.896   2.528   4.456  0.4936 -0.4888 -0.7352
 1107SOL    HW214781   2.965   2.398   4.432 -0.6394 -0.8948 -1.7151
 1108SOL     OW14782   1.148   0.384   4.657 -0.3173 -0.3391 -0.3045
 1108SOL    HW114783   1.208   0.318   4.621  0.7111 -1.3900  3.3667
 1108SOL    HW214784   1.139   0.461   4.601 -2.2575 -1.0143 -0.9245
 1109SOL     OW14785   2.781   0.339   3.728  0.4249  0.0830  0.1674
 1109SOL    HW114786   2.731   0.410   3.769  1.0481  0.7555 -0.2317
 1109SOL    HW214787   2.748   0.322   3.640 -2.1531  0.4598  1.0436
 1110SOL     OW14788   3.626   3.183   1.758 -0.4311 -0.2196 -0.2457
 1110SOL    HW114789   3.530   3.182   1.760 -0.4062  1.3497  1.6391
 1110SOL    HW214790   3.651   3.229   1.678  0.6998 -1.3710 -0.5481
 1111SOL     OW14791   3.663   4.085   6.919 -1.0457  0.5510 -0.2371
 1111SOL    HW114792   3.641   4.028   6.845 -0.2005  1.6095 -1.2980
 1111SOL    HW214793   3.704   4.164   6.883 -0.2122  0.0542 -0.3703
 1112SOL     OW14794   3.685   0.356   3.234  0.4559 -0.2767 -0.2430
 1112SOL    HW114795   3.704   0.347   3.141  1.9576 -1.4411  0.1898
 1112SOL    HW214796   3.772   0.370   3.271 -0.2734  1.3960  0.8948
 1113SOL     OW14797   1.242   0.291   3.236 -0.4528 -0.3945  0.3033
 1113SOL    HW114798   1.174   0.335   3.287 -0.7657 -0.6162  0.0785
 1113SOL    HW214799   1.252   0.352   3.163 -2.0860 -0.5479 -0.0376
 1114SOL     OW14800   1.311   3.321   5.741  0.6983  0.0134  0.1997
 1114SOL    HW114801   1.238   3.339   5.801  1.5234  2.3168  0.5288
 1114SOL    HW214802   1.385   3.354   5.791 -1.8290  5.0350  0.6351
 1115SOL     OW14803   4.069   2.203   0.166  0.2604 -0.2707  0.2123
 1115SOL    HW114804   4.072   2.245   0.080 -0.9025  1.5016  1.0221
 1115SOL    HW214805   4.002   2.135   0.158 -0.0295  0.1846 -1.1146
 1116SOL     OW14806   0.849   3.555   1.676 -0.3042 -0.7240 -0.1085
 1116SOL    HW114807   0.824   3.466   1.650 -0.7354 -0.8890  0.8840
 1116SOL    HW214808   0.922   3.538   1.735 -1.4727 -0.0763  1.4903
 1117SOL     OW14809   2.918   1.463   3.681 -0.2538 -0.4529  0.0067
 1117SOL    HW114810   2.937   1.397   3.615  0.8998  0.3775 -0.4703
 1117SOL    HW214811   2.953   1.430   3.764  1.3096  1.0431 -0.0670
 1118SOL     OW14812   2.939   1.504   7.532 -0.8555  0.2515  0.2003
 1118SOL    HW114813   3.033   1.520   7.523 -0.4566 -1.8375  0.8083
 1118SOL    HW214814   2.921   1.592   7.565 -2.2218  0.1649 -0.3079
 1119SOL     OW14815   3.580   2.706   5.450 -0.3131  0.0079 -0.0345
 1119SOL    HW114816   3.592   2.792   5.489  2.2449 -0.6988  0.7201
 1119SOL    HW214817   3.558   2.731   5.361  1.8038  0.2538 -0.4695
 1120SOL     OW14818   3.499   1.358  10.449  0.6655  0.2764 -0.1513
 1120SOL    HW114819   3.562   1.370  10.379 -0.6159 -0.9676 -1.5109
 1120SOL    HW214820   3.516   1.437  10.502 -1.2002  0.2718  0.4601
 1121SOL     OW14821   3.267   2.300  17.486 -0.1065  0.0070  0.1246
 1121SOL    HW114822   3.172   2.303  17.470 -0.0235 -0.8359 -0.5412
 1121SOL    HW214823   3.298   2.233  17.425  0.6667  0.3184  0.1887
 1122SOL     OW14824   3.344   2.675   0.757 -0.2349 -0.8578  0.3159
 1122SOL    HW114825   3.278   2.734   0.719 -1.4927 -3.2570 -1.2279
 1122SOL    HW214826   3.301   2.637   0.833 -0.8358  0.2211  0.5212
 1123SOL     OW14827   2.100   2.964   1.087 -0.4382 -0.0742  1.0263
 1123SOL    HW114828   2.054   3.048   1.098  2.0999  1.3107  0.9770
 1123SOL    HW214829   2.066   2.932   1.003 -0.5841 -1.2635  1.5431
 1124SOL     OW14830   2.590   2.183  15.535  0.0742  0.3062  0.5091
 1124SOL    HW114831   2.506   2.145  15.510  0.5060 -0.7131  0.6158
 1124SOL    HW214832   2.607   2.232  15.455 -1.5117  0.0025 -0.0240
 1125SOL     OW14833   2.174   2.550   5.183 -0.2103 -0.5275  0.7494
 1125SOL    HW114834   2.180   2.644   5.198  0.7252 -0.4145 -0.3033
 1125SOL    HW214835   2.227   2.518   5.256  1.7423  1.5801  0.2349
 1126SOL     OW14836   0.445   4.657  15.415 -0.1934  0.0080  0.0487
 1126SOL    HW114837   0.418   4.566  15.427  0.3228  0.0040  1.2553
 1126SOL    HW214838   0.364   4.707  15.404 -0.8507 -1.0318  0.1665
 1127SOL     OW14839   1.205   1.703  17.370 -0.0755 -0.1557  0.5558
 1127SOL    HW114840   1.246   1.786  17.343 -4.0237  2.0004  1.1550
 1127SOL    HW214841   1.119   1.696  17.329 -0.2553 -0.1408  0.9251
 1128SOL     OW14842   0.829   3.924   2.111 -0.0067 -0.6946  0.4195
 1128SOL    HW114843   0.834   3.854   2.046 -0.5104  0.6552 -1.0555
 1128SOL    HW214844   0.812   3.883   2.196 -0.6107 -0.9181  0.1931
 1129SOL     OW14845   2.538   0.712   2.464 -0.0221 -0.5988 -0.1965
 1129SOL    HW114846   2.504   0.682   2.380  0.8231  0.7482 -1.0253
 1129SOL    HW214847   2.463   0.719   2.523 -0.2746  0.2186 -0.6208
 1130SOL     OW14848   2.747   2.707  14.529  0.2558  0.2431  0.0256
 1130SOL    HW114849   2.678   2.672  14.472 -1.1683  2.3102  0.4796
 1130SOL    HW214850   2.786   2.631  14.573 -0.3192 -0.4948 -0.7203
 1131SOL     OW14851   2.921   1.221   2.631 -0.0232 -0.4618 -0.1822
 1131SOL    HW114852   2.873   1.154   2.679  1.0025 -0.5247  0.7682
 1131SOL    HW214853   2.909   1.295   2.691 -0.1306 -1.2998  0.8363
 1132SOL     OW14854   3.456   3.249   9.299 -0.0815  0.0861 -0.4490
 1132SOL    HW114855   3.505   3.297   9.365 -1.3752  0.0819  0.5223
 1132SOL    HW214856   3.413   3.181   9.351 -1.1237  0.5692 -0.6740
 1133SOL     OW14857   0.053   1.275   7.485  0.1972 -0.7108 -0.5560
 1133SOL    HW114858   4.711   1.341   7.507  1.1661  0.0455  0.0617
 1133SOL    HW214859   0.087   1.309   7.403 -1.6150  1.0429 -0.5861
 1134SOL     OW14860   4.103   1.468   5.374 -0.2510  0.0528  0.6482
 1134SOL    HW114861   4.174   1.440   5.316 -0.5521  1.4897 -0.4264
 1134SOL    HW214862   4.047   1.520   5.316  1.2026  0.6031 -0.2783
 1135SOL     OW14863   2.844   2.058   5.927  0.6830  0.0758  0.0343
 1135SOL    HW114864   2.812   2.112   5.999  3.4406  1.3777  0.2827
 1135SOL    HW214865   2.819   1.970   5.955  3.6534 -0.6135  0.4666
 1136SOL     OW14866   1.065   1.398   5.496  0.6187 -0.5771  0.2162
 1136SOL    HW114867   1.058   1.433   5.407  0.1032 -1.2458 -0.0143
 1136SOL    HW214868   1.143   1.439   5.532 -0.2599  0.6861  0.7114
 1137SOL     OW14869   3.815   3.805   1.128  0.1442  0.1365  0.8535
 1137SOL    HW114870   3.886   3.760   1.084  0.5496  1.1774  0.4467
 1137SOL    HW214871   3.793   3.877   1.069  1.3407  0.6019  0.9712
 1138SOL     OW14872   0.950   2.247  15.058 -0.1594 -0.6716 -0.6604
 1138SOL    HW114873   0.880   2.261  15.121  1.2447 -0.0588  0.7722
 1138SOL    HW214874   1.003   2.180  15.102  2.2775  0.9106 -1.1726
 1139SOL     OW14875   1.825   3.142   0.839  0.3977  0.2036  0.0802
 1139SOL    HW114876   1.861   3.188   0.915 -2.2975  0.7787  1.0502
 1139SOL    HW214877   1.862   3.201   0.774 -2.3394  4.4154  2.3028
 1140SOL     OW14878   2.381   2.418   5.321  0.0191 -0.6189 -0.3874
 1140SOL    HW114879   2.386   2.371   5.404 -1.7531  2.5006  1.4982
 1140SOL    HW214880   2.421   2.355   5.260 -0.4894  0.3092 -1.6868
 1141SOL     OW14881   1.764   0.612   2.755 -0.0230  1.0472  0.0517
 1141SOL    HW114882   1.760   0.625   2.660  0.9244  3.1986  0.2877
 1141SOL    HW214883   1.829   0.542   2.753  1.6939  2.6021  0.8225
 1142SOL     OW14884   2.880   3.971   7.583 -0.1365 -0.0052 -0.7355
 1142SOL    HW114885   2.785   3.960   7.578 -0.0533 -1.5390  1.1410
 1142SOL    HW214886   2.883   4.046   7.642  1.3395 -0.2157 -0.5311
 1143SOL     OW14887   2.397   0.478   3.282 -0.2208 -0.3858  0.0726
 1143SOL    HW114888   2.335   0.481   3.355 -1.0090 -1.8362 -0.5405
 1143SOL    HW214889   2.359   0.526   3.208  1.6960  0.4241 -0.4043
 1144SOL     OW14890   4.620   1.173  13.544 -0.3685 -0.0267  0.0307
 1144SOL    HW114891   4.590   1.256  13.507  2.2025  0.9488  0.1507
 1144SOL    HW214892   4.581   1.190  13.630  0.8586 -0.3454  0.6541
 1145SOL     OW14893   0.977   2.409  13.130  0.6364 -0.2420  0.2564
 1145SOL    HW114894   1.016   2.483  13.084  3.0331 -0.9201  1.1940
 1145SOL    HW214895   0.942   2.455  13.207 -0.8415 -0.9816  0.0213
 1146SOL     OW14896   3.870   4.712  11.562 -0.5026 -0.1461  0.0591
 1146SOL    HW114897   3.841   0.008  11.651 -0.2803  1.8046 -0.3103
 1146SOL    HW214898   3.789   4.718  11.511 -0.6139  1.4469  0.4438
 1147SOL     OW14899   2.741   3.620   3.431  0.6886  0.0661  0.0436
 1147SOL    HW114900   2.778   3.549   3.484  0.5259 -1.6894 -2.1913
 1147SOL    HW214901   2.764   3.591   3.343 -0.7089 -0.9221  0.0014
 1148SOL     OW14902   2.082   2.431   2.923  0.3106  0.2248  0.4320
 1148SOL    HW114903   2.051   2.514   2.961  0.0748 -2.1409  5.4697
 1148SOL    HW214904   2.047   2.361   2.978 -0.2429  0.8524  0.8884
 1149SOL     OW14905   2.189   0.063   8.752  0.0405  0.5506  0.1244
 1149SOL    HW114906   2.223   4.699   8.772 -1.8307  0.1992  1.7080
 1149SOL    HW214907   2.104   0.031   8.721  0.6684 -1.1115  0.1068
 1150SOL     OW14908   3.472   2.351   1.962 -0.5759 -0.0108  0.4347
 1150SOL    HW114909   3.499   2.269   1.922 -0.4129  1.3231 -2.1809
 1150SOL    HW214910   3.526   2.341   2.041  1.7580  1.6751 -0.9466
 1151SOL     OW14911   4.173   1.021   2.587 -0.0313  0.2421  0.2745
 1151SOL    HW114912   4.143   1.097   2.537  2.4067  0.0090 -1.5158
 1151SOL    HW214913   4.088   0.977   2.598 -1.2895  2.9583  1.3318
 1152SOL     OW14914   1.006   1.767   9.619 -0.0016  0.6483  0.1956
 1152SOL    HW114915   0.970   1.794   9.704  1.0291 -0.3577  0.9521
 1152SOL    HW214916   1.101   1.777   9.626 -0.1244  0.4870  2.3293
 1153SOL     OW14917   3.635   3.915   5.573  0.5554 -0.4871 -0.1157
 1153SOL    HW114918   3.720   3.930   5.615 -1.0438  0.2027  2.8708
 1153SOL    HW214919   3.623   3.820   5.584 -0.1114 -0.0595  2.7806
 1154SOL     OW14920   2.248   2.336   1.081  0.0754 -0.0110  0.3646
 1154SOL    HW114921   2.248   2.249   1.041  1.7983  0.8481 -1.4828
 1154SOL    HW214922   2.321   2.374   1.032 -1.2509  2.8466  0.6058
 1155SOL     OW14923   1.544   0.412   3.424  0.6085 -0.4600 -0.2006
 1155SOL    HW114924   1.469   0.471   3.419 -0.1541 -1.5117 -1.3676
 1155SOL    HW214925   1.500   0.329   3.406  3.4193 -1.8759 -0.5182
 1156SOL     OW14926   0.005   0.870  15.012  0.2288  0.5556  0.4123
 1156SOL    HW114927   0.010   0.922  14.931 -1.6727 -0.0091 -0.0586
 1156SOL    HW214928   4.677   0.932  15.063  3.3593  2.9739  0.6832
 1157SOL     OW14929   2.858   4.361   6.935 -1.1015  0.2379 -0.5048
 1157SOL    HW114930   2.876   4.438   6.989  2.0649  0.4310 -1.8684
 1157SOL    HW214931   2.938   4.310   6.945 -0.0387  2.3419  1.6773
 1158SOL     OW14932   2.681   4.659   5.040 -0.4583 -0.3564  0.0394
 1158SOL    HW114933   2.659   0.010   5.096  1.8198  0.7468 -0.5371
 1158SOL    HW214934   2.667   4.694   4.952  2.5510  0.0909 -0.2742
 1159SOL     OW14935   1.712   4.651   2.611  0.1683  0.0098  0.6996
 1159SOL    HW114936   1.761   4.570   2.624 -0.3965  0.1251  3.4757
 1159SOL    HW214937   1.780   4.706   2.571  0.9663  0.1367  2.2289
 1160SOL     OW14938   0.867   1.519   0.985 -0.2620  0.4086 -0.1640
 1160SOL    HW114939   0.921   1.597   0.995 -0.0415 -0.0516  2.1920
 1160SOL    HW214940   0.866   1.504   1.080 -2.2191 -1.1475 -0.4369
 1161SOL     OW14941   3.191   3.886   5.856  0.4100 -0.0642 -0.5160
 1161SOL    HW114942   3.278   3.913   5.827 -0.3126  1.0141 -1.6145
 1161SOL    HW214943   3.180   3.954   5.922 -0.3984  1.0479 -1.8187
 1162SOL     OW14944   4.330   0.600   7.869  0.3693 -0.2757 -0.0085
 1162SOL    HW114945   4.370   0.687   7.860  3.6350 -1.7225  0.6641
 1162SOL    HW214946   4.285   0.606   7.785  1.8411  3.2036 -0.5546
 1163SOL     OW14947   3.113   4.105   3.831 -0.3077  0.4449  0.5803
 1163SOL    HW114948   3.077   4.029   3.784 -1.2206  0.8831  0.5799
 1163SOL    HW214949   3.106   4.167   3.759  0.3947  1.3179  1.2716
 1164SOL     OW14950   3.547   3.618   1.527 -0.0812 -0.4622  0.7058
 1164SOL    HW114951   3.607   3.551   1.493 -1.1584 -1.9536  1.7288
 1164SOL    HW214952   3.515   3.659   1.446  0.2734 -2.1395 -0.2977
 1165SOL     OW14953   2.716   0.683   6.830  0.2985  0.1363  0.5922
 1165SOL    HW114954   2.751   0.634   6.904  0.3949 -0.8709 -0.1212
 1165SOL    HW214955   2.795   0.693   6.777 -1.1350  0.2829 -1.5125
 1166SOL     OW14956   1.663   4.317   1.094  0.1707 -0.0829  0.3325
 1166SOL    HW114957   1.633   4.333   1.004 -1.9157 -1.1323  0.8296
 1166SOL    HW214958   1.621   4.385   1.148 -0.9834 -1.8688  1.6840
 1167SOL     OW14959   2.248   4.579   3.397  0.0346  0.0867 -0.0198
 1167SOL    HW114960   2.343   4.589   3.389  0.0019  0.6472  0.2829
 1167SOL    HW214961   2.213   4.582   3.308 -1.8871 -1.6420  0.6776
 1168SOL     OW14962   3.526   1.755   1.236 -0.1207 -0.1560 -0.1585
 1168SOL    HW114963   3.439   1.769   1.200 -0.0418 -0.7380 -0.5585
 1168SOL    HW214964   3.579   1.823   1.193 -0.2861  0.0935  0.0274
 1169SOL     OW14965   0.972   3.239  16.756 -0.0021 -0.1508 -0.2813
 1169SOL    HW114966   1.016   3.280  16.682 -0.7651 -1.9318 -1.7073
 1169SOL    HW214967   0.946   3.153  16.723  2.8223 -0.7679 -0.8797
 1170SOL     OW14968   1.324   1.668  11.994 -0.1094  0.3578  0.2056
 1170SOL    HW114969   1.299   1.754  11.962 -0.6711 -0.6732 -2.1429
 1170SOL    HW214970   1.237   1.635  12.015 -0.2269  0.6622  0.1795
 1171SOL     OW14971   3.517   1.529   6.306 -0.0575  0.0535 -0.2499
 1171SOL    HW114972   3.459   1.554   6.235  1.3185  1.1848 -0.9778
 1171SOL    HW214973   3.466   1.462   6.352 -0.9275 -0.8434 -2.5671
 1172SOL     OW14974   2.780   1.711   5.489 -0.4048 -0.5476 -0.1268
 1172SOL    HW114975   2.795   1.625   5.449 -0.3136 -0.5445 -0.0991
 1172SOL    HW214976   2.694   1.735   5.455 -1.4435 -1.5639  1.7638
 1173SOL     OW14977   2.208   1.759   3.683  0.1917  0.0230  0.0893
 1173SOL    HW114978   2.115   1.752   3.708 -0.5971  2.2363 -2.2414
 1173SOL    HW214979   2.206   1.827   3.615  1.8392  1.6853  1.7293
 1174SOL     OW14980   2.091   0.378   4.222 -0.0501 -0.5692 -0.1103
 1174SOL    HW114981   2.129   0.331   4.296  0.3408 -0.5070 -0.2720
 1174SOL    HW214982   2.066   0.305   4.165 -1.6068  1.8298 -2.5215
 1175SOL     OW14983   2.442   1.632   5.157 -0.2116 -0.1135 -0.2726
 1175SOL    HW114984   2.352   1.628   5.189 -0.1927  0.6311 -0.1277
 1175SOL    HW214985   2.488   1.676   5.229  0.3683 -0.5753 -0.3622
 1176SOL     OW14986   1.699   4.261   7.820  0.3328 -0.4726  0.8564
 1176SOL    HW114987   1.716   4.176   7.861  0.3648  0.2613  2.3723
 1176SOL    HW214988   1.737   4.316   7.889  0.8864  0.3893 -0.1360
 1177SOL     OW14989   4.159   2.044   4.910 -0.6093 -0.0475  0.7496
 1177SOL    HW114990   4.132   1.999   4.830 -2.0701  1.3280  0.4467
 1177SOL    HW214991   4.139   1.972   4.970 -4.2664 -0.6173 -1.1647
 1178SOL     OW14992   1.631   0.247  10.871 -0.0300  0.2255  0.4310
 1178SOL    HW114993   1.670   0.261  10.958 -0.9474 -1.7919  1.1650
 1178SOL    HW214994   1.662   0.156  10.867  0.3306  0.2952  1.6824
 1179SOL     OW14995   0.100   0.199   8.722 -0.4598 -0.1704 -0.3559
 1179SOL    HW114996   0.156   0.274   8.742 -0.1155 -0.6178  0.3267
 1179SOL    HW214997   0.145   0.173   8.641 -0.5706 -0.4641 -0.3215
 1180SOL     OW14998   3.620   2.438   6.390  0.4951 -0.6222 -0.2867
 1180SOL    HW114999   3.562   2.365   6.370 -0.5483  0.3123 -0.7071
 1180SOL    HW215000   3.588   2.501   6.325 -0.2870  0.6031  1.2579
 1181SOL     OW15001   3.243   3.700   3.916  0.5442  0.3239  0.0569
 1181SOL    HW115002   3.167   3.690   3.858  0.3163 -0.4090  0.4884
 1181SOL    HW215003   3.304   3.658   3.855  0.0184 -0.5210  0.1014
 1182SOL     OW15004   0.644   3.303  10.566 -0.8376  0.5497  0.3977
 1182SOL    HW115005   0.691   3.223  10.541 -2.0922  0.7723 -2.5815
 1182SOL    HW215006   0.672   3.309  10.658  2.6587 -0.6297 -0.5724
 1183SOL     OW15007   1.336   2.804   5.520  0.1688  0.0821  0.5021
 1183SOL    HW115008   1.343   2.837   5.609 -0.7340  3.2317 -0.6184
 1183SOL    HW215009   1.419   2.756   5.517  0.7498  1.0885  0.5636
 1184SOL     OW15010   3.013   0.645   4.617  0.0816  0.4555  0.2796
 1184SOL    HW115011   3.102   0.609   4.618  0.1491  0.6097 -0.3362
 1184SOL    HW215012   2.965   0.583   4.562  2.2588 -0.4927 -0.5374
 1185SOL     OW15013   4.015   3.314   8.456 -0.4276 -0.4160 -0.0268
 1185SOL    HW115014   4.096   3.271   8.429 -0.2812  0.8789 -1.6521
 1185SOL    HW215015   3.998   3.267   8.538  0.1504 -0.5930 -0.0119
 1186SOL     OW15016   2.802   0.824   0.997 -0.2204  0.1183 -0.5982
 1186SOL    HW115017   2.830   0.732   0.991  2.4363  0.8097  1.7800
 1186SOL    HW215018   2.714   0.810   0.961 -1.3385 -0.3465  2.2728
 1187SOL     OW15019   0.928   0.601   6.056  0.3672 -0.3033  0.2310
 1187SOL    HW115020   0.992   0.543   6.016  0.1425  0.3465 -1.0693
 1187SOL    HW215021   0.870   0.632   5.986  2.0843 -0.9172 -1.4645
 1188SOL     OW15022   0.610   0.239   4.560 -0.2830  0.2273 -0.0249
 1188SOL    HW115023   0.607   0.144   4.543  0.8832  0.0750  0.6333
 1188SOL    HW215024   0.697   0.261   4.527  0.0633 -0.6694  0.2857
 1189SOL     OW15025   1.340   3.220  11.038 -0.1897  0.4757 -0.5794
 1189SOL    HW115026   1.265   3.235  10.980 -0.9478  1.1406  0.5906
 1189SOL    HW215027   1.311   3.148  11.094 -1.9733  0.4802 -1.4907
 1190SOL     OW15028   1.463   4.523   8.962 -0.7772 -0.0468  0.1748
 1190SOL    HW115029   1.385   4.487   9.002 -0.6271 -0.5643 -0.0053
 1190SOL    HW215030   1.528   4.527   9.032 -0.4295  1.1350 -0.2047
 1191SOL     OW15031   1.436   1.756  12.282 -0.0360 -0.3593 -0.0028
 1191SOL    HW115032   1.511   1.716  12.325  0.4149  0.7831  0.2892
 1191SOL    HW215033   1.487   1.809  12.221 -0.6520  0.1080 -0.1106
 1192SOL     OW15034   2.176   3.963   7.871  0.0219 -0.4008 -0.9597
 1192SOL    HW115035   2.126   3.892   7.912  0.7564  0.4007  1.2792
 1192SOL    HW215036   2.126   4.041   7.894 -1.4243 -2.0932  1.6155
 1193SOL     OW15037   2.109   1.211  12.430 -0.1012 -0.0646 -0.3470
 1193SOL    HW115038   2.180   1.161  12.471 -0.3294 -0.9669 -1.0673
 1193SOL    HW215039   2.070   1.261  12.503 -0.0604 -3.6168  2.1253
 1194SOL     OW15040   4.544   1.772   2.892 -0.0734 -0.4517 -0.4460
 1194SOL    HW115041   4.532   1.836   2.962 -1.0512  0.7067 -1.6974
 1194SOL    HW215042   4.590   1.705   2.944  0.6061  0.6206  0.3585
 1195SOL     OW15043   2.751   4.448   5.477 -0.0863 -0.3501 -0.2464
 1195SOL    HW115044   2.760   4.473   5.569  0.6179 -2.9748  0.4122
 1195SOL    HW215045   2.776   4.525   5.425 -0.6600  0.0465  0.0648
 1196SOL     OW15046   0.875   4.065   1.720 -0.0295 -0.4699 -0.6787
 1196SOL    HW115047   0.893   4.157   1.741 -0.5613 -0.0639 -2.0544
 1196SOL    HW215048   0.780   4.056   1.718 -0.0090 -0.7938 -0.2921
 1197SOL     OW15049   4.578   0.067   4.934  0.2399 -0.7309  0.3141
 1197SOL    HW115050   4.596   0.136   4.871 -0.1043  1.0463  2.1617
 1197SOL    HW215051   4.637   0.098   5.004  0.6282  0.1762 -0.4148
 1198SOL     OW15052   0.709   0.123   1.644  0.2213 -0.5335 -0.3728
 1198SOL    HW115053   0.711   0.152   1.552  2.7641  0.2052 -0.0898
 1198SOL    HW215054   0.617   0.135   1.668  0.3216  0.7759 -0.6337
 1199SOL     OW15055   2.227   0.642   2.345 -0.0777  0.1830 -0.1287
 1199SOL    HW115056   2.306   0.635   2.291 -0.3214  0.5846 -0.5438
 1199SOL    HW215057   2.160   0.645   2.276 -1.9454  0.4316  1.6865
 1200SOL     OW15058   1.152   4.067   9.760 -0.5350 -0.4731  0.4522
 1200SOL    HW115059   1.230   4.055   9.813  0.4102 -1.0229 -1.0722
 1200SOL    HW215060   1.117   4.136   9.816  2.0607  1.7115 -0.6040
 1201SOL     OW15061   4.474   4.209  17.647  0.3771 -0.1137 -0.4690
 1201SOL    HW115062   4.419   4.136  17.675  2.9484 -1.9645 -0.1431
 1201SOL    HW215063   4.536   4.161  17.591  0.1722 -1.5956  0.5829
 1202SOL     OW15064   2.831   0.214   7.824  0.2622 -0.3941  0.4754
 1202SOL    HW115065   2.856   0.146   7.887 -0.7306 -0.3230  0.9384
 1202SOL    HW215066   2.775   0.261   7.886  0.1555 -0.5805  0.5222
 1203SOL     OW15067   2.044   0.447   0.691  0.1961  0.2929 -0.3453
 1203SOL    HW115068   2.001   0.526   0.658 -0.7216 -0.6978 -1.5296
 1203SOL    HW215069   2.013   0.383   0.626  1.0573 -1.8287  1.3406
 1204SOL     OW15070   3.986   1.186   2.405  0.5473  0.1263 -0.5354
 1204SOL    HW115071   4.006   1.253   2.340 -2.8504  0.7160 -0.9761
 1204SOL    HW215072   3.939   1.121   2.352 -2.5935  1.1052  1.0176
 1205SOL     OW15073   3.888   2.545   6.655 -0.2049 -0.2360 -0.5677
 1205SOL    HW115074   3.815   2.483   6.657 -0.4406  0.0962  1.1138
 1205SOL    HW215075   3.877   2.595   6.575  0.0437  0.5994 -0.0761
 1206SOL     OW15076   1.942   0.007   9.507 -0.4610 -0.3577  0.3551
 1206SOL    HW115077   1.964   0.096   9.535 -0.9278  0.3891 -1.6122
 1206SOL    HW215078   1.849   0.014   9.487 -0.5692  1.0210  1.3289
 1207SOL     OW15079   4.544   0.321   8.396  0.6708  0.3935  0.6914
 1207SOL    HW115080   4.502   0.407   8.394 -0.7552 -0.2793  2.1075
 1207SOL    HW215081   4.610   0.325   8.327 -1.2164 -0.9067 -1.2112
 1208SOL     OW15082   0.705   2.571  10.629  0.1708 -0.4133 -0.0437
 1208SOL    HW115083   0.725   2.664  10.613 -3.3892  0.3626 -0.0693
 1208SOL    HW215084   0.616   2.582  10.663 -0.6154  0.7413 -2.4567
 1209SOL     OW15085   0.810   3.400   1.341  0.0331  0.1774 -0.3748
 1209SOL    HW115086   0.813   3.373   1.433 -0.3119 -0.9050 -0.6837
 1209SOL    HW215087   0.892   3.449   1.331 -0.8376  1.3551 -1.5573
 1210SOL     OW15088   0.356   3.555   7.558  0.1121  0.3531 -0.1960
 1210SOL    HW115089   0.340   3.477   7.610  1.1058  0.7441  0.6947
 1210SOL    HW215090   0.275   3.554   7.508  0.0963 -1.2084 -0.1449
 1211SOL     OW15091   4.629   0.997   7.685  0.5248  0.0166  0.4733
 1211SOL    HW115092   4.708   1.016   7.736  1.3999  1.0799 -1.2649
 1211SOL    HW215093   4.651   1.023   7.595  0.5064 -2.7757 -0.3351
 1212SOL     OW15094   0.426   1.529   4.382 -0.1050  0.1961 -0.3162
 1212SOL    HW115095   0.459   1.493   4.300  1.0712 -1.7044  0.9681
 1212SOL    HW215096   0.345   1.478   4.389 -0.7602  1.2431 -0.2165
 1213SOL     OW15097   2.693   3.556   5.192 -0.2353  0.1161  0.8219
 1213SOL    HW115098   2.725   3.633   5.239 -0.4017  0.6830 -0.0084
 1213SOL    HW215099   2.604   3.548   5.226 -0.4693 -0.4069  0.0778
 1214SOL     OW15100   0.201   3.464  10.816  0.3499 -0.2289 -0.6648
 1214SOL    HW115101   0.160   3.404  10.878 -0.2699  0.3594 -0.4945
 1214SOL    HW215102   0.248   3.406  10.757 -2.0541 -0.1241 -2.7043
 1215SOL     OW15103   3.061   4.232   3.590  0.1406  0.3491  0.0288
 1215SOL    HW115104   3.106   4.246   3.507  0.4171 -0.2162  0.0805
 1215SOL    HW215105   2.977   4.208   3.551  0.0095 -0.5627  0.8534
 1216SOL     OW15106   1.479   2.465   5.821 -0.2435  0.2133  0.1076
 1216SOL    HW115107   1.536   2.525   5.773 -2.0165  2.8704  1.3373
 1216SOL    HW215108   1.539   2.397   5.854 -0.3256  1.2756  2.4689
 1217SOL     OW15109   0.407   2.464  14.025 -0.2126 -0.2094 -0.4278
 1217SOL    HW115110   0.386   2.421  14.108 -0.0112  0.0982 -0.2238
 1217SOL    HW215111   0.323   2.508  14.011  0.6439  1.5310 -0.0670
 1218SOL     OW15112   3.189   4.285  12.345  0.0195  0.0053 -0.1237
 1218SOL    HW115113   3.180   4.242  12.430  3.0704 -1.2046 -0.4090
 1218SOL    HW215114   3.148   4.221  12.287 -2.1783  2.7856 -1.6458
 1219SOL     OW15115   0.766   3.187  16.492  0.4344  0.2066 -0.3928
 1219SOL    HW115116   0.856   3.190  16.459 -0.0289  1.2987 -1.5725
 1219SOL    HW215117   0.723   3.162  16.410  1.1213  0.0302 -0.6985
 1220SOL     OW15118   0.609   1.782   3.692 -0.2165  0.4088 -0.9014
 1220SOL    HW115119   0.652   1.809   3.611  0.4955 -0.0621 -0.6818
 1220SOL    HW215120   0.618   1.868   3.733 -2.4495  1.2709 -2.1913
 1221SOL     OW15121   2.807   1.063  17.100 -0.1183  0.5304  0.3994
 1221SOL    HW115122   2.786   1.063  17.194 -1.4951  1.8551  0.0883
 1221SOL    HW215123   2.724   1.084  17.058  1.0737  0.0641 -2.1781
 1222SOL     OW15124   1.098   1.980  17.526 -0.2159 -0.6094 -0.1271
 1222SOL    HW115125   1.149   1.982  17.446 -0.5831 -0.8771 -0.3685
 1222SOL    HW215126   1.168   1.946  17.582 -0.4858  0.4779  0.8808
 1223SOL     OW15127   3.382   3.103   5.368  0.1322 -0.5014 -0.4722
 1223SOL    HW115128   3.293   3.106   5.334  0.6737 -2.7029 -2.0358
 1223SOL    HW215129   3.366   3.140   5.455  1.0049  0.3585 -0.6668
 1224SOL     OW15130   4.181   2.963   8.066  0.3049 -0.2441 -0.4663
 1224SOL    HW115131   4.097   3.006   8.082  0.1754 -0.6684  0.0071
 1224SOL    HW215132   4.168   2.869   8.053 -1.0080 -0.1276  0.0238
 1225SOL     OW15133   2.783   2.471  15.592 -0.5244  0.0942  0.0474
 1225SOL    HW115134   2.829   2.450  15.510  0.4094  2.5916 -0.0778
 1225SOL    HW215135   2.825   2.554  15.615 -0.4981  0.6295 -1.8840
 1226SOL     OW15136   3.752   1.479   5.318  0.8070 -0.3596  0.6857
 1226SOL    HW115137   3.830   1.434   5.284 -0.5311 -3.0252  1.1136
 1226SOL    HW215138   3.699   1.460   5.241  1.0815 -0.1352  0.4403
 1227SOL     OW15139   1.201   4.396   2.967  0.0890  0.1897  0.4807
 1227SOL    HW115140   1.176   4.327   3.028 -0.1631 -0.6080 -0.5247
 1227SOL    HW215141   1.179   4.358   2.882 -1.1376  0.0089  0.8802
 1228SOL     OW15142   0.601   3.705   6.171  0.0071  0.2046  0.1552
 1228SOL    HW115143   0.695   3.705   6.192  0.2005  0.5330 -0.7123
 1228SOL    HW215144   0.602   3.666   6.084  0.5153  1.0970 -0.2408
 1229SOL     OW15145   2.317   4.576   6.037  0.0062  0.3811 -0.1862
 1229SOL    HW115146   2.355   4.501   6.083 -0.2178  0.4482  0.1072
 1229SOL    HW215147   2.294   4.633   6.110  1.7729  1.3067 -0.3629
 1230SOL     OW15148   0.303   3.147  17.424  0.0393  0.4113 -0.1132
 1230SOL    HW115149   0.337   3.228  17.388 -2.8500  1.2796 -0.9033
 1230SOL    HW215150   0.218   3.181  17.452  0.5165  0.2523  1.5783
 1231SOL     OW15151   0.223   0.980   4.376  0.3310 -0.3261 -0.6730
 1231SOL    HW115152   0.250   0.907   4.320 -0.8757 -2.8564  2.0529
 1231SOL    HW215153   0.205   0.935   4.459  0.1025 -0.0155 -0.5553
 1232SOL     OW15154   3.211   4.308   6.761 -0.2968  0.3408 -0.4810
 1232SOL    HW115155   3.252   4.366   6.825  1.4184 -2.2877  0.7792
 1232SOL    HW215156   3.197   4.228   6.810  0.4382 -1.1838 -2.7534
 1233SOL     OW15157   0.165   4.250   8.508 -0.5103 -0.2013  0.0637
 1233SOL    HW115158   0.256   4.247   8.537 -0.4145  1.2740 -0.0594
 1233SOL    HW215159   0.171   4.300   8.427 -0.9770  0.5350  0.4797
 1234SOL     OW15160   2.753   3.142   1.570  0.3344 -0.3200 -0.4850
 1234SOL    HW115161   2.702   3.127   1.650  1.3216 -1.5376 -0.0796
 1234SOL    HW215162   2.695   3.124   1.497  0.4404 -0.6056 -0.4977
 1235SOL     OW15163   0.634   1.301   2.194 -0.0818  0.8158  0.0331
 1235SOL    HW115164   0.605   1.377   2.245  2.0671  1.0896  0.8431
 1235SOL    HW215165   0.606   1.321   2.105  2.3135 -1.1085 -1.1535
 1236SOL     OW15166   2.727   1.332   6.103 -0.3410  0.2991  0.3006
 1236SOL    HW115167   2.655   1.310   6.162 -1.6744 -0.6135 -1.6457
 1236SOL    HW215168   2.710   1.425   6.087  0.5010  0.3076 -0.5569
 1237SOL     OW15169   4.131   3.143   3.427 -0.0250  0.0945  0.2877
 1237SOL    HW115170   4.173   3.074   3.478 -0.6734 -0.6216 -0.1381
 1237SOL    HW215171   4.170   3.128   3.341 -1.1007  2.0704 -0.5342
 1238SOL     OW15172   1.230   3.841  14.519  0.1226  0.2926  0.0023
 1238SOL    HW115173   1.267   3.920  14.479  1.3237 -0.7733 -1.0029
 1238SOL    HW215174   1.271   3.848  14.605 -0.9874  0.5343  0.5078
 1239SOL     OW15175   3.711   0.785   8.630  0.2015  0.0095  0.3132
 1239SOL    HW115176   3.669   0.871   8.626  2.5991  1.2046  0.6209
 1239SOL    HW215177   3.785   0.803   8.688  0.3695 -0.2005  0.1602
 1240SOL     OW15178   2.613   0.774   4.737  0.0012 -0.0177 -0.0455
 1240SOL    HW115179   2.632   0.867   4.744 -1.0631 -0.1166  4.0783
 1240SOL    HW215180   2.663   0.750   4.815  0.0186 -2.8489 -0.9017
 1241SOL     OW15181   3.637   2.310   9.948 -0.2540  0.3664  0.2978
 1241SOL    HW115182   3.648   2.340   9.858 -1.6432  1.2814  0.4360
 1241SOL    HW215183   3.565   2.252   9.924 -0.0819  0.7393 -1.0996
 1242SOL     OW15184   0.206   0.562   2.985  0.2288 -0.0356  0.3433
 1242SOL    HW115185   0.144   0.506   3.031  1.1302 -0.2977  1.2391
 1242SOL    HW215186   0.263   0.503   2.935 -1.0744  0.0672 -1.2377
 1243SOL     OW15187   3.450   1.447   9.475  1.0143 -0.6787  0.0243
 1243SOL    HW115188   3.543   1.458   9.454  0.5838 -0.1748 -1.6407
 1243SOL    HW215189   3.405   1.519   9.431  0.9936  0.4248  1.8570
 1244SOL     OW15190   2.261   3.995   1.014  0.0035 -0.0620 -0.0347
 1244SOL    HW115191   2.254   4.090   1.006  1.4353  0.2251  2.1328
 1244SOL    HW215192   2.171   3.971   1.037 -0.6030  2.3001  0.0528
 1245SOL     OW15193   1.111   4.227   4.982  0.0193 -0.6219 -0.0475
 1245SOL    HW115194   1.079   4.313   4.954  0.5192  0.7206  3.6168
 1245SOL    HW215195   1.139   4.235   5.073 -1.4097 -0.6007  0.3915
 1246SOL     OW15196   1.143   3.730   2.752  0.3883 -0.2219 -0.0330
 1246SOL    HW115197   1.179   3.643   2.736 -0.3529 -0.8705  1.8514
 1246SOL    HW215198   1.220   3.787   2.742 -0.1005  0.4858  0.2033
 1247SOL     OW15199   0.568   1.926   3.394  0.6172 -0.1878 -0.3009
 1247SOL    HW115200   0.545   1.841   3.359 -1.0638 -0.7859  2.2569
 1247SOL    HW215201   0.485   1.972   3.401  0.4123 -0.1519 -3.0525
 1248SOL     OW15202   1.035   2.769   0.970  0.6562 -0.3755  0.1822
 1248SOL    HW115203   1.088   2.846   0.993  0.2921 -0.4734  1.3903
 1248SOL    HW215204   0.989   2.771   1.054 -0.1666 -2.1037 -0.2374
 1249SOL     OW15205   1.742   0.911   0.433  0.2591  0.5361 -0.7404
 1249SOL    HW115206   1.668   0.957   0.473  2.0249  1.5693  1.3420
 1249SOL    HW215207   1.804   0.905   0.505 -0.0546 -1.1128 -0.6246
 1250SOL     OW15208   3.553   2.064   7.520  0.0099  0.3670  0.2729
 1250SOL    HW115209   3.520   1.976   7.535 -0.2253  0.6989  1.6858
 1250SOL    HW215210   3.478   2.111   7.556  1.0472  0.9504  1.6859
 1251SOL     OW15211   0.096   2.042  14.209  0.1150 -0.0579  0.4048
 1251SOL    HW115212   0.140   2.030  14.125 -0.0735 -0.2429  0.3325
 1251SOL    HW215213   0.027   2.104  14.183 -1.3474 -0.7374  2.6859
 1252SOL     OW15214   3.210   1.784  14.033  0.3736 -0.1120 -0.4770
 1252SOL    HW115215   3.250   1.699  14.015  0.4859  0.5097 -3.2382
 1252SOL    HW215216   3.119   1.773  14.005  0.5218 -1.3863 -0.4323
 1253SOL     OW15217   1.092   2.701   0.074 -0.0857  0.1603  0.5832
 1253SOL    HW115218   1.091   2.797   0.068 -0.5174  0.0676 -0.8928
 1253SOL    HW215219   0.998   2.686   0.086  0.0976 -1.3231  0.1654
 1254SOL     OW15220   3.811   2.575   2.588  0.3576  0.2818 -0.3496
 1254SOL    HW115221   3.816   2.599   2.495  1.6513 -0.2491 -0.4118
 1254SOL    HW215222   3.715   2.570   2.597  0.2407  0.6577 -1.4031
 1255SOL     OW15223   0.081   4.118   5.621  0.0827  0.1388 -0.0630
 1255SOL    HW115224   0.135   4.043   5.597 -0.9317 -0.3434 -0.8431
 1255SOL    HW215225   0.059   4.103   5.713 -1.9777 -0.9212 -0.7268
 1256SOL     OW15226   2.616   1.996   7.284 -0.1310 -0.1669  0.0816
 1256SOL    HW115227   2.568   1.960   7.359 -1.8633 -0.1047 -0.9814
 1256SOL    HW215228   2.680   2.056   7.323 -2.1164  1.4965  0.8062
 1257SOL     OW15229   2.463   3.333   6.143 -0.4723 -0.3551  0.0011
 1257SOL    HW115230   2.417   3.328   6.227 -0.1537  1.5117  0.2740
 1257SOL    HW215231   2.506   3.417   6.155  0.1890 -0.7225  0.1733
 1258SOL     OW15232   2.795   2.351   1.191 -0.0392 -0.3199 -0.2023
 1258SOL    HW115233   2.760   2.338   1.280  0.4820  0.5025  0.1239
 1258SOL    HW215234   2.715   2.373   1.142 -0.0525 -1.0227 -0.4846
 1259SOL     OW15235   4.457   2.123  15.090 -0.9841  0.0483 -0.4040
 1259SOL    HW115236   4.516   2.052  15.117  0.1278  1.5461  1.1287
 1259SOL    HW215237   4.378   2.070  15.086 -1.3435  0.5524  0.1969
 1260SOL     OW15238   0.788   0.438   2.828 -0.6239 -0.1570 -0.1705
 1260SOL    HW115239   0.809   0.359   2.779 -1.0749 -0.0905 -0.4720
 1260SOL    HW215240   0.758   0.499   2.761 -0.6921 -0.4730 -0.4301
 1261SOL     OW15241   3.714   0.323  17.502  0.9157 -0.3517 -0.1725
 1261SOL    HW115242   3.643   0.371  17.459 -0.0184 -2.0980 -0.5841
 1261SOL    HW215243   3.788   0.365  17.459  0.4386  1.0191  0.3515
 1262SOL     OW15244   0.273   0.832  10.099 -0.2907  0.6540  0.5547
 1262SOL    HW115245   0.209   0.902  10.082  0.0805  0.7674 -0.3352
 1262SOL    HW215246   0.253   0.768  10.030  4.9294  0.9359 -1.1707
 1263SOL     OW15247   2.029   3.058  13.952 -0.6320 -0.3229  0.3034
 1263SOL    HW115248   1.939   3.079  13.978 -0.1299 -0.4218  2.1539
 1263SOL    HW215249   2.006   2.991  13.888  0.0349 -0.5102  0.2534
 1264SOL     OW15250   2.420   4.574  16.451 -0.1089 -0.1157 -0.2905
 1264SOL    HW115251   2.420   4.612  16.539 -3.4575 -0.0123 -0.3168
 1264SOL    HW215252   2.408   4.654  16.400 -0.5345  1.2235  1.8954
 1265SOL     OW15253   1.731   3.951  16.652 -0.7185  0.1483  0.2907
 1265SOL    HW115254   1.654   3.951  16.709 -1.1840 -1.7716 -0.3237
 1265SOL    HW215255   1.798   3.992  16.707 -3.2650  0.5187  3.1349
 1266SOL     OW15256   0.506   1.553   5.753 -0.0259  0.1874 -0.1674
 1266SOL    HW115257   0.454   1.598   5.686 -2.2703 -1.1113  0.7134
 1266SOL    HW215258   0.440   1.501   5.800  1.4274 -0.3391  1.2959
 1267SOL     OW15259   4.381   3.643   8.037  0.6476  0.3757 -0.1646
 1267SOL    HW115260   4.312   3.707   8.017 -1.5234 -2.9014 -3.0598
 1267SOL    HW215261   4.331   3.585   8.094  0.2079 -0.8964 -1.8396
 1268SOL     OW15262   1.814   4.094   8.611 -0.1126  0.4896  0.1957
 1268SOL    HW115263   1.725   4.064   8.629 -0.0835  1.2855  1.6691
 1268SOL    HW215264   1.842   4.008   8.579 -0.3836  0.6476 -0.4629
 1269SOL     OW15265   3.430   1.769   3.886 -0.2758 -0.5262 -0.1448
 1269SOL    HW115266   3.489   1.699   3.914  2.7921  1.0485 -2.6751
 1269SOL    HW215267   3.368   1.723   3.828 -2.0274  1.2947  0.3078
 1270SOL     OW15268   3.566   0.705  16.220 -0.5271  0.3411 -0.0075
 1270SOL    HW115269   3.551   0.616  16.252  1.0349 -0.8157 -2.4800
 1270SOL    HW215270   3.616   0.683  16.141 -2.4865  2.6785 -1.8769
 1271SOL     OW15271   3.653   2.705   3.621  0.1095  0.1739  0.8972
 1271SOL    HW115272   3.741   2.742   3.619  0.8653 -1.6231  0.8295
 1271SOL    HW215273   3.608   2.768   3.677  0.7280 -0.7968  2.4839
 1272SOL     OW15274   1.405   4.664   0.473  0.3713 -0.0974  0.1413
 1272SOL    HW115275   1.482   4.713   0.501  0.3267 -0.1063  0.2806
 1272SOL    HW215276   1.445   4.594   0.420  1.8525  0.3034  0.7351
 1273SOL     OW15277   0.513   2.544   1.058  0.2403 -0.0961  0.3062
 1273SOL    HW115278   0.516   2.633   1.094 -1.1403 -0.1093  0.4346
 1273SOL    HW215279   0.583   2.549   0.993 -0.0915  1.0589  0.0368
 1274SOL     OW15280   3.426   2.186   4.128 -0.2613  0.2058 -0.3611
 1274SOL    HW115281   3.434   2.165   4.034  0.3671  1.2479 -0.5320
 1274SOL    HW215282   3.344   2.235   4.130  0.2231  0.8883  2.1742
 1275SOL     OW15283   3.148   3.476   7.870 -0.1438  0.3121  0.3084
 1275SOL    HW115284   3.133   3.383   7.853  0.5596  0.0967  0.8715
 1275SOL    HW215285   3.179   3.488   7.959  1.9737 -0.4848 -0.3086
 1276SOL     OW15286   3.632   1.707  16.515  0.4832 -0.2068 -0.0443
 1276SOL    HW115287   3.542   1.698  16.486  0.1749 -1.0410  1.2213
 1276SOL    HW215288   3.660   1.617  16.499 -0.0597 -0.2936 -0.5029
 1277SOL     OW15289   3.859   3.825   5.341  0.5347  0.0441  0.3433
 1277SOL    HW115290   3.777   3.779   5.322  0.6449 -0.0882  0.1846
 1277SOL    HW215291   3.852   3.842   5.435  1.4802 -0.7537  0.5655
 1278SOL     OW15292   2.184   2.324  14.112 -0.3396 -0.1643 -0.6295
 1278SOL    HW115293   2.245   2.286  14.049 -0.5998 -0.8617 -0.4633
 1278SOL    HW215294   2.100   2.335  14.067 -1.5325  0.0697  1.6246
 1279SOL     OW15295   4.695   2.782  16.204 -0.4283 -0.0770 -0.2342
 1279SOL    HW115296   4.669   2.754  16.291  2.5416 -1.2152  0.3095
 1279SOL    HW215297   0.059   2.744  16.197  0.0981  1.0840 -0.0500
 1280SOL     OW15298   3.208   2.449  12.711 -0.3636 -0.4500 -0.0640
 1280SOL    HW115299   3.149   2.522  12.731 -0.4290 -0.3445 -0.6382
 1280SOL    HW215300   3.202   2.377  12.773  0.7060 -0.1566  0.3824
 1281SOL     OW15301   1.764   3.643  14.593 -0.1646 -0.4953 -0.2174
 1281SOL    HW115302   1.724   3.564  14.555  0.5655 -1.6929  1.4959
 1281SOL    HW215303   1.728   3.706  14.531  1.0031 -0.7238 -1.1416
 1282SOL     OW15304   4.261   4.305   7.763 -0.0229  0.3404 -0.1406
 1282SOL    HW115305   4.183   4.261   7.731 -0.0418 -1.8378  2.9501
 1282SOL    HW215306   4.273   4.262   7.847  0.7939  0.5697 -0.1302
 1283SOL     OW15307   2.071   4.699   4.403 -0.1767  0.2036 -0.0080
 1283SOL    HW115308   1.996   4.655   4.441  0.7201 -2.9726 -1.9155
 1283SOL    HW215309   2.076   4.640   4.328 -2.5798 -1.0043  0.7967
 1284SOL     OW15310   4.290   1.765  16.571  0.1722 -0.1804  0.0063
 1284SOL    HW115311   4.283   1.683  16.620 -1.0088 -1.4393 -2.2490
 1284SOL    HW215312   4.205   1.807  16.586  0.2347 -0.3837  0.9775
 1285SOL     OW15313   3.859   3.986   2.952  0.2040 -0.2615 -0.0347
 1285SOL    HW115314   3.891   4.059   3.005 -0.3108 -0.3344  0.3726
 1285SOL    HW215315   3.922   3.993   2.880 -1.1708  1.1356 -1.0973
 1286SOL     OW15316   2.643   0.911   5.934 -0.1680  0.1546  0.0185
 1286SOL    HW115317   2.564   0.875   5.974  0.2508  0.9389  1.5403
 1286SOL    HW215318   2.717   0.856   5.959  0.0120 -0.0649 -0.9703
 1287SOL     OW15319   1.083   3.559  15.014  0.4727  0.4617 -0.0305
 1287SOL    HW115320   1.061   3.513  15.095  1.6135 -1.0241 -0.5715
 1287SOL    HW215321   1.178   3.546  15.006  0.5340  1.6768 -1.2983
 1288SOL     OW15322   4.549   2.620  16.418  0.1939  0.0222 -0.1354
 1288SOL    HW115323   4.457   2.644  16.410  0.7215  1.5943 -1.3351
 1288SOL    HW215324   4.564   2.634  16.512  0.1650 -0.9865  0.0202
 1289SOL     OW15325   0.286   3.866   0.959 -0.0622 -0.2397  0.7243
 1289SOL    HW115326   0.251   3.874   0.870  1.3163  1.8660  0.3893
 1289SOL    HW215327   0.317   3.953   0.983 -0.7249  0.5412 -1.2735
 1290SOL     OW15328   0.121   0.569   8.269 -0.6039  0.0393 -0.6331
 1290SOL    HW115329   0.147   0.653   8.308  2.7575 -2.2632  2.0763
 1290SOL    HW215330   0.108   0.598   8.179 -2.3104  0.1682 -0.3660
 1291SOL     OW15331   4.205   4.031   8.961 -0.1229 -0.9868 -0.3645
 1291SOL    HW115332   4.236   4.020   8.871  1.7390  2.4402 -0.1659
 1291SOL    HW215333   4.215   3.940   8.986  2.1246 -0.7368 -0.2859
 1292SOL     OW15334   4.549   3.345  11.765 -0.0707  0.2799  0.4073
 1292SOL    HW115335   4.635   3.304  11.765  0.2261  0.9140 -0.7396
 1292SOL    HW215336   4.517   3.321  11.678 -1.9090 -2.5542  1.8603
 1293SOL     OW15337   1.834   2.013   7.493 -0.0765  0.3434 -0.2703
 1293SOL    HW115338   1.764   2.028   7.429 -0.8642  2.1603  1.0329
 1293SOL    HW215339   1.852   2.106   7.504  1.0917  0.5653 -4.0205
 1294SOL     OW15340   3.151   1.714   2.684  0.1389 -0.3267  0.1236
 1294SOL    HW115341   3.085   1.699   2.617 -0.4473  0.4881  0.5133
 1294SOL    HW215342   3.102   1.731   2.765 -1.4845 -2.4985 -0.3886
 1295SOL     OW15343   4.173   2.894   2.105 -0.4682  0.1844 -0.5991
 1295SOL    HW115344   4.161   2.800   2.111 -0.9684  0.2679 -0.2867
 1295SOL    HW215345   4.083   2.925   2.099 -0.9739 -1.4381 -1.0998
 1296SOL     OW15346   3.265   2.889   7.441 -0.1270  0.4083 -0.1660
 1296SOL    HW115347   3.247   2.971   7.488 -0.7064 -0.7868  1.7191
 1296SOL    HW215348   3.262   2.916   7.349  0.5891 -3.2791 -1.2484
 1297SOL     OW15349   2.341   3.047   7.687 -0.0511 -0.7238 -0.1323
 1297SOL    HW115350   2.276   2.988   7.725 -1.9883  1.1477 -0.5226
 1297SOL    HW215351   2.376   2.998   7.612  1.2608  0.1045 -0.0686
 1298SOL     OW15352   3.520   2.561   7.715  0.3143 -0.0172 -0.3019
 1298SOL    HW115353   3.488   2.643   7.677 -3.2251 -1.0662  0.3628
 1298SOL    HW215354   3.583   2.601   7.775 -0.6598  1.6435 -0.3827
 1299SOL     OW15355   1.467   2.787   0.622  0.0305 -0.2162 -0.0062
 1299SOL    HW115356   1.537   2.828   0.673 -1.7156  1.4130  1.0940
 1299SOL    HW215357   1.390   2.829   0.661  0.2808 -0.1476  0.4218
 1300SOL     OW15358   1.086   3.310   4.209  0.1337  0.1741 -0.4636
 1300SOL    HW115359   1.145   3.279   4.140  1.3408  0.4965  0.4303
 1300SOL    HW215360   1.097   3.254   4.286  0.6543  2.2318  0.9761
 1301SOL     OW15361   0.370   1.503  10.641  0.0410 -0.1154  0.3356
 1301SOL    HW115362   0.414   1.479  10.723 -1.5876 -1.1242  0.9285
 1301SOL    HW215363   0.447   1.526  10.589  0.2971 -1.8449 -0.0607
 1302SOL     OW15364   4.001   2.763   4.950 -0.2263 -0.6404  0.1620
 1302SOL    HW115365   4.013   2.672   4.975 -0.9698 -0.8498 -0.2503
 1302SOL    HW215366   4.046   2.801   5.026  0.8425 -0.7133 -0.4282
 1303SOL     OW15367   0.644   0.980  13.519  0.2882  0.0817  0.2211
 1303SOL    HW115368   0.676   1.061  13.558 -0.0862  0.7729 -0.9184
 1303SOL    HW215369   0.627   0.923  13.594  0.5233 -1.3771 -0.8300
 1304SOL     OW15370   3.579   2.084   5.694  0.8346  0.6564  0.1178
 1304SOL    HW115371   3.611   2.147   5.758 -0.1251  2.5049 -1.2336
 1304SOL    HW215372   3.587   1.999   5.737  1.3224  0.0046 -1.2252
 1305SOL     OW15373   0.551   0.021   6.781  0.5890 -0.0306  0.3877
 1305SOL    HW115374   0.642   0.031   6.753  0.7065 -1.7414  0.1886
 1305SOL    HW215375   0.564   4.652   6.803 -1.9824 -0.3286  0.5804
 1306SOL     OW15376   0.414   2.853  15.012 -0.0296  0.4262  0.3059
 1306SOL    HW115377   0.410   2.758  15.001 -0.4199  0.5439 -0.6254
 1306SOL    HW215378   0.324   2.883  15.001  0.7490  1.8300 -2.3781
 1307SOL     OW15379   1.033   3.545  12.832  0.1203 -0.4496 -0.2318
 1307SOL    HW115380   1.082   3.627  12.825  0.9761 -0.9052  0.4639
 1307SOL    HW215381   1.008   3.515  12.745  1.5025  0.8661 -1.0948
 1308SOL     OW15382   3.989   1.113  12.571  0.4827 -0.5188 -0.1346
 1308SOL    HW115383   4.021   1.029  12.538 -0.2985 -0.6748 -0.5027
 1308SOL    HW215384   4.037   1.172  12.513 -0.6636  1.8537  1.3621
 1309SOL     OW15385   2.277   0.303   8.862 -0.0519 -0.2198  0.0324
 1309SOL    HW115386   2.234   0.231   8.816  0.9507  0.2111 -1.5604
 1309SOL    HW215387   2.369   0.278   8.861 -0.1024 -0.3496 -1.1629
 1310SOL     OW15388   2.340   0.203   7.255 -0.7411  0.3208  0.4767
 1310SOL    HW115389   2.366   0.273   7.195 -3.1761 -1.0462 -2.1869
 1310SOL    HW215390   2.262   0.170   7.209  0.7447  1.5692 -2.9766
 1311SOL     OW15391   4.329   1.557   9.951 -0.6597 -0.6955 -0.0865
 1311SOL    HW115392   4.338   1.574   9.857 -1.1001  1.2011  0.2171
 1311SOL    HW215393   4.423   1.572   9.966 -0.5788 -2.1219  0.8951
 1312SOL     OW15394   3.916   2.923   2.108 -0.4304  0.2134 -0.6985
 1312SOL    HW115395   3.839   2.874   2.137 -0.1759 -0.6419 -1.4285
 1312SOL    HW215396   3.862   2.961   2.039 -0.9728 -0.7490 -0.8084
 1313SOL     OW15397   1.970   0.213  16.246  0.5389  0.0475 -0.3161
 1313SOL    HW115398   2.061   0.227  16.273  0.8101  0.3131 -1.3987
 1313SOL    HW215399   1.942   0.155  16.317 -1.3181 -0.6752 -1.6631
 1314SOL     OW15400   3.527   0.430   3.901 -0.0773  0.0848 -0.0232
 1314SOL    HW115401   3.512   0.403   3.810  0.4091 -0.2881  0.0027
 1314SOL    HW215402   3.613   0.390   3.917 -0.4287 -0.2050  1.1204
 1315SOL     OW15403   3.235   2.597   5.361  0.4400  0.0480  0.1592
 1315SOL    HW115404   3.287   2.577   5.439  1.2118  0.3794 -0.2761
 1315SOL    HW215405   3.231   2.693   5.361  1.2036  0.0723 -1.1682
 1316SOL     OW15406   2.659   1.733  10.228  0.0350  0.3182  0.2620
 1316SOL    HW115407   2.751   1.758  10.238 -0.1581  1.0464  0.2138
 1316SOL    HW215408   2.620   1.799  10.170 -0.1319 -1.4893 -1.6936
 1317SOL     OW15409   3.221   3.304   3.398 -0.7298  0.6439  0.4803
 1317SOL    HW115410   3.139   3.295   3.446 -0.9832  2.2664  0.3293
 1317SOL    HW215411   3.238   3.215   3.364 -3.2830  1.1105 -2.0663
 1318SOL     OW15412   4.685   3.091   5.999 -0.3409  0.1494 -0.3530
 1318SOL    HW115413   4.618   3.022   6.001  0.8390 -0.9553  0.4242
 1318SOL    HW215414   0.040   3.048   5.965 -0.8498 -1.5298  0.5885
 1319SOL     OW15415   0.001   4.322   7.177  0.5229 -0.0208  0.3024
 1319SOL    HW115416   4.708   4.389   7.111 -1.2542  0.0609  0.8508
 1319SOL    HW215417   0.018   4.369   7.259 -0.0099 -1.7019  1.3610
 1320SOL     OW15418   3.004   3.168   2.194  0.0589 -0.2541 -0.3672
 1320SOL    HW115419   3.006   3.093   2.134  2.1647 -0.7998  0.3856
 1320SOL    HW215420   2.952   3.230   2.143 -0.9680 -1.8025 -1.2017
 1321SOL     OW15421   3.284   1.453   2.676  0.6062 -0.3370  0.3318
 1321SOL    HW115422   3.219   1.522   2.692  0.6641  0.1830 -1.6712
 1321SOL    HW215423   3.237   1.388   2.624 -2.3653  0.1923  2.2989
 1322SOL     OW15424   2.932   3.623  12.331 -0.2288  0.2305  0.0271
 1322SOL    HW115425   2.881   3.584  12.401 -0.8646  1.3041  0.1637
 1322SOL    HW215426   2.986   3.553  12.295 -2.1049 -0.9981 -0.3727
 1323SOL     OW15427   3.516   1.559  10.629 -0.2536 -0.2262  0.3004
 1323SOL    HW115428   3.449   1.513  10.680 -1.0243  0.8615  0.2746
 1323SOL    HW215429   3.577   1.579  10.699 -1.0195  3.5415 -0.0817
 1324SOL     OW15430   2.437   1.569  14.075 -0.3351  0.4296  0.5977
 1324SOL    HW115431   2.392   1.494  14.113 -1.8370  0.2097 -1.6017
 1324SOL    HW215432   2.371   1.576  14.006  0.0115  0.4112  0.2650
 1325SOL     OW15433   2.824   1.821  14.404 -0.4131  0.0831  0.3758
 1325SOL    HW115434   2.885   1.893  14.424  0.5601 -0.1919 -1.5870
 1325SOL    HW215435   2.765   1.831  14.479  3.2650  1.3100  3.0984
 1326SOL     OW15436   4.680   4.541   8.633  0.1505  0.2821 -0.6868
 1326SOL    HW115437   0.035   4.583   8.667 -1.0520  0.9857  1.2422
 1326SOL    HW215438   4.713   4.520   8.546  0.0813  1.3100 -0.9547
 1327SOL     OW15439   0.955   1.992   0.738 -0.5220 -0.7729 -0.5715
 1327SOL    HW115440   0.989   2.046   0.809 -1.9439  0.9308 -1.1788
 1327SOL    HW215441   0.931   2.063   0.678  1.2088 -0.2774 -0.6696
 1328SOL     OW15442   3.926   3.471   1.630  0.2595  0.1792  0.3678
 1328SOL    HW115443   3.946   3.562   1.650  2.1400  0.1520 -1.4369
 1328SOL    HW215444   4.002   3.449   1.577 -0.1723 -1.2181  0.3123
 1329SOL     OW15445   0.192   1.961   0.274  0.2594 -0.1119 -0.3519
 1329SOL    HW115446   0.194   1.868   0.251  4.0923  0.0861 -0.8791
 1329SOL    HW215447   0.202   1.953   0.368 -0.6435  2.6315 -0.0164
 1330SOL     OW15448   0.305   2.767   5.148 -0.4332 -0.5300 -0.7407
 1330SOL    HW115449   0.332   2.746   5.058 -1.2170 -0.8609 -0.8985
 1330SOL    HW215450   0.243   2.694   5.148 -0.6561 -0.3367 -0.7275
 1331SOL     OW15451   1.133   2.002   9.850 -0.0181  0.2601  0.5506
 1331SOL    HW115452   1.125   1.910   9.874 -0.7880 -0.4129 -2.2067
 1331SOL    HW215453   1.114   2.049   9.931  1.1576 -0.3471  1.1888
 1332SOL     OW15454   4.382   2.255   9.276  0.0763  0.4525 -0.4888
 1332SOL    HW115455   4.320   2.271   9.346  0.1122 -4.1986  0.6084
 1332SOL    HW215456   4.379   2.163   9.250  4.7776  0.5479 -1.4592
 1333SOL     OW15457   1.033   3.761   9.087 -0.1369 -0.2543  0.2226
 1333SOL    HW115458   0.995   3.719   9.164  0.8725 -2.6014 -0.5713
 1333SOL    HW215459   1.071   3.840   9.126 -1.8658  0.8200 -0.2739
 1334SOL     OW15460   2.860   3.938   6.992 -0.2386 -0.4970  0.3117
 1334SOL    HW115461   2.796   4.007   6.977 -0.4681 -0.4204  1.7308
 1334SOL    HW215462   2.810   3.868   7.034 -0.9661 -0.0013  0.2831
 1335SOL     OW15463   4.629   4.132   4.807  0.5122 -0.0958  0.3895
 1335SOL    HW115464   4.566   4.094   4.746  0.4373 -0.5002  0.7215
 1335SOL    HW215465   4.573   4.116   4.883  0.7241 -0.0041  0.5629
 1336SOL     OW15466   4.028   3.828  12.386 -0.7293 -0.7704  0.3779
 1336SOL    HW115467   4.025   3.732  12.392 -1.1079 -0.7686  0.1885
 1336SOL    HW215468   4.031   3.839  12.291  0.9484  0.3632  0.5564
 1337SOL     OW15469   0.281   0.101   3.154  0.0725 -0.1488  0.2862
 1337SOL    HW115470   0.324   0.134   3.232 -0.9902 -0.7298  1.1097
 1337SOL    HW215471   0.358   0.089   3.097  0.6830 -0.7790  1.2525
 1338SOL     OW15472   2.477   3.377  13.809  0.3057 -0.6116  0.0073
 1338SOL    HW115473   2.511   3.393  13.897  0.5613  0.6952 -0.3232
 1338SOL    HW215474   2.427   3.458  13.801 -2.4994 -2.3911 -0.4617
 1339SOL     OW15475   2.357   3.207  12.637 -0.2952  0.4499 -0.2478
 1339SOL    HW115476   2.432   3.244  12.685  0.2046 -0.8086 -0.0695
 1339SOL    HW215477   2.292   3.206  12.707  1.5335 -2.0309  1.4353
 1340SOL     OW15478   2.206   2.947   6.616 -0.6969 -0.0651  0.4972
 1340SOL    HW115479   2.301   2.951   6.608 -0.9354  2.2470 -1.3333
 1340SOL    HW215480   2.212   2.904   6.701  1.4547 -0.3140  0.1992
 1341SOL     OW15481   2.615   4.326  15.331  0.2231 -0.0313 -0.3433
 1341SOL    HW115482   2.700   4.316  15.287  0.8993  0.7620  0.8055
 1341SOL    HW215483   2.632   4.293  15.419 -1.2122  1.0512  0.3468
 1342SOL     OW15484   3.734   3.039   8.843 -0.0912  0.4600 -0.5845
 1342SOL    HW115485   3.732   3.100   8.917  0.4605  0.2706 -0.4107
 1342SOL    HW215486   3.817   2.992   8.855 -0.7069 -0.3030  0.6289
 1343SOL     OW15487   3.796   0.919  13.257  0.2151  0.0391 -0.3622
 1343SOL    HW115488   3.835   0.996  13.298  0.0185  0.4220 -0.8960
 1343SOL    HW215489   3.857   0.896  13.186 -2.3157  0.0590 -2.5188
 1344SOL     OW15490   4.130   1.240  11.348 -0.8664  0.4730  0.2913
 1344SOL    HW115491   4.165   1.200  11.268 -0.5101  2.9679 -0.8092
 1344SOL    HW215492   4.207   1.219  11.402 -0.3540  2.8365  0.4899
 1345SOL     OW15493   2.926   2.796   6.582  0.4264 -0.1495  0.5172
 1345SOL    HW115494   2.885   2.750   6.509  0.8481  1.4568 -0.7384
 1345SOL    HW215495   2.913   2.727   6.647  0.2488  0.8391  1.5344
 1346SOL     OW15496   1.023   1.620   2.945 -0.2080  0.4591 -0.2133
 1346SOL    HW115497   1.015   1.692   2.882  0.1284 -1.3578 -2.3320
 1346SOL    HW215498   0.946   1.569   2.918 -1.0036  1.2164  0.6282
 1347SOL     OW15499   3.551   4.182  15.668 -0.0551  0.2863  0.0732
 1347SOL    HW115500   3.590   4.096  15.658  0.2143  0.2669  1.3180
 1347SOL    HW215501   3.457   4.164  15.676 -0.2178  1.6937  1.3493
 1348SOL     OW15502   4.640   4.139   8.284  0.5929 -0.2475 -0.3544
 1348SOL    HW115503   4.618   4.097   8.201 -3.9901  1.3540  0.0357
 1348SOL    HW215504   4.673   4.225   8.257  0.8535 -0.4176 -0.5705
 1349SOL     OW15505   4.349   2.883  15.727 -0.0808 -0.1861 -0.1801
 1349SOL    HW115506   4.304   2.917  15.805 -1.7841  0.5992 -1.5119
 1349SOL    HW215507   4.296   2.804  15.721 -0.9918  0.4413 -0.4708
 1350SOL     OW15508   1.536   0.246   4.850 -0.0169 -0.1757 -0.1525
 1350SOL    HW115509   1.496   0.300   4.918 -0.7356 -1.6826  0.6136
 1350SOL    HW215510   1.624   0.271   4.878 -0.3621  1.4209 -0.4922
 1351SOL     OW15511   3.988   2.839   3.212  0.0354  0.0690 -0.3244
 1351SOL    HW115512   3.969   2.746   3.198 -0.5114  0.3834 -1.6978
 1351SOL    HW215513   4.083   2.833   3.223 -0.1220 -0.5346  0.7356
 1352SOL     OW15514   4.393   2.567  14.458 -0.1779 -0.2094  0.5109
 1352SOL    HW115515   4.388   2.636  14.525  0.9558 -0.0036  0.3860
 1352SOL    HW215516   4.486   2.549  14.472 -0.4188 -0.4131  1.8436
 1353SOL     OW15517   1.625   1.018   4.045 -0.1456 -0.2354  0.3397
 1353SOL    HW115518   1.683   0.951   4.081 -0.1175 -0.1441  0.4640
 1353SOL    HW215519   1.652   0.998   3.955  2.8196 -3.3310  1.9104
 1354SOL     OW15520   4.261   4.295   8.763 -0.0368  0.8502  0.4947
 1354SOL    HW115521   4.281   4.303   8.856 -2.1148  1.8319  0.8469
 1354SOL    HW215522   4.301   4.210   8.745  1.2976  1.6775 -0.5028
 1355SOL     OW15523   1.355   4.687   6.329  0.2894  0.2658 -0.4703
 1355SOL    HW115524   1.323   4.600   6.353 -0.2058  0.0326 -1.9692
 1355SOL    HW215525   1.416   4.683   6.256  0.3537 -1.0877 -0.3514
 1356SOL     OW15526   0.253   2.185   4.351  0.5060  0.4862 -0.4042
 1356SOL    HW115527   0.294   2.100   4.367 -0.2208  0.2201  0.0759
 1356SOL    HW215528   0.183   2.199   4.415 -0.1756 -0.2278 -0.9932
 1357SOL     OW15529   2.523   3.048   0.649 -0.0567 -0.0664  0.1965
 1357SOL    HW115530   2.595   3.100   0.613  0.1702  0.0262  0.7947
 1357SOL    HW215531   2.556   2.960   0.633 -1.1323  0.0244 -2.6093
 1358SOL     OW15532   3.604   3.444   0.808  0.2453 -0.4790  0.4695
 1358SOL    HW115533   3.532   3.404   0.857  0.7221  0.4170  1.8822
 1358SOL    HW215534   3.563   3.462   0.723  0.4768  1.2828  0.7282
 1359SOL     OW15535   2.680   3.810   4.699 -0.2316  0.1091  0.4641
 1359SOL    HW115536   2.657   3.879   4.761 -1.0054 -0.4844  0.8347
 1359SOL    HW215537   2.760   3.769   4.730 -0.1563  0.5603  0.8608
 1360SOL     OW15538   2.477   0.647   2.808  0.3488  0.3822  0.2052
 1360SOL    HW115539   2.400   0.637   2.753  1.8072  1.2137 -1.9968
 1360SOL    HW215540   2.460   0.608   2.894  0.2883 -0.8970 -0.3910
 1361SOL     OW15541   1.393   2.235   2.862  0.8414  0.4263  0.0425
 1361SOL    HW115542   1.318   2.293   2.858 -0.0514 -0.6804  0.7954
 1361SOL    HW215543   1.350   2.154   2.889 -1.4285  1.3475 -0.9070
 1362SOL     OW15544   3.629   4.245   6.415 -0.8368 -0.0819  0.4514
 1362SOL    HW115545   3.544   4.260   6.456 -0.8421 -2.1604  1.1970
 1362SOL    HW215546   3.642   4.312   6.348  0.8825 -1.5286 -0.6733
 1363SOL     OW15547   1.181   2.419   8.994  0.4137  0.1546  0.1285
 1363SOL    HW115548   1.270   2.424   9.030 -0.9093 -2.1686  3.6918
 1363SOL    HW215549   1.202   2.340   8.946 -2.1704 -0.2711 -0.2995
 1364SOL     OW15550   2.874   2.191   8.678  0.5200 -0.2621 -0.0459
 1364SOL    HW115551   2.946   2.155   8.627 -1.0072 -2.0405 -0.9247
 1364SOL    HW215552   2.901   2.172   8.768 -1.0055  0.2650  0.5214
 1365SOL     OW15553   0.517   0.922   6.620  0.0567 -0.1918 -0.0378
 1365SOL    HW115554   0.488   0.885   6.537 -0.9098  1.5482 -0.4739
 1365SOL    HW215555   0.604   0.881   6.618 -1.0738 -2.6981  3.0586
 1366SOL     OW15556   2.197   3.893  12.433  0.1289 -0.3307 -0.4354
 1366SOL    HW115557   2.161   3.955  12.370 -1.1946 -0.2489  0.4203
 1366SOL    HW215558   2.217   3.955  12.502 -0.7563  2.3503 -2.5809
 1367SOL     OW15559   0.572   1.696   5.977 -0.5366 -0.1223  0.1235
 1367SOL    HW115560   0.559   1.647   5.896 -0.9811  1.0374 -0.5091
 1367SOL    HW215561   0.500   1.665   6.032  0.5232  1.4809  2.4363
 1368SOL     OW15562   1.372   2.145  14.261  0.1066 -0.0005 -0.2642
 1368SOL    HW115563   1.333   2.105  14.183  0.0759 -2.4292  1.0101
 1368SOL    HW215564   1.399   2.070  14.313 -2.7142 -0.9391 -0.1638
 1369SOL     OW15565   2.504   1.624   8.849  0.0654  0.0772  0.5405
 1369SOL    HW115566   2.425   1.633   8.903  0.0770 -0.1407  0.5940
 1369SOL    HW215567   2.500   1.714   8.817 -0.8889 -0.7633 -1.6585
 1370SOL     OW15568   3.965   4.203  15.434  0.2126  0.2320 -0.2260
 1370SOL    HW115569   4.005   4.200  15.521 -2.0575 -0.1709  0.8045
 1370SOL    HW215570   3.903   4.275  15.450  1.5611  1.3210  0.0916
 1371SOL     OW15571   1.548   2.626   5.565 -0.5667  0.3425  0.2969
 1371SOL    HW115572   1.528   2.560   5.499  2.7016 -1.1536  0.8079
 1371SOL    HW215573   1.631   2.597   5.603  0.2292  1.0985 -0.8690
 1372SOL     OW15574   3.370   1.606   4.961 -0.3591 -0.0313 -1.1495
 1372SOL    HW115575   3.307   1.677   4.945 -0.3504  0.2011 -0.1519
 1372SOL    HW215576   3.328   1.569   5.039 -0.9826  1.7285 -0.6574
 1373SOL     OW15577   2.283   1.210   6.973  0.4705 -0.0700 -0.1269
 1373SOL    HW115578   2.229   1.166   6.908 -2.2176 -0.1575  2.1341
 1373SOL    HW215579   2.213   1.217   7.038 -1.8107 -2.7451 -2.3049
 1374SOL     OW15580   3.873   3.054   2.904  0.8197  0.4639 -0.2099
 1374SOL    HW115581   3.850   3.030   2.993  0.1210 -1.3808 -0.8897
 1374SOL    HW215582   3.964   3.026   2.905  0.5562 -0.3292  1.0925
 1375SOL     OW15583   3.070   0.053   1.022 -0.1903  0.2998  0.4446
 1375SOL    HW115584   3.122   0.091   1.093  2.9936  0.1603 -1.8612
 1375SOL    HW215585   2.992   0.025   1.071 -2.1963 -2.2723 -4.1774
 1376SOL     OW15586   1.984   3.400   8.395 -0.1162 -0.4478  0.0590
 1376SOL    HW115587   2.073   3.417   8.424  1.0448 -3.9859 -1.3718
 1376SOL    HW215588   1.948   3.484   8.423  1.2332 -0.4627  1.7963
 1377SOL     OW15589   3.505   1.601   4.560 -0.1962  0.0742  0.2400
 1377SOL    HW115590   3.543   1.599   4.472  0.3012 -1.5492  0.4964
 1377SOL    HW215591   3.454   1.520   4.564  0.5373 -0.4413 -1.0438
 1378SOL     OW15592   2.657   4.587   4.392 -0.1404  0.3494  0.3301
 1378SOL    HW115593   2.612   4.663   4.355  0.6837  0.4713 -0.4439
 1378SOL    HW215594   2.728   4.625   4.443  2.9697 -1.6750 -2.4812
 1379SOL     OW15595   4.077   2.110   6.207 -0.5318 -0.1118  0.0884
 1379SOL    HW115596   4.032   2.027   6.217 -0.7449  0.0921  0.8373
 1379SOL    HW215597   4.154   2.068   6.169 -0.8280  0.0067 -0.6291
 1380SOL     OW15598   1.566   2.492   6.534 -0.1489 -0.5171  0.0177
 1380SOL    HW115599   1.645   2.479   6.481  1.2595  0.7985  1.8013
 1380SOL    HW215600   1.494   2.508   6.472  1.0430 -0.7116 -1.4217
 1381SOL     OW15601   1.820   2.048   4.234  0.3062 -0.1992 -0.2968
 1381SOL    HW115602   1.828   2.041   4.329  0.0116  1.2841 -0.1655
 1381SOL    HW215603   1.875   2.125   4.220  1.5822 -0.9506  0.6644
 1382SOL     OW15604   0.632   3.120   2.352  0.5227  0.1028  0.2289
 1382SOL    HW115605   0.548   3.158   2.328  0.8530  0.1022 -0.9055
 1382SOL    HW215606   0.682   3.122   2.270  0.5345  0.0922  0.2358
 1383SOL     OW15607   2.479   2.266   7.343  0.4302  0.1918 -0.0748
 1383SOL    HW115608   2.428   2.209   7.401 -1.3608  1.9260  0.0410
 1383SOL    HW215609   2.525   2.323   7.405 -1.4847  1.4492  0.1851
 1384SOL     OW15610   0.716   2.658   3.395 -0.7311  0.1476 -0.0795
 1384SOL    HW115611   0.670   2.739   3.417  0.0344 -0.1776  2.6464
 1384SOL    HW215612   0.726   2.618   3.481 -0.0504  0.6973  0.0970
 1385SOL     OW15613   0.540   1.055   2.322  0.6881 -0.0897 -0.7630
 1385SOL    HW115614   0.544   0.978   2.265 -1.9931 -0.6866 -0.1168
 1385SOL    HW215615   0.588   1.117   2.266 -2.0909  1.3347 -1.5439
 1386SOL     OW15616   3.916   1.190   9.257 -0.0747 -0.5601 -0.5515
 1386SOL    HW115617   3.831   1.212   9.296  0.0314  0.7713 -1.0528
 1386SOL    HW215618   3.963   1.154   9.332 -0.4244 -0.2255 -0.1661
 1387SOL     OW15619   3.905   1.422  15.475  0.2240 -0.1906  0.0188
 1387SOL    HW115620   3.887   1.471  15.395 -0.1698  0.7295  0.6681
 1387SOL    HW215621   3.877   1.488  15.538  1.9541  0.1537  0.4159
 1388SOL     OW15622   1.077   0.696   8.687 -0.1044  0.5521  0.1912
 1388SOL    HW115623   1.166   0.710   8.721  0.1173  0.7176 -0.4635
 1388SOL    HW215624   1.050   0.634   8.755  0.3012 -0.3709 -0.4872
 1389SOL     OW15625   4.573   2.834   7.714 -0.2640 -0.0248  0.4759
 1389SOL    HW115626   4.617   2.915   7.690  0.3544 -0.4309  0.2269
 1389SOL    HW215627   4.487   2.857   7.678  1.0625 -1.2443 -3.5421
 1390SOL     OW15628   2.215   3.163  14.751 -0.5196 -0.0937  0.3433
 1390SOL    HW115629   2.288   3.211  14.713 -1.7917  0.1622 -1.7835
 1390SOL    HW215630   2.249   3.074  14.763 -0.4519 -0.0353  0.5822
 1391SOL     OW15631   2.450   3.159  10.716  0.6708  0.0687 -0.0776
 1391SOL    HW115632   2.505   3.222  10.763  0.6636  0.8754 -1.1379
 1391SOL    HW215633   2.438   3.089  10.780 -2.8338  1.6983  1.0474
 1392SOL     OW15634   2.682   2.831  17.377  0.5276 -0.0698  0.4275
 1392SOL    HW115635   2.708   2.869  17.294 -1.8508  2.6104  0.9080
 1392SOL    HW215636   2.703   2.902  17.438  0.6542  0.6382 -0.4540
 1393SOL     OW15637   3.920   1.399  15.797 -0.1685 -0.2136 -0.4109
 1393SOL    HW115638   3.947   1.313  15.830 -0.3000 -0.0600  0.0958
 1393SOL    HW215639   3.969   1.455  15.858  1.2813 -0.2209 -1.5550
 1394SOL     OW15640   3.077   3.436   8.464  0.1508  0.0769  0.1954
 1394SOL    HW115641   3.167   3.457   8.490 -0.0561  0.9133  0.2179
 1394SOL    HW215642   3.079   3.340   8.474  0.4321 -0.2671 -2.9598
 1395SOL     OW15643   0.180   1.904   3.087 -0.1797 -0.2619  0.3882
 1395SOL    HW115644   0.165   1.962   3.012 -0.6189 -1.0042 -0.0919
 1395SOL    HW215645   0.204   1.817   3.055  0.7358  0.3491 -0.5790
 1396SOL     OW15646   0.539   4.549   8.678 -0.0571  0.4774 -0.0708
 1396SOL    HW115647   0.548   4.602   8.757  1.8365 -2.3288  1.5888
 1396SOL    HW215648   0.518   4.626   8.625  2.6899  0.6041 -0.9747
 1397SOL     OW15649   0.338   1.711   6.927  0.4340 -0.0624  0.7436
 1397SOL    HW115650   0.412   1.711   6.867  0.6171 -0.1533  0.9682
 1397SOL    HW215651   0.346   1.627   6.972 -0.2449  0.9197  2.7177
 1398SOL     OW15652   4.168   2.836   3.556 -0.1973  0.2584 -0.1380
 1398SOL    HW115653   4.079   2.861   3.581  0.6914  0.7391  2.6205
 1398SOL    HW215654   4.156   2.797   3.470  0.2199  0.2027 -0.1681
 1399SOL     OW15655   3.610   3.847   2.945 -0.0277 -0.2999  0.1797
 1399SOL    HW115656   3.625   3.808   3.032  0.0901  0.5487  0.5420
 1399SOL    HW215657   3.700   3.867   2.920  0.1315 -0.2129  0.8011
 1400SOL     OW15658   0.917   0.760   5.666 -0.4713  0.1939  0.4276
 1400SOL    HW115659   1.012   0.774   5.662 -0.4621 -0.5984 -1.8817
 1400SOL    HW215660   0.880   0.845   5.691 -0.7607  0.4028 -0.7467
 1401SOL     OW15661   0.996   1.818  14.737 -0.0354  0.1630  0.2992
 1401SOL    HW115662   0.972   1.907  14.761 -0.8213  0.0540 -0.0614
 1401SOL    HW215663   1.080   1.822  14.692  0.1239  1.2265  0.7057
 1402SOL     OW15664   2.664   0.171   8.596 -0.3725 -0.6069 -0.0951
 1402SOL    HW115665   2.574   0.173   8.562 -1.2446 -0.9647  2.2124
 1402SOL    HW215666   2.660   0.100   8.661  0.7868 -1.2503 -0.7254
 1403SOL     OW15667   4.481   1.865  10.070 -0.0265 -0.4084 -0.1459
 1403SOL    HW115668   4.397   1.823  10.088 -0.5779  1.6667  2.1257
 1403SOL    HW215669   4.513   1.880  10.158  0.5662  0.4376 -0.5069
 1404SOL     OW15670   4.594   3.786   5.652 -0.3042 -0.1036  0.8332
 1404SOL    HW115671   4.614   3.825   5.567  0.3495 -0.4081  0.8469
 1404SOL    HW215672   4.650   3.839   5.708  0.2186 -0.0368  0.2502
 1405SOL     OW15673   3.291   0.033   7.083 -0.7454  0.1286  0.0705
 1405SOL    HW115674   3.320   0.044   6.992 -1.2205 -0.3832 -0.1428
 1405SOL    HW215675   3.241   0.113   7.102 -0.8233 -0.3513  1.8232
 1406SOL     OW15676   0.727   2.243   5.357 -0.3385 -0.2952 -0.4647
 1406SOL    HW115677   0.725   2.148   5.346 -1.6362 -0.4107  0.6811
 1406SOL    HW215678   0.812   2.258   5.317 -0.2113  0.0801 -0.0560
 1407SOL     OW15679   3.711   4.089  16.881  0.2390  0.4355 -0.0575
 1407SOL    HW115680   3.758   4.009  16.905 -0.5985 -0.8968 -2.8222
 1407SOL    HW215681   3.774   4.160  16.884 -2.0118  2.4207  0.2125
 1408SOL     OW15682   4.212   4.079  12.087  0.2571 -0.0726 -0.6160
 1408SOL    HW115683   4.121   4.055  12.099  0.5556  0.0188  1.8272
 1408SOL    HW215684   4.246   4.019  12.020 -0.7805  0.6398 -1.7848
 1409SOL     OW15685   4.431   3.586   0.511 -0.2502 -0.1290  0.7150
 1409SOL    HW115686   4.470   3.670   0.535  1.1193 -1.3680  2.8023
 1409SOL    HW215687   4.475   3.561   0.431  0.7339  0.6331  1.0207
 1410SOL     OW15688   3.202   2.453  17.231 -0.0696 -0.1506  0.0029
 1410SOL    HW115689   3.158   2.528  17.192  0.2895 -0.5282 -1.1285
 1410SOL    HW215690   3.155   2.451  17.314 -1.2702 -0.0559 -0.6728
 1411SOL     OW15691   1.112   2.127   4.166  0.3448  0.1671 -0.2372
 1411SOL    HW115692   1.032   2.089   4.129  0.0444  0.4305  0.1443
 1411SOL    HW215693   1.104   2.221   4.152 -0.2550  0.2780  0.8621
 1412SOL     OW15694   2.817   1.482   5.293  0.5694 -0.0116 -0.0080
 1412SOL    HW115695   2.768   1.461   5.213  0.6028  1.6168 -0.4411
 1412SOL    HW215696   2.803   1.403   5.346  2.3297 -1.3764 -1.5955
 1413SOL     OW15697   4.361   2.136   2.752 -0.0663 -0.2077 -0.3847
 1413SOL    HW115698   4.434   2.096   2.703  1.3362  0.8871  0.8121
 1413SOL    HW215699   4.311   2.059   2.778 -0.3393  0.0906 -0.0454
 1414SOL     OW15700   3.482   2.016   6.486  0.0827  0.1478  0.2413
 1414SOL    HW115701   3.438   2.008   6.570 -1.0667 -1.1802 -0.4984
 1414SOL    HW215702   3.524   1.932   6.468 -3.1371 -1.1495 -1.1111
 1415SOL     OW15703   3.831   3.083  14.899 -0.0021 -0.5384 -0.0685
 1415SOL    HW115704   3.910   3.049  14.941  0.4095  1.8234  1.0755
 1415SOL    HW215705   3.869   3.148  14.840  0.8415 -0.0633  1.0022
 1416SOL     OW15706   1.299   4.522   3.805  0.6211  0.0246  0.6631
 1416SOL    HW115707   1.365   4.550   3.868  1.1652  0.5653 -0.1506
 1416SOL    HW215708   1.229   4.482   3.857 -1.0529  0.7462 -1.0187
 1417SOL     OW15709   3.397   3.404   9.758 -0.1104  0.2758  0.3322
 1417SOL    HW115710   3.458   3.448   9.699 -0.1787 -1.5888 -1.1341
 1417SOL    HW215711   3.314   3.441   9.726  0.3749  1.3925  0.3894
 1418SOL     OW15712   2.484   2.507  16.133  0.5857 -0.3740  0.0040
 1418SOL    HW115713   2.475   2.443  16.063 -0.8754 -1.0593  0.8217
 1418SOL    HW215714   2.560   2.557  16.103  0.7385  0.5184  1.8920
 1419SOL     OW15715   2.836   4.205   5.662  0.2799  0.1012  0.3652
 1419SOL    HW115716   2.915   4.256   5.640  0.1746 -0.5994 -1.6750
 1419SOL    HW215717   2.819   4.222   5.754 -0.1047  0.6091  0.1995
 1420SOL     OW15718   3.372   4.689  10.808  0.1854 -0.1955 -0.4087
 1420SOL    HW115719   3.316   0.037  10.778 -0.2918 -0.7641 -0.8965
 1420SOL    HW215720   3.427   4.676  10.731  0.3384  0.0010 -0.3298
 1421SOL     OW15721   0.096   4.554   9.250  0.1761 -0.0842  0.3140
 1421SOL    HW115722   0.054   4.472   9.224 -0.8429  0.0250  1.5591
 1421SOL    HW215723   0.174   4.508   9.279  0.4250 -1.3540 -2.4882
 1422SOL     OW15724   1.262   3.358   7.355  0.0494 -0.6149 -0.1045
 1422SOL    HW115725   1.226   3.375   7.269  1.6354  1.6704 -0.3197
 1422SOL    HW215726   1.269   3.447   7.388 -1.1025 -0.0427 -1.4832
 1423SOL     OW15727   0.944   1.881   8.194  0.0431 -0.2073  0.5560
 1423SOL    HW115728   0.955   1.840   8.108 -0.5592 -2.5140  1.5713
 1423SOL    HW215729   0.851   1.864   8.211 -0.3553  2.0637  0.5942
 1424SOL     OW15730   4.540   2.610   4.277 -0.0666  0.3838  0.0756
 1424SOL    HW115731   4.524   2.556   4.200  1.5441 -1.4846  1.0477
 1424SOL    HW215732   4.450   2.616   4.309  0.2708  2.1706  0.6380
 1425SOL     OW15733   4.645   1.769   2.657  0.0294  0.0488  0.0979
 1425SOL    HW115734   4.628   1.793   2.748  1.4006  3.2270 -0.4866
 1425SOL    HW215735   4.621   1.853   2.618 -1.3952  0.7785  2.5250
 1426SOL     OW15736   0.037   3.238  11.446 -0.4250 -0.3136  0.8176
 1426SOL    HW115737   4.665   3.241  11.452 -0.4943 -2.8244  0.7462
 1426SOL    HW215738   0.060   3.287  11.525  2.6052  0.0742 -0.3138
 1427SOL     OW15739   4.211   3.182   5.164 -0.0052  0.1029 -0.3692
 1427SOL    HW115740   4.294   3.146   5.195 -2.5085 -3.0726  2.4706
 1427SOL    HW215741   4.237   3.259   5.113  0.8625  0.1544  0.1421
 1428SOL     OW15742   3.851   1.121   4.893  0.1973 -0.1348  0.6448
 1428SOL    HW115743   3.871   1.087   4.806  0.7605 -0.7505  1.0222
 1428SOL    HW215744   3.757   1.138   4.883  0.2930  0.0072 -0.0298
 1429SOL     OW15745   1.597   2.544   7.468 -0.6529 -0.0632  0.7074
 1429SOL    HW115746   1.519   2.594   7.444 -1.4149 -2.2989 -1.5554
 1429SOL    HW215747   1.555   2.486   7.532  0.9017 -2.4560 -0.4319
 1430SOL     OW15748   2.889   2.719   6.079 -0.4798 -0.4851  0.2817
 1430SOL    HW115749   2.936   2.667   6.144 -1.7375 -0.6395  1.0636
 1430SOL    HW215750   2.888   2.807   6.114 -0.3268 -0.4380  0.1690
 1431SOL     OW15751   2.069   0.705   8.605  0.1770 -0.5740  0.2772
 1431SOL    HW115752   2.040   0.773   8.665  0.5398  2.0824 -2.5669
 1431SOL    HW215753   2.089   0.644   8.677 -1.3600  0.5607  1.6564
 1432SOL     OW15754   2.465   2.977  15.343  0.2761  0.3400 -0.0185
 1432SOL    HW115755   2.427   3.018  15.421 -1.5177 -0.5274 -0.4347
 1432SOL    HW215756   2.525   2.915  15.383 -0.0129  0.6460  0.8980
 1433SOL     OW15757   0.597   1.065  13.889  0.4391 -0.3362 -0.1946
 1433SOL    HW115758   0.505   1.086  13.904  0.4227  1.0753 -2.3181
 1433SOL    HW215759   0.618   1.124  13.817 -3.4582 -2.0694 -2.6980
 1434SOL     OW15760   0.310   2.765   5.537 -0.3599 -0.0718  0.5155
 1434SOL    HW115761   0.276   2.700   5.475 -0.5467  0.5113  0.0068
 1434SOL    HW215762   0.272   2.728   5.616  1.3431 -0.2610  1.2427
 1435SOL     OW15763   1.156   3.226   4.997  0.2954  0.2634  0.0896
 1435SOL    HW115764   1.077   3.218   4.943  0.2601  1.1348  0.0277
 1435SOL    HW215765   1.117   3.286   5.060  0.3448  0.2842  0.0994
 1436SOL     OW15766   2.727   3.486  16.256  0.3589 -0.7033 -0.2327
 1436SOL    HW115767   2.665   3.415  16.244  0.7984 -1.2671  0.8230
 1436SOL    HW215768   2.728   3.510  16.163 -0.7807 -0.6542 -0.2311
 1437SOL     OW15769   4.631   1.502   4.989  0.0701 -0.4758 -0.3024
 1437SOL    HW115770   4.718   1.484   4.955  0.5786 -1.9105  1.7509
 1437SOL    HW215771   4.592   1.415   4.984 -0.5804  0.0260 -3.5907
 1438SOL     OW15772   3.409   0.862   3.332 -0.1315 -0.0106 -0.1995
 1438SOL    HW115773   3.383   0.771   3.349 -1.3682  0.7704  2.0269
 1438SOL    HW215774   3.505   0.857   3.326 -0.0564  0.9881  0.3084
 1439SOL     OW15775   2.224   1.303   0.814  0.1830  0.1882  0.1063
 1439SOL    HW115776   2.292   1.369   0.829  0.6084 -0.1834 -0.1828
 1439SOL    HW215777   2.186   1.301   0.902 -1.1582  0.4689 -0.4688
 1440SOL     OW15778   2.798   0.570   7.742  0.6172 -0.3430 -0.3830
 1440SOL    HW115779   2.825   0.618   7.820  0.5789  1.3292 -1.3998
 1440SOL    HW215780   2.704   0.564   7.759  0.5345  0.0083 -0.7321
 1441SOL     OW15781   3.989   2.665  16.509 -0.2828  0.0356  0.0303
 1441SOL    HW115782   3.924   2.618  16.561 -0.9051 -0.7055 -1.4178
 1441SOL    HW215783   3.962   2.646  16.419 -0.1320 -0.2144  0.0376
 1442SOL     OW15784   1.684   2.897   0.863  0.1259  0.6679  0.3632
 1442SOL    HW115785   1.740   2.974   0.867  2.5188 -1.0686  0.2219
 1442SOL    HW215786   1.731   2.823   0.901 -3.2238 -0.9876  1.2346
 1443SOL     OW15787   4.606   2.921   4.466  0.8494 -0.4391 -0.3154
 1443SOL    HW115788   4.525   2.881   4.499  0.3904 -0.1959 -1.1459
 1443SOL    HW215789   4.573   2.986   4.404  0.9131  0.3880  0.5070
 1444SOL     OW15790   4.377   3.978   2.588 -0.3918 -0.0266  0.0941
 1444SOL    HW115791   4.467   3.946   2.591  0.2392  1.9407  1.9621
 1444SOL    HW215792   4.337   3.894   2.566 -0.0495 -0.2016  0.1480
 1445SOL     OW15793   1.886   3.252   2.810 -0.0990  0.1031  0.0139
 1445SOL    HW115794   1.972   3.274   2.845 -1.2503  1.6657  1.8487
 1445SOL    HW215795   1.844   3.316   2.867  0.6526 -0.2319  0.9482
 1446SOL     OW15796   4.379   1.037   4.902  0.1127  0.1776 -0.1852
 1446SOL    HW115797   4.378   0.942   4.888  0.4217  0.2706 -0.8229
 1446SOL    HW215798   4.340   1.060   4.817 -2.8964 -1.3619  0.7470
 1447SOL     OW15799   0.030   3.058   8.616  0.8076  0.4114 -0.2519
 1447SOL    HW115800   0.020   3.148   8.585 -1.9631 -0.4009 -1.6973
 1447SOL    HW215801   0.066   3.078   8.703 -0.0232 -2.5421  0.7638
 1448SOL     OW15802   2.355   4.130   8.076 -0.4585  0.2420 -0.2392
 1448SOL    HW115803   2.395   4.072   8.011 -0.3365  0.4923 -0.3852
 1448SOL    HW215804   2.260   4.123   8.068 -0.6513  0.9715  1.3603
 1449SOL     OW15805   3.490   2.924   8.903 -0.1037  0.3520 -0.7442
 1449SOL    HW115806   3.559   2.987   8.880  0.9867 -0.0071  1.5027
 1449SOL    HW215807   3.526   2.837   8.886 -1.7098 -0.2150 -1.2189
 1450SOL     OW15808   0.928   3.338   3.043 -0.1577  0.2475  0.3173
 1450SOL    HW115809   0.869   3.277   2.999 -1.7837  0.7015  1.8853
 1450SOL    HW215810   0.918   3.417   2.991  2.4238 -0.8112 -1.8296
 1451SOL     OW15811   1.932   2.461   8.367 -0.0250  0.5752  0.0874
 1451SOL    HW115812   1.903   2.528   8.428 -0.4903 -0.3384  0.8638
 1451SOL    HW215813   1.853   2.407   8.362  0.7451 -0.5812  0.4927
 1452SOL     OW15814   2.088   0.844   4.150 -0.3299 -0.0616  0.5010
 1452SOL    HW115815   2.082   0.748   4.145 -0.3617  0.0426 -1.4143
 1452SOL    HW215816   2.124   0.856   4.238  0.8214  1.6994 -0.2180
 1453SOL     OW15817   4.070   0.367  10.981  0.3006  0.0876  0.2453
 1453SOL    HW115818   4.004   0.431  11.005 -1.6196 -2.1099  0.7585
 1453SOL    HW215819   4.155   0.396  11.015  0.4525  0.1718 -0.2074
 1454SOL     OW15820   4.050   4.026   2.785 -0.8205  0.1578 -0.7689
 1454SOL    HW115821   4.072   4.113   2.753  0.3055  0.0291 -0.3319
 1454SOL    HW215822   4.134   4.007   2.827 -1.0487 -3.4183 -1.9562
 1455SOL     OW15823   3.608   2.733   6.658  0.4871 -0.2172  0.3538
 1455SOL    HW115824   3.670   2.727   6.585 -0.0144 -0.5665 -0.0477
 1455SOL    HW215825   3.665   2.713   6.732  1.9781 -0.1934 -0.7709
 1456SOL     OW15826   0.716   0.483   7.764  0.6358  0.1360  0.2080
 1456SOL    HW115827   0.646   0.488   7.829  1.0557 -2.3265  0.8524
 1456SOL    HW215828   0.781   0.551   7.776 -0.8954  1.9248 -1.6379
 1457SOL     OW15829   1.090   1.200   5.166 -0.6628 -0.0795  0.0654
 1457SOL    HW115830   1.102   1.181   5.259 -1.2927 -1.0081 -0.0494
 1457SOL    HW215831   1.052   1.288   5.173 -1.0276 -0.2112 -0.2294
 1458SOL     OW15832   2.065   2.468  11.985 -0.1738  0.1035  0.1332
 1458SOL    HW115833   1.997   2.455  12.051 -0.2323  1.4758  0.3377
 1458SOL    HW215834   2.012   2.483  11.907  0.8351  0.8871 -0.3982
 1459SOL     OW15835   3.153   3.947   9.076  0.1920 -0.1182 -0.6526
 1459SOL    HW115836   3.067   3.985   9.061 -0.1400  0.3470  2.4042
 1459SOL    HW215837   3.181   3.977   8.990  0.4910  2.3528  0.2825
 1460SOL     OW15838   0.521   4.372   9.237 -0.5190  0.6425 -0.0571
 1460SOL    HW115839   0.452   4.344   9.178  0.1458  0.0343 -0.5440
 1460SOL    HW215840   0.501   4.464   9.253 -0.7780  0.7136 -0.8163
 1461SOL     OW15841   1.411   1.498   7.966  0.3390 -0.8204  0.5882
 1461SOL    HW115842   1.478   1.530   7.905 -2.0134  2.6030 -0.1606
 1461SOL    HW215843   1.363   1.448   7.900  1.6300 -0.1795 -0.8385
 1462SOL     OW15844   0.172   2.553  14.160  0.2744 -0.0096 -0.3974
 1462SOL    HW115845   0.180   2.483  14.226 -0.1412  0.1517 -0.1774
 1462SOL    HW215846   0.104   2.611  14.194  1.6921  1.3427  0.1294
 1463SOL     OW15847   3.604   1.659   4.842 -0.1714 -0.2233 -0.6039
 1463SOL    HW115848   3.565   1.656   4.755 -1.0285  2.7942 -0.3557
 1463SOL    HW215849   3.524   1.639   4.891 -0.1793  1.0274 -0.0825
 1464SOL     OW15850   1.691   2.011   5.638  0.3149  0.0913  0.0599
 1464SOL    HW115851   1.699   1.928   5.590  0.9867  0.0297  0.2909
 1464SOL    HW215852   1.732   2.065   5.570 -0.2499 -0.7388 -0.9578
 1465SOL     OW15853   0.962   2.394  16.455  0.6217 -0.0466 -0.0110
 1465SOL    HW115854   0.968   2.476  16.503  2.2654 -0.4396  0.4709
 1465SOL    HW215855   0.969   2.422  16.364 -0.8214  0.3706  0.0171
 1466SOL     OW15856   3.712   3.712   1.961  0.1398 -0.2297  0.0422
 1466SOL    HW115857   3.802   3.686   1.980  0.4694  1.5519  0.9192
 1466SOL    HW215858   3.693   3.657   1.885  0.6962 -0.7728  0.2935
 1467SOL     OW15859   2.095   1.334  12.686 -0.3241  0.7646 -0.4883
 1467SOL    HW115860   2.053   1.417  12.663  0.0503  1.0529 -0.1287
 1467SOL    HW215861   2.181   1.371  12.705 -1.0577  1.2111  1.8614
 1468SOL     OW15862   0.236   3.875   5.502  0.1126  0.0744  0.0864
 1468SOL    HW115863   0.290   3.938   5.455  1.7121 -2.2396 -1.1634
 1468SOL    HW215864   0.283   3.856   5.583  0.2765 -2.0558 -0.5075
 1469SOL     OW15865   4.448   0.179   6.616 -0.4738 -0.1747  0.0051
 1469SOL    HW115866   4.435   0.086   6.637  2.1070 -1.5847 -4.6729
 1469SOL    HW215867   4.535   0.174   6.577  1.0427 -2.3332  3.6110
 1470SOL     OW15868   3.914   1.498   4.987 -0.7153  0.0436  0.1453
 1470SOL    HW115869   3.988   1.533   4.937 -1.7713  0.7084 -0.9570
 1470SOL    HW215870   3.878   1.581   5.017  0.6269  0.5350  0.4164
 1471SOL     OW15871   3.750   3.344   6.139 -0.1726 -0.3147 -0.9348
 1471SOL    HW115872   3.728   3.428   6.100 -0.5754  0.2704  0.5327
 1471SOL    HW215873   3.840   3.344   6.106  0.8121  2.5450  1.7460
 1472SOL     OW15874   1.646   0.670   8.919 -0.4575 -0.1879  0.2591
 1472SOL    HW115875   1.558   0.635   8.909  0.0081 -1.1551 -0.3982
 1472SOL    HW215876   1.651   0.690   9.013  0.0386  0.7396  0.0388
 1473SOL     OW15877   2.050   2.690   6.971 -0.2227 -0.1325  0.0730
 1473SOL    HW115878   1.980   2.748   6.942 -0.0858 -0.0174 -0.0274
 1473SOL    HW215879   2.126   2.746   6.954  0.8937 -1.5378  0.4215
 1474SOL     OW15880   1.525   2.219   1.279  0.5178 -0.0161 -0.3219
 1474SOL    HW115881   1.522   2.229   1.374 -1.7964  0.5074 -0.4624
 1474SOL    HW215882   1.595   2.154   1.271  0.4207 -0.0806 -0.6540
 1475SOL     OW15883   1.752   1.536   5.405 -0.1201  0.4414  0.8835
 1475SOL    HW115884   1.662   1.504   5.396  0.7341 -1.6981 -0.1386
 1475SOL    HW215885   1.792   1.460   5.363 -1.0875  0.4256 -0.0101
 1476SOL     OW15886   2.333   3.115   9.971 -0.1095 -0.5142 -0.2101
 1476SOL    HW115887   2.422   3.147   9.986 -0.0376 -1.1248  0.5907
 1476SOL    HW215888   2.284   3.170  10.033  0.0259 -0.7836  0.1317
 1477SOL     OW15889   1.608   0.219   4.165 -0.7077  0.0380  0.2112
 1477SOL    HW115890   1.678   0.154   4.158  1.9402  2.7061  1.9166
 1477SOL    HW215891   1.661   0.297   4.176 -1.3191  0.3517  0.9149
 1478SOL     OW15892   0.340   4.021   6.482  0.1265  0.5995 -0.3059
 1478SOL    HW115893   0.254   4.048   6.514  0.1940  1.2473 -0.6606
 1478SOL    HW215894   0.348   3.947   6.541  0.6371  0.3424 -0.7001
 1479SOL     OW15895   1.537   4.386   7.378 -0.6987  0.2634  0.0330
 1479SOL    HW115896   1.508   4.477   7.374 -0.3212  0.4643  1.9463
 1479SOL    HW215897   1.530   4.354   7.468 -0.9131  0.8625  0.2335
 1480SOL     OW15898   2.563   3.436  13.363  0.1480  0.1097  0.2920
 1480SOL    HW115899   2.621   3.360  13.360 -0.7719 -0.6411  1.7385
 1480SOL    HW215900   2.610   3.501  13.310 -2.9706  1.5735 -0.6391
 1481SOL     OW15901   3.664   4.324   2.681  0.0011  0.1295 -0.0381
 1481SOL    HW115902   3.675   4.239   2.724  0.0890 -0.0148 -0.3412
 1481SOL    HW215903   3.719   4.315   2.603 -0.4971 -1.1064 -0.2553
 1482SOL     OW15904   1.417   0.567   8.205 -0.2237  0.0290 -0.4385
 1482SOL    HW115905   1.324   0.546   8.213  0.1129 -1.6597 -1.0969
 1482SOL    HW215906   1.421   0.634   8.274 -0.1314 -0.5092  0.0738
 1483SOL     OW15907   0.586   1.755   7.654 -0.1337 -0.7105 -0.1936
 1483SOL    HW115908   0.496   1.778   7.677  0.0822  0.8685 -0.9839
 1483SOL    HW215909   0.567   1.674   7.607  3.0309 -0.7113 -1.4653
 1484SOL     OW15910   2.183   1.175   8.399  0.8975  0.2633 -0.3654
 1484SOL    HW115911   2.172   1.084   8.424  1.6150  0.6439  1.3357
 1484SOL    HW215912   2.201   1.209   8.487  2.1895 -0.0693 -0.4989
 1485SOL     OW15913   1.753   2.862   7.444  0.3058 -0.3822  0.3727
 1485SOL    HW115914   1.739   2.854   7.350 -1.9945 -1.0393  0.7873
 1485SOL    HW215915   1.791   2.950   7.441  0.2771 -0.3805  0.0588
 1486SOL     OW15916   0.580   2.345   6.725  0.4200 -0.2461  0.0942
 1486SOL    HW115917   0.577   2.323   6.818 -2.5837 -0.2364 -0.0188
 1486SOL    HW215918   0.664   2.391   6.723  0.2571  0.0664  0.7668
 1487SOL     OW15919   1.186   2.409   2.109 -0.2252  0.3744 -0.0029
 1487SOL    HW115920   1.151   2.421   2.197  1.2376 -0.3951  0.6982
 1487SOL    HW215921   1.202   2.500   2.084 -2.6167 -0.2054 -3.6809
 1488SOL     OW15922   3.929   1.341   6.977 -0.2867  0.2636 -0.3855
 1488SOL    HW115923   3.872   1.284   7.029 -1.0726 -0.3496 -1.9251
 1488SOL    HW215924   3.920   1.318   6.885  4.2815 -0.6609 -0.5639
 1489SOL     OW15925   4.720   3.312   6.222  0.3417 -0.3634 -0.1267
 1489SOL    HW115926   4.683   3.357   6.147  0.3465  2.1127  1.3534
 1489SOL    HW215927   0.009   3.221   6.195  2.6249 -0.4264  1.1671
 1490SOL     OW15928   1.224   3.441   7.994 -0.2116 -0.1460  0.0973
 1490SOL    HW115929   1.276   3.464   8.071 -0.5622  0.6961  0.0801
 1490SOL    HW215930   1.288   3.461   7.925 -0.4975  0.3465 -0.0265
 1491SOL     OW15931   1.761   3.415   2.984 -0.3079  0.0519 -0.1861
 1491SOL    HW115932   1.680   3.420   3.035 -1.3009  1.6279 -1.9164
 1491SOL    HW215933   1.829   3.429   3.051 -1.2103  1.3083  0.4614
 1492SOL     OW15934   0.015   0.675   2.132  0.2052 -0.3044 -0.3776
 1492SOL    HW115935   0.102   0.714   2.126 -1.0162  2.8589  2.1351
 1492SOL    HW215936   4.709   0.686   2.042 -1.9169 -1.1993  0.1915
 1493SOL     OW15937   4.086   3.830   9.973  0.0053  0.5562 -0.2093
 1493SOL    HW115938   4.063   3.810   9.883 -1.2082  1.3214 -0.0662
 1493SOL    HW215939   4.034   3.909   9.983  1.5611  1.8233 -2.3946
 1494SOL     OW15940   4.622   1.870   8.645  0.3918  0.1507  0.1493
 1494SOL    HW115941   4.580   1.900   8.726 -1.9218 -1.5932 -0.3816
 1494SOL    HW215942   4.701   1.922   8.659  1.2229 -1.0641 -0.0370
 1495SOL     OW15943   3.892   2.197   8.340 -0.5012  0.1174 -0.3002
 1495SOL    HW115944   3.930   2.277   8.376  1.1328 -1.4367  1.4212
 1495SOL    HW215945   3.888   2.220   8.247 -0.2607 -0.7610 -0.5272
 1496SOL     OW15946   1.478   2.865   0.284 -0.3634  0.0032  0.0396
 1496SOL    HW115947   1.443   2.938   0.334 -1.3467  0.5624 -1.4653
 1496SOL    HW215948   1.447   2.799   0.347  1.3708 -2.6966 -1.9161
 1497SOL     OW15949   3.759   0.045  17.444  0.3724 -0.3508  0.1036
 1497SOL    HW115950   3.747   0.139  17.455  2.4193 -0.2189  1.0899
 1497SOL    HW215951   3.668   0.024  17.423  0.1097  2.6159 -1.7701
 1498SOL     OW15952   0.380   2.187   9.641 -0.1245 -0.4182  0.5104
 1498SOL    HW115953   0.336   2.138   9.709 -0.5300  0.7975  1.1288
 1498SOL    HW215954   0.354   2.272   9.677  1.7807 -0.1210  1.2346
 1499SOL     OW15955   0.345   0.198  16.653  0.5212  0.6609  0.0668
 1499SOL    HW115956   0.311   0.167  16.738 -0.7211  1.2112 -0.2289
 1499SOL    HW215957   0.415   0.134  16.643 -1.1648 -0.7421 -2.7002
 1500SOL     OW15958   4.558   4.034   6.515  0.1706  0.0626 -0.4284
 1500SOL    HW115959   4.542   4.120   6.477 -0.6409 -0.3453 -1.0177
 1500SOL    HW215960   4.489   4.042   6.582  1.3172  0.7831  0.6568
 1501SOL     OW15961   0.653   1.758   6.852 -0.3680  0.0359  0.4902
 1501SOL    HW115962   0.684   1.773   6.762 -0.0139  0.8250  0.7430
 1501SOL    HW215963   0.696   1.826   6.903  0.4494 -0.1064 -0.0171
 1502SOL     OW15964   0.842   0.335  10.225 -0.4938  0.2363 -0.3548
 1502SOL    HW115965   0.767   0.276  10.235 -0.7443  0.1829 -2.3742
 1502SOL    HW215966   0.872   0.329  10.315  1.1923  1.3515 -0.8358
 1503SOL     OW15967   0.806   1.250   0.900 -0.4299 -0.1441 -0.2936
 1503SOL    HW115968   0.790   1.341   0.924  1.1504 -0.1300  0.6603
 1503SOL    HW215969   0.825   1.250   0.806  0.2572  0.9826 -0.1531
 1504SOL     OW15970   3.006   3.474  15.618 -0.4035 -0.4487 -0.0173
 1504SOL    HW115971   3.082   3.477  15.561  0.9109  0.0202  1.7780
 1504SOL    HW215972   3.006   3.564  15.651 -3.0138 -0.1189 -0.8955
 1505SOL     OW15973   4.616   0.595  13.113  0.5501  0.7525  0.8032
 1505SOL    HW115974   4.555   0.554  13.174 -0.4039 -0.8885 -1.2923
 1505SOL    HW215975   4.590   0.687  13.113 -0.8301  0.3601  1.4606
 1506SOL     OW15976   2.830   3.872  10.570 -0.1964  0.0292  0.0893
 1506SOL    HW115977   2.764   3.887  10.502  0.2420  0.8560 -0.1583
 1506SOL    HW215978   2.915   3.873  10.524 -0.3077 -0.9923 -0.1379
 1507SOL     OW15979   4.697   4.110   1.004 -0.7690 -0.3718  0.5370
 1507SOL    HW115980   4.657   4.082   1.087  1.1427 -1.9101  0.9598
 1507SOL    HW215981   0.059   4.137   1.039 -0.6081 -0.1336 -0.0550
 1508SOL     OW15982   3.212   2.625   7.853 -0.2193 -0.2272  1.1159
 1508SOL    HW115983   3.196   2.712   7.818  1.1381  0.0864  1.2783
 1508SOL    HW215984   3.220   2.575   7.771 -1.8692  1.2126  0.0830
 1509SOL     OW15985   3.270   2.853   6.854 -0.1526 -0.1652  0.2829
 1509SOL    HW115986   3.184   2.878   6.889 -0.2291 -0.6530  0.4338
 1509SOL    HW215987   3.243   2.804   6.776 -0.7904 -1.0565  1.0638
 1510SOL     OW15988   2.574   1.690   3.423  0.0118 -0.5271 -0.5207
 1510SOL    HW115989   2.587   1.643   3.506  0.0689 -2.1252 -1.4367
 1510SOL    HW215990   2.561   1.779   3.457  0.5122 -1.2660  1.6178
 1511SOL     OW15991   0.147   0.119   9.485 -0.3248  0.0157  0.3342
 1511SOL    HW115992   0.147   0.101   9.391  3.3131  1.1304  0.1504
 1511SOL    HW215993   0.158   0.035   9.529  2.0923  1.3339  2.2456
 1512SOL     OW15994   3.811   0.043   8.381 -0.0894  0.6773 -0.3233
 1512SOL    HW115995   3.824   0.101   8.456 -1.3496  1.2993 -0.5947
 1512SOL    HW215996   3.882   0.065   8.321  1.0471  0.0211  0.7699
 1513SOL     OW15997   1.005   4.245  12.378  0.1021 -0.1532  0.2047
 1513SOL    HW115998   0.968   4.317  12.429 -0.9130 -0.2934 -0.3299
 1513SOL    HW215999   1.085   4.286  12.344 -0.9117  2.9126  1.4902
 1514SOL     OW16000   0.485   3.344   5.633 -0.1023 -0.8203  0.3379
 1514SOL    HW116001   0.452   3.257   5.653 -0.7325 -0.9457 -1.2676
 1514SOL    HW216002   0.410   3.392   5.597  1.7358  1.8723  0.0897
 1515SOL     OW16003   0.092   1.732   7.056  0.0345  0.0013 -0.3149
 1515SOL    HW116004   0.172   1.739   7.004 -0.0642  0.7900 -0.3615
 1515SOL    HW216005   0.064   1.823   7.064  1.5058  0.5253 -1.1494
 1516SOL     OW16006   0.929   1.709   7.993  0.6169  0.5903 -0.0579
 1516SOL    HW116007   0.887   1.634   8.035 -2.4818  1.6035 -1.3647
 1516SOL    HW216008   0.896   1.702   7.904 -1.3156  3.3815  0.4538
 1517SOL     OW16009   1.100   0.104   4.106 -0.4885  0.1320  0.0962
 1517SOL    HW116010   1.195   0.104   4.115 -0.3539  0.5865 -1.3623
 1517SOL    HW216011   1.086   0.034   4.043  0.6919 -0.8141  0.8894
 1518SOL     OW16012   4.015   0.668   6.666  0.4542  0.1024 -0.0274
 1518SOL    HW116013   4.075   0.681   6.740  1.1829 -0.8945 -0.4340
 1518SOL    HW216014   4.079   0.635   6.602  1.5476 -0.6380  1.4334
 1519SOL     OW16015   1.004   1.783   2.685  0.3191 -0.2021  0.0562
 1519SOL    HW116016   0.992   1.728   2.608 -0.1656  0.4605 -0.3425
 1519SOL    HW216017   0.937   1.850   2.669 -0.2496 -0.3152  1.9610
 1520SOL     OW16018   0.419   4.075  13.110  0.2080 -0.1060  0.3137
 1520SOL    HW116019   0.403   4.168  13.099  0.8697  0.0867  1.0007
 1520SOL    HW216020   0.482   4.070  13.039  1.2972  0.7543  1.2332
 1521SOL     OW16021   1.541   1.048   0.534 -0.0226  0.7975  0.2609
 1521SOL    HW116022   1.583   1.124   0.575  0.7410 -0.7130  2.2524
 1521SOL    HW216023   1.495   1.011   0.609 -0.7270  0.6849 -0.2247
 1522SOL     OW16024   1.041   3.645   1.503 -0.3672 -0.5598 -0.5640
 1522SOL    HW116025   0.962   3.617   1.549  0.6574  1.2358  2.2932
 1522SOL    HW216026   1.050   3.736   1.531 -0.3791 -0.3804 -1.1375
 1523SOL     OW16027   2.358   3.267  16.445  0.1924 -0.4814 -0.0632
 1523SOL    HW116028   2.266   3.257  16.467 -0.2016  1.7122 -0.8363
 1523SOL    HW216029   2.392   3.342  16.494  0.9021 -1.0957  0.3915
 1524SOL     OW16030   1.255   1.820   9.471 -0.0547  0.2523  0.0108
 1524SOL    HW116031   1.346   1.828   9.441 -0.4194  0.2286 -1.1158
 1524SOL    HW216032   1.224   1.838   9.382  0.4382 -1.2338 -0.4551
 1525SOL     OW16033   2.202   4.642   4.666  0.0964 -0.1710  0.6744
 1525SOL    HW116034   2.297   4.631   4.669  0.0279 -1.0430 -0.1359
 1525SOL    HW216035   2.189   4.672   4.576  2.1783 -0.2068  0.3535
 1526SOL     OW16036   1.537   2.718   1.341  0.0044 -0.3999  0.2172
 1526SOL    HW116037   1.601   2.673   1.396  0.1106  1.4554  1.6322
 1526SOL    HW216038   1.504   2.640   1.298  1.3008 -1.4620  1.1347
 1527SOL     OW16039   2.941   0.774  15.274  0.0754 -0.0565  0.2933
 1527SOL    HW116040   3.022   0.729  15.297 -1.3843 -2.5596  0.5367
 1527SOL    HW216041   2.960   0.800  15.184  0.8902 -1.8720 -0.0680
 1528SOL     OW16042   2.079   1.989   8.629  0.0324  0.2897 -0.0445
 1528SOL    HW116043   2.174   1.983   8.618  0.0432 -0.9205  0.6659
 1528SOL    HW216044   2.061   2.014   8.539  0.8251 -0.0250 -0.2923
 1529SOL     OW16045   2.674   2.105  11.779  0.0358  0.2441 -0.4496
 1529SOL    HW116046   2.767   2.082  11.771  0.4463  1.8743 -0.4488
 1529SOL    HW216047   2.679   2.161  11.856 -1.3720 -3.0722  2.0423
 1530SOL     OW16048   1.980   0.670  14.969  0.0880  0.2672  0.2565
 1530SOL    HW116049   1.972   0.661  14.874  0.4373 -1.4341  0.3945
 1530SOL    HW216050   1.951   0.583  14.996  0.3431 -0.7569 -2.8128
 1531SOL     OW16051   4.685   2.971   3.814 -0.6565  0.5227  0.3000
 1531SOL    HW116052   4.625   3.026   3.865 -0.7127  0.9463 -0.2177
 1531SOL    HW216053   4.650   2.882   3.810 -1.0009  0.5772  1.9941
 1532SOL     OW16054   2.444   1.016   5.712 -0.1007 -0.0731 -0.4714
 1532SOL    HW116055   2.501   0.941   5.726 -1.1545 -0.6866  0.5448
 1532SOL    HW216056   2.408   1.007   5.624 -1.3332  0.9986 -0.0635
 1533SOL     OW16057   2.117   0.625   4.511  0.0753 -0.0667 -0.2095
 1533SOL    HW116058   2.116   0.713   4.473 -4.1100  0.0731  0.2599
 1533SOL    HW216059   2.123   0.641   4.605  0.8824  1.7844 -0.5738
 1534SOL     OW16060   4.126   1.320  15.341  0.5281  0.0757  0.5777
 1534SOL    HW116061   4.072   1.393  15.372 -0.1495  0.1181 -0.6877
 1534SOL    HW216062   4.118   1.258  15.413  2.4341  0.2430  0.9154
 1535SOL     OW16063   3.648   1.685   2.404  0.8833  0.3243  0.5813
 1535SOL    HW116064   3.561   1.662   2.437  0.0384  0.4459 -1.6040
 1535SOL    HW216065   3.701   1.610   2.431 -0.7597 -0.7178  0.9399
 1536SOL     OW16066   2.770   1.624  14.199  0.1730  0.1077 -0.2152
 1536SOL    HW116067   2.815   1.658  14.276  1.5019 -4.0089  0.8065
 1536SOL    HW216068   2.716   1.550  14.226  0.2743  0.9185  2.2130
 1537SOL     OW16069   4.320   2.452  16.080  0.2804  0.2313  0.4808
 1537SOL    HW116070   4.371   2.373  16.063 -1.3289 -0.6918 -0.0768
 1537SOL    HW216071   4.241   2.419  16.124  0.1903 -2.3221 -1.5653
 1538SOL     OW16072   1.362   1.109   1.384  0.1885  0.0602 -0.4286
 1538SOL    HW116073   1.409   1.178   1.430  1.1477  0.3561 -1.8512
 1538SOL    HW216074   1.303   1.153   1.322 -2.4432  0.4745  2.3379
 1539SOL     OW16075   1.958   3.413   7.532 -0.0830  0.9038 -0.2772
 1539SOL    HW116076   2.006   3.467   7.595  1.3620 -1.3637  0.5692
 1539SOL    HW216077   1.889   3.472   7.499 -2.3500 -1.7395 -0.2328
 1540SOL     OW16078   3.717   1.898  16.936 -0.6776  0.1822 -0.4492
 1540SOL    HW116079   3.765   1.818  16.957  2.0853  1.6407 -1.1995
 1540SOL    HW216080   3.733   1.908  16.842  0.7179  2.5422  0.0369
 1541SOL     OW16081   2.493   1.131   8.016 -0.2164 -0.0389 -0.1403
 1541SOL    HW116082   2.541   1.196   8.068 -1.3854 -0.0229  0.9226
 1541SOL    HW216083   2.414   1.125   8.070 -0.5749  2.6630 -0.3534
 1542SOL     OW16084   2.302   0.803   7.270 -0.0547  0.1847  0.2237
 1542SOL    HW116085   2.358   0.872   7.304 -0.6296  0.4484  0.6385
 1542SOL    HW216086   2.299   0.733   7.335 -2.5928  0.1768  0.1184
 1543SOL     OW16087   1.874   3.341   5.487 -0.0514  0.2525  0.2258
 1543SOL    HW116088   1.837   3.392   5.559  0.7435  0.2936  0.6005
 1543SOL    HW216089   1.799   3.284   5.468  2.4074 -3.0939  0.6560
 1544SOL     OW16090   4.589   3.841   2.630 -0.0749  0.0955  0.1059
 1544SOL    HW116091   4.654   3.890   2.680 -1.5627  0.7745  1.4042
 1544SOL    HW216092   4.623   3.752   2.636 -0.2193 -0.0126 -0.6958
 1545SOL     OW16093   1.797   3.600   8.219 -0.4207  0.2027 -0.1378
 1545SOL    HW116094   1.832   3.512   8.233 -1.0501 -0.1022 -0.4743
 1545SOL    HW216095   1.816   3.637   8.305 -1.0989 -1.0034  0.5188
 1546SOL     OW16096   2.295   4.246  12.134 -0.1215  0.0363  0.9617
 1546SOL    HW116097   2.309   4.304  12.060 -0.8839 -1.6305 -0.5005
 1546SOL    HW216098   2.356   4.179  12.102 -1.1601 -0.4214 -0.0749
 1547SOL     OW16099   2.297   2.985   2.398  0.4354 -0.4709 -0.3284
 1547SOL    HW116100   2.288   2.903   2.446 -0.4664 -1.4960 -2.2149
 1547SOL    HW216101   2.383   3.011   2.432  0.8094 -0.8293 -0.9940
 1548SOL     OW16102   2.855   3.114   6.783  0.7887  0.5261 -0.1943
 1548SOL    HW116103   2.774   3.139   6.828  0.8278 -1.5337  0.9731
 1548SOL    HW216104   2.839   3.157   6.699  0.2107 -0.3971 -0.5577
 1549SOL     OW16105   1.495   1.243   4.441 -0.6761 -0.3374  1.0076
 1549SOL    HW116106   1.410   1.200   4.453 -1.2652  0.3059 -0.8462
 1549SOL    HW216107   1.484   1.327   4.485 -3.6514 -0.1725 -0.0711
 1550SOL     OW16108   2.625   1.018   6.292 -0.1028 -0.0245 -0.4009
 1550SOL    HW116109   2.702   1.018   6.235  1.2136  0.2667  1.3736
 1550SOL    HW216110   2.610   1.113   6.299  1.0417  0.0184  1.5375
 1551SOL     OW16111   2.421   3.277  14.100 -0.1599  0.4342 -0.0814
 1551SOL    HW116112   2.515   3.259  14.091 -0.6675 -1.9306 -0.5069
 1551SOL    HW216113   2.430   3.332  14.178 -0.4228  1.3417 -0.6868
 1552SOL     OW16114   0.739   2.808   8.559  0.9927 -0.0911  0.4249
 1552SOL    HW116115   0.729   2.899   8.584 -0.7394 -0.3309  0.5632
 1552SOL    HW216116   0.647   2.791   8.538  0.7932  0.5562  0.7856
 1553SOL     OW16117   0.526   0.931   9.960  0.3700 -0.1567 -0.2237
 1553SOL    HW116118   0.550   0.858  10.018  2.3695  0.7678  0.1100
 1553SOL    HW216119   0.435   0.944   9.986  0.8609  1.6413  0.5831
 1554SOL     OW16120   0.324   0.832   9.707  0.1552 -0.3463 -0.1801
 1554SOL    HW116121   0.245   0.785   9.732 -0.1398  0.8765  1.2363
 1554SOL    HW216122   0.389   0.767   9.681  2.1593  1.0781  1.2457
 1555SOL     OW16123   1.307   2.296   5.681 -0.4188  0.0809  0.1638
 1555SOL    HW116124   1.331   2.206   5.703  0.4364  0.3888  0.5087
 1555SOL    HW216125   1.332   2.342   5.761  0.1932  0.6034 -0.3250
 1556SOL     OW16126   1.173   0.468   9.767  0.0020  0.2876 -0.1454
 1556SOL    HW116127   1.147   0.377   9.756 -2.4133  1.0538 -0.6892
 1556SOL    HW216128   1.094   0.517   9.790 -1.2933  0.0465 -4.0824
 1557SOL     OW16129   0.101   0.593  11.303 -0.0336  0.0180  0.5663
 1557SOL    HW116130   0.122   0.575  11.211  1.5070  0.9668  0.7412
 1557SOL    HW216131   0.170   0.655  11.322  1.9041 -2.1943  0.7716
 1558SOL     OW16132   2.800   1.705   3.636  0.5808 -0.2049  0.7825
 1558SOL    HW116133   2.814   1.613   3.658  0.3149 -0.1942  0.9972
 1558SOL    HW216134   2.881   1.718   3.586  0.4833  2.0077  1.2020
 1559SOL     OW16135   3.480   2.854   7.939  0.2267 -0.2492  0.1433
 1559SOL    HW116136   3.531   2.779   7.909  0.3379 -0.1180  0.0015
 1559SOL    HW216137   3.539   2.928   7.922  2.2536 -1.7482  0.7332
 1560SOL     OW16138   2.890   3.314   6.202 -0.2401  0.6111  0.0897
 1560SOL    HW116139   2.892   3.247   6.133 -1.0470  0.9652 -0.2815
 1560SOL    HW216140   2.984   3.319   6.221  0.2510 -0.2767 -2.0133
 1561SOL     OW16141   3.113   0.419  17.306  0.6431 -0.5047 -0.0235
 1561SOL    HW116142   3.048   0.393  17.241  0.5220 -0.4391  0.0722
 1561SOL    HW216143   3.086   0.507  17.332  0.4239 -0.5507 -0.0941
 1562SOL     OW16144   2.083   3.419   3.600 -0.1074  0.1658  0.0087
 1562SOL    HW116145   2.033   3.444   3.678 -0.1409 -1.9840  0.6957
 1562SOL    HW216146   2.016   3.369   3.553  0.6184  0.1619 -1.0291
 1563SOL     OW16147   1.700   1.912   1.052  0.0938 -0.3551  0.1272
 1563SOL    HW116148   1.706   1.956   1.137  0.4957 -6.2916  3.1856
 1563SOL    HW216149   1.626   1.854   1.067 -1.0207  0.8813 -0.6750
 1564SOL     OW16150   2.602   0.753  16.252  0.4116  0.2749  0.6164
 1564SOL    HW116151   2.688   0.794  16.241  1.4730 -2.4240 -1.1778
 1564SOL    HW216152   2.621   0.694  16.325  2.5159 -0.9443 -0.9434
 1565SOL     OW16153   3.427   0.246   7.336  0.5195 -0.0161  0.1300
 1565SOL    HW116154   3.374   0.166   7.327 -1.2538  1.1547  0.1470
 1565SOL    HW216155   3.509   0.197   7.331  0.4000 -0.3064  1.1771
 1566SOL     OW16156   1.484   1.955   4.580  0.5574  0.1977 -0.3900
 1566SOL    HW116157   1.392   1.936   4.559  0.6095 -2.1081  1.4964
 1566SOL    HW216158   1.519   1.943   4.492 -1.5098  0.8083 -1.3065
 1567SOL     OW16159   3.781   0.999  12.393  0.2500 -0.3367  0.5121
 1567SOL    HW116160   3.850   1.048  12.349  2.2785 -2.7961  0.8956
 1567SOL    HW216161   3.750   1.070  12.449 -2.7231  0.8325 -2.6459
 1568SOL     OW16162   0.455   2.339  11.375  0.1230 -0.6450  0.2316
 1568SOL    HW116163   0.485   2.273  11.438  1.8451 -1.9979 -2.0018
 1568SOL    HW216164   0.367   2.348  11.412  1.2077 -0.1001  2.7078
 1569SOL     OW16165   0.433   0.727  10.780 -0.2937  0.7328 -0.3367
 1569SOL    HW116166   0.428   0.821  10.802  0.4289  0.6668  0.1091
 1569SOL    HW216167   0.361   0.722  10.717  2.0380 -1.5778 -2.7664
 1570SOL     OW16168   0.052   2.632   7.361 -0.1354  0.0109  0.0215
 1570SOL    HW116169   0.015   2.544   7.351  1.7513 -1.0319  2.3066
 1570SOL    HW216170   0.088   2.652   7.275 -1.8225 -2.6022 -1.2904
 1571SOL     OW16171   1.271   1.192   7.300  0.1421  0.2731  0.3570
 1571SOL    HW116172   1.181   1.221   7.317 -0.0327 -0.4423  0.6531
 1571SOL    HW216173   1.265   1.191   7.204  0.7117 -0.5248  0.3355
 1572SOL     OW16174   2.848   2.316   2.453 -0.4151  0.1880  0.1030
 1572SOL    HW116175   2.858   2.221   2.467  1.3477  0.5166  1.1384
 1572SOL    HW216176   2.880   2.325   2.363  0.3586  1.5935  0.5249
 1573SOL     OW16177   0.630   2.342   7.254  0.5070 -0.3652 -0.1140
 1573SOL    HW116178   0.634   2.282   7.328 -4.0534  1.7625  1.8546
 1573SOL    HW216179   0.618   2.425   7.300  1.3647  0.8773 -2.1518
 1574SOL     OW16180   4.404   4.635   2.485  0.0178  0.1550  0.3120
 1574SOL    HW116181   4.366   4.548   2.469 -0.0062  0.6059 -2.0342
 1574SOL    HW216182   4.338   4.699   2.459  1.3467  1.1259 -0.6779
 1575SOL     OW16183   3.312   2.312   6.105  0.4434 -0.0373 -0.3729
 1575SOL    HW116184   3.356   2.274   6.181 -0.1450  0.9411  0.4536
 1575SOL    HW216185   3.356   2.396   6.094 -0.0291  0.4121  1.2669
 1576SOL     OW16186   0.850   2.853   0.746 -0.1864  0.1389 -0.7541
 1576SOL    HW116187   0.908   2.818   0.815 -0.4239  0.3123 -0.4655
 1576SOL    HW216188   0.851   2.946   0.769  0.5693  0.2085 -1.0764
 1577SOL     OW16189   3.668   2.548   1.868  0.1735 -0.9684  0.3442
 1577SOL    HW116190   3.641   2.512   1.953  0.6438 -4.0178 -0.7992
 1577SOL    HW216191   3.581   2.571   1.836  0.5214 -1.0858 -0.6843
 1578SOL     OW16192   1.387   4.507   1.674  0.1665 -0.2220  0.1358
 1578SOL    HW116193   1.406   4.530   1.583  1.2492 -0.3576  0.3257
 1578SOL    HW216194   1.384   4.590   1.722  0.9414 -2.0044  3.2587
 1579SOL     OW16195   1.474   2.408  17.613 -0.4339 -0.1077  0.2921
 1579SOL    HW116196   1.491   2.384  17.522  0.1886  2.4670 -0.2771
 1579SOL    HW216197   1.494   2.502  17.608  1.3409 -0.6393 -3.0567
 1580SOL     OW16198   0.659   1.387   9.386  0.3854  0.6462 -0.8678
 1580SOL    HW116199   0.718   1.433   9.446  0.4137 -0.2663 -0.2056
 1580SOL    HW216200   0.614   1.471   9.374  0.5664  0.3977 -3.2517
 1581SOL     OW16201   4.465   3.152  16.076 -0.0054 -0.0901 -0.5807
 1581SOL    HW116202   4.379   3.151  16.118  0.5340  0.3591  0.5330
 1581SOL    HW216203   4.472   3.246  16.058  0.2211  0.4018  2.0759
 1582SOL     OW16204   0.146   1.683   1.538  0.4301  0.4352  0.0787
 1582SOL    HW116205   0.123   1.596   1.571 -0.3465  1.7728  3.1111
 1582SOL    HW216206   0.080   1.703   1.473 -1.0493  0.2593  1.5342
 1583SOL     OW16207   0.478   1.506  14.726  0.2735  0.0533  0.0981
 1583SOL    HW116208   0.461   1.525  14.818 -1.9460  1.9752 -0.6970
 1583SOL    HW216209   0.433   1.423  14.716  0.5972 -0.0329 -0.6311
 1584SOL     OW16210   3.957   2.118  17.553  0.3774 -0.5411  0.1175
 1584SOL    HW116211   3.929   2.075  17.633  0.8161 -1.5286 -0.2517
 1584SOL    HW216212   4.003   2.199  17.575 -2.5755  0.7953  1.2377
 1585SOL     OW16213   4.347   4.183   8.278  0.4133 -0.0671  0.4698
 1585SOL    HW116214   4.285   4.190   8.351 -0.6381 -1.0143 -0.3244
 1585SOL    HW216215   4.432   4.161   8.316 -0.6723 -4.0555  0.6507
 1586SOL     OW16216   0.776   4.193   4.142  0.4047 -0.5866  0.1992
 1586SOL    HW116217   0.701   4.152   4.187  1.7663 -0.9962  2.0873
 1586SOL    HW216218   0.728   4.237   4.072  1.3665  0.3873  0.1523
 1587SOL     OW16219   3.620   2.880  17.366 -0.1823 -0.1016  0.2134
 1587SOL    HW116220   3.571   2.929  17.300  1.5064 -0.1995 -1.1345
 1587SOL    HW216221   3.574   2.909  17.445 -0.3799  1.3579 -0.4344
 1588SOL     OW16222   2.951   3.339  14.044  0.0565  0.3418  0.1107
 1588SOL    HW116223   3.022   3.299  13.994  2.2569  0.4123  3.2007
 1588SOL    HW216224   2.930   3.413  13.987 -0.5047  0.5592  0.6087
 1589SOL     OW16225   2.984   1.055   9.779 -0.3866 -0.2632  0.5203
 1589SOL    HW116226   2.897   1.022   9.803 -0.4389 -0.3252  0.2385
 1589SOL    HW216227   3.021   0.981   9.730 -0.5564 -0.0463  0.0728
 1590SOL     OW16228   0.990   1.660  11.089 -0.0158 -0.0185  0.6302
 1590SOL    HW116229   0.939   1.622  11.018 -0.6453  0.4604  0.8361
 1590SOL    HW216230   1.005   1.742  11.042  1.7026 -0.4588  0.3825
 1591SOL     OW16231   4.305   3.511   6.747  0.4928  0.0405  0.6276
 1591SOL    HW116232   4.210   3.522   6.750  0.6343  1.2978  0.1927
 1591SOL    HW216233   4.311   3.463   6.665 -1.1603  1.0426 -0.0746
 1592SOL     OW16234   2.182   0.798   4.772 -0.2423  0.0329  0.5192
 1592SOL    HW116235   2.121   0.821   4.842 -0.9339  0.2288 -0.1488
 1592SOL    HW216236   2.202   0.879   4.725 -0.1761 -0.2137  0.1141
 1593SOL     OW16237   3.870   2.012   9.621 -0.1946  0.1508  0.1831
 1593SOL    HW116238   3.899   1.922   9.632 -0.9460 -0.1190 -0.0902
 1593SOL    HW216239   3.917   2.053   9.694  0.4763 -0.3268  0.0191
 1594SOL     OW16240   4.027   3.643   1.004 -0.5816  0.1058  0.6490
 1594SOL    HW116241   4.112   3.641   1.047 -0.1112 -1.6749 -0.3914
 1594SOL    HW216242   4.028   3.549   0.989 -0.6338 -0.1408  2.2624
 1595SOL     OW16243   0.572   1.456   1.213 -0.0774  0.0712  0.1708
 1595SOL    HW116244   0.533   1.489   1.132 -1.5275  0.3940  0.9946
 1595SOL    HW216245   0.527   1.513   1.275 -0.5771  0.2001 -0.3052
 1596SOL     OW16246   2.314   3.185   7.311  0.6921 -0.2629  0.1064
 1596SOL    HW116247   2.238   3.240   7.330  1.2109  0.3873  0.3259
 1596SOL    HW216248   2.386   3.247   7.325  1.4317 -0.9434 -0.7033
 1597SOL     OW16249   0.679   0.815   9.643  0.1076 -0.1122  0.0038
 1597SOL    HW116250   0.654   0.723   9.637  1.3506 -0.6413  2.7725
 1597SOL    HW216251   0.607   0.840   9.702 -0.6722  0.4369 -1.1837
 1598SOL     OW16252   2.453   1.319   2.057 -0.1017 -0.9084  0.2633
 1598SOL    HW116253   2.536   1.352   2.089 -1.0108  1.4836  0.1230
 1598SOL    HW216254   2.394   1.313   2.132  0.5077  1.0399  0.8886
 1599SOL     OW16255   4.222   2.283  13.325  0.2085  0.5995  0.5635
 1599SOL    HW116256   4.182   2.199  13.347 -0.5036  0.7385 -0.2149
 1599SOL    HW216257   4.195   2.340  13.397  0.8841 -0.5662  1.7215
 1600SOL     OW16258   4.189   1.373   9.427  0.0486 -0.1452 -0.0430
 1600SOL    HW116259   4.260   1.358   9.490  0.2383 -0.2444 -0.2794
 1600SOL    HW216260   4.140   1.293   9.446  0.4570 -0.9080 -2.1270
 1601SOL     OW16261   4.141   3.406   7.363 -0.3791 -0.0593  0.4695
 1601SOL    HW116262   4.107   3.431   7.277 -1.6365  0.2933  1.0629
 1601SOL    HW216263   4.196   3.333   7.336 -1.8584 -0.6897 -0.8370
 1602SOL     OW16264   4.680   3.578   6.950 -0.4751  0.1688 -0.4155
 1602SOL    HW116265   4.685   3.489   6.986 -0.7076 -1.0229 -3.3099
 1602SOL    HW216266   0.011   3.568   6.872 -0.6088  0.9329 -0.6056
 1603SOL     OW16267   3.082   3.843  13.235 -0.4619 -0.1491 -0.2644
 1603SOL    HW116268   3.171   3.814  13.255 -0.1249  0.5331 -0.7760
 1603SOL    HW216269   3.031   3.763  13.217  0.8347 -0.5513 -2.1705
 1604SOL     OW16270   1.680   3.665   1.306 -0.6049 -0.0611 -0.0637
 1604SOL    HW116271   1.703   3.668   1.213 -0.6520  0.2331 -0.0635
 1604SOL    HW216272   1.752   3.714   1.347 -0.4800 -0.7641  0.5669
 1605SOL     OW16273   2.004   2.831  11.237  1.2307  0.2409  0.1487
 1605SOL    HW116274   1.981   2.784  11.317 -0.0747 -0.5102 -0.6660
 1605SOL    HW216275   2.096   2.802  11.240  0.7906 -0.9230  2.8074
 1606SOL     OW16276   3.495   2.540   4.033 -0.2110 -0.3640  0.0858
 1606SOL    HW116277   3.486   2.615   4.092  0.3565  1.2516 -1.9268
 1606SOL    HW216278   3.413   2.560   3.988 -0.4248 -0.0928  0.5894
 1607SOL     OW16279   1.501   3.295  11.964  0.2031 -0.4739 -0.1917
 1607SOL    HW116280   1.428   3.341  12.006 -1.9849 -1.6450 -2.7122
 1607SOL    HW216281   1.542   3.247  12.036  1.7770  0.4738 -0.4593
 1608SOL     OW16282   2.815   4.467  15.542 -0.8545 -0.1525  0.3804
 1608SOL    HW116283   2.877   4.491  15.473 -1.4727  2.1894  0.6535
 1608SOL    HW216284   2.752   4.537  15.531 -1.1519 -0.4648  0.1026
 1609SOL     OW16285   1.833   3.914   5.337  0.4163  0.1634 -0.0639
 1609SOL    HW116286   1.878   3.911   5.421  1.7898  1.8421 -0.7298
 1609SOL    HW216287   1.879   3.986   5.293  1.3220 -0.6675 -0.5046
 1610SOL     OW16288   2.696   0.295   4.196  0.1993  0.0211  0.0193
 1610SOL    HW116289   2.602   0.312   4.195  0.4206  1.0870 -1.8009
 1610SOL    HW216290   2.717   0.266   4.107 -1.3616 -1.8621  0.2638
 1611SOL     OW16291   3.308   0.125  12.552 -0.0210  0.0392  0.0783
 1611SOL    HW116292   3.234   0.141  12.610  0.2142  2.5258 -0.2857
 1611SOL    HW216293   3.272   0.095  12.469  1.0839 -1.3264  0.0913
 1612SOL     OW16294   3.482   4.715  17.369 -0.0405 -0.1375 -0.9480
 1612SOL    HW116295   3.444   0.056  17.429 -0.7659 -0.6252 -0.8862
 1612SOL    HW216296   3.423   4.641  17.382  0.7923 -0.6690 -0.1459
 1613SOL     OW16297   0.869   4.378   6.948 -0.1740  0.3376 -0.1283
 1613SOL    HW116298   0.802   4.339   6.892 -0.1844  1.3227 -0.8009
 1613SOL    HW216299   0.819   4.442   6.997 -0.0209  0.1927  0.2205
 1614SOL     OW16300   2.565   1.927   7.574  0.2394  0.4222 -0.6552
 1614SOL    HW116301   2.640   1.985   7.583 -0.6886  1.2424  1.6131
 1614SOL    HW216302   2.597   1.839   7.555  2.9057  1.0417  0.9981
 1615SOL     OW16303   1.072   0.519   5.314 -0.4699  0.0400 -0.7070
 1615SOL    HW116304   1.115   0.507   5.398  1.2226  1.9992 -1.3073
 1615SOL    HW216305   1.110   0.450   5.258 -0.4810 -2.9306  2.9478
 1616SOL     OW16306   2.867   2.426   4.145  0.2144 -0.2239  0.4297
 1616SOL    HW116307   2.819   2.347   4.119 -1.6303  0.9864  0.1465
 1616SOL    HW216308   2.848   2.427   4.239  2.0607  0.8980  0.7970
 1617SOL     OW16309   4.383   2.167   5.655  0.1241 -0.4022  0.4752
 1617SOL    HW116310   4.362   2.212   5.737  1.8907  0.6900  0.3152
 1617SOL    HW216311   4.390   2.247   5.603  1.7663  0.1636  1.5623
 1618SOL     OW16312   1.835   2.438   1.902 -0.1083  0.0248 -0.1039
 1618SOL    HW116313   1.766   2.455   1.967  0.9014 -1.1357  1.2658
 1618SOL    HW216314   1.802   2.356   1.866  0.0954 -0.2367  0.3055
 1619SOL     OW16315   3.401   1.373  10.774 -0.0439 -0.1211  0.1197
 1619SOL    HW116316   3.383   1.294  10.723  2.4449  0.8493 -2.2869
 1619SOL    HW216317   3.337   1.371  10.845  0.2091  0.4044  0.3705
 1620SOL     OW16318   3.207   1.889   3.724 -0.3709 -0.5377  0.6449
 1620SOL    HW116319   3.188   1.796   3.729 -0.8811 -0.4707 -0.0769
 1620SOL    HW216320   3.116   1.913   3.710  0.3352 -0.4433 -3.8734
 1621SOL     OW16321   1.739   0.140   8.655 -0.3372  0.1537 -0.2537
 1621SOL    HW116322   1.682   0.086   8.710  1.3186 -2.2978 -0.9913
 1621SOL    HW216323   1.687   0.218   8.635 -1.5442 -0.9652 -1.5579
 1622SOL     OW16324   4.076   2.489   5.683 -0.3744  0.6139 -0.1541
 1622SOL    HW116325   4.064   2.395   5.670 -1.7526  1.1838 -2.8487
 1622SOL    HW216326   4.103   2.482   5.775 -2.2260 -1.0387  0.2433
 1623SOL     OW16327   3.860   3.446   2.929  0.1112 -0.5442 -0.6739
 1623SOL    HW116328   3.921   3.372   2.927  0.0550 -0.6438  0.8616
 1623SOL    HW216329   3.900   3.518   2.881  0.5678 -1.8669 -2.2732
 1624SOL     OW16330   3.854   4.443   9.650  0.4976 -0.3940 -0.3058
 1624SOL    HW116331   3.939   4.452   9.694 -0.7657  1.2302  1.7559
 1624SOL    HW216332   3.835   4.350   9.661  0.0804 -0.3848 -0.9840
 1625SOL     OW16333   3.915   0.932   2.311 -0.1576  0.4169  0.8501
 1625SOL    HW116334   3.937   0.904   2.400  2.7892 -0.5716 -0.2112
 1625SOL    HW216335   3.988   0.897   2.260 -1.2951 -1.1488  0.2913
 1626SOL     OW16336   3.960   0.336   5.821  0.0679  0.4962  0.8725
 1626SOL    HW116337   3.867   0.321   5.836 -0.1461 -0.8589 -1.7757
 1626SOL    HW216338   3.996   0.374   5.901 -0.5928 -0.6146  1.6840
 1627SOL     OW16339   1.657   3.074   2.767 -0.0162 -0.1990  0.0998
 1627SOL    HW116340   1.673   3.066   2.673  2.3290  0.7076  0.4265
 1627SOL    HW216341   1.736   3.120   2.797  2.2489 -1.5022 -3.8260
 1628SOL     OW16342   2.350   4.664   7.055  0.3917  0.5663  0.7386
 1628SOL    HW116343   2.262   4.703   7.058  0.0955 -0.1466  1.2190
 1628SOL    HW216344   2.387   4.707   7.132 -1.7822  1.0460  1.5323
 1629SOL     OW16345   1.137   1.092   3.946 -0.1548 -0.1774  0.0098
 1629SOL    HW116346   1.189   1.143   4.008 -0.7707 -1.0533  1.2513
 1629SOL    HW216347   1.193   1.016   3.931 -0.2387 -0.4218  0.9426
 1630SOL     OW16348   4.015   1.167   0.418  0.3152  0.3510  0.2468
 1630SOL    HW116349   3.963   1.093   0.450  2.9160 -1.1082  1.0544
 1630SOL    HW216350   4.047   1.196   0.503 -1.5389  0.6265  0.8460
 1631SOL     OW16351   3.319   0.459   9.786  0.1848  0.2882 -0.4440
 1631SOL    HW116352   3.299   0.522   9.855 -1.0557 -1.7218  1.0442
 1631SOL    HW216353   3.414   0.451   9.792  0.1502 -2.3915 -3.1195
 1632SOL     OW16354   0.641   4.217   3.153 -0.0156  0.5302  0.0500
 1632SOL    HW116355   0.732   4.213   3.126  0.2248 -0.0924  0.9589
 1632SOL    HW216356   0.590   4.158   3.098 -0.4198  1.0325 -0.1193
 1633SOL     OW16357   3.450   1.318   7.694  0.0320 -0.4241 -0.1551
 1633SOL    HW116358   3.428   1.273   7.612 -1.3578  1.5262 -0.8587
 1633SOL    HW216359   3.484   1.246   7.746 -0.1595  0.4784  1.2226
 1634SOL     OW16360   4.565   4.128  10.389 -0.0352 -0.1605 -0.1947
 1634SOL    HW116361   4.606   4.070  10.453 -0.5356 -0.8792 -0.5273
 1634SOL    HW216362   4.516   4.072  10.329  0.8008  1.4861 -2.4244
 1635SOL     OW16363   2.540   2.935  15.795  0.0472  0.4031 -0.3015
 1635SOL    HW116364   2.511   2.944  15.704 -1.0488 -1.8982 -0.1803
 1635SOL    HW216365   2.477   2.867  15.819 -0.2613  1.2115  1.1773
 1636SOL     OW16366   1.466   1.176   2.941 -0.9392  0.1785  0.6015
 1636SOL    HW116367   1.375   1.187   2.968 -0.9185  0.3405  0.6091
 1636SOL    HW216368   1.507   1.113   3.000  1.3314  3.3576  2.4446
 1637SOL     OW16369   4.403   0.648  14.333  0.3010  0.3979  0.0816
 1637SOL    HW116370   4.353   0.662  14.253 -1.0273 -1.0750  0.6655
 1637SOL    HW216371   4.491   0.679  14.311  0.9397 -0.0955  1.9287
 1638SOL     OW16372   2.061   2.618   4.772  0.1383  0.1611  0.1456
 1638SOL    HW116373   2.150   2.582   4.770  0.1379  0.1410  0.4065
 1638SOL    HW216374   2.004   2.551   4.811  1.6124 -1.5050 -0.5529
 1639SOL     OW16375   0.129   2.411  10.668 -0.3399 -0.1325  0.3087
 1639SOL    HW116376   0.214   2.385  10.702  0.3034 -1.5286 -2.4133
 1639SOL    HW216377   0.073   2.392  10.743 -1.6026  0.0037 -0.5992
 1640SOL     OW16378   2.076   2.730   0.127  0.1740 -0.6093  0.7577
 1640SOL    HW116379   2.029   2.700   0.049  1.7271 -0.1360 -0.3537
 1640SOL    HW216380   2.113   2.646   0.156  2.2940 -0.3035 -1.0731
 1641SOL     OW16381   1.734   2.356   2.190 -0.1097 -0.2340  0.1562
 1641SOL    HW116382   1.757   2.445   2.215  1.9913 -0.9085  0.7027
 1641SOL    HW216383   1.761   2.323   2.276 -1.0618 -0.5808  0.3193
 1642SOL     OW16384   2.008   3.886   2.546  0.1120  0.0484 -0.0244
 1642SOL    HW116385   1.981   3.812   2.491 -0.7276  0.4804 -0.1848
 1642SOL    HW216386   2.094   3.919   2.519  0.3653  0.5574  1.4233
 1643SOL     OW16387   0.170   2.947  10.090  0.7022  0.0210 -0.2723
 1643SOL    HW116388   0.193   2.899  10.169  0.2004  0.7016  0.2937
 1643SOL    HW216389   0.088   2.917  10.051  0.8626 -2.9708  1.7138
 1644SOL     OW16390   1.574   4.218  11.308 -0.6825 -0.2715 -0.2323
 1644SOL    HW116391   1.619   4.184  11.385 -4.1987 -2.0637  1.0350
 1644SOL    HW216392   1.649   4.235  11.251  0.5092 -0.2583  1.3320
 1645SOL     OW16393   0.540   0.821   8.898  0.5421 -0.1012 -0.4253
 1645SOL    HW116394   0.505   0.749   8.951  0.3327  0.6180  0.4219
 1645SOL    HW216395   0.591   0.872   8.961  0.5094  1.0472 -1.3239
 1646SOL     OW16396   2.562   0.131  12.108 -0.0728  1.1256 -0.2137
 1646SOL    HW116397   2.510   0.056  12.135  1.2119 -0.5989 -2.4922
 1646SOL    HW216398   2.531   0.192  12.175  0.3906 -0.5557  1.5430
 1647SOL     OW16399   3.171   0.177  10.676  0.6772  0.0327 -0.0042
 1647SOL    HW116400   3.247   0.229  10.648  1.2276 -0.5282  0.4552
 1647SOL    HW216401   3.157   0.115  10.605  1.8418 -2.5408  2.0469
 1648SOL     OW16402   3.143   2.314   9.086  0.2797  0.2424 -0.0018
 1648SOL    HW116403   3.218   2.370   9.066 -0.5451  1.5031  0.3663
 1648SOL    HW216404   3.085   2.374   9.134  1.1591  0.6553  0.5423
 1649SOL     OW16405   0.988   2.463   8.810 -0.1774  0.0766  0.2300
 1649SOL    HW116406   0.929   2.529   8.846 -0.8602 -0.6009  0.3496
 1649SOL    HW216407   1.043   2.450   8.888  0.7297  1.1959 -0.2280
 1650SOL     OW16408   1.664   3.444   1.553  0.3939  0.1098 -0.0462
 1650SOL    HW116409   1.637   3.375   1.614 -2.0885  0.2293 -1.0007
 1650SOL    HW216410   1.647   3.515   1.616 -2.2322 -0.8538  0.3240
 1651SOL     OW16411   1.005   2.987   2.254 -0.1248  0.2797  0.8782
 1651SOL    HW116412   1.000   3.067   2.201 -0.8922 -0.2287  0.1782
 1651SOL    HW216413   1.100   2.978   2.262  0.1325 -0.4629 -2.7246
 1652SOL     OW16414   0.161   4.245  13.455  0.2407  0.0654  0.3003
 1652SOL    HW116415   0.207   4.228  13.537  1.2078  1.8420  0.1256
 1652SOL    HW216416   0.227   4.301  13.415 -1.4046  1.6319 -0.2746
 1653SOL     OW16417   2.955   4.564   7.098  1.0388 -0.2453 -0.0323
 1653SOL    HW116418   3.043   4.545   7.132  1.1943 -1.0179 -0.8749
 1653SOL    HW216419   2.970   4.607   7.013 -1.0848 -0.2690 -0.4099
 1654SOL     OW16420   1.620   2.207   6.648 -0.2682  0.0684 -0.4146
 1654SOL    HW116421   1.667   2.202   6.565  1.4132 -1.0904  0.6141
 1654SOL    HW216422   1.583   2.296   6.651 -1.2574 -0.3404 -0.5128
 1655SOL     OW16423   2.733   1.527   4.773 -0.5574 -0.2323 -0.1088
 1655SOL    HW116424   2.759   1.607   4.819  1.5427  0.3454 -2.3041
 1655SOL    HW216425   2.643   1.523   4.806 -0.6646 -0.9118 -0.4737
 1656SOL     OW16426   1.091   2.401   2.359 -0.3489 -0.6890 -0.9697
 1656SOL    HW116427   1.000   2.383   2.332 -1.3457 -0.0969  2.0664
 1656SOL    HW216428   1.129   2.313   2.362  1.3632  0.0895  0.1503
 1657SOL     OW16429   2.134   2.622   3.302 -0.2858 -0.2190  0.1078
 1657SOL    HW116430   2.114   2.532   3.277 -1.2567 -0.2111  0.8699
 1657SOL    HW216431   2.182   2.605   3.383 -0.6681 -2.9938 -0.2761
 1658SOL     OW16432   2.545   1.279   3.029  0.0316  1.0843 -0.3370
 1658SOL    HW116433   2.622   1.223   3.033  0.3555  1.3960 -2.0089
 1658SOL    HW216434   2.482   1.229   3.081  0.8577 -2.3396 -2.6358
 1659SOL     OW16435   3.915   3.838   5.636 -0.4543 -0.6113  0.2978
 1659SOL    HW116436   4.009   3.852   5.651 -0.7435  1.2864  0.3784
 1659SOL    HW216437   3.895   3.793   5.718  0.0646  0.9568  1.2902
 1660SOL     OW16438   2.820   1.519   6.630 -0.1029  0.3479  0.2040
 1660SOL    HW116439   2.770   1.493   6.552 -1.0691 -0.0951  0.9822
 1660SOL    HW216440   2.792   1.611   6.627 -0.2732  0.2582 -1.0588
 1661SOL     OW16441   2.546   1.610  16.068 -0.1168 -0.1209  0.1605
 1661SOL    HW116442   2.616   1.664  16.105  0.5846 -1.3009  0.5637
 1661SOL    HW216443   2.545   1.642  15.979 -4.2284 -1.0148 -0.1431
 1662SOL     OW16444   0.162   4.105   4.804  0.0873 -0.0022 -0.6233
 1662SOL    HW116445   0.090   4.133   4.860  2.2967  0.3400  2.0407
 1662SOL    HW216446   0.120   4.062   4.729  0.3089 -0.4496 -0.4966
 1663SOL     OW16447   4.567   1.528  12.394  0.0413  0.0275  0.2220
 1663SOL    HW116448   4.546   1.622  12.399 -0.6391  0.0020 -2.0658
 1663SOL    HW216449   4.482   1.497  12.363 -0.8755  1.8939  0.8505
 1664SOL     OW16450   2.157   0.010  16.783 -0.2848  0.7165 -0.4335
 1664SOL    HW116451   2.078   0.056  16.811  1.0029  2.3000  0.5590
 1664SOL    HW216452   2.177   4.688  16.865  1.6067  0.3233 -1.1163
 1665SOL     OW16453   2.182   0.429   7.618 -0.4523  0.3487  0.1501
 1665SOL    HW116454   2.139   0.380   7.688  2.9134 -2.1829  0.4375
 1665SOL    HW216455   2.267   0.451   7.658 -0.1924 -0.7276  0.1994
 1666SOL     OW16456   3.163   0.180   4.055  0.8186  0.3850 -0.7680
 1666SOL    HW116457   3.123   0.250   4.001 -2.2112 -1.9037 -1.5105
 1666SOL    HW216458   3.081   0.148   4.092  1.2460 -1.1936 -1.1885
 1667SOL     OW16459   3.414   2.885   0.271  0.2548 -0.6758  0.2023
 1667SOL    HW116460   3.504   2.913   0.291 -1.4670  4.2473  1.2062
 1667SOL    HW216461   3.428   2.828   0.196 -3.4933 -0.4136 -0.6511
 1668SOL     OW16462   4.337   2.174   8.989  0.8096  0.1575  0.1975
 1668SOL    HW116463   4.299   2.118   9.057 -1.0625 -1.9543 -2.5796
 1668SOL    HW216464   4.379   2.104   8.938 -0.7124 -0.7522  0.1599
 1669SOL     OW16465   0.748   3.339   4.676 -0.4699  0.3054 -0.2337
 1669SOL    HW116466   0.741   3.428   4.641  0.3486  1.3320  2.2603
 1669SOL    HW216467   0.712   3.283   4.607  3.5725 -1.7054 -0.6801
 1670SOL     OW16468   0.961   3.257   1.930  0.2101 -0.2341 -0.7043
 1670SOL    HW116469   0.898   3.244   1.859 -2.5137 -0.3618  1.7810
 1670SOL    HW216470   0.996   3.170   1.912 -1.7221 -0.9838 -0.8173
 1671SOL     OW16471   2.459   1.324  12.358 -0.7300 -0.0634 -0.0032
 1671SOL    HW116472   2.481   1.394  12.296 -0.1414  0.3418  0.6613
 1671SOL    HW216473   2.490   1.247  12.310 -2.2732 -1.1747  0.7949
 1672SOL     OW16474   1.528   0.460  13.940  0.0898  0.0290 -0.1851
 1672SOL    HW116475   1.534   0.366  13.928  0.1707  0.0027  0.0513
 1672SOL    HW216476   1.531   0.502  13.854  0.0275 -0.9042 -0.6325
 1673SOL     OW16477   0.313   4.309   6.401 -0.3790  0.1495  0.2670
 1673SOL    HW116478   0.356   4.226   6.422  2.7238  1.9333  0.9934
 1673SOL    HW216479   0.339   4.361   6.477 -1.4735  0.3127  0.5263
 1674SOL     OW16480   2.251   0.176  15.466  0.3061 -0.7693 -0.4822
 1674SOL    HW116481   2.232   0.099  15.413  0.2145 -1.2651  0.2562
 1674SOL    HW216482   2.220   0.147  15.552 -1.3640  2.4230 -0.0359
 1675SOL     OW16483   3.730   3.696   0.827  0.6221 -0.3505 -0.3484
 1675SOL    HW116484   3.741   3.605   0.856 -2.8682 -0.5357  0.4279
 1675SOL    HW216485   3.640   3.689   0.796  0.2308  0.9851  0.4954
 1676SOL     OW16486   0.105   4.383   6.232  0.2031 -0.5103 -0.7655
 1676SOL    HW116487   0.134   4.326   6.160  2.2964 -0.2434 -0.1363
 1676SOL    HW216488   0.152   4.351   6.308 -1.6445  2.1195  1.4791
 1677SOL     OW16489   3.353   1.769  15.698 -0.0289  0.3377 -0.4921
 1677SOL    HW116490   3.446   1.777  15.722  0.0723 -0.8600 -0.4558
 1677SOL    HW216491   3.359   1.800  15.608 -0.2689  0.8404 -0.3300
 1678SOL     OW16492   3.261   3.579   6.768 -0.0969  0.4681 -0.3531
 1678SOL    HW116493   3.322   3.652   6.775  1.1561 -0.4506 -1.7018
 1678SOL    HW216494   3.303   3.501   6.804  0.5763 -0.8058 -3.8529
 1679SOL     OW16495   2.817   0.100   2.922  0.2530  0.0518 -0.0809
 1679SOL    HW116496   2.751   0.169   2.922 -1.0016 -1.1395  0.5731
 1679SOL    HW216497   2.767   0.032   2.877 -3.2311 -0.0780  3.9758
 1680SOL     OW16498   3.389   2.722   3.218  0.2665  0.4058  0.3506
 1680SOL    HW116499   3.460   2.742   3.157 -0.9485  1.2127 -0.7953
 1680SOL    HW216500   3.444   2.715   3.296  2.0667 -2.8739 -1.1801
 1681SOL     OW16501   2.479   2.533  15.064  0.0650 -0.1707  0.1679
 1681SOL    HW116502   2.563   2.555  15.103 -0.3938  1.1398  0.4362
 1681SOL    HW216503   2.455   2.618  15.027  1.2697  0.2218  0.2933
 1682SOL     OW16504   3.008   1.252   2.193  0.1027 -0.1040 -0.2388
 1682SOL    HW116505   2.949   1.303   2.248 -0.1194  0.2544 -0.8080
 1682SOL    HW216506   3.054   1.326   2.154  1.5249  0.4687  2.5156
 1683SOL     OW16507   0.171   2.787   4.412  0.1408 -0.0233 -0.2605
 1683SOL    HW116508   0.082   2.816   4.394 -0.3065  0.2688  2.4211
 1683SOL    HW216509   0.216   2.799   4.329 -0.3972  0.5529 -0.4612
 1684SOL     OW16510   1.010   2.736   8.056  0.6556  0.4854 -0.3112
 1684SOL    HW116511   1.101   2.711   8.041 -0.1265 -2.9107  0.6943
 1684SOL    HW216512   0.994   2.689   8.138 -1.4049  0.8019 -0.5422
 1685SOL     OW16513   3.537   0.813  14.835  0.2658  0.2386 -0.2326
 1685SOL    HW116514   3.604   0.879  14.853 -0.8691  0.6334  2.5441
 1685SOL    HW216515   3.495   0.838  14.753 -1.0202 -0.8527  0.0755
 1686SOL     OW16516   1.222   3.028   1.343 -0.3564  0.1955  0.3619
 1686SOL    HW116517   1.287   3.087   1.381  1.1792 -0.8134 -0.6816
 1686SOL    HW216518   1.219   2.957   1.408  0.0483 -1.8048 -1.7843
 1687SOL     OW16519   0.699   3.475   4.930  0.3832  0.1283 -0.3938
 1687SOL    HW116520   0.718   3.434   4.845 -2.4783  1.4726 -1.6954
 1687SOL    HW216521   0.603   3.475   4.924  0.3694 -1.1477 -0.0480
 1688SOL     OW16522   2.390   3.331  14.616 -0.4488 -0.3231 -0.3032
 1688SOL    HW116523   2.378   3.421  14.646  1.3570  0.4943 -2.0797
 1688SOL    HW216524   2.478   3.317  14.649 -0.6052  1.1724  0.7741
 1689SOL     OW16525   3.574   1.233   7.399 -0.1036  0.0691  0.0095
 1689SOL    HW116526   3.504   1.211   7.338  0.2062  0.5791 -0.5238
 1689SOL    HW216527   3.588   1.150   7.445  1.9881  1.2724  1.5597
 1690SOL     OW16528   4.662   4.329   8.090 -0.2337 -0.1203  0.6439
 1690SOL    HW116529   4.622   4.258   8.040  0.2670 -0.7766  1.1672
 1690SOL    HW216530   4.595   4.396   8.078  0.2942  0.1249 -0.8647
 1691SOL     OW16531   1.154   3.803   7.637  0.6329  0.9251  0.4076
 1691SOL    HW116532   1.086   3.815   7.704 -0.1710  2.3363 -0.6749
 1691SOL    HW216533   1.133   3.865   7.568 -0.7300 -0.4458 -0.4078
 1692SOL     OW16534   1.850   4.224   3.869 -0.2294  0.2669  0.2559
 1692SOL    HW116535   1.782   4.157   3.875  0.8770 -0.8746 -0.1615
 1692SOL    HW216536   1.867   4.244   3.777 -1.8202  0.4730 -0.0004
 1693SOL     OW16537   0.944   0.297   2.440 -0.2271  1.1388 -0.6245
 1693SOL    HW116538   1.031   0.257   2.437 -0.9539 -0.4312 -0.4923
 1693SOL    HW216539   0.971   0.389   2.436  0.7852  0.8694 -0.0570
 1694SOL     OW16540   1.834   2.055  10.475  0.1776  0.1277  0.1045
 1694SOL    HW116541   1.823   2.047  10.570  1.6656 -0.4984  0.2178
 1694SOL    HW216542   1.929   2.056  10.465  0.2614  1.0223  0.9672
 1695SOL     OW16543   3.832   1.249  12.752 -0.0284  0.0449  0.6663
 1695SOL    HW116544   3.889   1.202  12.692  1.0051  3.3704 -0.9582
 1695SOL    HW216545   3.864   1.337  12.735  1.0267 -0.8461 -1.9103
 1696SOL     OW16546   3.770   1.037   8.088 -0.0650  0.5456  0.5642
 1696SOL    HW116547   3.708   1.108   8.076 -0.3588 -0.0287 -1.3072
 1696SOL    HW216548   3.798   1.040   8.179  0.5132  1.6443  0.3442
 1697SOL     OW16549   4.379   0.825   8.384  0.3015  0.2422 -0.9206
 1697SOL    HW116550   4.372   0.878   8.464  2.6177 -1.0812  0.1466
 1697SOL    HW216551   4.463   0.859   8.353  1.0165 -0.0484  0.6525
 1698SOL     OW16552   3.158   2.932  15.104 -0.0140  0.1676  0.0296
 1698SOL    HW116553   3.104   2.975  15.171 -0.2959  0.6907 -0.5261
 1698SOL    HW216554   3.152   2.842  15.134  1.2479 -0.0516 -0.3980
 1699SOL     OW16555   0.635   0.598   9.964  0.1107 -0.5211  0.0107
 1699SOL    HW116556   0.599   0.626  10.048  0.9895  2.5096 -0.6497
 1699SOL    HW216557   0.581   0.520   9.951 -1.8835  0.7812  0.4958
 1700SOL     OW16558   4.491   1.042   0.138 -0.5770  0.7692 -0.6356
 1700SOL    HW116559   4.534   1.106   0.083 -0.5011  0.0262 -1.4300
 1700SOL    HW216560   4.398   1.057   0.119 -1.5726 -3.7980  0.5236
 1701SOL     OW16561   1.289   1.168   7.657  0.2111  0.0962  0.0070
 1701SOL    HW116562   1.363   1.192   7.601 -0.1826 -0.6439 -0.8141
 1701SOL    HW216563   1.338   1.115   7.720 -1.6934  0.4874  1.8228
 1702SOL     OW16564   4.106   4.103  12.441 -0.7888  0.4754  0.1220
 1702SOL    HW116565   4.079   4.173  12.382 -2.0734  1.0245  1.3952
 1702SOL    HW216566   4.074   4.023  12.399 -0.2905  0.7154 -0.7275
 1703SOL     OW16567   2.962   4.070   0.147 -0.4097  0.0687 -0.0747
 1703SOL    HW116568   3.031   4.007   0.128  0.0068 -0.1343  2.1711
 1703SOL    HW216569   2.894   4.021   0.195 -2.7785  3.6664  0.2494
 1704SOL     OW16570   3.737   3.769   4.097 -0.3647  0.1835 -0.7624
 1704SOL    HW116571   3.705   3.857   4.074 -0.1278  0.2254 -0.9331
 1704SOL    HW216572   3.823   3.794   4.130 -1.2433  0.0322  1.6489
 1705SOL     OW16573   1.453   2.403   3.731  0.0401  0.4500  0.0521
 1705SOL    HW116574   1.456   2.352   3.650 -0.4651  0.7626 -0.1572
 1705SOL    HW216575   1.388   2.353   3.780  1.8863 -0.9767  1.0329
 1706SOL     OW16576   3.350   1.140   1.332 -0.1348 -0.0764 -0.0564
 1706SOL    HW116577   3.291   1.123   1.258  0.0998  1.3371 -0.5751
 1706SOL    HW216578   3.423   1.093   1.294 -0.3093  0.3934 -0.9718
 1707SOL     OW16579   1.133   3.874   5.364  0.0570 -0.7167 -0.1964
 1707SOL    HW116580   1.077   3.844   5.292 -0.3420  0.4633 -0.3847
 1707SOL    HW216581   1.207   3.896   5.307  0.8235 -1.5149  0.4955
 1708SOL     OW16582   2.978   4.596   6.536  0.1765 -0.0717  0.3151
 1708SOL    HW116583   2.922   4.601   6.458  1.4012  0.8495 -0.5019
 1708SOL    HW216584   3.060   4.637   6.510 -0.1120 -0.8767 -1.8334
 1709SOL     OW16585   3.712   1.554   9.700 -0.6228  0.1000 -0.0776
 1709SOL    HW116586   3.766   1.513   9.632 -1.7910  0.5359 -1.2833
 1709SOL    HW216587   3.780   1.568   9.765 -0.2266 -2.1099 -0.0100
 1710SOL     OW16588   3.806   3.145  17.175 -1.1607 -0.1921 -0.4155
 1710SOL    HW116589   3.849   3.179  17.096 -0.7618  1.4429  0.5160
 1710SOL    HW216590   3.749   3.079  17.136 -0.1747 -3.0887  3.1380
 1711SOL     OW16591   3.652   2.276  11.267  0.1955  0.9434 -0.4219
 1711SOL    HW116592   3.721   2.337  11.291  0.4025  0.7359 -0.4887
 1711SOL    HW216593   3.685   2.208  11.208 -0.1497  1.7643 -1.5591
 1712SOL     OW16594   1.899   2.993  15.410  0.1502  0.5823  0.0167
 1712SOL    HW116595   1.857   2.927  15.354  0.1115  1.4852 -1.0281
 1712SOL    HW216596   1.872   2.953  15.493 -0.1410  2.7630  0.9716
 1713SOL     OW16597   0.462   3.551   4.837  0.6505  0.1823 -0.0403
 1713SOL    HW116598   0.409   3.619   4.880  0.4145 -2.1166  3.2553
 1713SOL    HW216599   0.482   3.583   4.749  1.3682 -1.9589 -0.6621
 1714SOL     OW16600   4.369   2.930   0.155 -0.4238  0.6898 -0.0564
 1714SOL    HW116601   4.398   2.989   0.084 -1.0499 -1.3248 -1.9932
 1714SOL    HW216602   4.290   2.889   0.121 -0.6082  0.3408  0.8051
 1715SOL     OW16603   3.829   4.636   7.216  0.3366  0.1101  0.4093
 1715SOL    HW116604   3.754   4.612   7.161  1.8174 -3.4247 -0.0094
 1715SOL    HW216605   3.897   4.593   7.166 -1.3811 -0.7677 -1.1737
 1716SOL     OW16606   1.696   0.748   3.421  0.0516  0.0684  0.4490
 1716SOL    HW116607   1.645   0.741   3.502  1.3875 -0.3633  1.2578
 1716SOL    HW216608   1.632   0.742   3.351 -0.2798  0.8979  0.6724
 1717SOL     OW16609   1.691   2.606   9.190 -0.0229  0.0066  0.2644
 1717SOL    HW116610   1.685   2.521   9.234 -0.4434  0.8561  1.8472
 1717SOL    HW216611   1.656   2.585   9.104  1.6418 -3.2818  0.3835
 1718SOL     OW16612   1.238   4.207   9.172  0.0151  0.1483 -0.1545
 1718SOL    HW116613   1.182   4.129   9.170  1.3993 -0.7666 -2.3420
 1718SOL    HW216614   1.217   4.225   9.264  0.4940  1.0034 -0.2150
 1719SOL     OW16615   2.203   1.896   5.973  0.9031  0.4113  0.3375
 1719SOL    HW116616   2.180   1.807   5.945 -2.0851  1.6195 -1.0560
 1719SOL    HW216617   2.135   1.906   6.039  0.4744 -1.0559  0.1229
 1720SOL     OW16618   3.993   4.559  12.610  0.7469 -0.1121  0.2910
 1720SOL    HW116619   3.952   4.481  12.650 -0.4965  0.0364 -0.6944
 1720SOL    HW216620   3.916   4.616  12.605  0.3563 -0.7599 -0.9808
 1721SOL     OW16621   3.519   2.727   4.246 -0.1744 -0.3301 -0.2599
 1721SOL    HW116622   3.498   2.820   4.260  2.3775  0.1967  0.0378
 1721SOL    HW216623   3.566   2.709   4.328  0.9740  2.8523 -0.2061
 1722SOL     OW16624   1.201   2.807   0.400  0.4333 -0.0282 -0.1222
 1722SOL    HW116625   1.124   2.843   0.443  1.2683  0.8927  0.5905
 1722SOL    HW216626   1.207   2.722   0.441  2.2714  1.2239  2.1851
 1723SOL     OW16627   0.564   3.081   6.276 -0.3148  0.5524  0.2740
 1723SOL    HW116628   0.642   3.029   6.256  0.9052  2.0386  1.1200
 1723SOL    HW216629   0.603   3.144   6.337  1.3925 -1.3934  1.1950
 1724SOL     OW16630   0.825   1.040   4.557  0.0719 -0.6178  0.0914
 1724SOL    HW116631   0.788   1.003   4.637 -0.1274  0.7641  0.6442
 1724SOL    HW216632   0.913   1.043   4.595  0.8753 -0.6957 -1.7839
 1725SOL     OW16633   1.570   2.608   4.583  0.0214  0.2438 -0.6037
 1725SOL    HW116634   1.595   2.563   4.664  0.9945  0.9388 -0.5197
 1725SOL    HW216635   1.499   2.554   4.547 -0.7490  0.8123  0.0473
 1726SOL     OW16636   2.101   0.018   1.552 -0.0982  0.0082  0.5418
 1726SOL    HW116637   2.178   0.074   1.566  1.0721 -1.0765 -1.6212
 1726SOL    HW216638   2.110   4.705   1.640 -0.4294  0.9862  0.9849
 1727SOL     OW16639   3.873   3.133  13.065  0.2463 -0.6727 -0.2457
 1727SOL    HW116640   3.820   3.197  13.017 -2.3678 -2.4532  0.2348
 1727SOL    HW216641   3.870   3.170  13.153  0.2315  0.3454 -0.6717
 1728SOL     OW16642   0.375   3.666   8.341  0.7092  0.4966  0.3646
 1728SOL    HW116643   0.282   3.648   8.354  0.8404 -0.0128  0.5820
 1728SOL    HW216644   0.396   3.598   8.277 -2.3259  0.0393 -0.1379
 1729SOL     OW16645   4.509   1.344   9.829  0.1974 -0.2138 -0.3843
 1729SOL    HW116646   4.488   1.408   9.762  1.0153  0.3513 -0.0994
 1729SOL    HW216647   4.542   1.390   9.906  0.0696  0.8381 -0.9640
 1730SOL     OW16648   3.129   0.978   8.894 -0.2384  0.1016 -0.4958
 1730SOL    HW116649   3.096   0.891   8.918 -0.2112  0.4453  0.7995
 1730SOL    HW216650   3.212   0.977   8.941 -0.1670 -0.1268 -0.6262
 1731SOL     OW16651   3.130   1.752   0.201 -0.1502  0.1765  0.7406
 1731SOL    HW116652   3.063   1.821   0.201 -0.5016 -0.1380 -1.5671
 1731SOL    HW216653   3.081   1.676   0.169  0.4184  0.4977 -0.9185
 1732SOL     OW16654   2.382   2.516  16.453 -0.1579  0.5453  0.4766
 1732SOL    HW116655   2.415   2.512  16.363 -1.3819  0.2161  0.0393
 1732SOL    HW216656   2.309   2.457  16.435 -0.8446  0.8093  2.3882
 1733SOL     OW16657   3.657   0.336   1.386  0.6925 -0.4028 -0.0208
 1733SOL    HW116658   3.692   0.422   1.363  0.6121 -0.8670 -1.9325
 1733SOL    HW216659   3.730   0.276   1.375  0.4739 -0.2593 -2.2905
 1734SOL     OW16660   1.667   2.863   3.237  0.4015 -0.6632 -0.2418
 1734SOL    HW116661   1.584   2.837   3.278 -1.1201 -0.4588 -3.2027
 1734SOL    HW216662   1.723   2.817   3.300 -0.3994 -1.7035 -0.2728
 1735SOL     OW16663   2.565   4.030   4.305  0.4862  0.7436 -0.5428
 1735SOL    HW116664   2.504   4.035   4.231  0.2684 -0.9736 -0.4843
 1735SOL    HW216665   2.610   4.114   4.304  2.0956 -0.1268 -0.6790
 1736SOL     OW16666   2.803   0.343   4.889  0.1423 -0.4230 -0.2541
 1736SOL    HW116667   2.741   0.407   4.855  0.7656 -0.5701 -1.6710
 1736SOL    HW216668   2.795   0.355   4.984 -0.6992  1.3885 -0.5532
 1737SOL     OW16669   4.469   4.451   0.071  0.2665  0.0041  0.6013
 1737SOL    HW116670   4.474   4.370   0.020  1.5021  0.3749  0.1279
 1737SOL    HW216671   4.377   4.472   0.059  0.5125  1.0788  0.5896
 1738SOL     OW16672   1.980   2.055   4.509 -0.2584  0.5888  0.1021
 1738SOL    HW116673   2.057   1.998   4.510 -1.1499 -0.6357 -2.6848
 1738SOL    HW216674   1.915   1.989   4.532 -0.7346  1.1449  0.3608
 1739SOL     OW16675   2.830   1.521  16.259  0.1359  0.4673 -0.7973
 1739SOL    HW116676   2.843   1.602  16.308 -1.0581  0.2660 -0.1360
 1739SOL    HW216677   2.768   1.485  16.322  1.7664 -1.4491 -0.3053
 1740SOL     OW16678   4.462   4.597   6.625 -0.0043 -0.3402 -0.1367
 1740SOL    HW116679   4.536   4.548   6.590  0.0644  0.6444 -1.3760
 1740SOL    HW216680   4.458   4.566   6.716 -1.2793  3.2967  1.0604
 1741SOL     OW16681   0.522   4.393   5.669 -0.4389  0.2970 -0.1048
 1741SOL    HW116682   0.463   4.382   5.743 -1.2291  1.0812 -0.6281
 1741SOL    HW216683   0.533   4.300   5.647  0.1065  0.4052 -0.2833
 1742SOL     OW16684   0.022   2.453   2.653 -0.3838  0.3669 -0.2100
 1742SOL    HW116685   4.689   2.385   2.616  0.4026 -0.3025 -0.1926
 1742SOL    HW216686   0.028   2.500   2.569  0.2109  1.0045  0.1847
 1743SOL     OW16687   0.756   0.401   1.852  0.0148 -0.3083  0.0357
 1743SOL    HW116688   0.735   0.309   1.837 -3.0254  0.3183  0.3542
 1743SOL    HW216689   0.829   0.411   1.790  0.9042 -1.8047  0.8451
 1744SOL     OW16690   2.792   2.458   5.177  0.6809  0.1835 -0.9459
 1744SOL    HW116691   2.851   2.392   5.214  0.2611  1.3637  1.8540
 1744SOL    HW216692   2.845   2.532   5.206  0.7353 -0.3595  0.3508
 1745SOL     OW16693   4.276   4.074  16.567  0.4657  0.2691 -0.0109
 1745SOL    HW116694   4.204   4.062  16.505  0.5084  2.2874 -0.4524
 1745SOL    HW216695   4.227   4.060  16.648  1.3532 -0.2653  0.4308
 1746SOL     OW16696   3.590   3.198  15.054  0.3923  0.2465 -0.2071
 1746SOL    HW116697   3.677   3.222  15.084 -0.1026  1.2942  0.4105
 1746SOL    HW216698   3.559   3.280  15.013  0.3679  0.6282  0.5763
 1747SOL     OW16699   0.461   4.716   0.314  0.3258 -0.6619 -0.2589
 1747SOL    HW116700   0.497   0.067   0.362 -2.1458  0.8061 -0.6640
 1747SOL    HW216701   0.399   4.677   0.376 -0.0469 -0.6692 -0.6357
 1748SOL     OW16702   3.518   4.278   8.801  0.4910 -0.4744 -0.4826
 1748SOL    HW116703   3.512   4.184   8.817  0.9840 -0.6695 -1.4963
 1748SOL    HW216704   3.580   4.306   8.868 -2.0321  0.1415  1.6278
 1749SOL     OW16705   1.245   4.468  10.213  0.3025  0.3751 -0.1514
 1749SOL    HW116706   1.232   4.373  10.221  1.4424  0.1222 -1.3078
 1749SOL    HW216707   1.336   4.473  10.243  0.7994 -0.5189 -1.4957
 1750SOL     OW16708   0.830   1.799   3.497  0.0923  0.5288  0.1938
 1750SOL    HW116709   0.804   1.707   3.495 -2.2948  1.1622  1.2825
 1750SOL    HW216710   0.813   1.829   3.408  1.9402 -1.7650 -0.9212
 1751SOL     OW16711   1.267   1.700   2.443  0.5187  0.0571  0.2993
 1751SOL    HW116712   1.345   1.720   2.390  0.5256 -0.9613 -0.0934
 1751SOL    HW216713   1.304   1.698   2.531 -2.4640  0.3915  1.5503
 1752SOL     OW16714   4.591   1.990   8.184 -0.1295  0.5025 -0.3126
 1752SOL    HW116715   4.648   1.914   8.177 -1.6349 -0.5377 -1.2395
 1752SOL    HW216716   4.557   1.986   8.273 -0.3146  0.9683 -0.3622
 1753SOL     OW16717   3.888   0.838   9.346 -0.4585 -0.0689  0.2863
 1753SOL    HW116718   3.819   0.897   9.315 -0.9310  0.6766  2.7481
 1753SOL    HW216719   3.867   0.838   9.440  0.1035 -1.8503  0.4198
 1754SOL     OW16720   3.828   2.575  14.794 -0.0451  0.3154 -0.0093
 1754SOL    HW116721   3.876   2.600  14.714  1.9679 -0.3235  0.9894
 1754SOL    HW216722   3.892   2.516  14.834  1.4370  0.8592 -1.5263
 1755SOL     OW16723   1.258   1.348  10.531 -0.0346  0.0468  0.7215
 1755SOL    HW116724   1.258   1.349  10.626 -0.2935 -2.9882  0.7477
 1755SOL    HW216725   1.185   1.287  10.515  1.7377 -2.1670  1.0351
 1756SOL     OW16726   1.764   0.560  14.065  0.0988 -0.6673 -0.2818
 1756SOL    HW116727   1.687   0.508  14.041 -0.3595 -0.3225  0.4384
 1756SOL    HW216728   1.842   0.505  14.057 -1.4841 -2.7848 -1.1857
 1757SOL     OW16729   3.587   1.261   0.995  0.2821  0.2673  0.1376
 1757SOL    HW116730   3.493   1.279   0.996  0.0839 -0.7683  0.2528
 1757SOL    HW216731   3.600   1.267   1.089 -1.1976  1.1047  0.2787
 1758SOL     OW16732   1.475   3.362   8.233  0.0184  0.4261 -0.2168
 1758SOL    HW116733   1.536   3.371   8.306 -1.5332 -0.7171  1.2147
 1758SOL    HW216734   1.412   3.433   8.249 -1.2124 -0.4496 -1.1717
 1759SOL     OW16735   4.392   1.382   1.112 -0.4829  0.1492  0.6043
 1759SOL    HW116736   4.309   1.401   1.068  1.0739  1.8189 -1.5523
 1759SOL    HW216737   4.389   1.288   1.133  0.1698  0.8276  3.7328
 1760SOL     OW16738   2.263   2.941   0.690  0.0541 -0.4696  0.4871
 1760SOL    HW116739   2.272   2.863   0.745  1.5120  1.0010  2.3423
 1760SOL    HW216740   2.353   2.975   0.687 -0.1631 -0.0698 -1.7724
 1761SOL     OW16741   2.798   4.693   6.719  0.8309 -0.0248 -0.1942
 1761SOL    HW116742   2.781   4.600   6.706  1.4985 -0.0286 -1.1252
 1761SOL    HW216743   2.882   4.690   6.672  0.5338 -2.0892 -0.6088
 1762SOL     OW16744   0.718   1.252   8.670 -0.4179  0.5632  0.2888
 1762SOL    HW116745   0.812   1.263   8.679 -0.0631 -1.2051 -1.3461
 1762SOL    HW216746   0.705   1.158   8.681 -0.7804  0.5106 -0.5751
 1763SOL     OW16747   0.558   2.793   2.378 -0.7296  0.2280  0.2522
 1763SOL    HW116748   0.618   2.820   2.308  0.0900  1.6794  1.5214
 1763SOL    HW216749   0.525   2.715   2.333  0.5278 -1.3310  1.9991
 1764SOL     OW16750   3.975   1.589   7.698  0.4273 -0.0631  0.1694
 1764SOL    HW116751   3.893   1.622   7.659  1.8710  1.0985 -1.8841
 1764SOL    HW216752   4.042   1.655   7.680 -0.3197  0.6537  0.0229
 1765SOL     OW16753   3.596   3.937   6.714 -0.0369  0.4041  0.1485
 1765SOL    HW116754   3.550   3.875   6.658 -3.1140  1.6430  1.3486
 1765SOL    HW216755   3.558   4.024   6.704  0.6874  0.4379 -2.2498
 1766SOL     OW16756   2.112   0.056   4.905  0.3974  0.1051  0.0697
 1766SOL    HW116757   2.195   0.077   4.949 -0.9165  0.7912  2.1980
 1766SOL    HW216758   2.139   4.714   4.841 -1.8616  0.6508 -1.4153
 1767SOL     OW16759   0.865   2.977   6.221 -0.1678 -0.3370 -0.0855
 1767SOL    HW116760   0.866   2.976   6.126  1.9834  1.4668 -0.0741
 1767SOL    HW216761   0.928   3.044   6.246 -1.0495 -0.4382  2.5116
 1768SOL     OW16762   2.725   4.074  10.765  1.0116  0.5311 -0.0766
 1768SOL    HW116763   2.775   4.155  10.760  1.0631  0.5132  0.1288
 1768SOL    HW216764   2.735   4.038  10.677  0.8423 -0.4897  0.3174
 1769SOL     OW16765   2.934   2.673   4.809 -0.4219 -0.2474  1.2426
 1769SOL    HW116766   2.902   2.589   4.844 -0.2719 -0.6010  0.5353
 1769SOL    HW216767   2.990   2.701   4.881 -1.0149  2.7804  0.4953
 1770SOL     OW16768   2.440   3.851   5.665 -0.0861  0.3345  0.2197
 1770SOL    HW116769   2.492   3.916   5.618 -1.9641 -0.3806 -2.7981
 1770SOL    HW216770   2.484   3.774   5.628 -1.4207  1.0418 -2.7874
 1771SOL     OW16771   2.559   4.391  13.127  0.2730  0.0650 -0.0024
 1771SOL    HW116772   2.499   4.333  13.080  0.3139  0.9962 -1.2282
 1771SOL    HW216773   2.536   4.367  13.216 -0.8243  0.5365 -0.1624
 1772SOL     OW16774   1.015   2.312   0.658 -0.0360  0.0265  0.2130
 1772SOL    HW116775   0.978   2.252   0.593 -0.7972 -0.0507  0.7185
 1772SOL    HW216776   0.949   2.365   0.703  0.5742  0.4886  0.5597
 1773SOL     OW16777   4.438   1.304   6.413 -0.1301  0.0674 -0.4362
 1773SOL    HW116778   4.507   1.239   6.407  2.1020  2.0856  3.3800
 1773SOL    HW216779   4.405   1.291   6.324  0.3819 -0.0249 -0.6116
 1774SOL     OW16780   4.693   0.341   2.512  0.2455 -0.1773 -0.2097
 1774SOL    HW116781   4.647   0.414   2.553  1.1502  0.5078 -0.4058
 1774SOL    HW216782   4.712   0.370   2.423 -1.9186 -0.7604 -0.8553
 1775SOL     OW16783   2.408   1.682   2.403  0.0404  0.2977 -0.5180
 1775SOL    HW116784   2.342   1.722   2.346 -0.6681 -2.0357 -1.3158
 1775SOL    HW216785   2.488   1.722   2.368  0.2282 -0.0425 -0.4739
 1776SOL     OW16786   4.716   2.809   4.172  0.2549 -0.1387 -0.6443
 1776SOL    HW116787   4.651   2.878   4.183  0.8616  0.6591 -2.1680
 1776SOL    HW216788   4.668   2.730   4.196 -0.1927 -0.0166 -1.1635
 1777SOL     OW16789   2.068   4.017   6.008 -0.3778  0.5283 -0.0430
 1777SOL    HW116790   2.005   4.057   6.068 -1.0762  1.4141 -1.3588
 1777SOL    HW216791   2.156   4.037   6.041 -1.9300  2.8492  2.6826
 1778SOL     OW16792   0.942   0.709   7.452 -0.1047 -0.2429  0.4285
 1778SOL    HW116793   0.952   0.660   7.534  2.1848  1.1521  0.9648
 1778SOL    HW216794   0.982   0.792   7.477  0.0396 -0.1830 -0.0060
 1779SOL     OW16795   3.331   4.394   5.626 -0.3720  0.3599 -0.0827
 1779SOL    HW116796   3.368   4.317   5.582 -2.4866  0.3311 -1.7917
 1779SOL    HW216797   3.360   4.384   5.717  1.1450 -0.9425 -0.7083
 1780SOL     OW16798   2.659   3.564  15.765  0.4131 -0.4505 -0.4037
 1780SOL    HW116799   2.688   3.653  15.742 -0.6170 -0.1051 -0.3583
 1780SOL    HW216800   2.602   3.549  15.689  2.2530  1.8366 -2.2451
 1781SOL     OW16801   4.118   3.501   2.428 -0.0811 -0.6066  0.3898
 1781SOL    HW116802   4.023   3.504   2.417  0.2175 -1.2241 -2.1868
 1781SOL    HW216803   4.131   3.407   2.423  0.1190 -0.4766 -1.2685
 1782SOL     OW16804   2.959   0.922  17.484  0.5134 -0.5237 -0.0894
 1782SOL    HW116805   2.941   0.946  17.575 -0.1715 -2.6057  0.3338
 1782SOL    HW216806   2.887   0.971  17.444 -0.8223 -1.4626  1.1494
 1783SOL     OW16807   2.638   1.848   1.709  0.2948  0.0027 -0.7783
 1783SOL    HW116808   2.607   1.767   1.667  0.9645 -0.9334  0.5139
 1783SOL    HW216809   2.702   1.817   1.773  0.3122  0.9091 -0.3654
 1784SOL     OW16810   3.424   2.521   5.531 -0.8220  0.2669 -0.1324
 1784SOL    HW116811   3.476   2.450   5.493  2.4315  3.2211 -1.1529
 1784SOL    HW216812   3.480   2.598   5.526 -1.9628  1.0096 -1.6078
 1785SOL     OW16813   3.904   3.168   7.396  0.6320 -0.7291 -0.3554
 1785SOL    HW116814   3.846   3.094   7.413 -0.0188  0.1625  1.2862
 1785SOL    HW216815   3.970   3.103   7.371  1.0130 -0.4740  0.0061
 1786SOL     OW16816   2.666   1.937   6.867  0.2784  0.0393  0.4017
 1786SOL    HW116817   2.708   1.880   6.931 -0.4593 -1.2111 -0.2081
 1786SOL    HW216818   2.686   2.015   6.917  0.5295  0.1757  0.0888
 1787SOL     OW16819   1.940   2.461   1.192 -0.8159 -0.3586 -0.7694
 1787SOL    HW116820   2.020   2.445   1.142  0.7438 -3.7834  2.8531
 1787SOL    HW216821   1.876   2.450   1.122 -0.7180 -1.8296 -0.6208
 1788SOL     OW16822   3.735   1.087  16.845 -0.2947 -0.4333  0.3005
 1788SOL    HW116823   3.739   1.084  16.749  2.5697 -0.2448  0.4116
 1788SOL    HW216824   3.737   1.181  16.859 -2.7141 -0.4752  0.9927
 1789SOL     OW16825   4.040   0.478   3.660  0.7440 -0.0068  0.1018
 1789SOL    HW116826   4.120   0.514   3.698 -0.5325  0.4571  2.3860
 1789SOL    HW216827   4.040   0.528   3.578  1.6089  1.6733  1.1077
 1790SOL     OW16828   3.493   0.131  11.007 -0.3493 -0.1465  0.3596
 1790SOL    HW116829   3.469   0.055  10.953  1.3644 -0.4055 -0.0157
 1790SOL    HW216830   3.436   0.124  11.084 -0.7883  1.5864  0.1849
 1791SOL     OW16831   2.458   1.017   2.485 -0.1406 -0.4050  0.3513
 1791SOL    HW116832   2.545   1.012   2.524  0.1393  1.1190 -0.0624
 1791SOL    HW216833   2.466   0.993   2.393  0.8094 -1.7225  0.7925
 1792SOL     OW16834   0.422   3.957   4.558  0.4638 -0.6528  0.4555
 1792SOL    HW116835   0.352   3.942   4.621  1.2482 -0.9703  1.2460
 1792SOL    HW216836   0.464   4.042   4.574 -1.7968  0.5141  0.1563
 1793SOL     OW16837   4.305   3.599   7.498  0.8924  0.1176 -0.9827
 1793SOL    HW116838   4.246   3.537   7.456 -0.0793 -1.8710  3.4227
 1793SOL    HW216839   4.324   3.654   7.421 -0.5814 -0.6402 -1.8765
 1794SOL     OW16840   2.109   3.779   2.825  0.7066 -0.5922 -0.7382
 1794SOL    HW116841   2.067   3.824   2.752 -0.2292  3.3772  2.2523
 1794SOL    HW216842   2.164   3.848   2.861 -0.1452 -0.3029  0.0340
 1795SOL     OW16843   1.628   0.009   7.413  0.2400  0.7203  0.0077
 1795SOL    HW116844   1.692   0.036   7.346  0.6059  0.9365  0.4440
 1795SOL    HW216845   1.555   0.067   7.392 -0.0468  0.2603 -0.2740
 1796SOL     OW16846   1.440   2.291   3.501 -0.1131 -0.2076 -0.9722
 1796SOL    HW116847   1.464   2.256   3.416 -0.4072 -1.6230 -0.4770
 1796SOL    HW216848   1.355   2.247   3.499  0.9553 -2.2245 -2.4875
 1797SOL     OW16849   2.784   2.693   3.457  0.8484  0.2104  0.6324
 1797SOL    HW116850   2.762   2.606   3.424  0.1775  1.1408 -1.3912
 1797SOL    HW216851   2.730   2.688   3.536 -1.9110 -1.7816 -1.3533
 1798SOL     OW16852   2.028   0.871   2.689  0.1104 -0.8161 -0.4466
 1798SOL    HW116853   1.960   0.816   2.648 -0.0632 -1.0906  0.2091
 1798SOL    HW216854   2.109   0.856   2.641  1.3094  0.2098  1.2476
 1799SOL     OW16855   2.541   3.909   3.193  0.6942 -0.4228 -0.2461
 1799SOL    HW116856   2.514   3.976   3.131  0.4606 -0.0066  0.3119
 1799SOL    HW216857   2.620   3.877   3.149 -0.0421  0.8343 -2.4424
 1800SOL     OW16858   0.401   4.310   8.664  0.0374  0.1897 -0.1677
 1800SOL    HW116859   0.438   4.398   8.675 -2.2206  1.1573 -0.4656
 1800SOL    HW216860   0.478   4.256   8.646  0.7961  1.1774  0.1018
 1801SOL     OW16861   1.602   3.710   7.862  0.3524 -0.3508  0.8521
 1801SOL    HW116862   1.509   3.726   7.878  0.3189  0.5050 -0.1906
 1801SOL    HW216863   1.608   3.711   7.766 -1.7338 -0.6159  0.7287
 1802SOL     OW16864   2.758   2.137   7.664 -0.2163  0.3245  0.3895
 1802SOL    HW116865   2.693   2.203   7.686 -1.0427  0.1464 -1.4739
 1802SOL    HW216866   2.786   2.095   7.745 -0.7136 -1.9035 -0.6130
 1803SOL     OW16867   3.063   1.193   4.045  0.5872 -0.3301  0.0260
 1803SOL    HW116868   3.039   1.112   4.091 -1.7650  1.3715  1.8219
 1803SOL    HW216869   3.138   1.167   3.992  0.9357 -2.0077  1.3101
 1804SOL     OW16870   2.136   4.044   1.345  0.1784  0.1276 -0.5330
 1804SOL    HW116871   2.128   3.950   1.362 -2.5824  0.4953  0.1807
 1804SOL    HW216872   2.127   4.048   1.250  1.0025 -2.7411 -0.7444
 1805SOL     OW16873   2.475   2.996   6.732 -0.1256  0.0069 -0.1860
 1805SOL    HW116874   2.523   3.063   6.683  1.9762  0.1711  2.0808
 1805SOL    HW216875   2.509   3.003   6.821  0.6312 -2.0073 -0.3140
 1806SOL     OW16876   4.274   2.278  15.324 -0.1439  0.3724 -0.3158
 1806SOL    HW116877   4.355   2.237  15.293  1.0436  0.5175  2.5632
 1806SOL    HW216878   4.239   2.209  15.381  0.0446  0.3024 -0.2857
 1807SOL     OW16879   3.203   3.646   3.491 -0.1301  0.6513 -0.1646
 1807SOL    HW116880   3.126   3.615   3.442  0.9731  1.4556 -2.4003
 1807SOL    HW216881   3.276   3.621   3.435  1.2239  1.6812  1.1689
 1808SOL     OW16882   1.969   0.640   1.607 -0.1721  0.2260  0.1922
 1808SOL    HW116883   2.001   0.591   1.531 -1.8956 -0.3921 -0.1345
 1808SOL    HW216884   2.051   0.678   1.638 -0.4245  2.7092 -2.1254
 1809SOL     OW16885   2.170   1.553   8.183 -0.6198  0.0393  0.1713
 1809SOL    HW116886   2.147   1.627   8.240  0.7345 -0.8499  1.8640
 1809SOL    HW216887   2.083   1.521   8.158 -0.9975  0.4372  0.9703
 1810SOL     OW16888   0.443   0.211   8.614  0.2603 -0.3652 -0.0523
 1810SOL    HW116889   0.460   0.277   8.682 -0.1478  0.8034 -1.0742
 1810SOL    HW216890   0.479   0.255   8.537 -1.6490  2.9032  0.8964
 1811SOL     OW16891   2.644   0.002   3.579  0.2103  0.0236 -0.6570
 1811SOL    HW116892   2.682   0.036   3.660  2.9991 -0.1302 -1.8961
 1811SOL    HW216893   2.557   0.043   3.581 -0.1285 -0.7097 -0.5544
 1812SOL     OW16894   1.316   4.646  17.296  0.4786 -0.1306 -0.0890
 1812SOL    HW116895   1.316   4.658  17.201  2.2436 -1.9288 -0.3096
 1812SOL    HW216896   1.319   0.015  17.320  0.9123 -0.1235 -0.1664
 1813SOL     OW16897   4.100   1.456   0.486  0.0312 -0.3979  0.2469
 1813SOL    HW116898   4.042   1.417   0.551  0.5009  1.5412  1.8582
 1813SOL    HW216899   4.181   1.446   0.537  0.3571  0.5819 -0.0848
 1814SOL     OW16900   0.423   3.980   8.789 -0.1072  0.5344 -0.2183
 1814SOL    HW116901   0.428   3.955   8.697  0.7872 -2.2471  0.5653
 1814SOL    HW216902   0.512   3.957   8.819 -0.3730  1.7708  1.5090
 1815SOL     OW16903   0.967   0.888  15.927 -0.0986  0.3975  0.4050
 1815SOL    HW116904   0.876   0.888  15.957 -1.1195 -0.0007 -2.6816
 1815SOL    HW216905   0.995   0.802  15.959  0.9849 -0.8583 -4.0256
 1816SOL     OW16906   4.612   4.133  13.508  0.2397 -0.0074  1.2457
 1816SOL    HW116907   4.592   4.226  13.515 -0.4840  0.0349 -1.2331
 1816SOL    HW216908   4.703   4.147  13.482  0.0499 -1.9244 -0.4586
 1817SOL     OW16909   4.427   0.131  15.379  0.5894  0.3750  0.0626
 1817SOL    HW116910   4.364   0.120  15.307  0.4861 -0.1975  0.2456
 1817SOL    HW216911   4.381   0.183  15.445  0.4760 -0.7597  0.8638
 1818SOL     OW16912   1.899   2.705   0.909 -0.1654 -0.5306  0.1922
 1818SOL    HW116913   1.955   2.636   0.874  0.3723  1.8221 -3.6366
 1818SOL    HW216914   1.958   2.779   0.894 -0.9257 -0.0894 -0.6538
 1819SOL     OW16915   1.915   3.315  17.661 -0.7889  0.3082  0.6253
 1819SOL    HW116916   1.992   3.259  17.675 -1.3412 -0.2547  1.3939
 1819SOL    HW216917   1.927   3.321  17.566 -1.5661  0.0035  0.5051
 1820SOL     OW16918   3.841   0.272  10.045  0.1929 -0.5074  0.6251
 1820SOL    HW116919   3.828   0.328  10.121 -1.2288  1.7239 -1.2733
 1820SOL    HW216920   3.840   0.343   9.981  3.3095 -0.1926  0.9173
 1821SOL     OW16921   0.629   2.129   0.683  0.3344  0.2948  0.2652
 1821SOL    HW116922   0.653   2.053   0.630 -1.6894 -0.3800  0.3217
 1821SOL    HW216923   0.598   2.184   0.611  1.6008  1.6170  0.7449
 1822SOL     OW16924   1.335   3.921   5.112 -0.9494 -0.6034  0.2387
 1822SOL    HW116925   1.311   3.879   5.029 -1.2392 -0.9236  0.4852
 1822SOL    HW216926   1.393   3.865   5.163  1.4037  1.0099 -0.6800
 1823SOL     OW16927   0.318   2.815   2.822 -0.2448 -0.0234 -0.2843
 1823SOL    HW116928   0.349   2.759   2.751 -0.3811 -1.9947  1.2105
 1823SOL    HW216929   0.265   2.879   2.774  3.0575  2.9636  0.0353
 1824SOL     OW16930   3.377   2.555  17.560 -0.3154 -0.2469 -0.5145
 1824SOL    HW116931   3.289   2.517  17.560 -0.2121 -0.4357  2.2552
 1824SOL    HW216932   3.439   2.482  17.552  0.2707  0.0862  0.9810
 1825SOL     OW16933   2.756   2.486   5.764 -0.7783 -0.2582  0.0899
 1825SOL    HW116934   2.827   2.427   5.791 -0.4862 -0.1011 -0.3334
 1825SOL    HW216935   2.744   2.465   5.672  1.3419 -2.7680  0.3852
 1826SOL     OW16936   2.191   4.348   7.357  0.2263  0.2280 -0.0682
 1826SOL    HW116937   2.286   4.356   7.345  0.0858  0.2338 -1.1908
 1826SOL    HW216938   2.182   4.376   7.448 -0.0373  2.3097 -0.7283
 1827SOL     OW16939   2.268   3.906   3.978  0.0038 -0.0720  0.0231
 1827SOL    HW116940   2.285   3.869   4.064  0.8280  1.7771  0.6696
 1827SOL    HW216941   2.333   3.975   3.992  1.2669 -0.9606 -1.4441
 1828SOL     OW16942   0.434   4.218   2.770 -0.1319 -0.0261 -0.1638
 1828SOL    HW116943   0.446   4.132   2.729  1.2223 -0.1692  0.5360
 1828SOL    HW216944   0.447   4.286   2.704  0.1343 -1.0071 -1.1080
 1829SOL     OW16945   4.281   3.501   0.718 -0.2146 -0.2074  0.0520
 1829SOL    HW116946   4.347   3.513   0.649  1.0080 -0.9711  1.0936
 1829SOL    HW216947   4.288   3.586   0.762 -2.1181 -1.4585  2.7590
 1830SOL     OW16948   1.390   4.645   9.984  0.1023  0.3126  0.1407
 1830SOL    HW116949   1.460   4.709   9.973 -2.2806  2.8849 -0.2381
 1830SOL    HW216950   1.422   4.571  10.035 -0.0453  0.9006  1.0721
 1831SOL     OW16951   1.120   4.253   6.950  0.2121 -0.2538  0.1991
 1831SOL    HW116952   1.100   4.182   6.889 -0.4343 -0.0063  0.1227
 1831SOL    HW216953   1.040   4.306   6.943  0.5593  0.5003  2.0600
 1832SOL     OW16954   3.746   0.424   6.695 -0.2151 -0.1625  0.3978
 1832SOL    HW116955   3.759   0.336   6.732 -1.4792 -0.3296  0.4562
 1832SOL    HW216956   3.798   0.412   6.616 -1.7344 -2.2004 -0.2950
 1833SOL     OW16957   0.735   2.844  16.533 -0.1789 -0.6178  0.2344
 1833SOL    HW116958   0.647   2.878  16.553 -0.5235 -1.4614  0.1554
 1833SOL    HW216959   0.788   2.904  16.585 -0.9445  0.2759 -0.0018
 1834SOL     OW16960   0.304   1.992   5.209  0.3638  0.2909  0.5115
 1834SOL    HW116961   0.353   1.942   5.143  0.1139  0.6640  0.0435
 1834SOL    HW216962   0.362   2.067   5.199  1.1170 -0.4410 -0.5872
 1835SOL     OW16963   1.724   2.618   1.505 -0.0057 -0.2347  1.1333
 1835SOL    HW116964   1.745   2.527   1.481 -1.4571  0.2356 -1.8757
 1835SOL    HW216965   1.811   2.653   1.523  1.0914 -2.3192  0.0174
 1836SOL     OW16966   4.059   1.395   9.165  0.1230  0.2603  0.1109
 1836SOL    HW116967   4.089   1.426   9.250  0.3227  0.7438 -0.1375
 1836SOL    HW216968   3.997   1.325   9.187 -2.0626  2.5464  1.1029
 1837SOL     OW16969   3.777   2.162   3.840  0.2825 -0.3537 -0.0644
 1837SOL    HW116970   3.706   2.209   3.795 -0.2857 -0.7666  0.3930
 1837SOL    HW216971   3.740   2.078   3.864  2.1707 -0.7257  1.4832
 1838SOL     OW16972   4.447   1.583   9.669  0.2468 -0.2000 -0.0830
 1838SOL    HW116973   4.386   1.604   9.597 -1.3575  0.0932  1.3455
 1838SOL    HW216974   4.534   1.608   9.638  0.4430 -3.1890 -1.9310
 1839SOL     OW16975   1.906   1.081   6.344 -0.6711  0.0067 -0.5358
 1839SOL    HW116976   1.972   1.073   6.413 -1.3031  0.0960  0.0693
 1839SOL    HW216977   1.822   1.096   6.387 -0.1058  1.1578  0.1486
 1840SOL     OW16978   0.682   2.822  11.711  0.1030 -0.2173  0.5858
 1840SOL    HW116979   0.775   2.799  11.704  0.0880 -0.3677  0.8834
 1840SOL    HW216980   0.644   2.757  11.651 -0.4141 -0.5969  1.3279
 1841SOL     OW16981   0.579   2.559   3.203 -0.2125 -0.0952 -0.4636
 1841SOL    HW116982   0.628   2.582   3.282 -0.1379 -1.5998 -0.0602
 1841SOL    HW216983   0.616   2.611   3.132 -1.7430 -0.2457 -1.3640
 1842SOL     OW16984   1.798   3.113   3.289  0.0427  0.1699  0.1561
 1842SOL    HW116985   1.735   3.053   3.250  1.3951  0.5780 -2.6086
 1842SOL    HW216986   1.869   3.113   3.225  1.5465 -0.1040  1.8237
 1843SOL     OW16987   3.702   4.572   9.355 -0.0290  0.4517  0.3112
 1843SOL    HW116988   3.765   4.583   9.283 -0.6576 -0.5717 -0.3943
 1843SOL    HW216989   3.753   4.527   9.423 -2.1774 -0.4862  1.2886
 1844SOL     OW16990   3.900   1.587   2.252 -0.1606  0.4044  0.2723
 1844SOL    HW116991   3.850   1.573   2.333  1.4049 -0.7358  1.0438
 1844SOL    HW216992   3.845   1.569   2.176 -0.3406 -0.5087  0.6135
 1845SOL     OW16993   0.120   0.652   2.633  0.6083  0.0893 -0.1369
 1845SOL    HW116994   0.191   0.595   2.601  0.4984 -0.3359  0.3773
 1845SOL    HW216995   0.045   0.617   2.586 -1.0438  1.7087  1.3162
 1846SOL     OW16996   3.177   1.768   6.955  0.1583 -0.7137  0.3429
 1846SOL    HW116997   3.085   1.743   6.946 -0.0127 -0.5321  1.5936
 1846SOL    HW216998   3.213   1.685   6.922 -2.0479 -1.2795 -0.6059
 1847SOL     OW16999   1.508   2.460   9.014  0.1873 -0.8043  1.0526
 1847SOL    HW117000   1.558   2.378   9.021  1.6300  0.1477  1.9798
 1847SOL    HW217001   1.525   2.479   8.922 -3.4135 -0.3819  0.4860
 1848SOL     OW17002   3.806   1.047   0.591  0.1483 -0.0099 -0.6372
 1848SOL    HW117003   3.812   1.088   0.677  0.5546 -0.8168 -0.2787
 1848SOL    HW217004   3.727   1.091   0.560  0.4981  1.9241  1.1905
 1849SOL     OW17005   2.895   0.823   0.724 -0.2484  0.1312  0.6724
 1849SOL    HW117006   2.963   0.786   0.780  0.3359 -0.7124 -0.5853
 1849SOL    HW217007   2.832   0.858   0.787  0.6395 -0.9824  2.1668
 1850SOL     OW17008   1.664   2.897   6.315  0.4022  0.6359  0.2601
 1850SOL    HW117009   1.589   2.956   6.318 -0.4180 -0.5521  2.5535
 1850SOL    HW217010   1.730   2.966   6.306  1.4814 -0.6509 -1.8233
 1851SOL     OW17011   1.576   0.982   8.157 -0.0706  0.3448  0.6287
 1851SOL    HW117012   1.641   1.047   8.132  1.4260 -0.7288  1.6666
 1851SOL    HW217013   1.583   0.976   8.252  1.4743  3.7107  0.7203
 1852SOL     OW17014   0.276   2.735   7.521 -0.1915 -0.0971  0.4266
 1852SOL    HW117015   0.243   2.727   7.611  1.7924  3.2588  1.4557
 1852SOL    HW217016   0.213   2.685   7.470 -2.2341  1.7659  1.0717
 1853SOL     OW17017   1.274   0.950   5.908 -0.0441 -0.2156 -0.1154
 1853SOL    HW117018   1.264   0.977   5.999 -1.1388 -0.1847 -0.2458
 1853SOL    HW217019   1.276   0.855   5.919  0.0158 -0.3256 -1.0427
 1854SOL     OW17020   3.916   0.741   7.746 -0.3356  0.0521  0.2902
 1854SOL    HW117021   3.914   0.824   7.794  1.6359  0.7784 -0.9197
 1854SOL    HW217022   3.983   0.757   7.679 -2.9660  1.6446 -1.9808
 1855SOL     OW17023   4.127   0.007   4.549 -0.5810  0.1563 -0.2265
 1855SOL    HW117024   4.159   0.052   4.471  1.2568  1.4467  1.2727
 1855SOL    HW217025   4.032   0.010   4.549 -0.6694 -2.0056  0.9183
 1856SOL     OW17026   3.868   1.821   7.999  0.1683  0.4873 -0.0687
 1856SOL    HW117027   3.942   1.763   7.978  0.1093  0.6387 -0.6896
 1856SOL    HW217028   3.908   1.858   8.078 -1.3836  0.6863  0.6397
 1857SOL     OW17029   1.586   1.691  15.012 -0.4711  0.2417 -0.1756
 1857SOL    HW117030   1.633   1.610  14.991  1.7919  1.2740  0.9550
 1857SOL    HW217031   1.651   1.756  14.986  2.1359 -0.5093  4.5170
 1858SOL     OW17032   2.247   2.701   4.204  0.1604  0.3226  0.0588
 1858SOL    HW117033   2.241   2.788   4.244  0.8120 -0.2136  1.3260
 1858SOL    HW217034   2.158   2.699   4.167  1.0950 -1.5750 -2.0754
 1859SOL     OW17035   1.977   2.532   2.536  0.2242  0.0147 -0.3276
 1859SOL    HW117036   2.054   2.582   2.560 -0.0546  0.6237 -0.7291
 1859SOL    HW217037   1.911   2.601   2.530  2.0527  1.8410  0.8409
 1860SOL     OW17038   1.449   3.979   2.012  0.1175  0.4484 -0.5557
 1860SOL    HW117039   1.403   3.910   1.964 -0.4734 -0.5929  1.5239
 1860SOL    HW217040   1.513   4.004   1.946  0.3532 -3.7654 -1.8738
 1861SOL     OW17041   1.228   1.535   9.648  0.1806 -0.1152 -0.0191
 1861SOL    HW117042   1.207   1.587   9.571  1.1401 -0.3248 -0.4214
 1861SOL    HW217043   1.296   1.478   9.613 -1.1722 -1.4695 -0.4092
 1862SOL     OW17044   0.484   0.337   7.296 -0.0767 -0.1795  0.0802
 1862SOL    HW117045   0.531   0.399   7.353 -2.0432  1.7508 -0.4059
 1862SOL    HW217046   0.552   0.333   7.229 -0.8777  1.4661 -0.8333
 1863SOL     OW17047   0.930   3.769  15.092  0.4770  0.9206 -0.4644
 1863SOL    HW117048   0.869   3.696  15.098 -0.6172  1.8537 -0.2640
 1863SOL    HW217049   1.008   3.717  15.072 -0.3572 -0.4032 -0.2350
 1864SOL     OW17050   3.998   0.516   7.867 -0.9814  0.1390  0.2345
 1864SOL    HW117051   4.029   0.547   7.952 -0.1555  2.5430 -0.9713
 1864SOL    HW217052   3.957   0.594   7.831 -1.6650  0.0279  0.7718
 1865SOL     OW17053   2.447   3.251  16.769 -0.4325 -0.0441  0.1213
 1865SOL    HW117054   2.501   3.322  16.733 -2.9405  1.0730 -1.3666
 1865SOL    HW217055   2.357   3.279  16.755 -0.0501  0.9371 -0.3607
 1866SOL     OW17056   2.068   3.859  16.687 -0.0229  0.4323  0.1048
 1866SOL    HW117057   2.010   3.785  16.669  0.8373  0.3828 -2.4145
 1866SOL    HW217058   2.114   3.867  16.604  0.8819  1.8705  0.7347
 1867SOL     OW17059   0.537   3.507   2.297 -0.0779  0.5801  0.4750
 1867SOL    HW117060   0.466   3.474   2.242  0.0633  0.2107  0.5127
 1867SOL    HW217061   0.607   3.515   2.232 -2.3217 -0.9577 -2.1327
 1868SOL     OW17062   0.459   2.317   2.671 -0.6093  0.5485 -0.1569
 1868SOL    HW117063   0.478   2.382   2.738  1.7952 -1.3277  0.9464
 1868SOL    HW217064   0.364   2.327   2.665 -0.9944 -1.1283  3.2476
 1869SOL     OW17065   4.096   1.348   7.228 -0.5301  0.0135  0.3901
 1869SOL    HW117066   4.054   1.262   7.232  1.4073 -1.0615 -2.0113
 1869SOL    HW217067   4.013   1.393   7.243  0.5175  1.5659  1.6259
 1870SOL     OW17068   4.041   0.385  10.601  0.2038  0.1302  0.2207
 1870SOL    HW117069   3.947   0.371  10.593  0.6920 -2.5754 -0.4930
 1870SOL    HW217070   4.039   0.468  10.649 -2.7094  0.2404 -0.0750
 1871SOL     OW17071   3.364   2.484   9.076  0.0128  0.1265 -0.0180
 1871SOL    HW117072   3.407   2.490   9.161  0.1692  2.1815 -0.2482
 1871SOL    HW217073   3.333   2.573   9.059 -0.6437 -0.3876 -1.5790
 1872SOL     OW17074   3.640   1.043   8.762 -0.1853 -0.1636  0.5481
 1872SOL    HW117075   3.652   1.133   8.733  0.2906 -0.2425  0.4940
 1872SOL    HW217076   3.563   1.020   8.711 -0.9273 -1.6797  2.3309
 1873SOL     OW17077   2.557   0.091   5.555 -0.2660  0.4067  0.5958
 1873SOL    HW117078   2.633   0.140   5.522  0.4803 -0.9272  0.3134
 1873SOL    HW217079   2.513   0.170   5.586 -1.1181 -0.4547  1.5591
 1874SOL     OW17080   4.634   1.488   3.866 -0.0388  0.3701 -0.0936
 1874SOL    HW117081   4.564   1.548   3.838 -0.3110 -0.4956 -1.2706
 1874SOL    HW217082   4.710   1.541   3.843 -0.5417 -0.0024 -2.5463
 1875SOL     OW17083   0.158   2.742   3.920 -0.3162  0.0060  0.4902
 1875SOL    HW117084   0.084   2.747   3.981  0.2398  2.2137  0.9740
 1875SOL    HW217085   0.138   2.660   3.875 -1.0564 -0.0450  0.9125
 1876SOL     OW17086   4.644   3.026  14.144 -0.5283 -0.2986  0.0380
 1876SOL    HW117087   4.594   3.035  14.225 -1.1332 -1.0194 -0.2624
 1876SOL    HW217088   4.683   3.113  14.137  1.3943 -1.3015 -1.8120
 1877SOL     OW17089   0.292   0.430   2.341  0.6405 -0.1938  0.2703
 1877SOL    HW117090   0.197   0.431   2.330  0.5218  2.1254  1.4783
 1877SOL    HW217091   0.326   0.352   2.299 -0.7291  0.0745 -1.3236
 1878SOL     OW17092   4.585   4.260  10.983  0.4070 -0.0591  0.4929
 1878SOL    HW117093   4.677   4.286  10.992  0.8097 -0.9829 -0.8292
 1878SOL    HW217094   4.585   4.170  11.014  0.2284  0.0485  0.8025
 1879SOL     OW17095   2.235   1.190   5.041 -0.4972  0.6478  0.0564
 1879SOL    HW117096   2.222   1.228   4.954 -2.3520 -0.1118 -0.0058
 1879SOL    HW217097   2.330   1.184   5.047 -0.6424 -0.1696  1.3771
 1880SOL     OW17098   4.459   4.529   7.427  0.7664  0.2099  0.3725
 1880SOL    HW117099   4.475   4.439   7.453 -0.6840 -0.1855 -0.0836
 1880SOL    HW217100   4.377   4.549   7.473  0.0877  0.5004 -0.9462
 1881SOL     OW17101   2.855   1.093  13.762 -0.1149 -0.2418  0.3149
 1881SOL    HW117102   2.852   1.117  13.669  2.5927  0.7339  0.4699
 1881SOL    HW217103   2.774   1.135  13.791 -0.4047 -0.3784 -0.3064
 1882SOL     OW17104   0.412   1.643   8.974 -0.1343  0.4600  0.2377
 1882SOL    HW117105   0.464   1.721   8.954  1.7538 -1.0861 -0.9166
 1882SOL    HW217106   0.343   1.651   8.907 -0.2018 -1.2287  0.1016
 1883SOL     OW17107   4.636   3.798   4.046 -0.6703 -0.2081  0.1645
 1883SOL    HW117108   4.693   3.721   4.050 -1.8592 -1.3626 -4.7042
 1883SOL    HW217109   4.556   3.746   4.038 -0.3754 -0.7434  0.6804
 1884SOL     OW17110   3.801   4.312  10.181  0.3420 -0.2652 -0.1992
 1884SOL    HW117111   3.801   4.371  10.256  1.9006  0.5383 -0.8445
 1884SOL    HW217112   3.873   4.254  10.205  0.6302 -0.3342 -1.2392
 1885SOL     OW17113   3.962   3.472   7.852  0.4758 -0.1047 -0.7166
 1885SOL    HW117114   3.945   3.457   7.759  2.6014 -1.9052 -0.8263
 1885SOL    HW217115   4.042   3.523   7.840 -1.0980  2.7855  0.9704
 1886SOL     OW17116   1.383   0.855   7.079 -0.0855 -0.2953 -0.0229
 1886SOL    HW117117   1.449   0.806   7.128  2.1867  4.1460  1.3554
 1886SOL    HW217118   1.324   0.879   7.150 -1.8988  0.0912 -1.6499
 1887SOL     OW17119   2.180   4.669   0.935  0.3977 -0.1438  0.0747
 1887SOL    HW117120   2.235   0.003   0.882  1.5316  0.4646  1.9308
 1887SOL    HW217121   2.236   4.592   0.924 -1.3648 -0.6441 -5.4439
 1888SOL     OW17122   4.472   1.502  16.240 -0.3317 -0.0138 -0.2389
 1888SOL    HW117123   4.530   1.559  16.189  2.1224 -1.7956  0.5466
 1888SOL    HW217124   4.403   1.567  16.253  0.3053  0.7717 -0.7716
 1889SOL     OW17125   0.457   3.974  14.229  0.0494  0.0985 -0.0705
 1889SOL    HW117126   0.458   4.049  14.170 -0.2947  0.1136 -0.0576
 1889SOL    HW217127   0.445   4.020  14.312 -0.7287 -3.0874  1.5842
 1890SOL     OW17128   0.254   0.823  11.284 -0.3972 -0.9087  0.3645
 1890SOL    HW117129   0.239   0.918  11.286  0.2564 -0.7871 -0.1364
 1890SOL    HW217130   0.290   0.823  11.195 -1.2050  1.9022  0.0448
 1891SOL     OW17131   1.160   4.498   6.216  0.0216 -0.0784  0.8876
 1891SOL    HW117132   1.238   4.476   6.165 -0.4718  0.4725 -0.1156
 1891SOL    HW217133   1.095   4.440   6.176  0.1412  0.2696  0.1870
 1892SOL     OW17134   0.025   0.145   6.497 -0.0870  0.0864  0.2633
 1892SOL    HW117135   0.046   0.064   6.450  0.4837  0.2083  0.3110
 1892SOL    HW217136   4.723   0.195   6.420  0.7538  1.6429  1.0084
 1893SOL     OW17137   0.965   4.128  13.375 -0.6530 -0.0599 -0.0317
 1893SOL    HW117138   1.047   4.097  13.337 -1.1009 -0.1182 -0.9643
 1893SOL    HW217139   0.994   4.145  13.464  0.5715 -1.5282 -0.1452
 1894SOL     OW17140   0.327   1.968   2.652  0.0615  0.3667  0.0568
 1894SOL    HW117141   0.279   2.045   2.684  0.6674  1.4328 -1.5789
 1894SOL    HW217142   0.289   1.895   2.701  1.0437  0.1135  0.4442
 1895SOL     OW17143   3.612   2.233   2.523  0.0891 -0.0474  0.2741
 1895SOL    HW117144   3.538   2.276   2.565 -0.3793 -0.5551 -0.0355
 1895SOL    HW217145   3.601   2.146   2.560  2.5065 -0.3353  0.3732
 1896SOL     OW17146   1.222   1.072   9.298 -0.1880  0.0014  0.6030
 1896SOL    HW117147   1.311   1.089   9.329 -0.0636 -3.6501  2.1416
 1896SOL    HW217148   1.200   0.994   9.349  1.1051 -2.4220 -2.5325
 1897SOL     OW17149   3.638   0.628   0.528 -0.3015 -0.4520  0.0220
 1897SOL    HW117150   3.672   0.613   0.617  0.0064  1.4216  0.2075
 1897SOL    HW217151   3.575   0.556   0.523 -0.0091 -0.6626 -0.6582
 1898SOL     OW17152   4.283   3.369   4.997  0.1428  0.2079 -0.6555
 1898SOL    HW117153   4.234   3.431   4.943 -2.6923 -1.2936  0.1837
 1898SOL    HW217154   4.351   3.420   5.040 -0.7852 -0.0725  1.1644
 1899SOL     OW17155   0.560   4.494   8.381 -0.5349  0.1026  0.3737
 1899SOL    HW117156   0.618   4.568   8.365 -1.9451  1.1119 -0.0145
 1899SOL    HW217157   0.517   4.514   8.464 -1.3415  2.8342 -0.7134
 1900SOL     OW17158   1.443   2.753  13.250 -0.0440 -0.2337 -0.2851
 1900SOL    HW117159   1.380   2.684  13.272  0.9912 -1.8327 -2.3698
 1900SOL    HW217160   1.437   2.797  13.335 -0.2799 -1.1515  0.1713
 1901SOL     OW17161   2.318   0.318  13.752 -0.4319  0.2083  0.1393
 1901SOL    HW117162   2.287   0.405  13.777 -3.7156 -1.3556  1.5304
 1901SOL    HW217163   2.326   0.271  13.835 -1.0921  0.7271  0.4952
 1902SOL     OW17164   3.343   2.111   3.849 -0.1479 -0.3188  0.0969
 1902SOL    HW117165   3.298   2.033   3.816 -1.0749  0.0030  0.6032
 1902SOL    HW217166   3.420   2.122   3.793 -0.7295  2.2106 -0.1948
 1903SOL     OW17167   3.588   1.828   7.993 -0.0323  0.3008  0.1673
 1903SOL    HW117168   3.679   1.800   8.006  0.1832  0.7128 -0.4994
 1903SOL    HW217169   3.590   1.919   8.022 -2.7262  0.5813 -0.4926
 1904SOL     OW17170   0.155   4.611   3.195 -0.4563 -0.1503 -0.0591
 1904SOL    HW117171   0.089   4.638   3.132 -0.0807 -0.1859 -0.4690
 1904SOL    HW217172   0.188   4.696   3.223 -0.0802 -0.0435 -0.8278
 1905SOL     OW17173   3.978   0.440  16.968 -0.6875  0.1325  0.4873
 1905SOL    HW117174   3.974   0.527  16.927 -2.2684 -1.5618 -2.9413
 1905SOL    HW217175   3.913   0.450  17.038 -1.3495  1.3762 -0.3057
 1906SOL     OW17176   4.099   2.313  16.611  0.1734  0.5378 -0.1494
 1906SOL    HW117177   4.048   2.366  16.674  0.2897 -0.4308  0.7601
 1906SOL    HW217178   4.151   2.385  16.575  3.0711 -1.8525 -0.7385
 1907SOL     OW17179   0.594   2.779   0.719 -0.7988  0.0997  0.3683
 1907SOL    HW117180   0.675   2.824   0.744 -1.0053  1.5484 -1.5185
 1907SOL    HW217181   0.608   2.744   0.631 -1.2746  0.1480  0.2710
 1908SOL     OW17182   1.564   4.068   6.902 -0.6391  0.4844  0.0705
 1908SOL    HW117183   1.567   4.077   6.997  0.0822  1.8712 -0.0855
 1908SOL    HW217184   1.478   4.103   6.877 -0.3491 -0.4609 -2.2662
 1909SOL     OW17185   1.003   1.332   8.445 -0.4605  0.1909 -0.0261
 1909SOL    HW117186   1.084   1.300   8.485 -1.1262 -1.3741  0.0672
 1909SOL    HW217187   1.004   1.426   8.464  0.9796  0.3578 -0.9251
 1910SOL     OW17188   2.679   4.030  16.104  0.3330 -0.2875 -0.5418
 1910SOL    HW117189   2.719   4.091  16.042 -0.7639 -0.5612 -1.5063
 1910SOL    HW217190   2.723   3.947  16.086  0.5986 -0.3457  0.3376
 1911SOL     OW17191   3.274   2.515  15.080  0.5439  0.0109 -0.7448
 1911SOL    HW117192   3.251   2.446  15.018  0.2413 -0.5314 -0.0321
 1911SOL    HW217193   3.347   2.552  15.031 -1.4129  2.0569 -2.0819
 1912SOL     OW17194   3.159   0.881  12.928  0.2479 -0.4812 -0.4727
 1912SOL    HW117195   3.151   0.793  12.891 -0.2585  0.0399 -1.6094
 1912SOL    HW217196   3.088   0.881  12.991 -0.0596  1.1526 -0.8195
 1913SOL     OW17197   0.700   0.288   8.452  0.5463 -0.5320 -0.1723
 1913SOL    HW117198   0.772   0.245   8.497 -0.0198 -1.0199  0.2627
 1913SOL    HW217199   0.660   0.211   8.412  0.0782 -0.4826  0.2016
 1914SOL     OW17200   1.627   4.596  12.613  0.7634 -0.4310 -0.0551
 1914SOL    HW117201   1.586   4.509  12.609 -1.2941  0.4699  1.5847
 1914SOL    HW217202   1.693   4.600  12.682 -0.8999  0.4302  1.5031
 1915SOL     OW17203   0.154   4.623   6.116  0.1803  0.6078 -0.4028
 1915SOL    HW117204   0.115   4.541   6.146 -2.5722  1.1768 -2.4375
 1915SOL    HW217205   0.084   4.671   6.159 -0.3697 -0.0932 -0.5164
 1916SOL     OW17206   1.515   0.375   5.923  0.2853 -0.1278  0.4299
 1916SOL    HW117207   1.479   0.304   5.976  1.8942 -0.5486  0.9733
 1916SOL    HW217208   1.508   0.452   5.981 -1.1851 -0.0732  0.1673
 1917SOL     OW17209   2.335   3.277   4.604 -0.4176 -0.1264 -0.0235
 1917SOL    HW117210   2.295   3.338   4.542  1.2710 -0.1079 -1.0848
 1917SOL    HW217211   2.394   3.241   4.537 -1.0566 -0.7512 -0.2608
 1918SOL     OW17212   0.532   1.637   9.274 -0.4688  0.0647 -0.0965
 1918SOL    HW117213   0.533   1.668   9.183  1.8035 -2.3381 -0.8603
 1918SOL    HW217214   0.554   1.714   9.325 -2.3131 -0.6914  1.8236
 1919SOL     OW17215   0.515   1.014   7.030 -0.0722  0.0151  0.5239
 1919SOL    HW117216   0.603   0.983   7.009  0.9506  3.7747 -0.7855
 1919SOL    HW217217   0.503   1.006   7.124 -0.4691  2.5667  0.6828
 1920SOL     OW17218   2.103   1.521   1.689 -0.8387 -0.2725  0.0412
 1920SOL    HW117219   2.179   1.561   1.647  0.4242  1.3506  3.9179
 1920SOL    HW217220   2.075   1.586   1.753 -1.2383 -0.8750  0.4741
 1921SOL     OW17221   2.643   0.468   7.982  0.5653 -0.7363  0.0896
 1921SOL    HW117222   2.653   0.423   8.066  4.0044 -0.6483 -0.2671
 1921SOL    HW217223   2.719   0.525   7.986 -1.1447  1.4700  0.7878
 1922SOL     OW17224   0.546   2.175   0.426 -0.5069  0.0949 -0.1543
 1922SOL    HW117225   0.555   2.262   0.388  0.0081 -0.6946 -1.8275
 1922SOL    HW217226   0.578   2.133   0.346 -0.7485  1.6898 -1.0695
 1923SOL     OW17227   3.563   1.990  10.781 -0.0754 -0.4662  0.0572
 1923SOL    HW117228   3.565   2.065  10.840 -1.2468  0.2607 -0.8150
 1923SOL    HW217229   3.543   2.034  10.698 -2.6645  1.6013  1.8055
 1924SOL     OW17230   1.749   2.639   8.473  0.9363 -0.4338  0.0862
 1924SOL    HW117231   1.671   2.619   8.422  1.9769  0.4319 -1.8688
 1924SOL    HW217232   1.744   2.733   8.453  0.0996 -0.4096  0.4203
 1925SOL     OW17233   3.358   3.358  17.413  0.4107  0.1124  0.2854
 1925SOL    HW117234   3.446   3.326  17.433 -0.5723 -2.2174  0.9698
 1925SOL    HW217235   3.341   3.290  17.348 -0.1429 -0.4605  1.0248
 1926SOL     OW17236   3.534   2.325   1.387 -0.1927 -0.3335 -0.5331
 1926SOL    HW117237   3.579   2.247   1.356 -0.1968 -0.3149 -0.5874
 1926SOL    HW217238   3.595   2.398   1.393  1.3922 -1.7543  0.5666
 1927SOL     OW17239   2.135   3.148  17.694 -0.5313  0.1855 -0.3401
 1927SOL    HW117240   2.229   3.164   0.007 -0.5804 -0.3654  1.1008
 1927SOL    HW217241   2.112   3.107   0.081 -0.6817  2.0892  0.5643
 1928SOL     OW17242   1.137   2.677  17.413  0.1336 -0.1980  0.3598
 1928SOL    HW117243   1.074   2.725  17.359  0.9008 -0.9992 -1.2608
 1928SOL    HW217244   1.130   2.721  17.498 -4.2700  0.2825 -0.2551
 1929SOL     OW17245   3.790   0.681  13.572  0.7369  0.1235 -0.1616
 1929SOL    HW117246   3.724   0.639  13.628 -0.5172  1.5837 -0.5449
 1929SOL    HW217247   3.840   0.728  13.639  1.0470 -1.3493  0.6474
 1930SOL     OW17248   3.982   0.478   5.154  1.0002 -0.0209 -0.3931
 1930SOL    HW117249   4.014   0.567   5.139  2.0067 -0.0126  1.8290
 1930SOL    HW217250   4.015   0.436   5.075  3.0246 -0.5747  0.7524
 1931SOL     OW17251   0.918   0.978   3.304 -0.5282 -0.5050  0.5694
 1931SOL    HW117252   0.889   0.887   3.292  2.1140 -1.3940  0.9299
 1931SOL    HW217253   0.852   1.026   3.254 -0.0911 -1.1891 -0.6674
 1932SOL     OW17254   3.654   3.190   3.592 -0.6029  0.2596  0.3613
 1932SOL    HW117255   3.592   3.132   3.549  0.7524 -1.0532  0.1530
 1932SOL    HW217256   3.734   3.137   3.580 -0.9303 -0.8972  3.2331
 1933SOL     OW17257   2.145   3.707   4.439 -0.2324  0.3551 -0.1844
 1933SOL    HW117258   2.053   3.679   4.435 -0.6765  1.3946  2.9727
 1933SOL    HW217259   2.156   3.735   4.530  0.7128 -0.6771  0.0128
 1934SOL     OW17260   2.412   0.523   4.412  0.7122 -0.3638  0.2352
 1934SOL    HW117261   2.327   0.561   4.432  0.4547 -0.4217 -0.7188
 1934SOL    HW217262   2.450   0.600   4.368 -0.9364  0.4054  0.1757
 1935SOL     OW17263   4.599   0.220   1.584 -0.5331 -0.2552 -0.3344
 1935SOL    HW117264   4.564   0.131   1.584 -0.6671 -0.2156  1.9252
 1935SOL    HW217265   4.545   0.261   1.652  1.4409  1.0482  0.4246
 1936SOL     OW17266   2.892   1.933   1.975  0.0674 -0.1517  0.0090
 1936SOL    HW117267   2.871   1.878   1.900  2.5440  1.0685 -1.5575
 1936SOL    HW217268   2.954   1.883   2.028 -1.3363 -1.7247  0.1394
 1937SOL     OW17269   2.246   1.037  17.100  0.1395  0.0742  0.0907
 1937SOL    HW117270   2.260   0.963  17.160 -1.5731  1.9966  2.8717
 1937SOL    HW217271   2.160   1.010  17.068  0.9010 -1.6602 -0.4995
 1938SOL     OW17272   3.345   2.963   1.616 -0.0303  0.2117  0.1076
 1938SOL    HW117273   3.305   3.050   1.615  0.2617  0.3573  1.1326
 1938SOL    HW217274   3.277   2.897   1.627 -0.2071  0.2200 -0.9315
 1939SOL     OW17275   0.396   1.188   8.643 -0.3230 -0.4873  0.1481
 1939SOL    HW117276   0.355   1.178   8.729  1.6019 -1.2439  0.9864
 1939SOL    HW217277   0.471   1.130   8.656 -0.9591 -1.4782 -0.5880
 1940SOL     OW17278   2.348   1.759   4.251  0.2842 -0.6823 -0.3878
 1940SOL    HW117279   2.292   1.716   4.187 -1.2073 -0.0506  0.4975
 1940SOL    HW217280   2.305   1.726   4.330  0.1311 -0.5179 -0.4018
 1941SOL     OW17281   3.575   4.618  15.058 -0.2716  0.8376  0.2329
 1941SOL    HW117282   3.549   4.672  14.984  1.3650 -0.6604 -1.4381
 1941SOL    HW217283   3.592   4.688  15.121  1.2398  1.7193 -1.1614
 1942SOL     OW17284   3.109   2.314   4.048  0.2409  0.3662 -0.4734
 1942SOL    HW117285   3.077   2.225   4.035  1.5518  0.1017 -1.8673
 1942SOL    HW217286   3.033   2.367   4.073  0.4412  1.6031 -2.4260
 1943SOL     OW17287   1.992   3.193   1.398  0.3937  0.2130  0.0585
 1943SOL    HW117288   1.986   3.225   1.488  3.1902  1.0353 -0.0547
 1943SOL    HW217289   1.955   3.105   1.402  1.6623 -0.3052  0.4435
 1944SOL     OW17290   0.277   0.017   9.878  0.1869 -0.0400  0.0426
 1944SOL    HW117291   0.228   4.709   9.955  1.8877 -0.9223  0.7490
 1944SOL    HW217292   0.216   0.005   9.805  0.1097 -3.4497  0.6747
 1945SOL     OW17293   2.316   3.156   1.625 -0.6042  0.5967  0.3868
 1945SOL    HW117294   2.261   3.102   1.682  0.4017 -0.0521  0.7417
 1945SOL    HW217295   2.367   3.212   1.684  1.6517 -0.0402 -0.9516
 1946SOL     OW17296   3.642   2.279   0.482  0.2118 -0.6156 -0.3126
 1946SOL    HW117297   3.589   2.207   0.517  0.5576 -0.5145  0.4141
 1946SOL    HW217298   3.622   2.348   0.545 -1.9682  1.1338 -2.9440
 1947SOL     OW17299   1.150   1.235   0.152  0.1083  0.0834 -0.1328
 1947SOL    HW117300   1.239   1.222   0.185  0.8534  1.7139 -1.4823
 1947SOL    HW217301   1.164   1.262   0.061  1.7406  0.3276  0.2035
 1948SOL     OW17302   2.278   1.787   8.456  0.2893  0.8738  0.0393
 1948SOL    HW117303   2.228   1.832   8.387  2.0168 -0.1188 -1.8211
 1948SOL    HW217304   2.292   1.848   8.528  1.0313 -1.8206  2.1544
 1949SOL     OW17305   0.392   0.839   1.828 -0.3251  0.6252 -1.1748
 1949SOL    HW117306   0.452   0.766   1.844 -0.1214  0.7272 -1.4730
 1949SOL    HW217307   0.305   0.808   1.853 -0.7181 -0.0351 -3.3579
 1950SOL     OW17308   0.438   0.342  10.802 -0.1753  0.0331  0.2377
 1950SOL    HW117309   0.527   0.374  10.795 -1.1971  3.0543  1.1902
 1950SOL    HW217310   0.408   0.392  10.878 -1.3848 -1.4835  0.7551
 1951SOL     OW17311   2.703   4.087   8.787 -0.4655  0.2007 -0.1926
 1951SOL    HW117312   2.614   4.051   8.777 -0.0925  0.1003 -3.3390
 1951SOL    HW217313   2.713   4.155   8.721  1.2241  1.1431  1.0542
 1952SOL     OW17314   1.685   1.934   3.048 -0.2535  0.1813  0.4842
 1952SOL    HW117315   1.592   1.923   3.027 -0.0575  0.1190 -0.3538
 1952SOL    HW217316   1.707   1.849   3.084 -1.4293  0.3122  1.5078
 1953SOL     OW17317   1.252   0.143   7.034  0.5104  0.5170  0.2531
 1953SOL    HW117318   1.333   0.092   7.030  0.7516  0.9943 -0.9136
 1953SOL    HW217319   1.281   0.232   7.054  1.8539 -0.2097  1.5051
 1954SOL     OW17320   3.391   0.118   4.186 -0.0889  0.4683 -0.6231
 1954SOL    HW117321   3.408   0.060   4.111  2.4032 -0.6406  0.8007
 1954SOL    HW217322   3.307   0.150   4.153  0.2693  0.8952 -1.1210
 1955SOL     OW17323   4.234   2.949  15.967  0.1206 -0.4099 -0.1137
 1955SOL    HW117324   4.297   2.935  16.037 -2.4668 -1.1105  2.1033
 1955SOL    HW217325   4.163   2.890  15.992 -0.7068  0.5450 -0.2102
 1956SOL     OW17326   1.006   4.664   8.408 -0.3500  0.1327 -0.3893
 1956SOL    HW117327   0.987   4.680   8.316  0.4616  4.5998  0.2375
 1956SOL    HW217328   1.048   4.579   8.400  0.5332  0.5876 -0.5272
 1957SOL     OW17329   1.084   0.692   6.911  0.0843 -0.3071 -0.2771
 1957SOL    HW117330   1.088   0.597   6.921 -0.1729 -0.3558 -0.6237
 1957SOL    HW217331   1.042   0.714   6.994 -0.4759 -3.1207  0.1621
 1958SOL     OW17332   0.118   3.843   7.020  0.0388 -0.6937  0.4780
 1958SOL    HW117333   0.095   3.927   7.061  0.3298 -0.3937  0.0219
 1958SOL    HW217334   0.212   3.842   7.038  0.1905 -1.3950 -0.3401
 1959SOL     OW17335   0.309   0.491   5.765  0.1328  0.1522 -0.7646
 1959SOL    HW117336   0.328   0.415   5.819 -2.0056  1.9237  2.4794
 1959SOL    HW217337   0.213   0.491   5.770  0.0770 -1.7133 -1.7828
 1960SOL     OW17338   0.020   2.890  15.599 -0.0941  0.1463  0.8415
 1960SOL    HW117339   0.112   2.866  15.601 -0.6705 -2.2585 -1.2590
 1960SOL    HW217340   4.717   2.878  15.690 -0.8306 -2.4564  0.3007
 1961SOL     OW17341   1.122   3.087  11.979  0.2801 -0.0499  0.2638
 1961SOL    HW117342   1.112   3.132  12.063  1.3289  0.6906 -0.0140
 1961SOL    HW217343   1.033   3.093  11.947  0.6546  1.4271 -0.4788
 1962SOL     OW17344   3.879   4.148   9.743  0.0531  0.2826 -0.0896
 1962SOL    HW117345   3.971   4.139   9.769 -0.0637 -0.1005  0.1922
 1962SOL    HW217346   3.836   4.160   9.827  0.2912  1.4482 -0.1374
 1963SOL     OW17347   4.618   0.358   7.698 -0.1155 -0.6662  0.0231
 1963SOL    HW117348   4.623   0.454   7.698  0.5628 -0.7056  0.7569
 1963SOL    HW217349   4.561   0.343   7.623  1.1253 -0.3891 -0.9793
 1964SOL     OW17350   0.116   4.003   8.750 -0.2324  0.2854 -0.1422
 1964SOL    HW117351   0.108   4.092   8.717  1.7257  0.6856  0.4700
 1964SOL    HW217352   0.193   4.003   8.807 -1.9508 -2.8097  2.1653
 1965SOL     OW17353   3.986   4.292   3.376  0.0780  0.2423 -0.1710
 1965SOL    HW117354   3.902   4.270   3.416 -0.3942 -0.4235 -1.5353
 1965SOL    HW217355   4.018   4.222   3.318  1.2440  0.2465  0.4580
 1966SOL     OW17356   2.814   0.765   2.518 -0.1225 -0.6365 -0.2332
 1966SOL    HW117357   2.864   0.712   2.456  1.9559  1.2700 -0.1489
 1966SOL    HW217358   2.724   0.750   2.489 -0.3338 -0.7845  0.4952
 1967SOL     OW17359   0.577   4.385  15.634  0.7892 -0.1805 -0.1361
 1967SOL    HW117360   0.618   4.304  15.604  2.1523 -0.2337  1.9000
 1967SOL    HW217361   0.593   4.391  15.728 -2.4390 -1.3029  0.4952
 1968SOL     OW17362   2.309   1.780   7.609  0.1626  0.2847 -0.3628
 1968SOL    HW117363   2.244   1.850   7.608 -0.5209 -0.3473  0.1521
 1968SOL    HW217364   2.398   1.816   7.614  0.2234  0.4617 -2.9066
 1969SOL     OW17365   0.110   1.807  11.456  0.2534 -0.2202 -0.2479
 1969SOL    HW117366   0.014   1.806  11.451  0.3937 -3.1855 -2.1464
 1969SOL    HW217367   0.125   1.835  11.546  0.0174 -0.8663 -0.0124
 1970SOL     OW17368   0.586   3.785   8.667  0.7035 -0.2345 -0.7379
 1970SOL    HW117369   0.561   3.751   8.581 -1.0890 -0.7251 -0.0335
 1970SOL    HW217370   0.669   3.826   8.643 -0.5304  1.5060 -2.0796
 1971SOL     OW17371   2.090   0.277   9.157  0.1343  0.1276  0.0926
 1971SOL    HW117372   2.071   0.209   9.093  0.4407 -0.7257  0.9055
 1971SOL    HW217373   2.001   0.314   9.160  0.4731  1.1271 -2.3655
 1972SOL     OW17374   4.671   4.166  14.351  0.3913 -0.4678  0.1375
 1972SOL    HW117375   0.005   4.130  14.419  0.2746 -2.3784 -0.7713
 1972SOL    HW217376   4.661   4.261  14.360 -1.5642 -0.9432  3.0061
 1973SOL     OW17377   3.874   3.383   0.762  0.2787 -0.1938 -0.1415
 1973SOL    HW117378   3.785   3.406   0.788  0.5426  0.4904  0.1484
 1973SOL    HW217379   3.865   3.332   0.682  2.1267 -0.1889 -0.3549
 1974SOL     OW17380   2.594   1.860   4.519  0.4000 -0.8384 -0.3592
 1974SOL    HW117381   2.550   1.904   4.592  0.2345 -0.0599 -0.9342
 1974SOL    HW217382   2.550   1.908   4.450  1.3028  1.9131  0.9742
 1975SOL     OW17383   4.046   0.451   4.729  0.0568 -0.2696  0.0570
 1975SOL    HW117384   4.075   0.428   4.817  0.7318  1.5422  0.3040
 1975SOL    HW217385   4.016   0.540   4.747 -0.0900 -0.6750  1.8320
 1976SOL     OW17386   1.027   0.465  10.103 -0.3283  0.0879 -0.3621
 1976SOL    HW117387   1.082   0.409  10.158  1.0254  1.1204 -0.6709
 1976SOL    HW217388   0.946   0.435  10.143 -0.3759  0.4364 -0.2048
 1977SOL     OW17389   1.629   3.330  10.996 -0.0345  0.0332  0.6018
 1977SOL    HW117390   1.554   3.362  10.946  1.8210  0.2799 -2.0038
 1977SOL    HW217391   1.615   3.235  10.985 -0.2753 -0.0099  1.2877
 1978SOL     OW17392   4.112   1.654   7.959  0.6028 -0.0360  0.2949
 1978SOL    HW117393   4.192   1.670   7.909  2.0029 -4.0734  1.2175
 1978SOL    HW217394   4.104   1.560   7.946  0.2779 -0.0053  0.2884
 1979SOL     OW17395   2.305   1.278   7.636 -0.1559 -0.3706 -0.0727
 1979SOL    HW117396   2.280   1.291   7.727 -1.2610  0.0092 -0.4295
 1979SOL    HW217397   2.366   1.207   7.656  1.5154  0.8172 -0.9370
 1980SOL     OW17398   4.388   3.457   7.067 -0.1192  0.3770  0.0181
 1980SOL    HW117399   4.304   3.473   7.024  1.1481  1.8209 -1.9424
 1980SOL    HW217400   4.416   3.382   7.013  1.3768  1.2909 -0.4670
 1981SOL     OW17401   3.192   0.066  12.315  0.3187  0.0639 -0.0359
 1981SOL    HW117402   3.161   4.701  12.301 -0.9457  0.6870 -1.0981
 1981SOL    HW217403   3.124   0.116  12.270  0.9826  1.3938  0.4263
 1982SOL     OW17404   0.674   4.715  15.807 -0.2833 -0.2849  0.2427
 1982SOL    HW117405   0.746   4.653  15.798 -1.4855 -1.7172  0.6704
 1982SOL    HW217406   0.670   0.026  15.718  2.3839 -0.1989  0.1374
 1983SOL     OW17407   3.127   3.023   7.191  0.1872  0.4148 -0.1221
 1983SOL    HW117408   3.211   2.978   7.185 -0.0443 -0.1795  1.3146
 1983SOL    HW217409   3.085   2.996   7.109  0.8925  1.9196 -0.9788
 1984SOL     OW17410   1.046   0.286   7.923 -0.4086  0.0846  0.3989
 1984SOL    HW117411   1.108   0.281   7.851  0.1192  2.3087  0.7037
 1984SOL    HW217412   1.008   0.199   7.918  0.5542 -0.6409  5.1932
 1985SOL     OW17413   0.912   2.827   4.876  0.2950  0.0898 -0.0990
 1985SOL    HW117414   0.923   2.837   4.781  2.4705  0.6223  0.2001
 1985SOL    HW217415   0.991   2.861   4.918 -0.3528 -1.9724  2.7593
 1986SOL     OW17416   1.933   1.136   3.239  0.1859 -0.3080  0.0570
 1986SOL    HW117417   1.993   1.105   3.171 -1.1830 -3.7314  0.3972
 1986SOL    HW217418   1.991   1.180   3.301  0.9562 -0.5493 -0.4821
 1987SOL     OW17419   1.206   2.158   3.551  0.3483 -0.1521 -0.1796
 1987SOL    HW117420   1.127   2.108   3.529 -0.0580  0.1764  0.5340
 1987SOL    HW217421   1.226   2.128   3.639 -2.1899  0.4219  0.5908
 1988SOL     OW17422   3.779   1.557  11.133  0.3583  0.0661 -0.3738
 1988SOL    HW117423   3.759   1.587  11.221  1.1003 -0.2311 -0.1080
 1988SOL    HW217424   3.836   1.482  11.143  0.0602 -0.4076 -2.0979
 1989SOL     OW17425   0.847   4.673   2.788  0.1413  0.1306 -0.2113
 1989SOL    HW117426   0.905   4.695   2.861  0.8292  1.1569 -1.0601
 1989SOL    HW217427   0.775   4.639   2.841 -0.9881  2.4243 -0.2826
 1990SOL     OW17428   1.493   4.208   4.038 -0.4692  0.2948  0.4058
 1990SOL    HW117429   1.403   4.196   4.007 -0.4398  0.7100  0.1630
 1990SOL    HW217430   1.541   4.128   4.013  0.0263  1.2179 -1.6104
 1991SOL     OW17431   3.402   2.857   8.385  0.0762  0.0321  0.2233
 1991SOL    HW117432   3.401   2.780   8.442 -1.0729 -3.2144 -4.1513
 1991SOL    HW217433   3.323   2.903   8.413 -0.2857 -1.0684  1.0442
 1992SOL     OW17434   1.672   2.541   3.701 -0.0603 -0.4186  0.2672
 1992SOL    HW117435   1.594   2.501   3.738  0.1899 -1.6318 -0.5335
 1992SOL    HW217436   1.660   2.633   3.726  1.4590 -0.1293 -0.0634
 1993SOL     OW17437   3.637   3.449  12.506  0.1592 -0.6364  0.3146
 1993SOL    HW117438   3.585   3.373  12.530  2.1106 -2.6643 -1.9134
 1993SOL    HW217439   3.620   3.511  12.576 -0.0722 -1.2777  0.8194
 1994SOL     OW17440   4.267   3.467   3.691  0.7524  0.8017 -0.0067
 1994SOL    HW117441   4.276   3.443   3.599  1.7325  1.2049 -0.0176
 1994SOL    HW217442   4.250   3.561   3.685  2.4104  1.1898  1.4168
 1995SOL     OW17443   3.877   1.160  13.358 -0.1396  0.4155 -0.2085
 1995SOL    HW117444   3.896   1.189  13.447 -1.0512 -1.1534  0.5018
 1995SOL    HW217445   3.898   1.244  13.316 -0.7721  0.7736  0.2048
 1996SOL     OW17446   0.431   1.676   8.155  0.2621 -0.4948  0.2070
 1996SOL    HW117447   0.428   1.614   8.227 -1.6104 -0.7082 -0.0649
 1996SOL    HW217448   0.425   1.627   8.073 -0.8462 -1.3891  0.8316
 1997SOL     OW17449   3.618   2.374   9.670  0.2467 -0.2905  0.3841
 1997SOL    HW117450   3.592   2.300   9.614 -2.7065  1.4520 -0.5356
 1997SOL    HW217451   3.690   2.401   9.613 -0.3098  0.5574  0.0741
 1998SOL     OW17452   4.630   4.116   0.706 -0.2162 -0.1671 -0.0793
 1998SOL    HW117453   4.677   4.198   0.692 -2.5806  1.2055  0.1770
 1998SOL    HW217454   4.662   4.088   0.793 -1.0454  2.8489  1.1808
 1999SOL     OW17455   3.578   4.546   9.801  0.5290  0.2629  0.6958
 1999SOL    HW117456   3.655   4.529   9.855 -1.4377  0.8117  3.6790
 1999SOL    HW217457   3.508   4.540   9.866  0.1877 -4.4712 -0.1231
 2000SOL     OW17458   3.413   3.028   2.717 -0.4137 -0.7275 -0.5022
 2000SOL    HW117459   3.505   3.044   2.694 -0.9796  1.1022 -1.4306
 2000SOL    HW217460   3.392   2.982   2.636 -1.2127 -0.1097 -0.6432
 2001SOL     OW17461   3.081   0.858  11.432 -0.0249  0.2032 -0.0230
 2001SOL    HW117462   3.052   0.922  11.497  1.3492  0.3428  0.4520
 2001SOL    HW217463   3.057   0.893  11.346 -1.2468 -0.4525  0.0562
 2002SOL     OW17464   4.144   3.916   6.473 -0.3491  0.2242 -0.2296
 2002SOL    HW117465   4.229   3.914   6.428  0.7393  1.1357  1.8206
 2002SOL    HW217466   4.109   3.994   6.431 -0.7664 -0.8436 -1.8603
 2003SOL     OW17467   0.272   0.877  15.357  0.1606  0.2360 -0.9198
 2003SOL    HW117468   0.361   0.842  15.350 -1.2465 -3.7745  1.0236
 2003SOL    HW217469   0.227   0.823  15.292  0.5616 -0.4020 -0.6672
 2004SOL     OW17470   1.307   3.226   9.113 -0.3578  0.4618  0.1321
 2004SOL    HW117471   1.230   3.204   9.060 -0.9325 -1.4879  1.7437
 2004SOL    HW217472   1.261   3.301   9.151 -0.0831  0.3386  0.7161
 2005SOL     OW17473   2.524   1.510   3.649 -0.1346 -0.1703  0.2949
 2005SOL    HW117474   2.458   1.538   3.713 -2.1552 -1.4664 -1.2297
 2005SOL    HW217475   2.568   1.455   3.714 -0.9554 -0.4256  0.6270
 2006SOL     OW17476   4.442   4.271  14.914 -0.2519 -0.0075 -0.1026
 2006SOL    HW117477   4.505   4.217  14.961  0.0899  0.7463  0.3073
 2006SOL    HW217478   4.491   4.353  14.899  0.3661 -0.3586 -0.0029
 2007SOL     OW17479   2.462   3.895   7.225  0.6235 -0.7721  0.0470
 2007SOL    HW117480   2.547   3.883   7.183 -0.2019 -0.1263 -1.8002
 2007SOL    HW217481   2.399   3.853   7.167 -0.6585  0.0698  0.8353
 2008SOL     OW17482   3.786   0.556   4.248  0.1610 -0.2081  0.5111
 2008SOL    HW117483   3.721   0.486   4.250 -1.4293  1.2827 -0.0534
 2008SOL    HW217484   3.769   0.586   4.159  0.1736  1.7768  1.1891
 2009SOL     OW17485   1.102   2.876   3.413  0.5014 -0.1060 -0.3230
 2009SOL    HW117486   1.035   2.944   3.403  0.6513 -0.3604 -3.1540
 2009SOL    HW217487   1.076   2.804   3.355  0.0089 -1.0664  1.0942
 2010SOL     OW17488   0.316   1.978   0.531 -0.1801  0.0777 -0.6300
 2010SOL    HW117489   0.290   2.024   0.611  0.5188  0.1818 -0.4659
 2010SOL    HW217490   0.392   2.030   0.505 -0.7545  2.2688  2.0212
 2011SOL     OW17491   4.682   3.323   1.305  0.0117  0.2358 -0.3774
 2011SOL    HW117492   4.642   3.307   1.391 -0.3770  0.5839 -0.4900
 2011SOL    HW217493   0.053   3.309   1.305 -0.0226 -0.0591  1.3514
 2012SOL     OW17494   4.181   0.445   0.775  0.3678  0.1194 -0.3701
 2012SOL    HW117495   4.142   0.455   0.862 -0.8883  2.6818 -1.2488
 2012SOL    HW217496   4.115   0.481   0.717  1.1235  0.2259 -1.1731
 2013SOL     OW17497   3.622   1.269   8.044 -0.3085 -0.2350 -0.2241
 2013SOL    HW117498   3.700   1.313   8.010 -0.7200 -1.1979 -2.4043
 2013SOL    HW217499   3.559   1.335   8.015 -0.2872 -0.5822 -1.0627
 2014SOL     OW17500   4.127   3.211   7.711 -0.1856  0.1251 -0.1449
 2014SOL    HW117501   4.204   3.186   7.660  1.1342  0.9091  1.4803
 2014SOL    HW217502   4.164   3.252   7.789  2.4267  0.9340 -1.8080
 2015SOL     OW17503   1.715   0.364   5.402  0.4116 -0.0330  0.0605
 2015SOL    HW117504   1.707   0.276   5.439  1.0700  0.7784  2.1479
 2015SOL    HW217505   1.694   0.344   5.311 -0.0042  1.6298 -0.1964
 2016SOL     OW17506   1.181   3.031   7.681  0.0487 -0.2176 -0.3282
 2016SOL    HW117507   1.159   3.124   7.676  0.3301 -0.1269  0.1138
 2016SOL    HW217508   1.275   3.023   7.697 -0.3108  1.6630  2.9220
 2017SOL     OW17509   1.617   4.324   6.825 -0.1477 -0.1017  0.2755
 2017SOL    HW117510   1.610   4.229   6.829 -0.7992 -0.0741 -0.3395
 2017SOL    HW217511   1.546   4.349   6.884 -0.9785  1.8777 -1.5608
 2018SOL     OW17512   2.723   2.470   3.307  0.5620 -0.0801  0.7026
 2018SOL    HW117513   2.746   2.399   3.248  0.0099 -0.2173  0.6516
 2018SOL    HW217514   2.629   2.477   3.290  0.9771  3.0958 -0.2284
 2019SOL     OW17515   2.659   3.229  12.148 -0.1698  0.0133  0.0633
 2019SOL    HW117516   2.681   3.164  12.215 -3.0535  1.5566  2.4787
 2019SOL    HW217517   2.572   3.200  12.122  0.1112  0.9482 -1.9120
 2020SOL     OW17518   4.189   1.970  16.036  0.3990 -0.0429  0.1156
 2020SOL    HW117519   4.139   2.039  15.992  0.3857  2.4669  4.1648
 2020SOL    HW217520   4.123   1.923  16.087  0.4094 -0.7448 -0.5171
 2021SOL     OW17521   3.631   4.631   0.135  0.5389  0.1764  0.1107
 2021SOL    HW117522   3.549   4.588   0.114  1.0228 -1.7453  2.0882
 2021SOL    HW217523   3.599   4.717   0.162  0.3046 -0.6334  2.4246
 2022SOL     OW17524   2.427   3.314  10.236 -0.2072 -0.2257  0.0348
 2022SOL    HW117525   2.429   3.286  10.327 -1.4967 -1.8484 -0.4343
 2022SOL    HW217526   2.334   3.299  10.220 -0.1321  1.1078 -1.6499
 2023SOL     OW17527   1.972   2.030   7.164  0.8566 -0.2887 -0.0916
 2023SOL    HW117528   1.939   2.105   7.115  0.1491 -0.4491  0.1365
 2023SOL    HW217529   1.899   1.985   7.206 -1.3553 -0.8969 -4.5654
 2024SOL     OW17530   3.619   1.181  13.276  0.8287 -0.2722 -0.5192
 2024SOL    HW117531   3.695   1.154  13.326 -0.7286 -0.1516  1.8813
 2024SOL    HW217532   3.580   1.262  13.309  0.1292 -0.3252 -1.2190
 2025SOL     OW17533   1.206   3.507  13.599 -0.8368 -0.1977  0.2709
 2025SOL    HW117534   1.129   3.499  13.542  0.5412 -0.0722 -1.5836
 2025SOL    HW217535   1.267   3.553  13.542 -2.7666  2.9236  0.7249
 2026SOL     OW17536   3.895   1.391   8.384 -0.2507  0.0920 -0.7193
 2026SOL    HW117537   3.959   1.457   8.411  0.1921 -0.4424 -0.4651
 2026SOL    HW217538   3.831   1.450   8.344 -0.9409  1.9171  3.1210
 2027SOL     OW17539   0.274   0.106   1.132  0.0644 -0.0769  0.1229
 2027SOL    HW117540   0.285   0.030   1.188  2.0888 -0.5814 -0.9763
 2027SOL    HW217541   0.221   0.070   1.061 -1.4396 -0.1459  1.2688
 2028SOL     OW17542   4.311   3.154   6.435  0.4311  0.6448  0.5891
 2028SOL    HW117543   4.385   3.160   6.495  1.9258 -0.3161 -1.1500
 2028SOL    HW217544   4.265   3.238   6.443 -1.8127 -0.3354 -2.0319
 2029SOL     OW17545   0.117   3.854   1.694  0.2933 -0.2298  0.3726
 2029SOL    HW117546   0.126   3.812   1.608 -1.4147 -0.3564  0.2641
 2029SOL    HW217547   0.108   3.947   1.673 -0.9921 -0.3049  0.6572
 2030SOL     OW17548   3.322   1.769   9.616 -0.5316  0.0451 -0.5988
 2030SOL    HW117549   3.327   1.759   9.521  0.9724  2.3293 -0.7668
 2030SOL    HW217550   3.270   1.694   9.646 -0.4597  0.0666 -0.4245
 2031SOL     OW17551   2.708   1.770   5.953 -0.0342 -0.5016 -0.5301
 2031SOL    HW117552   2.797   1.757   5.918  1.2950  4.0498  1.0897
 2031SOL    HW217553   2.726   1.767   6.047  2.2085 -1.3439 -0.9813
 2032SOL     OW17554   0.507   4.160   9.425 -0.5084 -0.3692 -0.2661
 2032SOL    HW117555   0.443   4.096   9.393 -1.3191 -0.4752  1.5714
 2032SOL    HW217556   0.550   4.185   9.344 -1.7859  1.5632 -0.3602
 2033SOL     OW17557   3.703   2.836   4.024  0.0539  0.6583 -0.0969
 2033SOL    HW117558   3.648   2.785   4.084 -0.5136  0.5497 -0.7013
 2033SOL    HW217559   3.639   2.874   3.963  0.2727  0.6614 -0.3207
 2034SOL     OW17560   0.145   3.826  13.592 -0.0004  0.2906  0.4060
 2034SOL    HW117561   0.171   3.899  13.536 -1.0255 -0.9776 -1.7260
 2034SOL    HW217562   0.135   3.862  13.679 -1.5591  0.3018  0.2242
 2035SOL     OW17563   4.305   1.643  15.987 -0.0311 -0.0329  0.2898
 2035SOL    HW117564   4.374   1.619  15.925  1.7848 -0.7111  2.5624
 2035SOL    HW217565   4.327   1.598  16.069 -1.0942 -0.2383  0.4665
 2036SOL     OW17566   3.471   2.277   7.741  0.0046 -0.1393 -0.1291
 2036SOL    HW117567   3.552   2.239   7.776 -0.2923 -1.0918 -0.4871
 2036SOL    HW217568   3.484   2.370   7.758  1.4505 -0.3526 -0.0407
 2037SOL     OW17569   2.075   2.181   5.946  0.0901 -0.1469 -0.0872
 2037SOL    HW117570   2.066   2.125   6.023  2.0532  0.1430  0.3460
 2037SOL    HW217571   2.160   2.221   5.966 -0.1176 -0.0560  0.6365
 2038SOL     OW17572   4.411   0.955   4.626 -0.0645 -0.4409  0.1562
 2038SOL    HW117573   4.394   0.876   4.678 -0.7650 -0.3713  0.0390
 2038SOL    HW217574   4.326   0.978   4.589 -0.4373 -0.0937  1.2292
 2039SOL     OW17575   4.325   2.584   6.176 -0.3644  0.1664 -0.4316
 2039SOL    HW117576   4.328   2.592   6.081  3.9365  1.0049 -0.2011
 2039SOL    HW217577   4.401   2.635   6.203  0.7261 -0.5885 -2.0517
 2040SOL     OW17578   4.113   3.519   1.429  0.1737  0.0265  0.2075
 2040SOL    HW117579   4.043   3.513   1.365  0.2683  0.4497  0.0631
 2040SOL    HW217580   4.171   3.586   1.394 -1.9993 -0.5265 -4.3824
 2041SOL     OW17581   3.752   1.459  13.255  0.3203  0.3575 -0.0869
 2041SOL    HW117582   3.843   1.431  13.245  0.9639  3.0788 -1.9901
 2041SOL    HW217583   3.700   1.416  13.187 -0.4454 -0.6512  1.1591
 2042SOL     OW17584   3.798   3.531   3.948  0.1184  0.1657  0.3906
 2042SOL    HW117585   3.744   3.608   3.969  0.8740  0.6036  0.7148
 2042SOL    HW217586   3.852   3.521   4.025 -1.3611 -2.9849  1.0127
 2043SOL     OW17587   1.430   1.752   4.097  0.5300 -0.2906 -0.3737
 2043SOL    HW117588   1.371   1.806   4.150 -0.2510 -1.8495  0.3585
 2043SOL    HW217589   1.512   1.802   4.096  0.9593 -0.9693  1.7980
 2044SOL     OW17590   0.428   0.225   9.573  0.8302  0.5135 -0.5545
 2044SOL    HW117591   0.336   0.242   9.555  1.2525  1.8946 -1.4402
 2044SOL    HW217592   0.464   0.239   9.485  1.8707 -0.5013 -0.3035
 2045SOL     OW17593   2.644   2.827   7.167 -0.1918  0.1427  0.0772
 2045SOL    HW117594   2.584   2.764   7.127  1.1646 -0.4481 -0.9912
 2045SOL    HW217595   2.730   2.786   7.166 -0.6417 -0.8949  2.3172
 2046SOL     OW17596   4.585   1.355   2.570  0.3803 -0.4123  0.2880
 2046SOL    HW117597   4.530   1.278   2.586  1.6929 -0.9539  2.1714
 2046SOL    HW217598   4.570   1.355   2.476 -0.2437 -0.8652  0.3832
 2047SOL     OW17599   4.290   2.329   5.456  0.2038  0.1117  0.0788
 2047SOL    HW117600   4.351   2.279   5.402  0.1950  0.5693 -0.3587
 2047SOL    HW217601   4.355   2.396   5.480 -1.0338  0.7927  1.5196
 2048SOL     OW17602   3.832   0.824   9.634  0.1099  0.6044  0.1780
 2048SOL    HW117603   3.809   0.839   9.726  1.1288  0.7680  0.4058
 2048SOL    HW217604   3.919   0.798   9.662  0.2589 -0.0459 -0.9283
 2049SOL     OW17605   2.350   3.978  10.109  0.1084 -1.0186 -0.3765
 2049SOL    HW117606   2.366   4.046  10.175  1.3226 -0.9554 -0.7352
 2049SOL    HW217607   2.428   3.923  10.107  1.0766  0.2531  2.3821
 2050SOL     OW17608   0.823   3.908  13.262  0.1151  0.5917 -0.5375
 2050SOL    HW117609   0.730   3.927  13.252  0.0588  0.3601 -0.4372
 2050SOL    HW217610   0.862   3.990  13.295 -2.0567  0.9647  1.1030
 2051SOL     OW17611   0.761   0.499   5.205 -0.1968 -0.0418  0.3227
 2051SOL    HW117612   0.816   0.578   5.209 -1.2605  0.8237 -2.0625
 2051SOL    HW217613   0.820   0.440   5.252 -1.8536 -1.9756 -0.0616
 2052SOL     OW17614   2.368   4.510   8.662  0.8958  0.4475 -0.2551
 2052SOL    HW117615   2.319   4.520   8.743  0.6728  1.2656 -0.4976
 2052SOL    HW217616   2.455   4.537   8.692  0.6633 -0.6127  1.3659
 2053SOL     OW17617   3.042   1.611   6.142 -0.0212  0.2409  0.0706
 2053SOL    HW117618   3.075   1.639   6.227 -1.3405  1.4286  0.1924
 2053SOL    HW217619   2.970   1.674   6.134  1.9697  2.4519 -0.2015
 2054SOL     OW17620   0.462   2.295  12.038  0.5497 -0.0077  0.0304
 2054SOL    HW117621   0.377   2.337  12.050  0.6107  0.5656 -1.5977
 2054SOL    HW217622   0.522   2.362  12.006  0.0700  0.1445 -0.5579
 2055SOL     OW17623   0.833   2.904   5.927 -0.1521  0.3940  0.4047
 2055SOL    HW117624   0.810   2.996   5.912 -0.0865 -0.1690 -3.0782
 2055SOL    HW217625   0.927   2.904   5.908 -0.2045 -0.3515  0.1381
 2056SOL     OW17626   1.015   2.669   1.396 -0.1446 -0.1162  0.3818
 2056SOL    HW117627   0.979   2.634   1.478 -1.4344 -2.9148 -1.4001
 2056SOL    HW217628   1.086   2.721   1.433 -0.2834 -0.8891  1.7157
 2057SOL     OW17629   1.990   0.709   8.112 -0.6140 -0.8172  0.2555
 2057SOL    HW117630   1.973   0.683   8.202 -1.0270  0.4047  0.5236
 2057SOL    HW217631   1.899   0.704   8.083  0.2956 -0.5664 -2.7151
 2058SOL     OW17632   4.601   3.060   7.257 -0.0714  0.1871 -0.3591
 2058SOL    HW117633   4.535   3.012   7.207  0.0051  0.2999 -0.5715
 2058SOL    HW217634   4.644   2.998   7.316 -1.4717 -1.1522 -0.7557
 2059SOL     OW17635   4.523   0.694   6.185  0.2032  0.2137 -0.3041
 2059SOL    HW117636   4.487   0.612   6.220  1.0074 -0.5306 -1.1985
 2059SOL    HW217637   4.599   0.703   6.244  0.5412  1.4345 -0.9448
 2060SOL     OW17638   3.156   2.398   1.750 -0.4537  0.0400 -0.1331
 2060SOL    HW117639   3.219   2.361   1.688  0.2531 -0.7861  1.0533
 2060SOL    HW217640   3.087   2.335   1.772 -0.3184  0.0799  0.4050
 2061SOL     OW17641   0.963   3.497   2.614  0.0218  0.6609 -0.7013
 2061SOL    HW117642   1.011   3.416   2.597  1.3676  1.2519  0.3042
 2061SOL    HW217643   0.981   3.539   2.530  2.5565 -1.0442 -1.0231
 2062SOL     OW17644   0.993   2.070  14.831 -0.1084  0.4865 -0.1734
 2062SOL    HW117645   1.015   2.153  14.789  0.7282  0.9955  1.2821
 2062SOL    HW217646   1.013   2.089  14.922  2.3701 -0.3133 -0.5603
 2063SOL     OW17647   4.338   0.948   2.369  0.0437 -0.0102  0.4443
 2063SOL    HW117648   4.298   0.954   2.455  0.3926 -0.7211  0.6554
 2063SOL    HW217649   4.355   0.855   2.355  0.4547 -0.0345  1.0866
 2064SOL     OW17650   1.994   1.418   2.921  0.1705 -0.3373  0.0191
 2064SOL    HW117651   1.976   1.502   2.963 -2.2278 -0.3910 -0.9221
 2064SOL    HW217652   2.009   1.443   2.830 -0.0299  0.1759  0.1304
 2065SOL     OW17653   2.305   1.338   2.861  0.1187  0.3308 -0.2269
 2065SOL    HW117654   2.286   1.245   2.849  0.6021  0.2117 -0.0566
 2065SOL    HW217655   2.219   1.370   2.888  0.6686  2.6364 -1.1842
 2066SOL     OW17656   2.113   1.779   0.770  0.0278 -0.5887 -0.7224
 2066SOL    HW117657   2.028   1.788   0.813 -0.6139  0.2494 -2.1457
 2066SOL    HW217658   2.151   1.705   0.817 -0.9264  0.1223  1.1585
 2067SOL     OW17659   0.354   1.821   2.432  0.1918  0.3305 -0.7767
 2067SOL    HW117660   0.345   1.872   2.513  1.8887 -0.9590  0.2053
 2067SOL    HW217661   0.333   1.891   2.369 -0.2777  0.9373  0.0500
 2068SOL     OW17662   0.153   0.493   6.318  0.0371  0.3634  0.1670
 2068SOL    HW117663   0.241   0.467   6.344 -0.5080 -1.1052  0.5406
 2068SOL    HW217664   0.157   0.580   6.358  0.7666 -0.4067  1.7452
 2069SOL     OW17665   0.623   1.527   8.376 -0.1370  0.3264 -0.3852
 2069SOL    HW117666   0.558   1.514   8.446 -0.1743  0.2724 -0.4293
 2069SOL    HW217667   0.689   1.574   8.427  1.1280 -0.7495 -1.0321
 2070SOL     OW17668   4.284   1.689  16.299 -0.9289  0.5075  0.2797
 2070SOL    HW117669   4.199   1.729  16.282 -0.8008  1.1688  1.1924
 2070SOL    HW217670   4.327   1.728  16.375 -1.5421  0.0417  0.8637
 2071SOL     OW17671   4.186   0.578  11.605 -0.2312 -0.0120 -0.0957
 2071SOL    HW117672   4.215   0.582  11.696  1.4161  0.4824 -0.6424
 2071SOL    HW217673   4.120   0.508  11.610 -1.4829  0.9645 -2.7416
 2072SOL     OW17674   4.221   4.375   1.987  0.6701  1.2063 -0.1351
 2072SOL    HW117675   4.156   4.396   2.054  0.8797 -1.0899  0.8051
 2072SOL    HW217676   4.296   4.425   2.018  2.6214 -0.7969 -1.5443
 2073SOL     OW17677   2.024   3.064   5.319 -0.6972 -0.2422 -0.2256
 2073SOL    HW117678   2.089   3.102   5.260 -0.9726  0.1710 -0.2617
 2073SOL    HW217679   2.084   3.011   5.372 -0.3784 -0.6261 -0.9691
 2074SOL     OW17680   0.272   1.786   7.446 -0.2177  0.1879  0.4761
 2074SOL    HW117681   0.309   1.790   7.534 -0.7663  0.0609  0.7085
 2074SOL    HW217682   0.275   1.878   7.418 -0.9352  0.0484 -0.0602
 2075SOL     OW17683   2.245   4.610   7.536  0.0332  0.5644  0.1253
 2075SOL    HW117684   2.290   4.680   7.583 -1.1959  0.1138  1.9586
 2075SOL    HW217685   2.181   4.670   7.498 -1.9335 -0.6474  1.5808
 2076SOL     OW17686   3.899   0.017  10.619  0.0378  0.3271  0.4204
 2076SOL    HW117687   3.913   0.086  10.684 -1.1281  0.5993  0.3875
 2076SOL    HW217688   3.900   4.662  10.673  2.0731 -0.5259 -0.8595
 2077SOL     OW17689   4.209   3.656   1.843  0.0952 -0.4605 -0.6126
 2077SOL    HW117690   4.249   3.587   1.790  0.7331  0.3405 -1.1721
 2077SOL    HW217691   4.196   3.726   1.779  1.2200  0.7627  0.5005
 2078SOL     OW17692   0.833   1.594   5.878  0.0807  0.7372 -0.6696
 2078SOL    HW117693   0.924   1.570   5.895 -0.0095  1.1821  0.4175
 2078SOL    HW217694   0.788   1.518   5.916 -0.2531  2.4427  2.3340
 2079SOL     OW17695   4.329   3.276  13.442 -0.0399 -0.2461 -0.4575
 2079SOL    HW117696   4.404   3.243  13.393  0.6509 -0.9873  1.1282
 2079SOL    HW217697   4.355   3.368  13.453 -0.8618  0.0808 -1.2433
 2080SOL     OW17698   1.793   1.211  12.259 -0.6248  0.1233 -0.4641
 2080SOL    HW117699   1.709   1.254  12.273 -1.5823 -1.0023 -2.7611
 2080SOL    HW217700   1.809   1.163  12.341  0.2541 -0.3416 -0.9008
 2081SOL     OW17701   0.685   1.352   5.725 -0.5835  0.0434  0.5696
 2081SOL    HW117702   0.617   1.417   5.712 -2.1027 -1.4861  0.8428
 2081SOL    HW217703   0.698   1.339   5.819 -0.6823  0.8529  0.6893
 2082SOL     OW17704   3.214   3.832   3.066 -0.0044 -0.3804 -0.0469
 2082SOL    HW117705   3.241   3.741   3.054 -0.5167 -0.5131 -0.1985
 2082SOL    HW217706   3.253   3.875   2.990 -0.1039  1.7088  1.0976
 2083SOL     OW17707   0.317   3.511  11.456 -0.0489 -0.0442 -0.8764
 2083SOL    HW117708   0.358   3.560  11.527  0.9542 -2.8434  0.4645
 2083SOL    HW217709   0.227   3.499  11.487  0.7639 -0.4595  1.2826
 2084SOL     OW17710   2.955   1.578   7.851  0.2113  0.2985 -0.1955
 2084SOL    HW117711   3.041   1.541   7.830  0.0681  0.7350 -1.5743
 2084SOL    HW217712   2.912   1.506   7.896  0.6782  0.6492  0.8028
 2085SOL     OW17713   1.329   2.914   9.309  0.3880  0.5669  0.0952
 2085SOL    HW117714   1.381   2.834   9.302  0.3313  0.5844 -0.5519
 2085SOL    HW217715   1.394   2.968   9.355  1.5340 -1.0380  0.3377
 2086SOL     OW17716   0.866   0.473   9.143 -0.3512 -0.6640  0.3274
 2086SOL    HW117717   0.785   0.506   9.181 -0.2952  0.0219 -0.1529
 2086SOL    HW217718   0.851   0.379   9.154 -1.9824 -0.3050  1.2020
 2087SOL     OW17719   0.443   3.680   6.659  0.5278  0.2470  0.1656
 2087SOL    HW117720   0.369   3.719   6.612  0.7524  2.6681  1.8681
 2087SOL    HW217721   0.434   3.731   6.739 -1.4807  0.2358 -0.0562
 2088SOL     OW17722   1.155   0.921   2.291 -0.0426  0.1909  0.9639
 2088SOL    HW117723   1.203   0.921   2.208  0.6569 -2.1132  1.3868
 2088SOL    HW217724   1.195   0.844   2.332  1.3414 -0.3626 -1.3865
 2089SOL     OW17725   2.428   0.072  16.284  0.2272  0.7033 -0.4234
 2089SOL    HW117726   2.370   0.072  16.208 -0.3550  0.1002  0.0240
 2089SOL    HW217727   2.458   0.163  16.284  1.0051  0.4521 -0.7771
 2090SOL     OW17728   3.338   2.500  11.990 -0.6499  0.7300 -0.4904
 2090SOL    HW117729   3.368   2.494  12.080 -1.7589  1.1608 -0.0927
 2090SOL    HW217730   3.248   2.529  12.005 -0.6827  0.4202 -0.0845
 2091SOL     OW17731   2.635   3.922  10.352  0.1655  0.2100  0.2313
 2091SOL    HW117732   2.586   3.873  10.286  0.8543 -1.1488  0.7408
 2091SOL    HW217733   2.565   3.944  10.415 -0.8052  2.5310 -1.6341
 2092SOL     OW17734   1.722   2.294   9.020 -0.0642  0.3802 -0.6966
 2092SOL    HW117735   1.784   2.325   8.954 -0.8689  0.8141 -1.2478
 2092SOL    HW217736   1.776   2.308   9.098  0.7182 -1.1046 -0.9917
 2093SOL     OW17737   4.271   0.497  11.097 -0.2158 -0.8625 -0.1566
 2093SOL    HW117738   4.278   0.592  11.098 -0.6216 -0.8557  2.9046
 2093SOL    HW217739   4.270   0.487  11.192 -3.7304 -1.7642 -0.2774
 2094SOL     OW17740   1.797   0.527  13.163 -0.6399  0.7916  0.1888
 2094SOL    HW117741   1.714   0.522  13.209 -0.3001 -0.3908  0.6628
 2094SOL    HW217742   1.818   0.620  13.175 -0.5848  0.9253 -0.9470
 2095SOL     OW17743   2.089   3.521   1.285  0.1733  0.1604  0.1094
 2095SOL    HW117744   2.100   3.431   1.253 -3.4896 -0.6902  1.1830
 2095SOL    HW217745   2.034   3.497   1.359  1.4042 -1.2080  0.5938
 2096SOL     OW17746   1.751   1.800   7.637 -0.3137  0.5641  0.6718
 2096SOL    HW117747   1.798   1.819   7.719  2.2896 -1.2126 -0.4116
 2096SOL    HW217748   1.792   1.873   7.591  0.8074 -1.1646 -1.0508
 2097SOL     OW17749   4.559   1.095   2.281 -0.6961 -0.2653 -0.6143
 2097SOL    HW117750   4.473   1.052   2.280 -0.5904 -0.5021  0.1281
 2097SOL    HW217751   4.626   1.030   2.303 -0.2536  0.8057  1.2581
 2098SOL     OW17752   3.338   1.718   6.624 -0.2224  0.2639  0.6525
 2098SOL    HW117753   3.314   1.647   6.685 -1.4010 -0.6788 -0.9121
 2098SOL    HW217754   3.425   1.687   6.599 -2.2453 -2.8291 -2.4959
 2099SOL     OW17755   2.842   0.863   2.986 -0.0380 -0.3952  0.3373
 2099SOL    HW117756   2.910   0.816   3.033  0.8857 -0.8171 -1.4217
 2099SOL    HW217757   2.815   0.805   2.915 -1.6348 -0.3431  0.8931
 2100SOL     OW17758   3.794   4.158   6.147 -0.0850 -0.1614 -0.1961
 2100SOL    HW117759   3.709   4.199   6.162  0.3587  0.3333  0.9787
 2100SOL    HW217760   3.785   4.079   6.200  3.3021 -0.8825 -0.6741
 2101SOL     OW17761   4.265   4.361   3.571 -0.4217  0.2823  0.4771
 2101SOL    HW117762   4.348   4.315   3.584 -0.2531  0.7286  0.9878
 2101SOL    HW217763   4.239   4.334   3.482  1.0595 -1.9837  0.7311
 2102SOL     OW17764   1.554   3.223  15.182  0.5732 -0.2572  0.4408
 2102SOL    HW117765   1.612   3.233  15.106  2.3827  1.7411  2.0841
 2102SOL    HW217766   1.617   3.227  15.253 -0.2534  2.4343  1.0411
 2103SOL     OW17767   4.262   0.192  13.487  0.3957 -0.2127  0.0588
 2103SOL    HW117768   4.254   0.220  13.396 -0.5030  1.7958  0.7780
 2103SOL    HW217769   4.317   0.113  13.484 -1.5397 -1.5120 -1.2601
 2104SOL     OW17770   0.648   1.548  15.159 -0.2069 -0.4894 -0.8095
 2104SOL    HW117771   0.691   1.633  15.151 -1.1173 -0.0961 -1.4333
 2104SOL    HW217772   0.666   1.512  15.072  1.3220 -0.6693 -0.4148
 2105SOL     OW17773   1.221   0.719  16.596 -0.1365  0.6292  0.0657
 2105SOL    HW117774   1.224   0.815  16.596  0.2268  0.6184  0.2805
 2105SOL    HW217775   1.156   0.709  16.666 -0.0109 -0.1727  0.0560
 2106SOL     OW17776   4.383   3.248   7.265 -0.3942 -0.5849  0.4017
 2106SOL    HW117777   4.469   3.207   7.257 -0.0022  0.0890  1.1872
 2106SOL    HW217778   4.400   3.331   7.222  0.1607  0.0513  1.8533
 2107SOL     OW17779   0.586   0.797   7.314  0.0312  0.0902  0.1236
 2107SOL    HW117780   0.617   0.729   7.255  0.9902 -1.4043  2.3211
 2107SOL    HW217781   0.494   0.809   7.289 -0.0869  0.7804  0.8665
 2108SOL     OW17782   1.992   3.557   2.657 -0.0427  0.3800  0.1132
 2108SOL    HW117783   2.077   3.541   2.616 -1.2619 -1.1808 -1.8263
 2108SOL    HW217784   2.026   3.577   2.744  2.0160  2.3333 -1.1543
 2109SOL     OW17785   2.099   3.134   9.305  0.1871  0.6922  0.5042
 2109SOL    HW117786   2.014   3.169   9.278  0.2135 -2.1764 -3.4298
 2109SOL    HW217787   2.077   3.128   9.398 -1.2320  0.9544  0.1896
 2110SOL     OW17788   0.344   0.576   3.866  0.5422  0.2869  0.6036
 2110SOL    HW117789   0.302   0.647   3.915 -1.0722 -0.3076  0.0857
 2110SOL    HW217790   0.421   0.625   3.837  2.6174 -3.1347  0.4232
 2111SOL     OW17791   2.922   4.311   4.006  0.4284  0.6111  0.5420
 2111SOL    HW117792   2.917   4.217   4.021 -3.1866  0.8059  0.6525
 2111SOL    HW217793   3.007   4.325   3.965 -0.1133  1.2385 -0.3834
 2112SOL     OW17794   3.940   3.738   1.678 -0.3315 -0.4745  0.6073
 2112SOL    HW117795   3.944   3.817   1.733  0.8461 -0.5101  0.5846
 2112SOL    HW217796   3.873   3.763   1.615  0.2768 -1.3487 -0.3672
 2113SOL     OW17797   3.058   0.817   9.126 -0.4955  0.2735 -0.0702
 2113SOL    HW117798   3.023   0.905   9.134 -1.6370 -0.5278  3.5741
 2113SOL    HW217799   3.025   0.779   9.208  1.7530  1.2451  1.2754
 2114SOL     OW17800   3.591   4.416   7.164 -0.2398  0.2079 -0.7259
 2114SOL    HW117801   3.571   4.506   7.188 -0.2785  0.8188 -3.0330
 2114SOL    HW217802   3.674   4.420   7.117  0.0701 -0.9623 -0.2876
 2115SOL     OW17803   3.644   2.018   9.842 -0.4390 -0.3303 -0.3494
 2115SOL    HW117804   3.711   2.007   9.775 -0.2166 -1.3782  0.0504
 2115SOL    HW217805   3.575   2.033   9.778 -1.1450  1.8214  0.9222
 2116SOL     OW17806   2.376   0.785   4.583  0.2219  0.6882 -0.1838
 2116SOL    HW117807   2.381   0.720   4.653 -0.0845 -0.5809 -1.3409
 2116SOL    HW217808   2.463   0.825   4.588 -0.0570  1.5548 -2.2870
 2117SOL     OW17809   1.336   3.889   7.108 -0.1838  0.4292 -0.0828
 2117SOL    HW117810   1.241   3.884   7.118 -0.6547  3.0502 -3.2010
 2117SOL    HW217811   1.365   3.882   7.199  3.7810  5.5241 -0.9809
 2118SOL     OW17812   1.397   0.446  14.163  0.5048  0.1913 -0.0249
 2118SOL    HW117813   1.325   0.413  14.110 -0.3305 -0.2992  1.4245
 2118SOL    HW217814   1.465   0.466  14.099 -0.0799 -1.3362 -1.1139
 2119SOL     OW17815   1.719   1.556  12.016 -0.0700  0.2107 -0.2148
 2119SOL    HW117816   1.733   1.470  11.976 -0.6218  0.4658 -0.9533
 2119SOL    HW217817   1.692   1.614  11.945 -0.8472  1.5593  1.1824
 2120SOL     OW17818   4.194   2.973   4.598 -0.7086  0.1570  0.8122
 2120SOL    HW117819   4.143   2.975   4.678 -3.5814 -1.8440 -0.9629
 2120SOL    HW217820   4.136   3.021   4.538  0.9343  0.6065 -0.4280
 2121SOL     OW17821   3.433   3.757  15.781  0.6520 -0.0757 -0.0214
 2121SOL    HW117822   3.513   3.803  15.757  0.1378  1.7171  1.6913
 2121SOL    HW217823   3.379   3.799  15.714  0.1227  3.3020  2.5306
 2122SOL     OW17824   0.563   3.798   0.224  0.2905 -0.3047  0.0655
 2122SOL    HW117825   0.522   3.882   0.244  0.4602 -0.5004  1.2498
 2122SOL    HW217826   0.499   3.762   0.161  1.6537  0.7691 -1.9043
 2123SOL     OW17827   0.466   1.119   5.584  0.1904 -0.3859  0.1979
 2123SOL    HW117828   0.529   1.047   5.577  0.4756 -0.2238  1.0620
 2123SOL    HW217829   0.500   1.177   5.516  0.1965 -1.9168 -1.0959
 2124SOL     OW17830   1.700   0.309   0.722  0.0269 -0.6840  0.5698
 2124SOL    HW117831   1.739   0.263   0.797 -0.5108 -1.4475  0.3788
 2124SOL    HW217832   1.660   0.381   0.770  1.3668  0.0577  0.5675
 2125SOL     OW17833   1.995   4.477  16.787  0.1648  0.5493  0.2234
 2125SOL    HW117834   1.916   4.511  16.828  0.3617  2.7871 -1.2909
 2125SOL    HW217835   2.039   4.557  16.759 -2.1490  1.3292 -1.1980
 2126SOL     OW17836   2.337   4.439   2.333  0.3955  0.2646  0.6843
 2126SOL    HW117837   2.250   4.414   2.302 -0.1269  1.6939  0.9629
 2126SOL    HW217838   2.328   4.405   2.422 -0.0721 -1.3212  0.0245
 2127SOL     OW17839   0.761   3.146   2.921  0.8917 -0.4834 -0.2972
 2127SOL    HW117840   0.820   3.151   2.846 -0.2996  0.7828 -1.1718
 2127SOL    HW217841   0.690   3.096   2.880  1.9586 -1.2967 -1.1511
 2128SOL     OW17842   1.420   4.131   5.449 -0.5343  0.0490  0.1807
 2128SOL    HW117843   1.506   4.095   5.471 -0.3543 -1.6199 -3.3140
 2128SOL    HW217844   1.368   4.078   5.510 -0.7685 -0.5451 -0.5369
 2129SOL     OW17845   3.556   1.058   3.982  0.5279 -0.2459 -0.2024
 2129SOL    HW117846   3.614   1.088   4.052 -1.4592  0.9747  0.9084
 2129SOL    HW217847   3.610   1.003   3.924  1.2716  0.6329 -0.3379
 2130SOL     OW17848   0.698   3.832   2.733 -0.5665 -0.1095  0.0003
 2130SOL    HW117849   0.709   3.739   2.714 -0.7703 -0.4071  1.2981
 2130SOL    HW217850   0.777   3.861   2.689  1.2962 -1.6737  2.3044
 2131SOL     OW17851   3.463   1.581   3.440 -0.5295  0.5063  0.4305
 2131SOL    HW117852   3.422   1.659   3.477 -2.2839 -0.3243  0.2190
 2131SOL    HW217853   3.398   1.564   3.371 -0.7320  1.6282  0.3392
 2132SOL     OW17854   1.918   4.573   5.734  0.2066 -0.1061  0.4263
 2132SOL    HW117855   1.874   4.488   5.743 -0.3431  0.1126 -0.2151
 2132SOL    HW217856   1.962   4.552   5.652 -0.0046 -1.9423  0.7747
 2133SOL     OW17857   4.478   1.555   6.527  0.0385 -0.2525 -0.0545
 2133SOL    HW117858   4.392   1.582   6.558  0.8523  1.7649  0.4349
 2133SOL    HW217859   4.469   1.466   6.493  0.1067 -0.0828 -0.5137
 2134SOL     OW17860   3.282   0.990  12.421  0.4779  0.4370 -0.1444
 2134SOL    HW117861   3.366   0.954  12.393  0.6631  1.4447 -0.8756
 2134SOL    HW217862   3.259   1.039  12.342 -0.7545  0.2536  0.1053
 2135SOL     OW17863   0.440   1.227   4.647 -0.1634  0.1492  0.3453
 2135SOL    HW117864   0.507   1.294   4.633 -1.1038  0.6180 -1.9229
 2135SOL    HW217865   0.370   1.285   4.676  0.2950  0.2380  1.2540
 2136SOL     OW17866   0.321   3.957   9.053 -0.5968  0.1129  0.1454
 2136SOL    HW117867   0.355   3.868   9.066  0.6053  0.4716 -0.5213
 2136SOL    HW217868   0.345   3.969   8.961 -2.0589  1.6055 -0.0363
 2137SOL     OW17869   4.515   3.368   1.098 -0.3523  0.3853 -0.0935
 2137SOL    HW117870   4.581   3.366   1.168 -1.9855 -0.7675  1.4236
 2137SOL    HW217871   4.456   3.301   1.132 -0.2460  0.1421 -0.3874
 2138SOL     OW17872   1.155   1.774   0.700 -0.0210 -0.4623  0.7491
 2138SOL    HW117873   1.091   1.845   0.706  0.8676  0.3174  0.9584
 2138SOL    HW217874   1.190   1.804   0.616 -3.1420  0.9048 -0.0463
 2139SOL     OW17875   4.451   1.420   2.912 -0.4096  0.1616  0.7720
 2139SOL    HW117876   4.467   1.471   2.832 -0.0012  0.5766  1.1168
 2139SOL    HW217877   4.539   1.388   2.935 -0.2276  0.1874  0.1357
 2140SOL     OW17878   2.386   1.168   7.378  0.2869 -0.4328  0.3323
 2140SOL    HW117879   2.458   1.106   7.387 -0.4850 -1.5236 -0.9859
 2140SOL    HW217880   2.371   1.205   7.465  0.9275  0.9505 -0.1483
 2141SOL     OW17881   1.620   2.453   7.890  0.1774 -0.3844  0.1943
 2141SOL    HW117882   1.709   2.481   7.912  0.4323 -1.2718  0.2870
 2141SOL    HW217883   1.624   2.358   7.902  2.8817 -0.1441  1.0868
 2142SOL     OW17884   4.389   2.385  12.036  0.0312  0.2323  0.4431
 2142SOL    HW117885   4.426   2.466  12.073  1.2594  0.6479 -1.7461
 2142SOL    HW217886   4.419   2.382  11.946  0.1973  0.7013  0.4815
 2143SOL     OW17887   3.870   1.201   5.718 -0.5905 -0.2006 -0.1504
 2143SOL    HW117888   3.783   1.199   5.677 -0.0812  2.4265 -1.3876
 2143SOL    HW217889   3.905   1.273   5.666  1.5757  0.0507  1.6687
 2144SOL     OW17890   2.428   1.385   4.248 -0.1029 -0.2781 -0.2649
 2144SOL    HW117891   2.354   1.410   4.302  0.0557 -3.2803  1.3353
 2144SOL    HW217892   2.494   1.448   4.277  2.5894 -2.7480 -0.9831
 2145SOL     OW17893   4.322   4.386   5.334  1.0961 -0.1049  0.4332
 2145SOL    HW117894   4.280   4.321   5.391  0.7635  0.4294  0.7992
 2145SOL    HW217895   4.273   4.388   5.252  4.2017  2.4976 -1.3314
 2146SOL     OW17896   4.706   1.978   3.273 -0.1758  0.5313  0.0135
 2146SOL    HW117897   0.043   1.931   3.215  1.5894  2.9928 -0.1464
 2146SOL    HW217898   4.711   1.926   3.354  1.9780  0.0928 -0.3982
 2147SOL     OW17899   3.873   2.965   8.408  0.2234  0.1381  0.6409
 2147SOL    HW117900   3.931   2.895   8.438  0.5144  0.1757  0.1614
 2147SOL    HW217901   3.801   2.969   8.471 -0.4562  0.0948 -0.1281
 2148SOL     OW17902   0.707   3.801   7.204 -0.1348 -0.0506  0.1738
 2148SOL    HW117903   0.622   3.774   7.171  0.7053 -0.1476 -1.8694
 2148SOL    HW217904   0.703   3.784   7.298  0.5646  1.8823  0.5568
 2149SOL     OW17905   0.284   2.788  15.625 -0.7341 -0.0773  0.0487
 2149SOL    HW117906   0.378   2.802  15.638 -0.8899  1.9273 -0.9379
 2149SOL    HW217907   0.284   2.693  15.635  1.0160  0.0080  0.7992
 2150SOL     OW17908   1.101   2.867   7.177 -0.1726 -0.0968 -0.1835
 2150SOL    HW117909   1.162   2.855   7.104 -3.1395 -1.3828 -2.4319
 2150SOL    HW217910   1.159   2.909   7.241 -0.7186 -2.3927  1.8421
 2151SOL     OW17911   2.675   2.951   6.120 -0.2143 -0.5099  0.4433
 2151SOL    HW117912   2.605   2.920   6.178  0.3308 -1.6035  0.5165
 2151SOL    HW217913   2.753   2.955   6.175  0.5055 -2.5997 -0.4147
 2152SOL     OW17914   3.813   1.828  16.679  0.0817 -0.2050  0.6191
 2152SOL    HW117915   3.746   1.839  16.611  1.6485  2.2636 -0.5260
 2152SOL    HW217916   3.848   1.744  16.651  2.5646  0.9214  0.3204
 2153SOL     OW17917   2.123   0.177   3.162  0.0900  0.0564  0.2807
 2153SOL    HW117918   2.058   0.147   3.098 -0.6457  1.7068  0.2583
 2153SOL    HW217919   2.086   0.257   3.197 -0.4105  0.0659 -0.2653
 2154SOL     OW17920   1.628   3.517   5.229 -1.1157 -0.0404 -0.2357
 2154SOL    HW117921   1.720   3.543   5.231 -1.3684  0.9371 -1.4629
 2154SOL    HW217922   1.595   3.605   5.247  0.6240  0.6276 -0.3198
 2155SOL     OW17923   2.644   1.141   2.804 -0.0515  0.4029 -0.1739
 2155SOL    HW117924   2.577   1.087   2.846  1.1453 -2.7849 -2.3277
 2155SOL    HW217925   2.653   1.086   2.726  2.7219  0.5830  0.0245
 2156SOL     OW17926   3.362   1.871   5.137  0.6429 -0.3531 -0.3450
 2156SOL    HW117927   3.288   1.834   5.184 -1.0896  1.2502 -1.8078
 2156SOL    HW217928   3.318   1.945   5.094 -1.7409 -1.3374  0.4195
 2157SOL     OW17929   3.131   1.972   5.479  0.1774  0.5534  0.5486
 2157SOL    HW117930   3.065   1.949   5.544  0.1731  2.7020  1.3003
 2157SOL    HW217931   3.090   1.960   5.394  1.3551  3.7058 -0.4970
 2158SOL     OW17932   3.392   2.886   2.496  0.6100  0.1610 -0.2258
 2158SOL    HW117933   3.462   2.823   2.476 -0.3555 -1.6667  2.2306
 2158SOL    HW217934   3.332   2.875   2.422 -0.6791  2.8596  0.4364
 2159SOL     OW17935   1.229   3.298   6.427 -0.1192  0.4744  0.3898
 2159SOL    HW117936   1.239   3.384   6.386 -2.2200  0.1517 -0.7874
 2159SOL    HW217937   1.315   3.287   6.468 -0.6484 -4.3083  0.2073
 2160SOL     OW17938   3.634   3.955   1.896 -0.5340  0.1175 -0.5350
 2160SOL    HW117939   3.633   3.859   1.897 -2.2349  0.1341 -0.8712
 2160SOL    HW217940   3.693   3.979   1.824 -0.7516 -0.1768 -0.8069
 2161SOL     OW17941   3.964   2.188   4.067 -0.6049 -0.1867  0.4135
 2161SOL    HW117942   3.919   2.116   4.110  1.0151 -2.7962 -2.3132
 2161SOL    HW217943   3.901   2.212   3.998 -0.5234  2.6367  1.2938
 2162SOL     OW17944   2.223   3.749  11.554 -0.1217 -0.4031  0.1353
 2162SOL    HW117945   2.188   3.719  11.470  0.3875 -0.7150  0.0377
 2162SOL    HW217946   2.231   3.665  11.600 -2.1970 -0.7791 -0.1760
 2163SOL     OW17947   0.154   4.572  11.600  0.1174  0.4924  0.1934
 2163SOL    HW117948   0.179   4.597  11.689  1.1162  1.5980 -0.4068
 2163SOL    HW217949   0.204   4.634  11.548  0.0542  1.0712  0.8157
 2164SOL     OW17950   2.435   0.922  17.354  0.4219  0.7342  0.6549
 2164SOL    HW117951   2.500   0.914  17.424 -1.0929 -0.4761  1.9426
 2164SOL    HW217952   2.382   0.991  17.394 -1.0298  1.3342 -2.3065
 2165SOL     OW17953   2.376   0.901  16.252 -0.3702  1.2753 -0.3982
 2165SOL    HW117954   2.325   0.908  16.171  1.6070  1.2915 -1.6427
 2165SOL    HW217955   2.451   0.845  16.232 -2.0210 -1.9636  2.5538
 2166SOL     OW17956   2.593   3.032  12.551  0.0073 -0.2875  0.3506
 2166SOL    HW117957   2.645   3.080  12.616 -0.1353 -1.0747  1.0607
 2166SOL    HW217958   2.507   3.072  12.558  0.8536  1.6537 -0.4144
 2167SOL     OW17959   0.404   1.214  17.015 -1.2721  0.2072  0.8443
 2167SOL    HW117960   0.341   1.263  16.962  0.5757 -0.2306 -1.7625
 2167SOL    HW217961   0.379   1.247  17.101  1.6787 -2.1522  2.6416
 2168SOL     OW17962   3.138   3.381   6.240  0.6349  0.4227 -0.3341
 2168SOL    HW117963   3.167   3.383   6.331  0.2108  0.8724 -0.2094
 2168SOL    HW217964   3.097   3.467   6.233 -0.3549 -0.1002 -0.9135
 2169SOL     OW17965   0.131   4.111   9.479 -0.0237  0.3511  0.1532
 2169SOL    HW117966   0.199   4.074   9.423  0.7873  1.2604  0.5354
 2169SOL    HW217967   0.095   4.038   9.530  0.2100  0.1364  0.0094
 2170SOL     OW17968   3.868   3.853   3.793 -0.6046 -0.2534 -0.1586
 2170SOL    HW117969   3.847   3.946   3.784  2.7538  0.3111 -2.0746
 2170SOL    HW217970   3.792   3.821   3.745  0.0665  0.5760 -1.7714
 2171SOL     OW17971   0.755   1.392  14.966 -0.6467  0.1819 -0.4791
 2171SOL    HW117972   0.764   1.298  14.975 -0.7809  0.0610 -1.5045
 2171SOL    HW217973   0.800   1.412  14.883  1.6485  1.8188  1.1751
 2172SOL     OW17974   2.481   4.092   5.838 -0.3009  0.0013  0.3695
 2172SOL    HW117975   2.480   4.183   5.806 -0.4528  0.2354  1.0354
 2172SOL    HW217976   2.516   4.049   5.760 -0.5127  0.9408 -0.2545
 2173SOL     OW17977   2.897   0.846   8.526  0.5388 -0.0252  0.0596
 2173SOL    HW117978   2.906   0.776   8.591  2.5894  1.6865  1.5940
 2173SOL    HW217979   2.920   0.918   8.584  0.6908  0.8021 -1.0352
 2174SOL     OW17980   3.439   1.679  14.590  0.2543 -0.5087  0.0097
 2174SOL    HW117981   3.359   1.676  14.642  0.3147  1.7880  0.2470
 2174SOL    HW217982   3.474   1.590  14.590 -1.7245 -1.3072  2.9140
 2175SOL     OW17983   2.038   2.691   3.009 -0.3635  0.1453  0.8999
 2175SOL    HW117984   2.063   2.690   3.102  1.8693 -0.6246  0.2908
 2175SOL    HW217985   1.982   2.769   3.009  0.0908  0.4625 -0.7213
 2176SOL     OW17986   0.609   2.476   6.073 -0.3568 -0.5723 -0.5394
 2176SOL    HW117987   0.594   2.381   6.070  0.4013 -0.6872 -0.6737
 2176SOL    HW217988   0.650   2.496   5.989 -1.8218  0.5378 -1.0095
 2177SOL     OW17989   2.076   2.630   9.088  0.2370 -0.4121  0.1182
 2177SOL    HW117990   2.004   2.692   9.089 -0.8161 -1.6595  1.1998
 2177SOL    HW217991   2.067   2.580   9.169 -1.2499 -0.7344 -0.2521
 2178SOL     OW17992   0.120   0.978  10.995 -0.1761  0.2284 -0.2300
 2178SOL    HW117993   0.209   0.996  10.968  0.3475 -2.6017 -0.3389
 2178SOL    HW217994   0.063   1.023  10.932 -2.4370  2.2568  3.2482
 2179SOL     OW17995   1.209   0.687  13.527  0.1372  0.0225  0.2323
 2179SOL    HW117996   1.124   0.723  13.503 -0.2773  0.4212  2.2536
 2179SOL    HW217997   1.187   0.616  13.588 -0.1031  0.8029  1.0670
 2180SOL     OW17998   4.631   0.816  13.494  0.8071 -0.1717 -0.5537
 2180SOL    HW117999   4.687   0.830  13.571  0.8053 -2.8408 -0.0634
 2180SOL    HW218000   4.624   0.721  13.507 -0.1357 -0.1182 -0.6929
 2181SOL     OW18001   3.277   0.086  10.410  0.5896 -0.1202 -0.2703
 2181SOL    HW118002   3.224   0.110  10.334  1.5118  1.3937 -0.4515
 2181SOL    HW218003   3.353   0.140  10.387 -1.5044  2.5463 -0.9892
 2182SOL     OW18004   1.804   3.007   9.462  0.0837 -0.9834  0.7920
 2182SOL    HW118005   1.877   3.059   9.496 -1.5203  2.5946 -1.1834
 2182SOL    HW218006   1.847   2.942   9.407  0.7533 -0.0755  0.2390
 2183SOL     OW18007   3.227   3.172   8.246 -0.7713  0.3076 -0.1424
 2183SOL    HW118008   3.154   3.163   8.308  0.6762 -0.3280  1.4973
 2183SOL    HW218009   3.223   3.091   8.196  2.5020  0.5023 -0.6819
 2184SOL     OW18010   2.530   0.926   6.759  0.1212 -0.3496  0.5559
 2184SOL    HW118011   2.560   0.871   6.831  1.6588 -1.3456 -0.8412
 2184SOL    HW218012   2.600   0.904   6.697 -0.0072 -1.3800  0.7632
 2185SOL     OW18013   3.333   0.179   8.194 -0.4211 -0.0983  0.2952
 2185SOL    HW118014   3.302   0.209   8.108 -2.9811  1.6419  1.8250
 2185SOL    HW218015   3.268   0.204   8.260 -0.0285  0.0860  0.6100
 2186SOL     OW18016   2.258   1.637   4.785 -0.3249 -0.1772  0.5697
 2186SOL    HW118017   2.272   1.667   4.695 -0.5918 -2.2210 -0.1735
 2186SOL    HW218018   2.200   1.702   4.824  0.1336  0.4255  0.2465
 2187SOL     OW18019   4.379   4.220  12.248  0.4089 -0.2380  0.7438
 2187SOL    HW118020   4.357   4.298  12.197 -0.4530 -1.5008 -0.8467
 2187SOL    HW218021   4.306   4.159  12.240  1.7755 -1.9268  1.1617
 2188SOL     OW18022   0.070   3.632   8.455  0.4532 -0.2587 -0.0192
 2188SOL    HW118023   0.109   3.586   8.530 -1.3964 -0.3841  0.8725
 2188SOL    HW218024   0.029   3.711   8.490  0.4967 -0.8770  1.4146
 2189SOL     OW18025   4.461   3.322   4.299  0.6063 -0.1267  0.1781
 2189SOL    HW118026   4.376   3.279   4.293 -0.0721  1.0953  1.0155
 2189SOL    HW218027   4.478   3.321   4.393 -0.0704  0.8067  0.3174
 2190SOL     OW18028   3.546   4.459  15.635  0.0883 -0.1979 -0.1150
 2190SOL    HW118029   3.457   4.482  15.664 -0.0781 -0.5425 -0.3535
 2190SOL    HW218030   3.538   4.364  15.626 -0.1299  0.0167 -2.0152
 2191SOL     OW18031   3.783   1.155   7.726  0.3823 -0.2574 -0.1381
 2191SOL    HW118032   3.725   1.083   7.703 -1.8478  1.1424  1.0455
 2191SOL    HW218033   3.863   1.115   7.761  0.4356 -1.0112 -1.1144
 2192SOL     OW18034   1.353   1.277   2.277  0.4546 -0.1155  0.4623
 2192SOL    HW118035   1.376   1.209   2.340 -1.5684  1.0767  2.5012
 2192SOL    HW218036   1.388   1.349   2.330  0.9162  1.4599 -1.9788
 2193SOL     OW18037   1.890   1.935  10.892 -0.5550 -0.2541  0.2630
 2193SOL    HW118038   1.828   1.920  10.821 -1.3036  2.2432  0.4003
 2193SOL    HW218039   1.849   2.005  10.943 -0.6968 -0.0354 -0.1581
 2194SOL     OW18040   2.804   3.182  12.730 -0.4609  0.7065 -0.7285
 2194SOL    HW118041   2.848   3.120  12.788  0.4945  1.3764 -0.7406
 2194SOL    HW218042   2.881   3.235  12.708  1.0552 -0.3066  2.2617
 2195SOL     OW18043   0.796   0.579  14.185 -0.0503 -0.2984 -0.1013
 2195SOL    HW118044   0.766   0.570  14.276 -1.3132 -0.6886 -0.5597
 2195SOL    HW218045   0.877   0.529  14.186  0.1307 -0.0063 -0.0862
 2196SOL     OW18046   2.196   0.058   5.182  0.2348  0.2584  0.3906
 2196SOL    HW118047   2.270   0.029   5.235 -1.7173 -0.2034  2.8449
 2196SOL    HW218048   2.190   0.148   5.215 -1.3661  1.1200 -2.2295
 2197SOL     OW18049   1.714   4.149   8.106 -0.0055  0.5786  0.3224
 2197SOL    HW118050   1.708   4.088   8.180 -1.1999  0.8013  0.4024
 2197SOL    HW218051   1.734   4.088   8.035  1.1452  2.4773 -0.9919
 2198SOL     OW18052   1.160   3.358  13.840  0.7281 -0.1700  0.1199
 2198SOL    HW118053   1.170   3.391  13.751  0.3757  1.5221  0.7117
 2198SOL    HW218054   1.105   3.427  13.876 -3.1629 -2.9060 -0.5674
 2199SOL     OW18055   1.074   2.319  12.507 -0.1920  0.0359 -0.0678
 2199SOL    HW118056   1.135   2.246  12.497 -0.0038  0.0743  0.7606
 2199SOL    HW218057   1.058   2.335  12.414  0.7089  3.1801  0.3056
 2200SOL     OW18058   4.401   4.692  13.460 -0.7544 -0.3290 -0.2195
 2200SOL    HW118059   4.460   4.719  13.390 -0.3123 -2.5068 -0.6970
 2200SOL    HW218060   4.364   4.615  13.417 -3.0490  0.1173  0.9734
 2201SOL     OW18061   2.806   1.132   3.856  0.2453 -0.0922 -0.0255
 2201SOL    HW118062   2.901   1.128   3.861  0.1363 -0.9080  1.4868
 2201SOL    HW218063   2.779   1.089   3.937  0.1676  0.5931  0.3170
 2202SOL     OW18064   0.801   0.179   9.943 -0.3242 -0.7051 -0.4275
 2202SOL    HW118065   0.849   0.227  10.011  2.2099 -4.6146  0.5436
 2202SOL    HW218066   0.717   0.196   9.987 -0.0068 -0.6641  0.1593
 2203SOL     OW18067   1.011   2.000   4.453 -0.1563 -0.2913  0.1206
 2203SOL    HW118068   0.936   2.059   4.463  0.0788 -0.1123  0.7765
 2203SOL    HW218069   0.980   1.909   4.458 -0.2861 -0.2566 -0.0370
 2204SOL     OW18070   2.920   2.470  11.264  0.3373  0.3733 -0.0844
 2204SOL    HW118071   2.858   2.510  11.325 -1.8817 -0.2379 -1.9409
 2204SOL    HW218072   2.875   2.501  11.185 -0.1124  0.5681  0.2445
 2205SOL     OW18073   4.676   4.514   2.209  0.5998 -0.3171  0.0899
 2205SOL    HW118074   4.691   4.567   2.288 -0.2915 -2.2197  1.5577
 2205SOL    HW218075   4.675   4.427   2.250  2.2366 -1.0219 -1.3983
 2206SOL     OW18076   4.353   2.914   4.928  0.7747 -0.2541  0.3288
 2206SOL    HW118077   4.324   2.826   4.955 -0.4550  0.3879  1.1205
 2206SOL    HW218078   4.320   2.913   4.838  2.4547 -1.9819 -0.2704
 2207SOL     OW18079   2.347   2.943   6.233 -0.6344  0.2179  0.3489
 2207SOL    HW118080   2.429   2.912   6.272 -0.4342  0.5658  0.2096
 2207SOL    HW218081   2.333   2.876   6.166  1.3877  1.4985 -1.3616
 2208SOL     OW18082   0.582   2.729   2.983  0.6656 -0.0151 -0.3861
 2208SOL    HW118083   0.520   2.802   2.984 -1.0426 -1.4426 -2.0376
 2208SOL    HW218084   0.647   2.753   2.917 -0.0447 -0.6497 -1.3102
 2209SOL     OW18085   1.842   3.234   5.154  0.0852  0.5358 -0.3007
 2209SOL    HW118086   1.852   3.319   5.199 -0.6542  1.6336 -2.2360
 2209SOL    HW218087   1.866   3.172   5.223  1.5281  1.2417 -0.1542
 2210SOL     OW18088   4.098   3.566  12.511 -0.5363  0.1954  0.2814
 2210SOL    HW118089   4.037   3.493  12.493  0.5703 -0.4913 -0.6577
 2210SOL    HW218090   4.080   3.575  12.605  2.1274  0.8347  0.7183
 2211SOL     OW18091   4.615   3.147   4.030  0.9740  0.3275 -0.0473
 2211SOL    HW118092   4.588   3.083   4.096  0.3571  1.0049  0.3616
 2211SOL    HW218093   4.708   3.128   4.023  0.6662 -1.3585  0.5417
 2212SOL     OW18094   0.453   0.890   6.312 -0.5853 -0.0339  0.1752
 2212SOL    HW118095   0.393   0.922   6.245  0.2835  2.0290  0.3734
 2212SOL    HW218096   0.540   0.890   6.273 -0.0473  1.6112  1.3755
 2213SOL     OW18097   0.148   2.556   2.396  0.3499  0.4850 -0.4538
 2213SOL    HW118098   0.156   2.469   2.356  2.6876  0.3073  0.4150
 2213SOL    HW218099   0.240   2.576   2.411 -0.5656  4.2558 -0.0066
 2214SOL     OW18100   0.783   2.930   6.463  0.5366 -0.4011  0.4507
 2214SOL    HW118101   0.760   3.020   6.488 -2.0100 -1.8538  3.2020
 2214SOL    HW218102   0.823   2.948   6.378  0.8303 -0.9318  0.4763
 2215SOL     OW18103   0.817   1.650   8.543  0.6571  0.5475  0.2004
 2215SOL    HW118104   0.828   1.696   8.626  0.9081 -0.3506  0.6661
 2215SOL    HW218105   0.906   1.654   8.506  0.0440  2.2793 -1.1021
 2216SOL     OW18106   1.250   1.284  17.603  0.3117  0.4165  0.0073
 2216SOL    HW118107   1.302   1.363  17.619  0.5940  0.5237 -1.4148
 2216SOL    HW218108   1.288   1.256  17.520  1.4492 -0.3892  0.8094
 2217SOL     OW18109   3.313   2.414   7.113  0.5263 -0.1012 -0.1492
 2217SOL    HW118110   3.393   2.381   7.154 -0.5935 -0.2024  1.9530
 2217SOL    HW218111   3.338   2.405   7.021 -1.1834 -1.0178 -0.5145
 2218SOL     OW18112   2.676   0.548   3.887  0.7114 -0.1607 -0.0249
 2218SOL    HW118113   2.617   0.549   3.962  0.5236 -1.6122 -0.1632
 2218SOL    HW218114   2.668   0.635   3.848  0.3898  0.3791  1.2474
 2219SOL     OW18115   4.378   2.319  16.391  0.4992 -0.4878  0.3804
 2219SOL    HW118116   4.292   2.341  16.354  2.1097  2.5403 -1.6428
 2219SOL    HW218117   4.389   2.402  16.437 -0.9538 -0.5375  0.8317
 2220SOL     OW18118   4.477   4.068   5.053 -0.5166  0.4315  0.3526
 2220SOL    HW118119   4.409   4.135   5.062 -0.5139  0.2417  1.7740
 2220SOL    HW218120   4.442   3.999   5.109 -2.1598  0.8244 -0.1968
 2221SOL     OW18121   3.187   0.841  16.950  0.6328 -0.4276 -0.1242
 2221SOL    HW118122   3.252   0.853  17.019 -0.0781  3.7172 -0.1874
 2221SOL    HW218123   3.113   0.810  17.002  0.3578 -1.1984 -0.9739
 2222SOL     OW18124   3.628   0.397   6.037  0.3587  0.2488 -0.3838
 2222SOL    HW118125   3.543   0.363   6.063  0.4198  0.1832 -0.2722
 2222SOL    HW218126   3.689   0.324   6.048  1.6430  1.4898  0.8507
 2223SOL     OW18127   4.564   1.188  17.246 -0.5494  0.5394 -0.1870
 2223SOL    HW118128   4.506   1.181  17.322  1.3075  0.5100  1.2275
 2223SOL    HW218129   4.558   1.097  17.216  2.4793  0.4735 -0.5925
 2224SOL     OW18130   4.139   2.339  16.237 -0.1733 -0.6043  0.3953
 2224SOL    HW118131   4.093   2.255  16.224  0.5784 -0.6573 -1.9203
 2224SOL    HW218132   4.080   2.405  16.200 -0.1448 -0.8925 -0.1638
 2225SOL     OW18133   2.448   2.773   4.847 -0.0272  0.1929 -0.5922
 2225SOL    HW118134   2.450   2.693   4.900 -0.5733  1.5476  1.4570
 2225SOL    HW218135   2.357   2.802   4.855  0.2052  1.2588 -1.9420
 2226SOL     OW18136   0.689   0.302   1.219 -0.0882 -0.5454 -0.1155
 2226SOL    HW118137   0.693   0.211   1.248 -1.3501 -0.6108 -0.1560
 2226SOL    HW218138   0.761   0.343   1.268 -0.1980 -0.7156  0.1878
 2227SOL     OW18139   3.590   4.604  15.403 -0.0059  0.2552  0.2234
 2227SOL    HW118140   3.589   4.568  15.492  0.0855 -1.6456 -0.5322
 2227SOL    HW218141   3.580   4.697  15.421  0.6853  0.1514  1.1621
 2228SOL     OW18142   1.240   4.388  12.316 -0.5113 -0.2250  0.4697
 2228SOL    HW118143   1.298   4.313  12.309  1.0152  1.0953 -1.0018
 2228SOL    HW218144   1.257   4.450  12.245 -0.0149 -1.0113 -0.0956
 2229SOL     OW18145   1.131   2.395  15.275  0.3280  0.6889  0.0074
 2229SOL    HW118146   1.049   2.434  15.245  0.7391  0.1041 -1.8946
 2229SOL    HW218147   1.186   2.407  15.198  0.5332 -0.5176 -0.0377
 2230SOL     OW18148   2.739   3.943   6.152 -0.0074  1.0079  0.4640
 2230SOL    HW118149   2.685   3.907   6.082  0.4602  1.0333  0.0956
 2230SOL    HW218150   2.782   3.868   6.193 -1.3321 -0.1629 -0.2469
 2231SOL     OW18151   2.894   3.723   2.459 -0.4007 -0.6095  0.1732
 2231SOL    HW118152   2.818   3.777   2.480  0.7409  0.8659  0.5199
 2231SOL    HW218153   2.846   3.645   2.431 -2.5800  1.3338 -1.5199
 2232SOL     OW18154   1.224   1.329   1.735  0.4176  0.4774 -0.7560
 2232SOL    HW118155   1.220   1.307   1.642  1.0348 -1.3836 -0.3293
 2232SOL    HW218156   1.207   1.423   1.741  0.7232  0.5275 -0.6972
 2233SOL     OW18157   0.476   1.309  14.003  0.8725  0.0016 -0.3005
 2233SOL    HW118158   0.486   1.361  14.083 -1.1337 -0.5311  0.3067
 2233SOL    HW218159   0.477   1.217  14.028 -2.5717  0.0851  0.1987
 2234SOL     OW18160   2.880   1.896   2.821 -0.3922  0.1170 -0.6774
 2234SOL    HW118161   2.800   1.936   2.856  0.7483  2.1418 -0.3924
 2234SOL    HW218162   2.853   1.806   2.805 -1.0474 -0.1653  2.0343
 2235SOL     OW18163   1.852   1.898  17.622 -0.1035  0.1109  0.5822
 2235SOL    HW118164   1.831   1.912   0.018 -2.8258 -0.5668  0.0645
 2235SOL    HW218165   1.827   1.808  17.601 -0.0452  0.3641 -0.5697
 2236SOL     OW18166   0.383   1.648   1.350  0.3920  0.8153 -0.2075
 2236SOL    HW118167   0.437   1.723   1.374 -0.0963  0.2376  2.7569
 2236SOL    HW218168   0.301   1.692   1.374  1.4601  2.1807  0.9651
 2237SOL     OW18169   1.291   4.376  15.475  0.0050 -0.1701  0.6923
 2237SOL    HW118170   1.356   4.363  15.545  0.7011 -0.7927 -0.0649
 2237SOL    HW218171   1.328   4.322  15.405  0.2087  0.0140  0.6550
 2238SOL     OW18172   0.686   1.059  14.611  0.0651  0.5219  0.4746
 2238SOL    HW118173   0.663   1.074  14.702 -0.0603 -2.5019  0.9172
 2238SOL    HW218174   0.706   1.146  14.575  0.2407  1.2430  2.3268
 2239SOL     OW18175   1.450   4.452   5.689  0.0655  0.0669 -0.2721
 2239SOL    HW118176   1.510   4.510   5.642  1.0608  0.9108  2.0109
 2239SOL    HW218177   1.521   4.394   5.719 -0.5643 -1.0940 -1.0448
 2240SOL     OW18178   2.194   4.425   7.106 -0.2978 -0.1849  0.6298
 2240SOL    HW118179   2.186   4.388   7.194  0.7866  1.3216  1.3533
 2240SOL    HW218180   2.236   4.509   7.126  0.2293 -0.2896 -0.0423
 2241SOL     OW18181   4.031   2.118  11.001 -0.1260  0.3700  0.0912
 2241SOL    HW118182   4.036   2.210  11.027 -1.6138  0.2477  0.8011
 2241SOL    HW218183   4.111   2.119  10.948 -0.2827  1.8364 -0.1291
 2242SOL     OW18184   2.233   1.455   2.496 -0.4504 -0.0112 -0.2064
 2242SOL    HW118185   2.190   1.489   2.573  0.0125  0.9052 -0.3540
 2242SOL    HW218186   2.283   1.528   2.460  1.9512 -1.4181  0.2771
 2243SOL     OW18187   2.008   2.426   7.691 -0.4413 -0.2378 -0.0641
 2243SOL    HW118188   2.091   2.454   7.652 -1.5198  0.6738 -1.7596
 2243SOL    HW218189   1.973   2.372   7.620 -1.0197  0.8543 -0.6140
 2244SOL     OW18190   3.770   1.853   8.949 -0.2515  0.2540  0.6973
 2244SOL    HW118191   3.725   1.769   8.946 -0.3899  0.2763  1.9830
 2244SOL    HW218192   3.700   1.899   8.994 -0.5027  0.2995  0.2531
 2245SOL     OW18193   3.743   0.804   6.992 -0.0398  0.0056  0.0768
 2245SOL    HW118194   3.697   0.747   7.054 -0.9809 -1.8430 -2.3128
 2245SOL    HW218195   3.746   0.750   6.913  0.5559 -0.1459  0.2047
 2246SOL     OW18196   2.195   2.650   5.643  0.2548  0.1138 -0.6099
 2246SOL    HW118197   2.143   2.717   5.687  1.1118  0.2436  0.1891
 2246SOL    HW218198   2.206   2.698   5.560  2.2574  2.3476  0.9368
 2247SOL     OW18199   4.560   3.702  10.660  0.1129  0.1993  0.1797
 2247SOL    HW118200   4.655   3.691  10.665  0.3269  1.6217 -0.6262
 2247SOL    HW218201   4.546   3.791  10.692 -0.1082 -0.1409  1.0246
 2248SOL     OW18202   0.658   3.115   6.673  0.3692 -0.8520 -0.1090
 2248SOL    HW118203   0.563   3.118   6.665  0.3199 -0.4052  0.6919
 2248SOL    HW218204   0.687   3.139   6.585 -0.1124 -0.5886 -0.1947
 2249SOL     OW18205   3.920   0.943  16.422 -0.0798  0.6640  0.2783
 2249SOL    HW118206   3.944   0.884  16.494 -0.1188 -1.1919 -1.2148
 2249SOL    HW218207   3.826   0.927  16.418  0.0188 -0.0314  0.6198
 2250SOL     OW18208   3.055   2.355   1.415  0.7759 -0.7821  0.3975
 2250SOL    HW118209   3.135   2.362   1.467  1.2716 -1.1541 -0.3121
 2250SOL    HW218210   3.084   2.290   1.351  0.6701  0.5391 -1.0169
 2251SOL     OW18211   3.236   0.738   4.102  0.2084 -0.0672  0.0461
 2251SOL    HW118212   3.193   0.716   4.019 -0.8301  0.1323  0.5324
 2251SOL    HW218213   3.258   0.652   4.139 -0.7518 -0.9635 -1.4582
 2252SOL     OW18214   4.090   3.395   0.902  0.2263 -0.3469 -0.2654
 2252SOL    HW118215   4.015   3.408   0.843 -0.7847 -1.9800  0.6525
 2252SOL    HW218216   4.156   3.412   0.835 -0.4938  4.5072  0.2725
 2253SOL     OW18217   0.948   4.671   5.705 -0.1121 -0.1284 -0.1689
 2253SOL    HW118218   0.857   4.643   5.705 -0.2439  0.3169 -3.1326
 2253SOL    HW218219   0.991   4.590   5.732 -1.1104 -0.6024 -0.0324
 2254SOL     OW18220   0.035   4.264   2.259 -0.1301  0.8715  0.4964
 2254SOL    HW118221   4.695   4.215   2.207  0.8278  0.2374 -0.0893
 2254SOL    HW218222   0.115   4.219   2.229 -0.7976  0.1110 -0.1533
 2255SOL     OW18223   2.851   0.883  16.243 -0.3067  0.0744 -0.0615
 2255SOL    HW118224   2.934   0.925  16.226 -1.0625  0.7618 -2.0305
 2255SOL    HW218225   2.801   0.927  16.174 -1.6937  0.4202  1.1805
 2256SOL     OW18226   1.524   2.828   4.964  0.6846 -0.4438 -0.7429
 2256SOL    HW118227   1.526   2.923   4.973 -2.3878 -0.4505  0.1156
 2256SOL    HW218228   1.606   2.814   4.917  0.2067 -2.2936 -1.0282
 2257SOL     OW18229   1.449   4.278   3.336  0.1156  0.0047 -0.4858
 2257SOL    HW118230   1.491   4.196   3.362 -0.5073  0.1025  0.8166
 2257SOL    HW218231   1.388   4.289   3.409 -0.5659 -1.6308 -0.8008
 2258SOL     OW18232   4.009   4.499   0.713  0.0303  0.2332 -0.2126
 2258SOL    HW118233   4.019   4.523   0.805  0.0300  0.5185 -0.2892
 2258SOL    HW218234   4.048   4.577   0.675  0.1072  0.5220  0.4659
 2259SOL     OW18235   2.281   1.914  11.452  0.0318 -0.2195  0.6482
 2259SOL    HW118236   2.196   1.873  11.465 -0.0239  0.0545  1.1601
 2259SOL    HW218237   2.310   1.927  11.542  3.1795 -0.0729 -0.3933
 2260SOL     OW18238   1.225   0.162  17.567  0.3214 -0.6132 -0.2770
 2260SOL    HW118239   1.265   0.128  17.647 -0.2130 -2.0129 -0.6074
 2260SOL    HW218240   1.300   0.185  17.512 -0.3733 -2.1509 -1.8841
 2261SOL     OW18241   4.093   2.122   5.418 -0.1685 -0.4429  0.8716
 2261SOL    HW118242   4.050   2.118   5.504  0.2481  1.0053  1.1367
 2261SOL    HW218243   4.142   2.204   5.416 -0.5401 -0.1711  2.9768
 2262SOL     OW18244   1.948   4.687   7.769 -0.0872 -0.1968  0.6771
 2262SOL    HW118245   1.868   4.666   7.721  0.6232 -1.0074 -0.1326
 2262SOL    HW218246   2.005   4.690   7.693  1.5869 -2.2078  1.8630
 2263SOL     OW18247   0.977   3.144   0.574  0.3899 -0.0608  0.6158
 2263SOL    HW118248   1.062   3.184   0.558  0.3117 -0.7812 -1.5902
 2263SOL    HW218249   0.995   3.062   0.528 -0.3325  0.6510 -0.9428
 2264SOL     OW18250   4.199   0.080  12.589  0.3633 -0.6376  0.3098
 2264SOL    HW118251   4.104   0.066  12.584 -0.3232  3.1074  2.9960
 2264SOL    HW218252   4.216   0.160  12.539 -1.2706 -0.0513  0.6855
 2265SOL     OW18253   0.586   0.868   5.603 -0.0130 -0.3283 -0.1992
 2265SOL    HW118254   0.558   0.777   5.604  0.3294 -0.4304  0.3396
 2265SOL    HW218255   0.677   0.861   5.574  0.2312  1.0805  0.2438
 2266SOL     OW18256   3.119   1.091  10.212 -0.4316 -0.3345  0.0656
 2266SOL    HW118257   3.070   1.173  10.201  0.5952  0.3086  0.3367
 2266SOL    HW218258   3.126   1.088  10.308  2.1047  1.0910 -0.0661
 2267SOL     OW18259   1.032   4.338  15.342 -0.1498  0.7855  0.1123
 2267SOL    HW118260   1.094   4.359  15.411  0.1014 -0.9257  0.4206
 2267SOL    HW218261   0.997   4.259  15.383  0.6866 -0.6228 -1.8868
 2268SOL     OW18262   2.958   0.873   3.672  0.1409 -0.4555 -0.2620
 2268SOL    HW118263   3.005   0.861   3.590  1.6428 -1.2379  0.7153
 2268SOL    HW218264   2.974   0.967   3.684  0.4993 -0.2772 -2.0944
 2269SOL     OW18265   0.790   1.043   2.567 -0.1804  0.1442 -0.0871
 2269SOL    HW118266   0.774   1.006   2.480  0.2492 -0.6235  0.1539
 2269SOL    HW218267   0.705   1.079   2.591  0.1564 -0.4616  1.9846
 2270SOL     OW18268   1.814   3.467   4.565  0.3129 -0.3027  0.3337
 2270SOL    HW118269   1.837   3.452   4.657 -0.1529 -0.5238  0.4128
 2270SOL    HW218270   1.757   3.392   4.548  0.4147 -0.4982  0.8699
 2271SOL     OW18271   3.207   0.202  14.669  0.3134 -0.1562  0.3217
 2271SOL    HW118272   3.151   0.228  14.596  3.6517  1.0055 -1.8292
 2271SOL    HW218273   3.188   0.110  14.688 -1.3238  0.1434  0.1060
 2272SOL     OW18274   3.391   1.758   7.104  0.0691  0.2123 -0.2071
 2272SOL    HW118275   3.308   1.786   7.066 -0.7446 -1.3264  0.4516
 2272SOL    HW218276   3.444   1.755   7.025  1.9353  0.4547  1.0360
 2273SOL     OW18277   4.364   3.060   5.823 -0.1197 -0.2409  0.1968
 2273SOL    HW118278   4.453   3.085   5.799 -0.5617  0.9717 -0.1205
 2273SOL    HW218279   4.362   2.972   5.785 -0.4919  0.4904 -1.4850
 2274SOL     OW18280   4.064   0.452   6.062  0.4305  0.2995  0.1464
 2274SOL    HW118281   4.008   0.479   6.135 -0.6086 -0.2741 -0.4378
 2274SOL    HW218282   4.102   0.374   6.103  3.2783  1.1493 -0.8533
 2275SOL     OW18283   2.866   2.239   6.541  0.0048  0.2640 -0.1473
 2275SOL    HW118284   2.851   2.234   6.635  0.0129  0.3830 -0.1394
 2275SOL    HW218285   2.893   2.148   6.537  1.5650  0.6894  0.8758
 2276SOL     OW18286   0.232   4.421   5.260  0.0267  0.6609 -0.8662
 2276SOL    HW118287   0.290   4.400   5.187  0.4721  1.3743 -0.7195
 2276SOL    HW218288   0.294   4.482   5.301 -2.3160  2.1410  0.5051
 2277SOL     OW18289   2.764   0.064   6.965 -0.2124 -0.2665 -0.3445
 2277SOL    HW118290   2.761   0.028   6.876  1.2960  0.5742 -0.7356
 2277SOL    HW218291   2.670   0.072   6.982 -0.4527 -2.0711 -0.7821
 2278SOL     OW18292   2.194   0.293  12.129 -0.0527  0.5113 -0.0661
 2278SOL    HW118293   2.284   0.309  12.101 -0.1326  0.8626 -0.1191
 2278SOL    HW218294   2.162   0.224  12.070  0.7842  1.1136 -1.2306
 2279SOL     OW18295   1.222   0.297  10.210 -0.3559 -0.0944 -0.5689
 2279SOL    HW118296   1.305   0.263  10.244 -1.2917 -0.2724  1.5936
 2279SOL    HW218297   1.198   0.228  10.148 -1.3638 -0.0558 -0.2232
 2280SOL     OW18298   2.224   3.600  10.847  0.0402 -0.3717 -0.8559
 2280SOL    HW118299   2.202   3.653  10.771  0.3773  0.4384 -0.3935
 2280SOL    HW218300   2.243   3.668  10.912 -0.3881 -0.5100 -0.5875
 2281SOL     OW18301   4.251   1.333   8.418 -0.0167 -0.7924 -0.1388
 2281SOL    HW118302   4.243   1.240   8.441  0.3904 -0.8570 -0.2732
 2281SOL    HW218303   4.335   1.367   8.447 -0.4585 -0.4614  0.7725
 2282SOL     OW18304   1.212   2.019   2.973 -1.4258 -0.4501  0.2829
 2282SOL    HW118305   1.127   1.978   2.960 -1.2057 -1.0912  0.9037
 2282SOL    HW218306   1.223   2.021   3.068  0.3156 -2.3001  0.1128
 2283SOL     OW18307   2.562   3.636   6.591 -0.1532 -0.2602  0.3954
 2283SOL    HW118308   2.562   3.621   6.686  0.3254 -4.3794 -0.2339
 2283SOL    HW218309   2.552   3.543   6.570  2.9505 -0.3414 -0.7775
 2284SOL     OW18310   0.059   0.984  14.777  0.5918  0.0940 -0.1675
 2284SOL    HW118311   0.081   1.071  14.744  1.1091  0.4696  1.1324
 2284SOL    HW218312   0.083   0.930  14.702 -2.2284  0.3040 -1.1822
 2285SOL     OW18313   3.060   4.572   5.424 -0.0997  0.5146  0.6084
 2285SOL    HW118314   3.072   4.491   5.375  1.2297  1.2430 -0.2554
 2285SOL    HW218315   2.978   4.609   5.391  0.7782  0.5085 -1.5901
 2286SOL     OW18316   2.768   2.088   5.507 -0.0637 -0.1674 -0.0678
 2286SOL    HW118317   2.803   2.015   5.557 -0.7572  0.3401  1.1543
 2286SOL    HW218318   2.722   2.137   5.575  1.5619  0.4708  0.5637
 2287SOL     OW18319   4.085   2.671   4.605  0.1474  0.5180  0.0444
 2287SOL    HW118320   4.019   2.672   4.675 -2.0089 -0.2560 -2.0055
 2287SOL    HW218321   4.168   2.669   4.653  0.4817  0.7297 -0.5257
 2288SOL     OW18322   1.635   0.977   6.042 -0.7779 -0.3485  0.0605
 2288SOL    HW118323   1.586   0.909   6.087 -2.3736  2.1744  2.1548
 2288SOL    HW218324   1.727   0.962   6.066 -1.0335 -0.8298  0.7182
 2289SOL     OW18325   4.702   2.293  10.142 -1.0899 -0.0110 -0.0982
 2289SOL    HW118326   4.621   2.262  10.101 -0.5462 -0.3213 -0.9348
 2289SOL    HW218327   4.690   2.279  10.236 -1.0828  1.1498  0.0740
 2290SOL     OW18328   4.684   2.300  15.113 -0.2672  0.3497 -0.1673
 2290SOL    HW118329   4.617   2.237  15.086  1.8292 -1.7535 -0.5203
 2290SOL    HW218330   4.664   2.375  15.057 -0.2883  2.1483  2.2484
 2291SOL     OW18331   0.421   3.998   4.023  0.0927  0.2440 -0.2661
 2291SOL    HW118332   0.419   4.030   4.114 -0.1825  0.9895 -0.5354
 2291SOL    HW218333   0.514   3.983   4.010  0.1568  1.0276 -0.7158
 2292SOL     OW18334   2.969   2.659  15.535  0.0446 -0.6598 -0.2492
 2292SOL    HW118335   2.946   2.706  15.455 -2.4954  1.4681  1.7220
 2292SOL    HW218336   3.018   2.725  15.584  2.0701 -2.0955 -0.3294
 2293SOL     OW18337   0.985   1.655  17.118  0.2173 -0.6619  0.4848
 2293SOL    HW118338   0.956   1.600  17.191 -0.2845  1.2854  1.7484
 2293SOL    HW218339   0.932   1.731  17.142 -0.3669 -0.1424 -2.4038
 2294SOL     OW18340   1.565   4.022   8.656  0.0742 -0.2581  0.2841
 2294SOL    HW118341   1.498   4.068   8.606  0.6619  0.4465  0.1278
 2294SOL    HW218342   1.542   3.931   8.638  0.0850 -0.0241 -0.8744
 2295SOL     OW18343   1.307   3.923   3.803 -0.0152  0.0437 -0.0036
 2295SOL    HW118344   1.266   3.893   3.885 -1.3640  0.8797 -0.3597
 2295SOL    HW218345   1.397   3.946   3.824  0.0720 -0.1441 -0.1770
 2296SOL     OW18346   0.674   0.899  14.083 -0.2115  0.2954  0.5016
 2296SOL    HW118347   0.671   0.971  14.020  0.2367 -0.6683 -0.6021
 2296SOL    HW218348   0.588   0.857  14.076  0.6798 -0.7049 -4.0693
 2297SOL     OW18349   1.364   4.412   6.076 -0.0648  0.7222  0.4970
 2297SOL    HW118350   1.459   4.400   6.088 -0.5231 -2.1048  1.3523
 2297SOL    HW218351   1.351   4.362   5.995 -2.4889  1.0840  0.6674
 2298SOL     OW18352   0.810   3.688   8.463 -0.2401 -0.1662 -0.7164
 2298SOL    HW118353   0.746   3.744   8.419  0.1691  0.3574 -0.6396
 2298SOL    HW218354   0.886   3.745   8.465  2.2695 -3.5384  1.7522
 2299SOL     OW18355   2.436   2.110   7.803 -0.1582 -0.5497  0.2530
 2299SOL    HW118356   2.491   2.189   7.797 -0.4756 -0.3072  0.5405
 2299SOL    HW218357   2.492   2.032   7.801 -0.6456 -0.9814  2.6657
 2300SOL     OW18358   1.590   0.021   6.089 -0.0273  0.3276 -0.2783
 2300SOL    HW118359   1.617   0.002   5.999  0.9009 -1.1200  0.2986
 2300SOL    HW218360   1.509   0.068   6.070 -0.2322  0.7383  1.6479
 2301SOL     OW18361   2.603   1.411  14.267  0.2551  0.5524 -0.0261
 2301SOL    HW118362   2.575   1.346  14.332  2.2741  1.0347  1.3241
 2301SOL    HW218363   2.551   1.388  14.190 -0.1231  0.5291  0.2363
 2302SOL     OW18364   3.342   2.622   1.578  0.0706 -0.3250 -0.1781
 2302SOL    HW118365   3.279   2.687   1.547  0.6368  0.3061  0.0153
 2302SOL    HW218366   3.346   2.652   1.668 -0.4159 -1.5438  0.2590
 2303SOL     OW18367   2.989   3.115  12.173  0.4445  0.1824 -0.0711
 2303SOL    HW118368   3.021   3.202  12.197 -1.6484  0.9860 -0.2166
 2303SOL    HW218369   2.917   3.096  12.233 -3.2990  2.3468 -3.8797
 2304SOL     OW18370   4.311   2.799   2.854 -0.4094  0.0173 -0.6399
 2304SOL    HW118371   4.364   2.807   2.775 -0.2940 -1.3923 -0.7001
 2304SOL    HW218372   4.261   2.719   2.836 -0.4827  0.3187 -1.7557
 2305SOL     OW18373   0.636   0.648  16.734 -0.0976 -0.4506 -0.2238
 2305SOL    HW118374   0.652   0.740  16.713  2.2875 -0.8018  0.1604
 2305SOL    HW218375   0.549   0.661  16.772 -0.5296  1.4247 -1.8102
 2306SOL     OW18376   3.687   0.327   2.246  0.1730  0.6138 -1.0824
 2306SOL    HW118377   3.661   0.241   2.278 -1.3282  0.5634 -2.4335
 2306SOL    HW218378   3.729   0.368   2.322 -0.7353 -1.7885  0.6916
 2307SOL     OW18379   3.200   1.115   5.164  0.2807  0.2258 -0.3393
 2307SOL    HW118380   3.283   1.089   5.124  1.1318  0.6831  1.1054
 2307SOL    HW218381   3.154   1.039   5.128 -0.5832  0.5048  0.1737
 2308SOL     OW18382   3.697   2.692   7.858 -0.1521  0.0866 -0.3145
 2308SOL    HW118383   3.715   2.784   7.872 -0.4529 -0.2566  2.2992
 2308SOL    HW218384   3.753   2.657   7.928 -0.7617 -1.1365 -0.4314
 2309SOL     OW18385   3.126   3.129  11.396  0.3056  0.0469  0.1113
 2309SOL    HW118386   3.116   3.138  11.301 -1.4641 -0.1458  0.2943
 2309SOL    HW218387   3.068   3.057  11.418  0.4858 -0.5046 -1.2344
 2310SOL     OW18388   2.405   2.685   3.973 -0.1790  0.1322 -0.2871
 2310SOL    HW118389   2.338   2.688   4.042  0.9406  1.6004  0.7269
 2310SOL    HW218390   2.481   2.664   4.027  0.7447  1.9081 -0.8800
 2311SOL     OW18391   1.976   0.232   1.205  0.0863  0.0443 -0.5587
 2311SOL    HW118392   1.949   0.198   1.291  2.2674 -0.9259 -0.2379
 2311SOL    HW218393   1.918   0.308   1.195 -2.9787 -1.8395  2.8593
 2312SOL     OW18394   2.694   2.936   2.935 -0.2372 -0.2724  0.2255
 2312SOL    HW118395   2.786   2.913   2.930 -0.3571 -0.3978 -1.4643
 2312SOL    HW218396   2.681   2.934   3.030  0.0375 -1.6751  0.2293
 2313SOL     OW18397   3.785   2.622   7.476 -0.2732  0.4279 -0.4644
 2313SOL    HW118398   3.753   2.587   7.559  1.5680  1.2663  0.5935
 2313SOL    HW218399   3.843   2.556   7.440 -2.8510 -1.5099 -0.9907
 2314SOL     OW18400   3.168   2.096   1.533  0.2879  0.4202 -0.4487
 2314SOL    HW118401   3.148   2.052   1.450 -1.8122  0.1503  0.1976
 2314SOL    HW218402   3.238   2.155   1.507 -0.6639  1.0462 -1.5852
 2315SOL     OW18403   2.720   4.318   5.923  0.3993  0.0183  0.3780
 2315SOL    HW118404   2.743   4.388   5.861 -1.0552 -0.8830 -1.1914
 2315SOL    HW218405   2.630   4.302   5.895  1.6175  0.3173 -3.6634
 2316SOL     OW18406   3.606   3.457   7.457 -0.3094 -0.2264  0.0308
 2316SOL    HW118407   3.623   3.401   7.381 -0.8238 -2.6025  1.6875
 2316SOL    HW218408   3.564   3.532   7.415 -0.9409 -0.2087  0.6984
 2317SOL     OW18409   1.206   1.280   0.546 -0.7387  0.5824  0.2407
 2317SOL    HW118410   1.133   1.310   0.492  0.2355 -0.4458 -1.6233
 2317SOL    HW218411   1.223   1.361   0.595  1.3900  0.7421 -0.7531
 2318SOL     OW18412   3.786   3.240   6.563 -0.7070 -0.3723  0.0730
 2318SOL    HW118413   3.732   3.250   6.642 -1.9873 -1.0981 -0.7143
 2318SOL    HW218414   3.861   3.198   6.604 -0.9896  0.7536  1.7556
 2319SOL     OW18415   3.969   3.101   2.317  0.4316 -0.2333 -0.2740
 2319SOL    HW118416   3.957   3.046   2.239 -1.4702 -0.7202  0.3581
 2319SOL    HW218417   3.905   3.064   2.378  2.0226  0.4639  1.8459
 2320SOL     OW18418   1.131   4.105   6.577 -0.3827  0.1482 -0.2162
 2320SOL    HW118419   1.049   4.154   6.569 -1.7842 -1.8928  2.0309
 2320SOL    HW218420   1.127   4.060   6.492 -0.5497 -2.8914  1.4022
 2321SOL     OW18421   1.627   1.042   5.242 -0.0477  0.1344  0.5985
 2321SOL    HW118422   1.662   0.995   5.318  1.4148  1.1615  0.5723
 2321SOL    HW218423   1.595   0.972   5.185  1.4609  0.0989 -0.2165
 2322SOL     OW18424   2.597   3.183  13.667  0.4204  0.1786  0.0939
 2322SOL    HW118425   2.546   3.253  13.708  0.2709 -0.3338  0.7765
 2322SOL    HW218426   2.679   3.203  13.714 -0.3418  0.9337  1.1172
 2323SOL     OW18427   1.276   1.711   2.751  0.5576 -0.5516  0.9287
 2323SOL    HW118428   1.302   1.619   2.755 -0.7844 -0.9345  0.9124
 2323SOL    HW218429   1.180   1.704   2.749  0.6730 -0.9505 -3.1568
 2324SOL     OW18430   0.057   4.447   1.963 -0.5985 -0.8824  0.2658
 2324SOL    HW118431   4.716   4.477   2.027  1.2969 -2.7448  3.0105
 2324SOL    HW218432   0.137   4.447   2.015 -0.1530 -1.3913 -0.4204
 2325SOL     OW18433   0.129   3.678   8.170  0.4264  0.0792  0.2337
 2325SOL    HW118434   0.068   3.716   8.234 -1.5143  0.4756 -1.8517
 2325SOL    HW218435   0.082   3.690   8.087  1.0647 -0.6571 -0.2295
 2326SOL     OW18436   3.681   1.378  12.963 -0.0290  0.0812 -0.3808
 2326SOL    HW118437   3.639   1.460  12.935  0.5395  0.4548 -0.1393
 2326SOL    HW218438   3.724   1.351  12.882 -0.3661  2.2420 -1.2847
 2327SOL     OW18439   2.813   1.313   2.365  0.0508  0.0280  0.2911
 2327SOL    HW118440   2.841   1.249   2.431 -0.3154  1.7479  2.1313
 2327SOL    HW218441   2.763   1.373   2.421  0.0342  2.2955 -2.1584
 2328SOL     OW18442   0.793   1.523   0.458 -0.0378 -0.0564 -0.1629
 2328SOL    HW118443   0.761   1.434   0.443  0.2461 -0.2550  0.4297
 2328SOL    HW218444   0.868   1.524   0.399  0.8808 -0.7666  1.0076
 2329SOL     OW18445   1.513   0.514   2.795  0.0245 -0.0961  0.5661
 2329SOL    HW118446   1.596   0.561   2.801 -0.0677  0.0416  0.7743
 2329SOL    HW218447   1.530   0.449   2.727 -1.0550 -1.1857  1.3285
 2330SOL     OW18448   2.187   2.688   2.197 -0.5661 -0.4690 -1.0938
 2330SOL    HW118449   2.260   2.697   2.135 -0.1585 -1.9014 -0.8271
 2330SOL    HW218450   2.239   2.691   2.277 -1.5027 -0.5211 -0.4836
 2331SOL     OW18451   1.377   3.162   8.565 -0.1659 -0.4970  0.2002
 2331SOL    HW118452   1.378   3.118   8.480  2.1091 -0.4731  0.2119
 2331SOL    HW218453   1.423   3.100   8.621 -0.9281 -0.5315  0.7807
 2332SOL     OW18454   1.870   4.572  12.749 -0.1421 -0.0963  0.0517
 2332SOL    HW118455   1.927   4.510  12.704 -0.0872 -0.4797  0.6548
 2332SOL    HW218456   1.892   4.567  12.842  0.0483 -1.1895 -0.0568
 2333SOL     OW18457   3.176   2.631   8.396  0.5047  0.2595 -0.1530
 2333SOL    HW118458   3.192   2.537   8.393  0.0681  0.1622  0.6813
 2333SOL    HW218459   3.165   2.638   8.301  1.1309  0.9552 -0.1729
 2334SOL     OW18460   1.598   1.509   2.684 -0.3783  0.2888  0.9408
 2334SOL    HW118461   1.545   1.497   2.763  0.0381 -2.8216  0.7125
 2334SOL    HW218462   1.607   1.419   2.655 -0.5227  0.0564  1.6125
 2335SOL     OW18463   4.308   2.162  16.703 -0.1296  0.0301  0.1666
 2335SOL    HW118464   4.368   2.127  16.637 -0.5290 -0.1449 -0.0980
 2335SOL    HW218465   4.258   2.228  16.654 -1.0831 -0.3493  0.6459
 2336SOL     OW18466   1.895   3.220   1.122 -0.1224  0.4041  0.2490
 2336SOL    HW118467   1.809   3.261   1.130  0.0852  0.7719  0.5721
 2336SOL    HW218468   1.927   3.223   1.212 -0.3197  0.8666  0.3024
 2337SOL     OW18469   0.480   2.265   3.068  0.2370  0.4288  0.8593
 2337SOL    HW118470   0.408   2.227   3.017  0.5011 -0.1882  0.9551
 2337SOL    HW218471   0.539   2.192   3.051 -1.5704 -0.1487 -2.8581
 2338SOL     OW18472   3.716   2.611   3.359  0.3155 -0.1811  0.0854
 2338SOL    HW118473   3.708   2.678   3.290 -2.0757 -1.5342 -0.9274
 2338SOL    HW218474   3.683   2.654   3.438  1.4427  0.7281  0.0610
 2339SOL     OW18475   1.895   4.412   4.926  0.0402 -0.1937  0.6600
 2339SOL    HW118476   1.888   4.327   4.969  1.9565 -0.0144  1.3300
 2339SOL    HW218477   1.951   4.460   4.986  1.6934 -1.4787  0.1324
 2340SOL     OW18478   1.961   0.875   3.387  0.0190 -0.5194  0.5009
 2340SOL    HW118479   1.886   0.819   3.370 -1.0400  0.0400  3.3006
 2340SOL    HW218480   1.934   0.952   3.337  1.8032 -0.0094  0.3085
 2341SOL     OW18481   0.756   3.726   8.112  0.0836  0.4828 -0.4055
 2341SOL    HW118482   0.840   3.729   8.066 -0.0229 -2.9153 -0.8104
 2341SOL    HW218483   0.688   3.742   8.047  0.7832 -1.1715 -1.5338
 2342SOL     OW18484   3.168   1.739   4.825  0.5205  0.5311 -0.4539
 2342SOL    HW118485   3.075   1.719   4.833  0.5128 -0.1331 -2.1213
 2342SOL    HW218486   3.176   1.730   4.730  0.8286 -3.0318 -0.0882
 2343SOL     OW18487   1.166   2.408   9.619  0.0433  0.0633  0.1674
 2343SOL    HW118488   1.136   2.434   9.706 -0.1327  2.0316 -0.4689
 2343SOL    HW218489   1.157   2.314   9.605  1.7825 -0.4701  2.6414
 2344SOL     OW18490   0.569   4.081   4.292 -0.0664 -0.6554  0.4501
 2344SOL    HW118491   0.641   4.039   4.339  1.0697  2.6607  1.7003
 2344SOL    HW218492   0.533   4.137   4.361 -0.2968 -1.3066  0.8559
 2345SOL     OW18493   2.216   3.133   9.718 -0.5127  0.2254  0.2940
 2345SOL    HW118494   2.238   3.138   9.811  0.3035 -0.7398  0.1594
 2345SOL    HW218495   2.290   3.184   9.685 -0.0547  0.2418  1.3248
 2346SOL     OW18496   3.161   1.822  11.644  0.1235  0.3135  0.0303
 2346SOL    HW118497   3.068   1.836  11.622  0.3854  0.9429 -0.6622
 2346SOL    HW218498   3.208   1.841  11.563  1.7087  2.2026  1.3943
 2347SOL     OW18499   1.652   3.163   5.443  0.6172 -0.0773  0.0800
 2347SOL    HW118500   1.635   3.097   5.377 -1.2746  1.9507 -1.4594
 2347SOL    HW218501   1.568   3.208   5.435  0.3562 -0.8609 -1.4761
 2348SOL     OW18502   3.451   0.820  10.573  0.4472 -0.1168 -0.8093
 2348SOL    HW118503   3.411   0.872  10.643  1.1733 -2.5094  1.3792
 2348SOL    HW218504   3.378   0.817  10.511  0.9283  0.7925 -1.4263
 2349SOL     OW18505   4.275   4.560  10.094  0.1870 -0.0448 -0.5629
 2349SOL    HW118506   4.345   4.625  10.100 -0.8820  1.2773 -2.2644
 2349SOL    HW218507   4.309   4.496  10.156  2.4642  1.0594 -0.6834
 2350SOL     OW18508   3.902   3.524   1.245  0.2557 -0.4867 -0.1478
 2350SOL    HW118509   3.875   3.467   1.172 -1.0345 -0.8780  0.6280
 2350SOL    HW218510   3.934   3.598   1.193  0.3989  1.1506  2.2954
 2351SOL     OW18511   3.646   0.780  13.915 -0.0695  0.2952 -0.2902
 2351SOL    HW118512   3.728   0.731  13.909  2.1442  3.7954  0.7908
 2351SOL    HW218513   3.591   0.725  13.861  1.3786  0.5388 -2.0186
 2352SOL     OW18514   1.057   3.863   1.648  0.4555  0.2259 -0.2551
 2352SOL    HW118515   0.986   3.925   1.632  1.2901  1.2173 -0.1787
 2352SOL    HW218516   1.069   3.869   1.743 -1.3783  0.6457 -0.0511
 2353SOL     OW18517   1.154   3.596   4.957 -0.3818  0.2399  0.5157
 2353SOL    HW118518   1.246   3.570   4.964 -0.3734  0.2322  0.3720
 2353SOL    HW218519   1.121   3.519   5.002  1.1576  0.0781  1.3922
 2354SOL     OW18520   4.100   2.488   3.293  0.1109  0.8585 -0.4274
 2354SOL    HW118521   4.108   2.395   3.313 -2.0168  0.5202 -1.1302
 2354SOL    HW218522   4.072   2.492   3.201 -0.1841 -0.0612 -0.3719
 2355SOL     OW18523   0.402   1.701   0.552  0.0573  0.5253 -0.0088
 2355SOL    HW118524   0.434   1.688   0.641  0.3822 -0.0649 -0.2151
 2355SOL    HW218525   0.391   1.796   0.548 -2.3324  0.3239  1.6155
 2356SOL     OW18526   0.106   1.810  13.244 -0.0683 -0.4170  0.6465
 2356SOL    HW118527   0.182   1.767  13.283 -0.1276 -0.5706  0.5941
 2356SOL    HW218528   0.061   1.734  13.207 -0.9688  0.9918 -1.1386
 2357SOL     OW18529   1.764   1.523   6.912 -0.1220  0.1780  0.8179
 2357SOL    HW118530   1.755   1.458   6.842  1.4582  1.4315 -0.5373
 2357SOL    HW218531   1.766   1.471   6.993  1.8335  0.7117  1.1144
 2358SOL     OW18532   0.859   2.345  11.452  0.1982  0.3833  0.0434
 2358SOL    HW118533   0.947   2.331  11.486  0.1008  0.5790  0.3784
 2358SOL    HW218534   0.852   2.271  11.392  3.5505  0.1688 -0.0624
 2359SOL     OW18535   2.870   0.004  13.320  0.8237 -0.0563 -0.1881
 2359SOL    HW118536   2.859   4.665  13.391  1.2914  0.4985  0.3803
 2359SOL    HW218537   2.791   0.057  13.331  0.3993 -0.4039 -1.6576
 2360SOL     OW18538   0.465   0.338   3.178 -0.1371 -0.3539  0.3846
 2360SOL    HW118539   0.463   0.408   3.113  1.7279  0.2314  0.9593
 2360SOL    HW218540   0.526   0.282   3.130 -1.5414 -0.9148 -0.7636
 2361SOL     OW18541   2.673   1.042   2.131 -1.0891 -0.0962  0.2905
 2361SOL    HW118542   2.758   1.021   2.170  0.3741  0.8801 -2.3466
 2361SOL    HW218543   2.659   1.133   2.158 -2.4556 -0.4124  0.5950
 2362SOL     OW18544   1.083   0.427   7.055 -0.3711  0.1814 -0.0779
 2362SOL    HW118545   1.084   0.423   7.150  0.6529  1.1634 -0.0538
 2362SOL    HW218546   1.035   0.349   7.028 -0.0947 -0.4284  1.2075
 2363SOL     OW18547   0.682   4.308   3.400  0.2598 -0.4555 -0.6823
 2363SOL    HW118548   0.663   4.250   3.327  0.3816  0.2398 -1.2641
 2363SOL    HW218549   0.610   4.370   3.391  1.2714  0.7386 -0.5111
 2364SOL     OW18550   4.266   3.935  13.220 -0.0098 -0.0028 -0.4395
 2364SOL    HW118551   4.255   3.914  13.127  3.1165  1.7896 -1.1947
 2364SOL    HW218552   4.177   3.907  13.245  0.4207 -0.6699  0.3607
 2365SOL     OW18553   3.392   0.242   6.144  0.0325  0.5917  0.3732
 2365SOL    HW118554   3.397   0.193   6.061  3.6364 -0.4842  1.2454
 2365SOL    HW218555   3.298   0.260   6.147  0.1732  1.6530 -1.3816
 2366SOL     OW18556   4.004   3.980   1.908 -0.5332  0.3286 -0.1780
 2366SOL    HW118557   3.967   3.970   1.996 -0.0214  2.8025  0.3029
 2366SOL    HW218558   4.094   4.009   1.922 -0.6723 -0.3317  2.1867
 2367SOL     OW18559   2.142   1.879   9.864 -0.1249 -0.3840  0.2461
 2367SOL    HW118560   2.234   1.856   9.854  0.2158  0.8607  0.4311
 2367SOL    HW218561   2.120   1.843   9.950  0.2377  0.3487  0.6469
 2368SOL     OW18562   0.898   3.518  13.566  0.4768 -0.0721  0.2907
 2368SOL    HW118563   0.893   3.552  13.477  0.6344 -1.0390 -0.0889
 2368SOL    HW218564   0.921   3.591  13.624  1.7260 -1.5756  1.7099
 2369SOL     OW18565   1.241   1.114   4.425  0.6582 -0.4278 -0.1440
 2369SOL    HW118566   1.195   1.069   4.495 -0.1321  0.2568 -0.2204
 2369SOL    HW218567   1.192   1.196   4.416 -1.4188 -1.7887 -1.3058
 2370SOL     OW18568   2.637   1.005   4.501  0.5346 -0.8924 -0.4280
 2370SOL    HW118569   2.713   1.061   4.483 -1.3378  1.9345  0.3873
 2370SOL    HW218570   2.572   1.064   4.463 -2.0660 -2.6135  1.4212
 2371SOL     OW18571   2.653   4.590   3.990  0.0239 -0.3986 -0.4544
 2371SOL    HW118572   2.742   4.621   3.979 -0.4533  0.8484 -0.7927
 2371SOL    HW218573   2.607   4.649   3.930 -0.4259  1.1598  1.4379
 2372SOL     OW18574   2.816   1.777   6.213 -0.0503  0.5322  0.2663
 2372SOL    HW118575   2.875   1.812   6.280 -1.7786 -0.9189  2.5940
 2372SOL    HW218576   2.735   1.819   6.243 -0.5735 -0.5965  0.4314
 2373SOL     OW18577   2.734   2.830   9.303 -0.6169  0.3769 -0.5296
 2373SOL    HW118578   2.701   2.758   9.250  0.8922 -1.9920  1.8083
 2373SOL    HW218579   2.822   2.800   9.325 -1.8618 -1.4614  1.9718
 2374SOL     OW18580   1.051   3.208   7.475 -0.6006 -0.3077  0.2405
 2374SOL    HW118581   1.042   3.274   7.545 -0.2036  0.2937 -0.2747
 2374SOL    HW218582   1.127   3.250   7.434  0.6147 -2.5644  0.1888
 2375SOL     OW18583   3.631   1.592   8.807  0.3870 -0.1743 -0.1301
 2375SOL    HW118584   3.623   1.527   8.737 -1.8000  0.4083 -0.4291
 2375SOL    HW218585   3.552   1.646   8.797  1.1239  0.9203 -0.0496
 2376SOL     OW18586   1.714   2.588  17.331 -0.4509 -0.5177 -0.3294
 2376SOL    HW118587   1.751   2.634  17.255  0.6510  2.1991  1.8696
 2376SOL    HW218588   1.663   2.652  17.380  3.0568  0.6284  1.8394
 2377SOL     OW18589   4.461   1.148  11.167 -0.5536 -0.6022 -0.3530
 2377SOL    HW118590   4.493   1.203  11.095 -1.8798 -0.6212 -0.9614
 2377SOL    HW218591   4.369   1.146  11.138  0.3353 -0.3816 -3.2111
 2378SOL     OW18592   1.868   3.209   4.699 -0.1505 -0.6385  0.1453
 2378SOL    HW118593   1.923   3.137   4.730 -1.0564 -1.4337 -0.0815
 2378SOL    HW218594   1.931   3.246   4.637  1.3781 -2.6337  0.4713
 2379SOL     OW18595   2.707   2.222   2.762 -0.5040  0.3831  0.9714
 2379SOL    HW118596   2.756   2.291   2.807  1.6026 -0.0920 -0.5513
 2379SOL    HW218597   2.653   2.183   2.831 -0.6252 -0.5679  0.3362
 2380SOL     OW18598   3.378   4.374   5.027 -0.0250 -0.3431  0.0051
 2380SOL    HW118599   3.405   4.368   4.935  0.0950  1.0561 -0.0552
 2380SOL    HW218600   3.451   4.418   5.071 -1.2343 -1.8157  3.4522
 2381SOL     OW18601   4.243   2.683  16.322  0.9318 -0.1364  0.4571
 2381SOL    HW118602   4.284   2.712  16.241  0.9817  0.5608  0.7296
 2381SOL    HW218603   4.156   2.662  16.287  1.2422  1.1006 -1.0428
 2382SOL     OW18604   3.610   1.899   1.716 -0.2629 -0.7227 -0.0809
 2382SOL    HW118605   3.517   1.877   1.722 -0.4892  0.6176  1.4867
 2382SOL    HW218606   3.655   1.872   1.796 -0.2672 -0.1149  0.1328
 2383SOL     OW18607   3.587   4.176   8.127  0.0555  0.8063 -0.5856
 2383SOL    HW118608   3.619   4.157   8.039 -1.6225 -1.1398 -0.7983
 2383SOL    HW218609   3.496   4.201   8.110  0.2986  1.3045 -1.1774
 2384SOL     OW18610   1.907   2.255   3.037 -0.3883 -0.2097 -0.2977
 2384SOL    HW118611   1.927   2.198   3.111  0.7298 -0.7431 -1.0036
 2384SOL    HW218612   1.812   2.257   3.034 -0.3689 -0.7476 -1.2041
 2385SOL     OW18613   3.224   0.352   8.008 -0.1387  0.4328 -0.1534
 2385SOL    HW118614   3.179   0.350   7.924 -1.5485  1.9473  0.5631
 2385SOL    HW218615   3.149   0.376   8.062  1.2040 -0.6404  2.1816
 2386SOL     OW18616   0.621   0.679   7.030 -0.1260 -0.4303  0.3838
 2386SOL    HW118617   0.684   0.651   7.098 -0.5766 -2.0927  0.0995
 2386SOL    HW218618   0.666   0.760   7.004 -3.3933  1.0869 -0.4868
 2387SOL     OW18619   4.518   1.897  16.391  0.1755  0.0847 -0.2485
 2387SOL    HW118620   4.456   1.890  16.464 -0.2397  1.1524 -0.4879
 2387SOL    HW218621   4.478   1.957  16.328  2.9375  1.0315 -1.0950
 2388SOL     OW18622   0.948   0.581   4.850  0.0689  0.6695  0.0357
 2388SOL    HW118623   0.891   0.537   4.787  1.1831  0.8141 -1.0792
 2388SOL    HW218624   0.953   0.516   4.920 -2.1587 -1.3399 -1.6566
 2389SOL     OW18625   4.533   0.810   7.904  0.2340 -0.1620 -0.3702
 2389SOL    HW118626   4.557   0.843   7.817  1.0215  0.2235 -0.0031
 2389SOL    HW218627   4.531   0.887   7.960 -2.8146  0.2570 -1.0136
 2390SOL     OW18628   2.081   3.895  17.080  0.2280  0.0950 -0.1117
 2390SOL    HW118629   2.060   3.823  17.020 -4.3928  1.1681  0.2047
 2390SOL    HW218630   2.001   3.898  17.132  0.1365 -0.3841 -0.2212
 2391SOL     OW18631   1.435   3.552   4.907  0.5103  0.4233  0.5817
 2391SOL    HW118632   1.435   3.544   4.812 -3.3005 -0.5493  0.6723
 2391SOL    HW218633   1.523   3.587   4.924  0.9231 -0.1354 -0.3830
 2392SOL     OW18634   1.496   2.387   3.181 -0.0767 -0.2002  0.1717
 2392SOL    HW118635   1.525   2.298   3.202 -1.6514 -1.0250 -1.1670
 2392SOL    HW218636   1.576   2.414   3.137  0.9595 -2.9587  0.3820
 2393SOL     OW18637   2.562   3.580   6.866  0.4840  0.2822  0.1624
 2393SOL    HW118638   2.526   3.663   6.897  2.5160  1.6483 -1.2030
 2393SOL    HW218639   2.476   3.547   6.842 -0.4884  2.1727  1.0280
 2394SOL     OW18640   2.403   4.254  14.450  0.5877 -0.0741 -0.7944
 2394SOL    HW118641   2.382   4.314  14.378  0.7031  0.6743 -0.1959
 2394SOL    HW218642   2.491   4.222  14.429  0.2493 -2.0631  0.8365
 2395SOL     OW18643   4.255   2.611   5.121  0.6915 -0.1378  0.5022
 2395SOL    HW118644   4.233   2.571   5.205  4.2570 -1.4169  0.8443
 2395SOL    HW218645   4.314   2.673   5.165  1.3552 -1.3891  1.3810
 2396SOL     OW18646   1.869   2.812   9.255  0.0080  0.0103  0.1734
 2396SOL    HW118647   1.803   2.743   9.264 -1.7469  1.3483 -2.4072
 2396SOL    HW218648   1.850   2.845   9.167  2.5625  1.1125  0.0281
 2397SOL     OW18649   2.840   3.358   0.035  0.5939  0.8538 -0.6362
 2397SOL    HW118650   2.893   3.342  17.653 -0.8985 -0.3099 -1.4119
 2397SOL    HW218651   2.749   3.348   0.006  0.4736 -2.6242  0.9837
 2398SOL     OW18652   1.453   1.874   2.905 -0.3112  0.1941  0.0753
 2398SOL    HW118653   1.427   1.794   2.859 -0.3586  0.1490  0.1803
 2398SOL    HW218654   1.366   1.895   2.938 -0.6628 -1.7142  0.3754
 2399SOL     OW18655   0.739   2.051   6.888 -0.3010  0.5591  0.1569
 2399SOL    HW118656   0.762   2.074   6.798  0.3851 -0.1776  0.1455
 2399SOL    HW218657   0.820   2.012   6.921  0.3924  1.9212  0.0648
 2400SOL     OW18658   2.737   3.827  15.728  0.3635  0.5688  0.0527
 2400SOL    HW118659   2.806   3.883  15.692 -1.4474  1.7864 -1.4873
 2400SOL    HW218660   2.665   3.861  15.675 -0.4571  0.9271  1.3787
 2401SOL     OW18661   4.460   0.091   7.766 -0.2798  0.4503  0.4160
 2401SOL    HW118662   4.455   0.183   7.792 -0.2705  0.5863 -0.0609
 2401SOL    HW218663   4.417   0.094   7.681  0.9587  0.7028 -0.1996
 2402SOL     OW18664   3.279   3.648   4.907 -0.4521 -0.5678 -0.1123
 2402SOL    HW118665   3.199   3.680   4.949  1.3750  2.0787  1.3659
 2402SOL    HW218666   3.236   3.627   4.824 -1.1621  0.9017 -0.1255
 2403SOL     OW18667   2.701   2.645   7.825 -0.3309 -0.0426 -0.0803
 2403SOL    HW118668   2.769   2.589   7.862  0.2828  0.0859 -1.0148
 2403SOL    HW218669   2.726   2.658   7.734 -0.5907 -1.0803 -0.3047
 2404SOL     OW18670   3.536   0.173  15.109  0.0022 -0.2979 -0.2334
 2404SOL    HW118671   3.549   0.162  15.015 -2.0163 -0.3534 -0.5011
 2404SOL    HW218672   3.583   0.253  15.135 -0.6810 -0.1529  0.5672
 2405SOL     OW18673   0.930   1.773   0.027 -0.3840 -0.7234  0.6900
 2405SOL    HW118674   0.868   1.843   0.007  0.2826 -0.2499  0.2696
 2405SOL    HW218675   0.996   1.832   0.061  0.1817 -2.6006  2.8449
 2406SOL     OW18676   0.800   2.780   1.601  0.1915  0.2197 -0.0803
 2406SOL    HW118677   0.806   2.713   1.669 -1.0138  0.4918  0.3035
 2406SOL    HW218678   0.848   2.853   1.640 -0.6833  0.6663  0.1633
 2407SOL     OW18679   4.611   2.483   6.535 -0.3552 -0.0408 -0.0323
 2407SOL    HW118680   4.603   2.569   6.495 -0.4225  0.3874  0.8838
 2407SOL    HW218681   4.559   2.491   6.615  0.2928  0.4918  0.3471
 2408SOL     OW18682   2.755   2.147  14.414 -0.7773 -0.6974 -0.1873
 2408SOL    HW118683   2.849   2.142  14.434 -0.1069  2.3866 -2.5755
 2408SOL    HW218684   2.737   2.239  14.433  2.7808 -0.5107  2.2665
 2409SOL     OW18685   2.338   2.472   6.746  0.2021 -0.4296 -0.2707
 2409SOL    HW118686   2.351   2.399   6.807 -0.4469 -0.3945 -0.0967
 2409SOL    HW218687   2.351   2.552   6.797 -0.4096 -0.6906  0.2914
 2410SOL     OW18688   3.367   2.909   7.168  0.1090 -0.3837 -0.1340
 2410SOL    HW118689   3.451   2.894   7.210 -1.1558  0.3129  2.6310
 2410SOL    HW218690   3.391   2.917   7.075 -0.8512 -0.1320 -0.3617
 2411SOL     OW18691   2.297   3.590   3.003  0.2315 -0.3958 -0.3652
 2411SOL    HW118692   2.312   3.659   2.939 -2.0831  1.5274  1.1850
 2411SOL    HW218693   2.358   3.622   3.070 -1.7639 -1.0964  1.8023
 2412SOL     OW18694   4.224   0.256   9.502  0.3672  0.0949 -0.8225
 2412SOL    HW118695   4.206   0.205   9.581 -0.1190  1.1090 -0.2694
 2412SOL    HW218696   4.231   0.193   9.431  0.4412 -0.5142 -0.2715
 2413SOL     OW18697   1.473   3.069   0.455  0.0104  0.1625 -0.2059
 2413SOL    HW118698   1.550   3.040   0.504  0.1607 -1.5273 -1.4327
 2413SOL    HW218699   1.517   3.149   0.426  1.9337 -0.8645 -0.1702
 2414SOL     OW18700   3.770   1.649   5.969 -0.0379  0.0259 -0.6837
 2414SOL    HW118701   3.745   1.599   5.891  0.0907 -0.8027 -0.1825
 2414SOL    HW218702   3.729   1.592   6.033 -1.5786  0.6193 -1.1421
 2415SOL     OW18703   0.805   1.795   6.075  1.2813  0.1107  0.8710
 2415SOL    HW118704   0.881   1.754   6.033  0.7599 -1.4225  1.4271
 2415SOL    HW218705   0.732   1.745   6.040  1.9456  0.8120 -1.5090
 2416SOL     OW18706   1.723   4.594   3.708  0.1397 -0.3260  0.1245
 2416SOL    HW118707   1.811   4.621   3.735  0.1210 -0.3822  0.2435
 2416SOL    HW218708   1.679   4.601   3.792 -0.2886 -0.3867 -0.0974
 2417SOL     OW18709   1.253   3.954   5.579 -0.0703  0.3649 -0.0499
 2417SOL    HW118710   1.233   3.915   5.664  0.8491  0.9751  0.4567
 2417SOL    HW218711   1.204   3.904   5.515 -0.2497  1.2586 -0.6133
 2418SOL     OW18712   1.724   4.312   8.466 -0.1141 -0.3376  0.0140
 2418SOL    HW118713   1.808   4.327   8.423 -1.3349  0.5571 -2.0040
 2418SOL    HW218714   1.741   4.242   8.530  3.2143  0.0384 -0.4890
 2419SOL     OW18715   2.209   1.395   6.401 -0.0191  0.0061 -0.2368
 2419SOL    HW118716   2.193   1.372   6.492 -0.3258 -1.2207 -0.6037
 2419SOL    HW218717   2.140   1.344   6.357 -0.0539  1.5049 -1.9468
 2420SOL     OW18718   4.127   3.704   5.248  0.0978 -0.1192 -0.0009
 2420SOL    HW118719   4.078   3.679   5.169 -0.8839  0.4949  0.4139
 2420SOL    HW218720   4.066   3.769   5.282 -0.8321 -0.1636 -1.5704
 2421SOL     OW18721   2.366   1.537   5.677 -0.3561 -0.9309 -0.0654
 2421SOL    HW118722   2.373   1.445   5.704  1.4858 -0.6100  0.5492
 2421SOL    HW218723   2.446   1.573   5.714 -0.7562 -0.5661  0.4293
 2422SOL     OW18724   0.160   0.077  14.294 -0.6259  0.9142 -0.3763
 2422SOL    HW118725   0.222   0.113  14.357 -0.9913 -0.0836  0.5490
 2422SOL    HW218726   0.087   0.131  14.324 -1.2848 -0.4014  0.3715
 2423SOL     OW18727   0.350   0.804   2.959  0.2620  0.4334  0.0006
 2423SOL    HW118728   0.301   0.725   2.934  1.2181  0.0728 -0.7410
 2423SOL    HW218729   0.376   0.778   3.048  2.8034 -2.4586 -1.5663
 2424SOL     OW18730   3.131   0.669   8.927 -0.4942 -0.3736  0.2022
 2424SOL    HW118731   3.158   0.590   8.974 -3.1290 -0.9291  0.8140
 2424SOL    HW218732   3.106   0.716   9.007  0.4884  0.1332  0.2151
 2425SOL     OW18733   3.759   0.696   6.754  0.1974  0.7878 -0.3282
 2425SOL    HW118734   3.840   0.685   6.703  0.7772 -0.6563  0.9186
 2425SOL    HW218735   3.742   0.602   6.761  2.7743  0.4597  1.4408
 2426SOL     OW18736   4.169   3.932  11.733 -0.5354 -0.3239 -0.3576
 2426SOL    HW118737   4.140   3.978  11.654  0.7517 -0.4139 -0.8784
 2426SOL    HW218738   4.119   3.850  11.728  1.7059 -1.6700 -0.9052
 2427SOL     OW18739   4.624   3.687  13.529  0.3770 -0.1215 -0.5192
 2427SOL    HW118740   4.597   3.770  13.567  0.7427 -0.8010  1.2364
 2427SOL    HW218741   4.718   3.704  13.521  0.2767  0.4422 -0.5082
 2428SOL     OW18742   1.340   2.435  12.196 -0.0499 -0.4616  0.2550
 2428SOL    HW118743   1.248   2.434  12.221 -0.0605  0.2566  0.2542
 2428SOL    HW218744   1.373   2.481  12.273  1.1584  1.2364 -1.2651
 2429SOL     OW18745   3.059   2.119  13.563  0.1571 -0.5173 -0.1433
 2429SOL    HW118746   3.048   2.097  13.470  0.8338 -0.1318 -0.3205
 2429SOL    HW218747   3.106   2.045  13.600 -0.4334  0.4702  2.5799
 2430SOL     OW18748   0.129   0.652   5.469  0.1061  0.2850 -0.3554
 2430SOL    HW118749   0.117   0.669   5.376  0.4138  0.4977 -0.3546
 2430SOL    HW218750   0.038   0.628   5.487  0.8334  0.0241  3.0405
 2431SOL     OW18751   2.465   2.425   3.231 -0.1176  0.4943  0.3386
 2431SOL    HW118752   2.413   2.481   3.172 -0.8515 -0.5677 -0.0127
 2431SOL    HW218753   2.445   2.341   3.191  5.0090  0.5299 -2.2865
 2432SOL     OW18754   3.697   3.331   1.540 -0.4591 -0.0157  0.0088
 2432SOL    HW118755   3.728   3.367   1.457 -0.7147 -2.0842 -0.9861
 2432SOL    HW218756   3.769   3.362   1.595 -2.3166  1.1900  1.7572
 2433SOL     OW18757   3.546   3.073   8.342 -0.1053 -0.0601 -0.6267
 2433SOL    HW118758   3.602   3.060   8.418 -1.2308  1.2068  0.4182
 2433SOL    HW218759   3.484   3.002   8.354 -0.1259 -0.3249 -2.2443
 2434SOL     OW18760   1.194   0.225  12.582  0.3386 -0.1381  0.7133
 2434SOL    HW118761   1.187   0.299  12.642  0.1528  1.1927 -0.9456
 2434SOL    HW218762   1.277   0.183  12.607  0.6195 -1.7029 -2.7687
 2435SOL     OW18763   0.727   1.127  15.130  0.4115 -0.6563 -0.0997
 2435SOL    HW118764   0.710   1.101  15.220 -3.3862  3.1614  0.3013
 2435SOL    HW218765   0.819   1.100  15.129  0.2755 -1.0524 -1.9586
 2436SOL     OW18766   4.279   1.045   5.608 -0.5257 -0.1597 -0.3379
 2436SOL    HW118767   4.372   1.024   5.608 -0.6429 -0.6076  1.5127
 2436SOL    HW218768   4.245   1.005   5.688  2.4087  0.5171  1.2393
 2437SOL     OW18769   0.275   0.288   1.487  0.0508  0.3364  0.0153
 2437SOL    HW118770   0.213   0.215   1.482 -1.6760  1.8644 -0.8791
 2437SOL    HW218771   0.330   0.274   1.410 -1.1965 -0.4639 -0.7386
 2438SOL     OW18772   4.122   2.099   3.009  0.0056  0.0799  0.0369
 2438SOL    HW118773   4.126   2.055   2.924  0.0227  1.1430 -0.4988
 2438SOL    HW218774   4.212   2.125   3.026 -0.2154  1.3772 -0.7955
 2439SOL     OW18775   3.302   1.158   3.114  0.0875 -0.6765  0.3082
 2439SOL    HW118776   3.325   1.100   3.041  0.0481 -1.3310  0.8134
 2439SOL    HW218777   3.252   1.234   3.084  0.6104 -0.4707 -0.0434
 2440SOL     OW18778   3.521   0.310  13.577 -0.0076 -0.3220  0.1056
 2440SOL    HW118779   3.605   0.298  13.621  0.1693 -1.7765 -0.6410
 2440SOL    HW218780   3.462   0.360  13.634  0.6622 -0.8279  1.2519
 2441SOL     OW18781   3.534   1.769   4.171 -0.6541 -0.2753  0.5143
 2441SOL    HW118782   3.629   1.765   4.161 -0.7463 -0.1049 -0.4893
 2441SOL    HW218783   3.527   1.853   4.216  0.6929  0.6078 -0.8899
 2442SOL     OW18784   4.090   3.536   9.453 -0.5099  0.2309  0.2132
 2442SOL    HW118785   4.131   3.613   9.492  1.4872 -1.2694  1.0871
 2442SOL    HW218786   4.000   3.569   9.449 -1.2539 -1.7583  0.5590
 2443SOL     OW18787   4.320   4.648   8.987  0.4243 -0.7192  0.2784
 2443SOL    HW118788   4.322   4.635   8.893  0.8496  3.0416 -0.2165
 2443SOL    HW218789   4.227   4.670   8.998  0.7271  1.8783 -2.4252
 2444SOL     OW18790   2.913   4.060   2.545  0.0456  0.6273  0.3501
 2444SOL    HW118791   2.963   4.139   2.564  2.1866 -0.8547  0.8677
 2444SOL    HW218792   2.964   3.999   2.598 -0.8349 -1.3164 -1.0305
 2445SOL     OW18793   2.698   2.451  14.873  0.2339  0.2271  0.7480
 2445SOL    HW118794   2.784   2.461  14.832 -0.1531  0.3769 -0.0218
 2445SOL    HW218795   2.701   2.529  14.930  2.2241  0.5440  0.2136
 2446SOL     OW18796   2.603   3.658   5.583 -0.0171 -0.2452 -0.7903
 2446SOL    HW118797   2.576   3.575   5.543 -2.1678 -0.2209  0.6397
 2446SOL    HW218798   2.698   3.644   5.591  0.0858  0.3581 -0.9938
 2447SOL     OW18799   3.791   2.769  14.068 -0.1227  0.0720  0.4851
 2447SOL    HW118800   3.879   2.791  14.037  0.8415 -0.8330  2.5618
 2447SOL    HW218801   3.809   2.701  14.133 -2.1808 -1.6157 -0.6896
 2448SOL     OW18802   4.699   1.880  12.199  0.8022  0.2998  0.5662
 2448SOL    HW118803   4.663   1.968  12.187  1.2032  0.3415 -0.3084
 2448SOL    HW218804   4.713   1.871  12.293 -1.6004  2.9857  1.2018
 2449SOL     OW18805   4.381   4.368  11.420  0.2679 -0.3401 -0.0380
 2449SOL    HW118806   4.395   4.357  11.326  2.5317  1.7124  0.0832
 2449SOL    HW218807   4.444   4.438  11.436 -0.4452  0.4822 -0.8446
 2450SOL     OW18808   1.062   3.212   3.235 -0.1848 -0.3523 -0.2743
 2450SOL    HW118809   1.021   3.259   3.163  1.4812  0.0216 -0.9953
 2450SOL    HW218810   1.012   3.132   3.222 -1.0694  0.5177 -2.1741
 2451SOL     OW18811   1.397   3.280   5.456  0.1212 -0.5301  0.5207
 2451SOL    HW118812   1.400   3.372   5.429 -0.1659 -0.7103 -0.1368
 2451SOL    HW218813   1.401   3.279   5.551 -1.8301 -1.1339  0.5795
 2452SOL     OW18814   2.847   3.001   4.272 -0.4361 -0.0617 -0.7808
 2452SOL    HW118815   2.798   2.966   4.346  1.3001 -1.5983 -0.3685
 2452SOL    HW218816   2.939   3.004   4.298 -1.1323 -0.5237  1.7553
 2453SOL     OW18817   3.912   0.178  10.866 -0.0324  0.1019  0.1144
 2453SOL    HW118818   3.963   0.238  10.919 -0.3285  0.5095 -0.0606
 2453SOL    HW218819   3.826   0.218  10.881  0.3477  0.5640  1.0494
 2454SOL     OW18820   1.877   1.394   8.451  0.3502 -0.7517 -0.0826
 2454SOL    HW118821   1.918   1.374   8.535 -1.5592  0.7154  1.1952
 2454SOL    HW218822   1.952   1.438   8.409  1.7935 -1.8784  1.3318
 2455SOL     OW18823   0.123   1.047   6.904 -0.0714 -0.3211  0.3904
 2455SOL    HW118824   0.141   0.987   6.831  0.5867 -2.3510  2.2377
 2455SOL    HW218825   0.123   1.133   6.862  4.3182 -0.6743 -0.4148
 2456SOL     OW18826   3.456   1.170   3.453 -0.5677  0.4271  0.2401
 2456SOL    HW118827   3.477   1.091   3.504  0.5210 -0.5854 -1.8123
 2456SOL    HW218828   3.511   1.233   3.499 -0.5168  1.0607 -0.7064
 2457SOL     OW18829   3.674   1.261   4.171  0.0957  0.3021 -0.0450
 2457SOL    HW118830   3.679   1.263   4.266  1.0004 -0.4789 -0.0773
 2457SOL    HW218831   3.766   1.238   4.154  0.1542  0.4190  0.1134
 2458SOL     OW18832   0.247   0.901   6.691  0.8430 -0.1517 -0.2932
 2458SOL    HW118833   0.230   0.828   6.632 -0.9385  0.2350 -0.2529
 2458SOL    HW218834   0.343   0.896   6.696  0.7545  0.6155  2.0494
 2459SOL     OW18835   3.633   0.179   4.610 -0.3486  0.1191 -0.3402
 2459SOL    HW118836   3.704   0.229   4.570 -0.2202 -0.5327 -0.9500
 2459SOL    HW218837   3.596   0.131   4.536 -0.3145 -1.9298  0.9587
 2460SOL     OW18838   0.633   1.448   2.533  0.2587  0.7501  0.2800
 2460SOL    HW118839   0.597   1.363   2.558 -0.9384  1.0315 -0.5042
 2460SOL    HW218840   0.712   1.463   2.585  1.5686 -1.3004 -1.1590
 2461SOL     OW18841   2.431   4.324   9.259 -0.8947  0.8796  0.2076
 2461SOL    HW118842   2.411   4.412   9.291 -1.0486  0.4291  1.3533
 2461SOL    HW218843   2.348   4.280   9.238 -0.0150 -0.0271 -1.3704
 2462SOL     OW18844   2.827   1.804   7.713  0.0903 -0.4122  0.1785
 2462SOL    HW118845   2.760   1.739   7.734 -1.0721  0.8708  0.4424
 2462SOL    HW218846   2.902   1.753   7.742  0.2482 -0.3368 -0.0951
 2463SOL     OW18847   4.218   4.347   8.480  0.0607 -0.2842  0.3095
 2463SOL    HW118848   4.253   4.332   8.568  1.0476 -0.9995 -0.2096
 2463SOL    HW218849   4.125   4.324   8.484 -0.6107  2.4301  0.5034
 2464SOL     OW18850   3.834   2.937  15.930 -0.3998 -0.3633  0.2490
 2464SOL    HW118851   3.859   2.992  15.857 -0.3652  0.0394  0.5620
 2464SOL    HW218852   3.840   2.998  16.004  0.5684 -1.2792  0.9304
 2465SOL     OW18853   2.484   4.590   5.729  0.0105 -0.0589  0.2239
 2465SOL    HW118854   2.472   4.664   5.790 -0.3617 -1.1049  1.4266
 2465SOL    HW218855   2.520   4.639   5.655  1.3503  0.3846  1.1679
 2466SOL     OW18856   1.089   0.062  16.029  0.0659  0.6156 -0.2521
 2466SOL    HW118857   1.104   0.156  16.022 -0.6685  0.6241 -1.9386
 2466SOL    HW218858   0.994   0.052  16.015  0.4557 -0.3318 -2.2391
 2467SOL     OW18859   2.633   1.982   3.049  0.0018 -0.2707 -0.9593
 2467SOL    HW118860   2.629   2.076   3.068  2.3254 -0.2645 -0.4851
 2467SOL    HW218861   2.539   1.966   3.047 -0.1671  0.4756  0.7135
 2468SOL     OW18862   0.869   0.490   3.065  0.2473  0.3446 -0.2747
 2468SOL    HW118863   0.851   0.477   2.972 -0.5456  0.2595 -0.1075
 2468SOL    HW218864   0.876   0.397   3.086 -2.0874  0.9263  3.1782
 2469SOL     OW18865   3.422   2.238  17.228 -0.5976  0.0066 -0.0258
 2469SOL    HW118866   3.406   2.153  17.188 -2.0015  0.8236 -1.2014
 2469SOL    HW218867   3.352   2.299  17.205  0.1135  1.1332  0.7830
 2470SOL     OW18868   4.091   4.371   9.170 -0.0725 -0.0678  0.0167
 2470SOL    HW118869   4.061   4.288   9.132  0.2624 -0.8531  1.4709
 2470SOL    HW218870   4.159   4.386   9.104 -0.3281  0.9153 -0.0264
 2471SOL     OW18871   3.436   0.274  10.307  0.0622 -0.0411  0.2900
 2471SOL    HW118872   3.410   0.328  10.232 -0.2475 -0.8989 -0.2135
 2471SOL    HW218873   3.512   0.231  10.267 -0.2035 -0.2458  0.0149
 2472SOL     OW18874   2.550   3.214  11.776  0.3631 -0.3125  0.1174
 2472SOL    HW118875   2.485   3.225  11.846 -0.7764 -0.5092 -0.9115
 2472SOL    HW218876   2.587   3.302  11.781  0.4856 -0.5525  3.3229
 2473SOL     OW18877   0.478   1.449   4.109  0.3659 -0.1047  0.0350
 2473SOL    HW118878   0.524   1.500   4.043  1.8074  0.2768  1.3457
 2473SOL    HW218879   0.540   1.377   4.123  0.9956  0.0412 -2.1084
 2474SOL     OW18880   1.413   4.532   0.034  0.6210 -0.4965 -0.2749
 2474SOL    HW118881   1.420   4.628   0.033  0.0195 -0.4442  0.2412
 2474SOL    HW218882   1.320   4.523   0.057  0.8033 -0.6499  0.3917
 2475SOL     OW18883   2.018   3.658  14.879 -0.1345 -0.3065  0.1254
 2475SOL    HW118884   2.059   3.645  14.964  0.2568 -2.2970 -0.3821
 2475SOL    HW218885   2.017   3.570  14.842  3.0164 -1.3220  2.4384
 2476SOL     OW18886   2.330   3.782  11.881 -0.2862  0.6082  0.7034
 2476SOL    HW118887   2.254   3.772  11.939 -0.7976  3.2108  0.4769
 2476SOL    HW218888   2.309   3.711  11.821  2.5589  0.0934  0.3389
 2477SOL     OW18889   4.647   0.837  12.671  0.5163 -0.1834 -0.5144
 2477SOL    HW118890   4.565   0.801  12.638  1.4483 -1.7572 -1.0692
 2477SOL    HW218891   4.716   0.821  12.607  1.2529  0.2714  0.1650
 2478SOL     OW18892   2.167   1.975   4.058 -0.2147 -0.2925  0.2070
 2478SOL    HW118893   2.156   1.883   4.085 -0.4163 -0.3142  0.0556
 2478SOL    HW218894   2.171   2.016   4.143  0.1807 -0.6089  0.3431
 2479SOL     OW18895   4.041   3.306   8.064  0.1532 -0.3730 -0.4870
 2479SOL    HW118896   4.000   3.357   7.994 -2.1956 -1.5869  0.0249
 2479SOL    HW218897   4.112   3.365   8.089 -1.2167  1.2208 -0.3087
 2480SOL     OW18898   0.423   0.789   6.883 -0.3291  0.2910 -0.1929
 2480SOL    HW118899   0.480   0.742   6.944 -0.9580  0.3470  0.4497
 2480SOL    HW218900   0.440   0.876   6.919 -1.9798  0.2589  0.6854
 2481SOL     OW18901   0.503   1.937   8.464  0.3970 -0.7715 -0.3012
 2481SOL    HW118902   0.498   1.856   8.516 -0.7564 -0.0585  0.7219
 2481SOL    HW218903   0.523   1.996   8.537  0.0726 -1.1196  0.0796
 2482SOL     OW18904   0.029   4.034   5.104 -0.6016  0.7756  0.1706
 2482SOL    HW118905   0.030   4.129   5.118  1.5904  0.7762 -0.0236
 2482SOL    HW218906   4.660   4.024   5.084 -0.5363  0.1677  0.1770
 2483SOL     OW18907   3.085   3.247   5.725  0.2455  0.2283  0.2680
 2483SOL    HW118908   3.023   3.262   5.654 -0.2685  0.2305  0.7156
 2483SOL    HW218909   3.125   3.333   5.716  2.3056 -0.8524 -1.0197
 2484SOL     OW18910   0.692   1.989   5.632  0.0351  0.0221 -0.0254
 2484SOL    HW118911   0.637   2.001   5.555  0.9682 -1.0119 -0.8501
 2484SOL    HW218912   0.726   1.900   5.631  1.7997  0.6533  2.9492
 2485SOL     OW18913   3.661   4.578   4.738  0.3837  0.2238 -0.3460
 2485SOL    HW118914   3.584   4.620   4.700 -0.3389  0.2326  1.1335
 2485SOL    HW218915   3.693   4.635   4.808  1.0348 -2.3026  1.3998
 2486SOL     OW18916   1.544   3.127  11.295  0.2180 -0.2526 -0.2054
 2486SOL    HW118917   1.499   3.208  11.319  1.5910  0.0697  1.3202
 2486SOL    HW218918   1.637   3.148  11.288  0.2916 -0.6634 -0.4380
 2487SOL     OW18919   2.209   3.792  16.025 -0.3472  0.2502 -0.3416
 2487SOL    HW118920   2.148   3.846  16.076  1.1781  1.1312  0.5540
 2487SOL    HW218921   2.290   3.795  16.077 -1.0288 -0.0332  0.7489
 2488SOL     OW18922   1.287   3.577   4.381 -0.0828 -0.5009 -0.6041
 2488SOL    HW118923   1.365   3.540   4.341  0.5535 -0.0262  0.2076
 2488SOL    HW218924   1.285   3.668   4.351 -0.8292  0.0391  1.1141
 2489SOL     OW18925   4.289   4.407   4.892 -0.2990  0.2065  0.2886
 2489SOL    HW118926   4.211   4.446   4.853  0.3603 -0.3433 -1.5792
 2489SOL    HW218927   4.362   4.458   4.856 -0.8709  1.0213  0.2847
 2490SOL     OW18928   2.484   1.654   8.539 -0.3265  0.9113 -0.2659
 2490SOL    HW118929   2.398   1.675   8.502 -1.7412 -1.1110  1.8855
 2490SOL    HW218930   2.482   1.722   8.606  1.9290  0.8309 -0.1159
 2491SOL     OW18931   4.084   2.530   5.346  0.0945 -0.5743  0.2852
 2491SOL    HW118932   4.128   2.469   5.405  1.1730 -0.9465 -0.9088
 2491SOL    HW218933   4.072   2.603   5.407  0.0178 -0.7808  0.5184
 2492SOL     OW18934   2.671   3.342   4.013  0.1507 -0.1610 -0.2615
 2492SOL    HW118935   2.659   3.260   4.061  1.5255 -0.9766 -1.2814
 2492SOL    HW218936   2.626   3.329   3.930  0.4612 -3.1040  0.0356
 2493SOL     OW18937   3.761   2.103  11.108 -0.3290  0.3135  0.1976
 2493SOL    HW118938   3.769   2.008  11.105  2.0972  0.4433  1.7806
 2493SOL    HW218939   3.848   2.122  11.072 -0.7969  0.8337 -0.6567
 2494SOL     OW18940   4.621   2.829  15.828 -0.0607 -0.1594  0.3057
 2494SOL    HW118941   4.546   2.771  15.843  0.7932 -1.5092 -0.6922
 2494SOL    HW218942   4.665   2.801  15.908  1.2168  1.4284  0.1543
 2495SOL     OW18943   3.194   2.585  13.497  0.3270 -0.2011 -0.2676
 2495SOL    HW118944   3.208   2.589  13.592  1.7860 -0.0918 -0.4827
 2495SOL    HW218945   3.280   2.554  13.469  0.2178  0.0518 -0.8763
 2496SOL     OW18946   0.358   1.947   4.358  0.4823 -0.0969  0.5344
 2496SOL    HW118947   0.342   1.869   4.411  1.2841 -0.8989 -0.4177
 2496SOL    HW218948   0.414   1.904   4.293 -0.1135 -1.3997  0.8950
 2497SOL     OW18949   4.069   3.010  16.352 -0.1633  0.3845  0.2000
 2497SOL    HW118950   4.097   2.925  16.384  1.9570  0.9761 -0.0686
 2497SOL    HW218951   4.048   3.054  16.434 -1.0468  2.1667 -0.9705
 2498SOL     OW18952   3.441   0.534  12.806  0.1796  0.2382 -0.4434
 2498SOL    HW118953   3.408   0.534  12.896  1.6282  0.0154  0.0805
 2498SOL    HW218954   3.477   0.622  12.793  1.5219 -0.2448  0.0064
 2499SOL     OW18955   0.013   3.914  16.583 -0.0411 -0.4169 -0.5068
 2499SOL    HW118956   0.070   3.990  16.577  0.5934 -0.8753 -0.3093
 2499SOL    HW218957   0.042   3.879  16.667  0.4815 -1.1497 -0.9873
 2500SOL     OW18958   3.488   4.107   5.101  0.6178  0.3907 -0.0684
 2500SOL    HW118959   3.429   4.156   5.044  0.2205 -0.0623 -0.0492
 2500SOL    HW218960   3.475   4.020   5.063 -0.5246  0.2577  0.6232
 2501SOL     OW18961   1.108   0.916   6.508  0.2090  0.3417  0.9117
 2501SOL    HW118962   1.172   0.860   6.465 -0.4119 -2.3426  3.4855
 2501SOL    HW218963   1.133   0.906   6.600  3.5869  3.6579  0.3241
 2502SOL     OW18964   3.057   1.653   9.033  0.4500  0.0494 -0.4230
 2502SOL    HW118965   2.997   1.629   9.103 -0.5015  2.1026 -0.5134
 2502SOL    HW218966   3.045   1.584   8.967  1.6265 -1.3742  0.8627
 2503SOL     OW18967   2.126   1.049   3.067 -0.1251  0.1973  0.0247
 2503SOL    HW118968   2.138   1.072   2.975 -1.9506  0.3386 -0.1657
 2503SOL    HW218969   2.218   1.036   3.091  0.4737  2.6980 -0.9195
 2504SOL     OW18970   4.706   3.969   8.480 -0.3442 -0.1857  0.6078
 2504SOL    HW118971   4.689   4.039   8.417 -0.9977 -0.4403  0.5019
 2504SOL    HW218972   4.721   4.023   8.558 -1.7645 -0.1896  0.8877
 2505SOL     OW18973   1.301   4.004  13.232  0.7024  0.6735  0.2775
 2505SOL    HW118974   1.242   3.929  13.225  1.7130  0.0040 -0.9920
 2505SOL    HW218975   1.321   4.019  13.140 -1.9338 -2.7088 -0.8493
 2506SOL     OW18976   0.448   0.165   1.682 -0.1665 -0.9209 -0.3982
 2506SOL    HW118977   0.383   0.096   1.671  0.2652 -0.9262 -2.8313
 2506SOL    HW218978   0.410   0.245   1.644 -1.0575  0.1145  2.6456
 2507SOL     OW18979   2.977   1.081   1.975 -0.4477 -0.6192  1.1536
 2507SOL    HW118980   2.900   1.128   1.942 -0.4725 -1.1553  0.4611
 2507SOL    HW218981   3.004   1.133   2.051 -2.8049  0.3269  1.3327
 2508SOL     OW18982   0.764   0.502   1.039  0.0923  0.0250 -0.1597
 2508SOL    HW118983   0.750   0.432   1.102  2.0103 -1.2537 -1.1729
 2508SOL    HW218984   0.702   0.566   1.075  0.1405  1.2756 -2.2521
 2509SOL     OW18985   2.059   2.437   2.069  0.5474 -0.4077  0.2052
 2509SOL    HW118986   2.083   2.517   2.116 -0.8673 -1.2314  2.2691
 2509SOL    HW218987   1.995   2.467   2.005  1.9536 -1.0103 -1.4966
 2510SOL     OW18988   2.679   3.574   9.993 -0.0148  0.0830  0.0741
 2510SOL    HW118989   2.737   3.503  10.019 -2.0285 -1.4117  0.5020
 2510SOL    HW218990   2.660   3.553   9.902 -1.5067 -0.4600  0.5110
 2511SOL     OW18991   0.725   1.771   6.332 -0.3703  0.3494 -0.9207
 2511SOL    HW118992   0.643   1.819   6.339 -0.4923  0.2388 -1.5863
 2511SOL    HW218993   0.750   1.797   6.244 -1.5654 -0.1622 -1.4092
 2512SOL     OW18994   0.827   1.132  16.138 -0.2140 -0.2051  0.0592
 2512SOL    HW118995   0.793   1.047  16.168 -2.7199  0.6257 -0.3959
 2512SOL    HW218996   0.835   1.182  16.219  0.1910 -1.1096  0.5887
 2513SOL     OW18997   2.341   2.084   7.489 -0.1997  0.1706  0.5718
 2513SOL    HW118998   2.406   2.039   7.543 -1.5917 -2.3441  0.1336
 2513SOL    HW218999   2.319   2.014   7.428 -0.7053 -1.4940  2.6732
 2514SOL     OW19000   3.177   3.894   0.033  0.6998  0.1482 -0.2651
 2514SOL    HW119001   3.206   3.850   0.112  1.1816 -1.8251 -1.5417
 2514SOL    HW219002   3.139   3.820  17.682 -2.4402  0.6739  1.4588
 2515SOL     OW19003   0.967   2.383   7.560 -0.6792 -0.2631 -0.0771
 2515SOL    HW119004   1.041   2.362   7.503  0.3574  2.3480  0.3303
 2515SOL    HW219005   1.008   2.417   7.639 -1.5503 -1.9549  1.1170
 2516SOL     OW19006   0.026   0.200   7.003  0.2587  1.0811 -0.2331
 2516SOL    HW119007   0.035   0.254   7.081  0.9327  1.0364 -0.2816
 2516SOL    HW219008   0.110   0.153   6.994 -1.9351 -2.3481 -3.1938
 2517SOL     OW19009   2.685   2.629   1.057 -0.3376  0.6111  0.0537
 2517SOL    HW119010   2.745   2.646   0.984 -0.1975 -1.1598 -0.2476
 2517SOL    HW219011   2.622   2.576   1.008 -0.7612  0.5708  0.6421
 2518SOL     OW19012   3.876   2.456  16.698  0.3221 -0.1901  0.2582
 2518SOL    HW119013   3.853   2.519  16.767 -0.2809  1.4040 -1.3693
 2518SOL    HW219014   3.808   2.393  16.722  0.5495 -0.5570 -0.0678
 2519SOL     OW19015   0.570   3.707   7.459 -0.0948  0.1636 -0.4057
 2519SOL    HW119016   0.493   3.668   7.500  0.7667  0.0371  1.0870
 2519SOL    HW219017   0.628   3.712   7.535  2.1888 -0.4443 -2.1020
 2520SOL     OW19018   0.324   3.265  12.806 -0.5502 -0.3245 -0.0466
 2520SOL    HW119019   0.420   3.266  12.807 -0.5570  0.4665 -0.3198
 2520SOL    HW219020   0.298   3.345  12.761 -1.6573 -0.2119  0.7926
 2521SOL     OW19021   0.236   2.157   2.969 -0.1641  0.0707 -0.1800
 2521SOL    HW119022   0.171   2.161   3.039 -0.5189  1.1774 -0.5664
 2521SOL    HW219023   0.190   2.169   2.886 -1.4135 -0.2667  0.4638
 2522SOL     OW19024   4.392   4.143   9.575 -0.2422  0.3524 -0.0648
 2522SOL    HW119025   4.483   4.173   9.584 -0.3142  0.0450  1.8528
 2522SOL    HW219026   4.372   4.129   9.483  3.5390  2.7340 -1.2698
 2523SOL     OW19027   0.632   2.224   4.129 -0.1800  0.2752  0.0024
 2523SOL    HW119028   0.561   2.284   4.153  0.3977  0.2895  1.6724
 2523SOL    HW219029   0.582   2.161   4.077  2.2179 -0.7837 -1.0321
 2524SOL     OW19030   4.524   3.899  13.342 -0.0036  0.0049 -0.0447
 2524SOL    HW119031   4.434   3.915  13.313  1.0388  2.4149 -1.9612
 2524SOL    HW219032   4.541   3.974  13.399  1.8710 -0.7077  0.3513
 2525SOL     OW19033   4.040   1.531  12.494  0.4508  0.1973 -0.3005
 2525SOL    HW119034   4.038   1.492  12.406  0.5561  2.3797 -1.2674
 2525SOL    HW219035   4.132   1.518  12.519  1.3126  3.9303 -1.5474
 2526SOL     OW19036   0.367   2.136   6.585  0.4214  0.0174  0.2272
 2526SOL    HW119037   0.395   2.084   6.660 -1.2782 -0.3745  0.5821
 2526SOL    HW219038   0.452   2.160   6.549  0.7785 -0.2463  0.8948
 2527SOL     OW19039   2.815   1.958   8.313 -0.2156  0.1847  0.2478
 2527SOL    HW119040   2.721   1.969   8.322 -0.2670  1.0205 -1.2151
 2527SOL    HW219041   2.834   1.901   8.238 -1.3721  0.6827 -0.4154
 2528SOL     OW19042   2.062   0.668   3.584 -0.0092 -0.0854 -0.5589
 2528SOL    HW119043   2.045   0.671   3.490  0.8781 -0.9911 -0.7488
 2528SOL    HW219044   2.023   0.584   3.606  0.2432 -0.5090 -1.6884
 2529SOL     OW19045   2.962   4.550  10.727 -0.7862 -0.2540 -0.1505
 2529SOL    HW119046   3.014   4.587  10.655 -0.3326 -1.6757 -0.5715
 2529SOL    HW219047   3.030   4.574  10.790  0.2135 -3.3596 -0.0441
 2530SOL     OW19048   3.464   1.727   2.699 -0.2787  0.0563  0.2810
 2530SOL    HW119049   3.369   1.740   2.697 -0.1715  0.8890  0.8599
 2530SOL    HW219050   3.498   1.801   2.647  0.5034 -1.2523 -1.0794
 2531SOL     OW19051   2.002   2.245   4.206  0.1642  0.2865 -0.3345
 2531SOL    HW119052   2.088   2.216   4.235  0.0648 -0.0220 -0.3437
 2531SOL    HW219053   1.991   2.314   4.271 -0.7385  0.7347 -0.9665
 2532SOL     OW19054   4.139   3.490   4.376  0.1288 -0.3125 -0.3538
 2532SOL    HW119055   4.159   3.397   4.382  1.4406 -0.1340 -1.8662
 2532SOL    HW219056   4.161   3.522   4.463 -1.3776 -2.4379  0.8056
 2533SOL     OW19057   1.475   2.505   0.674  0.3610 -0.1800  0.8962
 2533SOL    HW119058   1.391   2.464   0.694 -0.0799  0.7370  0.9604
 2533SOL    HW219059   1.449   2.597   0.662  0.2023 -0.5548 -1.7618
 2534SOL     OW19060   1.657   0.737  11.265 -0.0098 -0.0016  0.5653
 2534SOL    HW119061   1.619   0.672  11.323  2.5823 -1.6559  0.3973
 2534SOL    HW219062   1.618   0.820  11.294 -0.7810 -0.7214  1.5687
 2535SOL     OW19063   4.268   4.100   1.933 -0.1099  0.6281 -0.6356
 2535SOL    HW119064   4.338   4.104   1.869  0.5521  1.4040  0.1430
 2535SOL    HW219065   4.272   4.193   1.955 -0.5930  1.1394 -2.7170
 2536SOL     OW19066   1.328   2.032   7.062 -0.2192  0.0860  1.1668
 2536SOL    HW119067   1.420   2.007   7.053  0.1542  0.9256  2.6176
 2536SOL    HW219068   1.285   1.958   7.104  0.1996 -0.7895  0.0450
 2537SOL     OW19069   4.474   2.328  11.777  0.1652  0.0033  0.2019
 2537SOL    HW119070   4.445   2.344  11.687 -3.4504  0.2328  1.3925
 2537SOL    HW219071   4.440   2.239  11.789  1.5287 -0.8089 -2.0266
 2538SOL     OW19072   0.068   3.609   4.739  0.7016  0.1691  0.3463
 2538SOL    HW119073   0.057   3.601   4.644  0.7066  1.8339  0.2047
 2538SOL    HW219074   0.072   3.515   4.758 -0.9420 -0.5461 -2.7012
 2539SOL     OW19075   1.501   1.001   4.765 -0.0586  0.3602 -0.2866
 2539SOL    HW119076   1.479   0.915   4.802 -1.3296  1.5738  1.7737
 2539SOL    HW219077   1.566   1.031   4.828  0.3727 -1.3739  0.1096
 2540SOL     OW19078   0.195   4.195   3.344  0.1641  0.4686  0.1964
 2540SOL    HW119079   0.124   4.131   3.346 -0.9324  1.6851 -0.4729
 2540SOL    HW219080   0.247   4.170   3.266  0.3751  0.9237  0.1936
 2541SOL     OW19081   4.029   1.953   9.044  0.2702 -0.6732  0.1047
 2541SOL    HW119082   4.086   1.903   8.986 -0.4242  1.1375 -2.0962
 2541SOL    HW219083   3.944   1.913   9.028 -0.3492 -0.1132  1.8916
 2542SOL     OW19084   0.061   3.769  12.264  0.1954  0.4148 -0.1313
 2542SOL    HW119085   0.107   3.834  12.317 -0.5251 -0.0975  1.0994
 2542SOL    HW219086   4.712   3.743  12.320 -0.6049 -0.6664 -1.6419
 2543SOL     OW19087   1.808   4.351   7.550  0.5821  0.2438  0.3007
 2543SOL    HW119088   1.763   4.287   7.606 -0.3581 -0.0980 -0.8381
 2543SOL    HW219089   1.774   4.433   7.586 -0.7434 -0.5119  0.8190
 2544SOL     OW19090   1.800   3.804   2.830  0.4785  0.5981  0.2417
 2544SOL    HW119091   1.840   3.803   2.743 -0.4885  0.4960 -0.2031
 2544SOL    HW219092   1.741   3.879   2.826 -0.0747  0.1273 -0.3482
 2545SOL     OW19093   2.553   2.825  12.241  0.0725  0.2874 -0.7480
 2545SOL    HW119094   2.535   2.740  12.281  0.3104  0.0560 -1.1337
 2545SOL    HW219095   2.484   2.826  12.174 -0.0243  0.9474 -0.6449
 2546SOL     OW19096   2.242   4.556   3.120  0.2974  0.0702 -0.5097
 2546SOL    HW119097   2.284   4.484   3.072 -1.6851 -0.2909 -1.6782
 2546SOL    HW219098   2.303   4.628   3.105  0.3474 -0.4707 -2.8750
 2547SOL     OW19099   4.453   3.926  10.841  0.2467 -0.0995 -0.3397
 2547SOL    HW119100   4.547   3.943  10.849  0.8575 -3.3683 -0.4652
 2547SOL    HW219101   4.419   3.946  10.927  1.8942  1.4615 -0.0381
 2548SOL     OW19102   2.863   0.599   6.321  0.3769  0.7496 -0.3059
 2548SOL    HW119103   2.912   0.682   6.322 -1.4918  1.8738 -1.6259
 2548SOL    HW219104   2.822   0.598   6.234 -0.2319 -2.1497  0.0155
 2549SOL     OW19105   1.478   3.224   6.590 -0.0501 -0.1378  0.6542
 2549SOL    HW119106   1.523   3.265   6.664 -1.4583 -0.8217  1.8822
 2549SOL    HW219107   1.548   3.198   6.530 -0.9465 -1.7579  0.3276
 2550SOL     OW19108   3.591   2.537   2.141  0.7082 -0.0760 -0.1153
 2550SOL    HW119109   3.539   2.608   2.177 -2.1452 -1.4973 -1.4873
 2550SOL    HW219110   3.635   2.493   2.214  1.4735 -0.4648 -0.8071
 2551SOL     OW19111   1.331   3.850  14.972 -0.0260 -0.0948  0.0602
 2551SOL    HW119112   1.341   3.862  14.878  1.4336 -2.1974 -0.0439
 2551SOL    HW219113   1.420   3.850  15.005 -0.1103  0.1747  0.2951
 2552SOL     OW19114   2.809   3.250   3.782 -0.1100  0.2009 -0.0525
 2552SOL    HW119115   2.726   3.261   3.828 -0.2209  1.1173 -0.4680
 2552SOL    HW219116   2.795   3.181   3.718  0.3778  0.7494 -0.7496
 2553SOL     OW19117   1.784   0.400   1.117 -0.0183 -0.3112  0.7392
 2553SOL    HW119118   1.782   0.350   1.035 -1.4570 -1.0514  1.2299
 2553SOL    HW219119   1.689   0.410   1.124 -0.1814 -1.1830 -0.1439
 2554SOL     OW19120   4.166   1.616   2.651 -0.5365 -0.2262  0.1369
 2554SOL    HW119121   4.167   1.659   2.565  0.7589  1.0143  0.7821
 2554SOL    HW219122   4.258   1.609   2.679 -0.3260 -0.1711 -0.5279
 2555SOL     OW19123   4.620   1.221   8.582 -0.4187 -0.6156 -0.4744
 2555SOL    HW119124   4.681   1.239   8.510 -1.8239  1.1435 -1.2237
 2555SOL    HW219125   4.593   1.131   8.561 -1.5680 -0.4598  0.3593
 2556SOL     OW19126   0.957   3.881   2.611  0.5414 -0.3047 -0.3800
 2556SOL    HW119127   1.012   3.810   2.643  0.4570  0.5198  1.6358
 2556SOL    HW219128   1.009   3.959   2.634  1.1271 -0.4981 -1.0729
 2557SOL     OW19129   1.462   0.130  17.141 -0.2994 -0.1876 -0.2208
 2557SOL    HW119130   1.374   0.153  17.112 -0.2718 -0.4136 -0.4797
 2557SOL    HW219131   1.475   0.189  17.215 -0.6393 -1.6504  1.0106
 2558SOL     OW19132   2.740   2.630   6.446 -0.0507 -0.4014  0.0057
 2558SOL    HW119133   2.715   2.607   6.535 -4.0696 -1.5227 -1.3693
 2558SOL    HW219134   2.812   2.568   6.429  1.9149  2.2678 -1.3389
 2559SOL     OW19135   1.744   0.552   6.712  0.2960  0.4444  0.5539
 2559SOL    HW119136   1.779   0.582   6.796  0.5110 -2.3153  1.4358
 2559SOL    HW219137   1.795   0.600   6.647  1.0158  0.6271  1.2630
 2560SOL     OW19138   2.236   4.599  10.841 -0.0524  0.2124 -0.3064
 2560SOL    HW119139   2.180   4.543  10.787 -0.1778  0.5039 -0.4817
 2560SOL    HW219140   2.271   4.654  10.771 -0.0610 -1.2238 -1.4532
 2561SOL     OW19141   0.773   4.291   9.716 -0.2131  0.0334 -0.6839
 2561SOL    HW119142   0.730   4.351   9.656 -1.5323  0.2093  0.4282
 2561SOL    HW219143   0.795   4.354   9.786  1.3952 -3.1047  1.6280
 2562SOL     OW19144   2.682   1.746   6.593 -0.1866 -0.5109  0.2560
 2562SOL    HW119145   2.685   1.823   6.650  0.4932  0.5950 -1.2544
 2562SOL    HW219146   2.597   1.764   6.553  1.0072  1.8697 -1.2135
 2563SOL     OW19147   0.407   0.064   6.090 -0.6451  0.0385 -0.4145
 2563SOL    HW119148   0.312   0.053   6.084 -0.5237 -0.6855 -0.9385
 2563SOL    HW219149   0.442   4.703   6.061  0.5255  0.1088  0.7718
 2564SOL     OW19150   2.222   4.254   3.579  0.0860  0.3907 -0.5525
 2564SOL    HW119151   2.199   4.180   3.635 -0.5563  1.0986  0.1103
 2564SOL    HW219152   2.181   4.229   3.496  2.2461  1.4243 -1.9522
 2565SOL     OW19153   2.672   3.508  12.102 -0.1964  0.1372  0.1979
 2565SOL    HW119154   2.721   3.429  12.079  1.4398  0.8207  1.2448
 2565SOL    HW219155   2.649   3.490  12.193  1.3534 -0.8863  0.3859
 2566SOL     OW19156   0.777   0.028   3.320  0.1768 -0.0652 -0.2849
 2566SOL    HW119157   0.742   0.054   3.405  0.3278 -1.7544  0.2945
 2566SOL    HW219158   0.726   0.075   3.254 -1.4168  1.6052  2.1427
 2567SOL     OW19159   1.380   0.369  12.319  0.5451  0.3484  0.2124
 2567SOL    HW119160   1.462   0.322  12.302  0.3357  0.4419 -1.0742
 2567SOL    HW219161   1.388   0.405  12.407  1.2072 -1.1127  0.7504
 2568SOL     OW19162   1.194   0.311   8.271  0.3901 -0.1451  0.2856
 2568SOL    HW119163   1.177   0.403   8.294  3.6540 -0.2417  3.0839
 2568SOL    HW219164   1.234   0.281   8.352  1.2474  0.9238  0.2478
 2569SOL     OW19165   2.000   1.471  10.255  0.3486 -0.5281 -0.3377
 2569SOL    HW119166   2.042   1.539  10.308  0.5467  0.4743 -1.7639
 2569SOL    HW219167   1.927   1.448  10.313  1.4911 -1.3087  0.7826
 2570SOL     OW19168   0.685   3.143  16.753 -0.7806 -0.5514 -0.2774
 2570SOL    HW119169   0.590   3.133  16.761 -1.1164  0.1166 -3.3793
 2570SOL    HW219170   0.700   3.143  16.659 -1.1217  1.7189 -0.3261
 2571SOL     OW19171   0.105   2.357   7.790 -0.5030  0.3012 -0.3434
 2571SOL    HW119172   0.188   2.353   7.742 -0.0645 -0.5818  0.4985
 2571SOL    HW219173   0.133   2.346   7.881  2.8723  0.6139 -1.3360
 2572SOL     OW19174   0.042   0.466   5.782 -0.0879 -0.2279 -0.1417
 2572SOL    HW119175   0.006   0.460   5.693  2.9402 -0.3809 -1.3888
 2572SOL    HW219176   4.691   0.501   5.830  0.0680  0.2521 -0.2475
 2573SOL     OW19177   4.340   4.073   3.824 -0.5039  0.1390 -0.3655
 2573SOL    HW119178   4.374   4.123   3.750  1.8211  1.5124  1.5972
 2573SOL    HW219179   4.422   4.058   3.872  0.1168  0.5087 -1.3018
 2574SOL     OW19180   0.585   0.144   5.778  0.0404 -0.8105  0.1350
 2574SOL    HW119181   0.600   0.187   5.694 -0.8061  2.4052  1.6101
 2574SOL    HW219182   0.516   0.082   5.754 -0.8741 -0.3170  1.4295
 2575SOL     OW19183   1.531   4.106   4.995 -0.0256 -0.2298 -0.1190
 2575SOL    HW119184   1.590   4.037   4.964  2.1700  1.6648 -0.1294
 2575SOL    HW219185   1.484   4.050   5.056 -0.4419  2.2772  1.8150
 2576SOL     OW19186   1.382   3.291   1.466 -0.0053  0.6315 -0.0944
 2576SOL    HW119187   1.378   3.333   1.380  0.3026 -0.2954 -0.5573
 2576SOL    HW219188   1.347   3.358   1.526  1.8349  2.0873 -0.6500
 2577SOL     OW19189   4.461   1.616   8.771  0.2587  0.6682 -0.5974
 2577SOL    HW119190   4.421   1.688   8.820 -0.7423 -0.0085 -0.4457
 2577SOL    HW219191   4.418   1.536   8.800  0.2823  1.1194  0.7059
 2578SOL     OW19192   1.942   3.274   2.506  0.2003  0.7454 -0.7690
 2578SOL    HW119193   1.942   3.286   2.601  0.1269 -0.2171 -0.6515
 2578SOL    HW219194   1.999   3.346   2.479  0.7221  0.2831 -0.9070
 2579SOL     OW19195   2.015   3.973   8.398 -0.0943 -0.2712 -0.1261
 2579SOL    HW119196   1.962   4.003   8.324 -1.3211 -0.9087  0.4967
 2579SOL    HW219197   1.948   3.922   8.444 -1.2024  0.5505 -0.8229
 2580SOL     OW19198   3.703   2.367   2.317  0.0063  0.5646  0.1875
 2580SOL    HW119199   3.672   2.317   2.393 -0.7992  1.7445  0.6307
 2580SOL    HW219200   3.678   2.302   2.252 -0.6557  0.9196  0.0892
 2581SOL     OW19201   0.687   2.522   3.641  0.3795 -0.1552 -0.2419
 2581SOL    HW119202   0.636   2.563   3.712  1.8079  2.1594 -0.5349
 2581SOL    HW219203   0.741   2.465   3.695  1.5466  1.0097 -0.1960
 2582SOL     OW19204   3.907   3.731   7.085  0.0975 -0.1992 -0.1281
 2582SOL    HW119205   3.945   3.716   7.171  0.2476  0.8350 -0.0167
 2582SOL    HW219206   3.950   3.814   7.064 -1.4851  0.3413 -1.2204
 2583SOL     OW19207   2.600   0.410   9.328  0.2592  0.3376 -0.1085
 2583SOL    HW119208   2.507   0.435   9.333 -0.2080 -1.6150  0.8575
 2583SOL    HW219209   2.620   0.416   9.235  1.9792  2.5121  0.4044
 2584SOL     OW19210   2.658   3.964   8.314 -0.2866  0.1626  0.1939
 2584SOL    HW119211   2.592   3.895   8.319 -0.5612  0.1917 -3.1371
 2584SOL    HW219212   2.607   4.041   8.289 -0.7034 -1.0001 -2.5186
 2585SOL     OW19213   4.011   2.025  15.611  0.1628 -0.2617  0.3131
 2585SOL    HW119214   4.087   2.002  15.557 -0.8351 -0.1901 -1.0966
 2585SOL    HW219215   3.999   2.115  15.582 -1.0554 -0.9778 -1.3794
 2586SOL     OW19216   1.206   0.269  14.067  0.0866  0.2517  0.3537
 2586SOL    HW119217   1.149   0.220  14.007 -1.1400  0.0812  1.6429
 2586SOL    HW219218   1.254   0.198  14.110  0.2345 -0.8531 -1.6554
 2587SOL     OW19219   1.092   2.966  16.294  0.0037  0.0762 -0.7089
 2587SOL    HW119220   1.118   2.873  16.290  2.9935  0.8282  1.3581
 2587SOL    HW219221   1.165   3.007  16.248  0.9396 -0.1826  0.5566
 2588SOL     OW19222   4.603   3.931   7.264 -0.7184  0.0132 -0.3356
 2588SOL    HW119223   4.589   3.848   7.219  1.2684 -1.2907  1.4097
 2588SOL    HW219224   4.558   3.988   7.201 -0.3465  0.1459 -0.4834
 2589SOL     OW19225   0.979   3.561   3.783  0.2822 -0.2250 -0.0473
 2589SOL    HW119226   0.988   3.605   3.699 -0.0786 -0.0814 -0.0094
 2589SOL    HW219227   1.036   3.484   3.778  2.0180  1.0449  0.3761
 2590SOL     OW19228   2.074   4.648   8.156 -0.0324 -0.5953 -0.0470
 2590SOL    HW119229   1.995   4.648   8.211 -0.9582 -1.2030 -1.3978
 2590SOL    HW219230   2.142   4.659   8.222 -1.5920  3.2150  0.9622
 2591SOL     OW19231   1.486   1.795   2.326  0.0792  0.5505 -0.3431
 2591SOL    HW119232   1.545   1.777   2.400 -0.5567  1.0568  0.2872
 2591SOL    HW219233   1.544   1.850   2.273 -1.2272 -1.4178 -3.7737
 2592SOL     OW19234   2.994   3.054  15.322 -0.0465 -0.4203 -0.5395
 2592SOL    HW119235   3.006   3.113  15.396  1.6233 -0.0264 -1.1366
 2592SOL    HW219236   2.916   3.087  15.279 -1.2547 -1.3570  0.9230
 2593SOL     OW19237   3.621   0.916   4.525  0.9825 -0.6041 -0.5108
 2593SOL    HW119238   3.572   0.912   4.607  0.4652 -0.8544 -0.8309
 2593SOL    HW219239   3.551   0.896   4.464 -0.1677 -0.5726  0.7931
 2594SOL     OW19240   3.871   1.804  14.847 -0.1531  0.2667 -0.1753
 2594SOL    HW119241   3.839   1.832  14.761  0.9951  1.6611 -0.1627
 2594SOL    HW219242   3.955   1.850  14.853  0.4853 -0.6557 -2.3263
 2595SOL     OW19243   0.551   4.541  11.176 -0.0916 -0.0916  0.2048
 2595SOL    HW119244   0.611   4.590  11.120  0.0991 -0.4804  0.0688
 2595SOL    HW219245   0.614   4.476  11.207 -0.6019 -1.0198 -0.6862
 2596SOL     OW19246   0.966   2.557   1.627  0.4602  0.8212 -0.1947
 2596SOL    HW119247   0.894   2.499   1.601  3.2104 -2.6182 -0.1909
 2596SOL    HW219248   1.016   2.491   1.676  1.1151  1.7552  0.3881
 2597SOL     OW19249   2.194   3.845  16.448  0.0051  0.1639  0.3123
 2597SOL    HW119250   2.242   3.928  16.451  1.5041 -0.5921 -2.2638
 2597SOL    HW219251   2.152   3.862  16.364 -2.0030  2.2317  1.7562
 2598SOL     OW19252   0.456   3.760   9.580 -0.0991 -0.1702  0.6074
 2598SOL    HW119253   0.446   3.767   9.485 -0.3528  0.1958  0.6616
 2598SOL    HW219254   0.550   3.742   9.588 -0.3128 -1.6122 -0.0343
 2599SOL     OW19255   4.507   1.550   4.573 -0.0851  0.0259 -0.4851
 2599SOL    HW119256   4.507   1.644   4.591  1.7617 -0.2926  1.1592
 2599SOL    HW219257   4.464   1.527   4.656  1.3065 -4.0358 -0.8855
 2600SOL     OW19258   2.176   1.673   0.427 -0.2591 -0.2880 -0.3595
 2600SOL    HW119259   2.190   1.640   0.338  0.4917 -0.2750 -0.2477
 2600SOL    HW219260   2.199   1.597   0.481 -3.3685  1.2952  3.2020
 2601SOL     OW19261   3.986   0.682   4.845  0.0680  0.0122 -0.6252
 2601SOL    HW119262   3.997   0.721   4.932  0.7998 -0.9399 -0.2945
 2601SOL    HW219263   3.893   0.669   4.827 -0.2709  0.7488  0.5658
 2602SOL     OW19264   0.340   2.051   6.158 -0.1471 -0.4426 -0.5545
 2602SOL    HW119265   0.304   1.990   6.093 -0.9017 -0.8302  0.2356
 2602SOL    HW219266   0.330   1.999   6.238  1.9680 -1.7384 -1.1249
 2603SOL     OW19267   2.341   4.405   2.882  0.0847  0.2204 -0.2542
 2603SOL    HW119268   2.416   4.378   2.829  0.2938  0.3402 -0.0228
 2603SOL    HW219269   2.311   4.464   2.814 -1.9188 -2.2751 -1.5174
 2604SOL     OW19270   1.041   0.794   2.952 -0.0123  0.2900 -0.3651
 2604SOL    HW119271   1.082   0.708   2.939 -1.3841 -0.5010  0.5041
 2604SOL    HW219272   1.022   0.814   2.861  0.3370  1.1892 -0.2373
 2605SOL     OW19273   2.974   2.649   1.761 -0.0158 -0.0671 -0.1844
 2605SOL    HW119274   3.033   2.610   1.697 -0.9304  0.0321 -1.0796
 2605SOL    HW219275   2.906   2.584   1.777 -0.0562  0.6491  2.5032
 2606SOL     OW19276   3.921   0.428   1.406  0.1351 -0.2973 -0.5698
 2606SOL    HW119277   3.963   0.513   1.390 -0.2371 -0.0423 -0.2085
 2606SOL    HW219278   3.957   0.377   1.334 -1.5255 -1.7067 -0.3825
 2607SOL     OW19279   4.018   0.152   8.770  0.3819  0.5519  0.3457
 2607SOL    HW119280   4.029   0.243   8.798  1.6755  0.4386  0.1685
 2607SOL    HW219281   4.034   0.107   8.853 -0.3220 -0.2073  0.0744
 2608SOL     OW19282   1.147   2.218   5.939  0.1764 -0.0059 -0.5322
 2608SOL    HW119283   1.203   2.245   6.011 -0.2716  0.3802 -0.3282
 2608SOL    HW219284   1.153   2.123   5.940  2.0545  0.1178 -0.1443
 2609SOL     OW19285   1.406   2.201   2.295  0.6179  0.4299  0.1744
 2609SOL    HW119286   1.439   2.291   2.298 -0.4103  0.9308 -3.1612
 2609SOL    HW219287   1.477   2.159   2.345  2.0715  0.7374 -1.6185
 2610SOL     OW19288   4.568   0.832  14.094 -0.6419 -0.1002 -0.2012
 2610SOL    HW119289   4.592   0.922  14.118  0.2934  0.0685 -1.7672
 2610SOL    HW219290   4.582   0.789  14.178 -2.8109  1.6611  1.0608
 2611SOL     OW19291   1.208   1.707   7.912  0.3361 -0.5889  0.1080
 2611SOL    HW119292   1.125   1.697   7.960  1.0991  1.2743  1.8268
 2611SOL    HW219293   1.252   1.636   7.958  0.2626 -0.3216  0.5961
 2612SOL     OW19294   3.870   0.653  13.312  0.4784  0.4216 -0.2463
 2612SOL    HW119295   3.844   0.657  13.404  0.6282  1.5336 -0.2463
 2612SOL    HW219296   3.844   0.739  13.280 -1.5058 -0.3970 -0.8475
 2613SOL     OW19297   3.899   3.061   8.092 -0.4704 -0.2276 -0.4051
 2613SOL    HW119298   3.941   3.147   8.097  0.1736 -0.5422 -0.3180
 2613SOL    HW219299   3.824   3.079   8.149  0.3635  1.5155  0.1537
 2614SOL     OW19300   3.970   0.435   9.249 -0.1161  0.1980  0.0570
 2614SOL    HW119301   3.947   0.343   9.253 -2.0025  0.7468  1.7381
 2614SOL    HW219302   3.911   0.461   9.178 -0.6249 -1.2316 -0.0311
 2615SOL     OW19303   0.899   0.724  11.738  0.3642  0.4671 -0.1916
 2615SOL    HW119304   0.915   0.658  11.806  0.5051  1.3482  0.6430
 2615SOL    HW219305   0.811   0.757  11.755 -0.4091 -0.7665 -1.8186
 2616SOL     OW19306   0.750   2.638  13.634  0.0882 -0.1389  1.1584
 2616SOL    HW119307   0.805   2.715  13.648  2.8159 -1.6130 -1.5062
 2616SOL    HW219308   0.668   2.667  13.676  0.7182  2.3162  0.6896
 2617SOL     OW19309   3.031   1.317   6.068 -0.0781 -0.4471  0.1563
 2617SOL    HW119310   3.037   1.412   6.078  1.7386 -0.3944 -1.5748
 2617SOL    HW219311   2.938   1.310   6.090 -0.5922 -1.7441 -2.4502
 2618SOL     OW19312   0.631   2.864  10.568  0.1365 -0.3108 -0.7278
 2618SOL    HW119313   0.546   2.834  10.601  1.5833 -2.6709  0.8309
 2618SOL    HW219314   0.612   2.844  10.476  3.5765 -3.8039 -0.6742
 2619SOL     OW19315   0.000   0.310   1.363 -0.1863 -0.2439  0.3013
 2619SOL    HW119316   4.654   0.304   1.428  1.0604 -1.7786  1.4972
 2619SOL    HW219317   0.047   0.228   1.379  2.3119  0.8430 -1.5414
 2620SOL     OW19318   3.572   3.767   8.246  0.6493 -0.1165  0.4257
 2620SOL    HW119319   3.482   3.800   8.253  0.6927  0.9055 -3.8967
 2620SOL    HW219320   3.555   3.688   8.195 -2.8411  0.4649  0.6614
 2621SOL     OW19321   0.151   0.186   7.858  0.3630  0.0310 -0.0823
 2621SOL    HW119322   0.068   0.226   7.883  0.9113 -0.8283  3.0725
 2621SOL    HW219323   0.157   0.111   7.916 -1.5625  0.0390  0.1289
 2622SOL     OW19324   4.114   4.484   9.812 -0.1501  0.0141 -0.3423
 2622SOL    HW119325   4.145   4.451   9.896 -1.2393  2.2386  0.9169
 2622SOL    HW219326   4.194   4.471   9.760 -0.3656 -3.0903  0.1030
 2623SOL     OW19327   2.854   4.465  17.328  0.0244  0.1843  0.6192
 2623SOL    HW119328   2.909   4.414  17.269 -1.5295 -1.1808  0.3261
 2623SOL    HW219329   2.916   4.491  17.396  0.3282 -0.2125  0.4920
 2624SOL     OW19330   4.406   0.062   5.667 -1.0272 -0.3188 -0.5567
 2624SOL    HW119331   4.472   4.717   5.656  0.8766  1.4320 -0.1219
 2624SOL    HW219332   4.324   0.017   5.646 -0.4466 -2.3440  1.5066
 2625SOL     OW19333   4.175   3.613   7.747  0.2860  0.1453  0.2548
 2625SOL    HW119334   4.219   3.697   7.760  1.3589  0.2049 -3.7399
 2625SOL    HW219335   4.222   3.580   7.670 -0.2466  2.2820 -0.9828
 2626SOL     OW19336   2.292   1.925   2.938 -0.3153  0.5543 -0.1145
 2626SOL    HW119337   2.329   2.000   2.893  0.6190  0.4490  0.4819
 2626SOL    HW219338   2.201   1.938   2.909  0.6201  3.6868 -1.6153
 2627SOL     OW19339   1.018   2.258   6.970 -0.0957  0.3637 -0.3724
 2627SOL    HW119340   0.994   2.226   6.883 -1.2401  0.7401 -0.1953
 2627SOL    HW219341   1.091   2.201   6.993  0.0502  2.4032  4.1931
 2628SOL     OW19342   0.802   0.095   6.709  0.6306 -0.1476  0.6796
 2628SOL    HW119343   0.892   0.064   6.710  1.0878  1.1447 -1.5572
 2628SOL    HW219344   0.806   0.134   6.622 -1.2411  0.4110  0.8382
 2629SOL     OW19345   1.769   2.957   4.050 -0.1246 -0.4103  0.7877
 2629SOL    HW119346   1.724   3.034   4.085  1.6066  1.5996 -1.3101
 2629SOL    HW219347   1.783   2.985   3.959 -0.4521  0.9673  1.1529
 2630SOL     OW19348   3.883   4.462   8.357 -0.3997  0.3531 -0.2687
 2630SOL    HW119349   3.921   4.548   8.377  0.9538 -0.5960  1.1592
 2630SOL    HW219350   3.859   4.421   8.440  1.2939 -0.2718 -0.1021
 2631SOL     OW19351   0.105   0.314   3.088 -0.5245  0.1112  0.1566
 2631SOL    HW119352   0.166   0.245   3.114 -1.0368  0.1466  1.4610
 2631SOL    HW219353   0.041   0.266   3.036  1.0990 -1.9412  0.0780
 2632SOL     OW19354   1.042   0.982   4.736  0.0933  0.3021  0.5920
 2632SOL    HW119355   1.027   0.890   4.719  2.2804  0.4295 -2.0299
 2632SOL    HW219356   1.026   0.994   4.830 -3.9551  1.6430 -0.2722
 2633SOL     OW19357   0.421   4.646   5.684  0.1032  0.4657 -0.5675
 2633SOL    HW119358   0.390   4.660   5.594 -1.4764  0.9701  0.0608
 2633SOL    HW219359   0.425   4.551   5.691  0.3821  0.7145  2.5317
 2634SOL     OW19360   4.023   4.570   7.763  0.7754 -0.2638  0.5107
 2634SOL    HW119361   4.076   4.569   7.843  1.7340 -0.0552 -0.1315
 2634SOL    HW219362   3.944   4.524   7.791 -0.8787  1.6858 -0.9908
 2635SOL     OW19363   2.470   0.376   2.379 -0.3523 -0.0537 -0.1349
 2635SOL    HW119364   2.530   0.430   2.327  0.4960 -1.4978 -0.6379
 2635SOL    HW219365   2.443   0.321   2.305 -0.4266  0.5863 -0.5880
 2636SOL     OW19366   2.264   3.296   7.789  0.4468  0.4435 -0.0056
 2636SOL    HW119367   2.193   3.248   7.831  0.7864  0.7597  0.9373
 2636SOL    HW219368   2.314   3.223   7.751  1.7424  1.3369 -0.0274
 2637SOL     OW19369   0.953   0.018   2.297 -0.2423 -0.7260 -0.2145
 2637SOL    HW119370   1.004   0.099   2.305 -2.8676  0.8492  0.9189
 2637SOL    HW219371   0.910   0.024   2.211 -1.9540  2.0373  0.8092
 2638SOL     OW19372   2.451   3.070   8.001 -0.4470  0.5676  0.0259
 2638SOL    HW119373   2.483   3.148   7.956 -1.0458  0.1095 -1.1937
 2638SOL    HW219374   2.366   3.060   7.957 -1.1132  0.6295  1.3001
 2639SOL     OW19375   0.823   0.076  16.002  0.1557 -0.7012 -0.7146
 2639SOL    HW119376   0.771   0.060  15.923 -3.5641  0.4375  1.5216
 2639SOL    HW219377   0.832   0.171  15.992  0.1527 -0.4501  1.7622
 2640SOL     OW19378   0.121   2.907   7.894 -0.1106 -0.2175 -0.5854
 2640SOL    HW119379   0.171   2.932   7.816  0.5706 -0.0435 -0.0894
 2640SOL    HW219380   0.033   2.906   7.856  0.2462  0.1509 -1.4196
 2641SOL     OW19381   3.624   2.342   4.435 -0.2246 -0.0506 -0.1347
 2641SOL    HW119382   3.658   2.406   4.498  0.9856 -1.6739  0.8724
 2641SOL    HW219383   3.653   2.380   4.353  0.9111  0.5138  0.5176
 2642SOL     OW19384   2.571   2.339  10.902 -0.4588  0.2562  0.0020
 2642SOL    HW119385   2.586   2.250  10.935  1.8965  0.8891  0.6617
 2642SOL    HW219386   2.489   2.322  10.857  0.8398 -1.8447 -1.5838
 2643SOL     OW19387   3.171   2.613   4.441  0.3090  0.5689  0.1915
 2643SOL    HW119388   3.208   2.538   4.394 -0.9066  0.8098 -1.1255
 2643SOL    HW219389   3.243   2.620   4.504 -0.7474 -0.6127  1.5446
 2644SOL     OW19390   3.295   0.281  12.810  0.0594 -0.1548  0.1673
 2644SOL    HW119391   3.222   0.304  12.867  0.7443 -0.4495  1.1805
 2644SOL    HW219392   3.328   0.371  12.804  0.7516 -0.4749 -0.7836
 2645SOL     OW19393   3.097   1.228   6.966  0.0237  0.6729 -0.4595
 2645SOL    HW119394   3.124   1.242   7.056 -0.1685  1.4766 -0.5273
 2645SOL    HW219395   3.181   1.244   6.922 -0.2861 -0.3561 -1.4308
 2646SOL     OW19396   2.027   3.656  14.605 -0.7806 -0.4107 -0.8278
 2646SOL    HW119397   1.935   3.643  14.625 -0.5237 -0.0177  0.6401
 2646SOL    HW219398   2.070   3.670  14.690 -1.8505  1.6484 -0.6324
 2647SOL     OW19399   3.483   3.929   0.021 -0.0397 -0.2425  0.2535
 2647SOL    HW119400   3.415   3.959  17.658  0.3047 -1.8255 -0.9481
 2647SOL    HW219401   3.524   3.863  17.661  1.8113 -0.1444  1.4670
 2648SOL     OW19402   0.929   2.597  10.198 -0.4250  0.1593 -0.0829
 2648SOL    HW119403   0.923   2.562  10.109 -2.8236  0.5492 -0.0915
 2648SOL    HW219404   0.843   2.639  10.207 -0.8631 -0.9816  1.0713
 2649SOL     OW19405   1.367   0.658   5.053 -0.1495 -0.5061  0.2008
 2649SOL    HW119406   1.293   0.699   5.100  0.3194 -1.7994  2.0536
 2649SOL    HW219407   1.406   0.593   5.111 -0.1808 -0.9226 -0.2481
 2650SOL     OW19408   4.516   3.884   7.766 -0.0037  1.0221 -0.4945
 2650SOL    HW119409   4.513   3.788   7.767  1.4002  1.0177  1.4825
 2650SOL    HW219410   4.514   3.911   7.674  0.5365 -0.1751 -0.8541
 2651SOL     OW19411   3.756   0.515   1.605 -0.8714 -0.4909 -0.6559
 2651SOL    HW119412   3.801   0.508   1.521 -0.6161 -1.7978 -0.4189
 2651SOL    HW219413   3.686   0.452   1.592 -1.0474 -0.4290 -0.0101
 2652SOL     OW19414   3.698   4.411   3.675  0.5555 -1.4315  0.1507
 2652SOL    HW119415   3.692   4.346   3.606  0.7809  0.9081 -2.0527
 2652SOL    HW219416   3.794   4.412   3.681  0.5665 -2.0821  0.0789
 2653SOL     OW19417   1.098   1.683  16.091 -0.0302  0.3299 -0.0005
 2653SOL    HW119418   1.171   1.625  16.071 -2.0741 -1.8060 -1.2124
 2653SOL    HW219419   1.024   1.639  16.048  0.8630 -2.3801  1.2525
 2654SOL     OW19420   0.043   0.990   6.106  0.4619  0.1923 -0.1676
 2654SOL    HW119421   0.012   1.080   6.101 -0.2722 -0.0323  0.3879
 2654SOL    HW219422   4.693   0.946   6.150  0.7223 -0.9159 -0.8422
 2655SOL     OW19423   3.649   0.640   5.663 -0.2867  0.1155 -0.0145
 2655SOL    HW119424   3.602   0.716   5.697 -2.2457 -2.1176  2.2831
 2655SOL    HW219425   3.670   0.652   5.571  0.0703  0.1178  0.0682
 2656SOL     OW19426   2.738   0.898   5.660  0.0196 -0.1325 -0.0990
 2656SOL    HW119427   2.825   0.858   5.655 -0.9630 -2.5469  1.9559
 2656SOL    HW219428   2.724   0.899   5.755 -0.9997 -1.6455 -0.2185
 2657SOL     OW19429   1.688   3.724  14.333  0.4859 -0.2371 -0.4854
 2657SOL    HW119430   1.594   3.742  14.330 -0.0305 -2.7588  1.5831
 2657SOL    HW219431   1.698   3.663  14.260  0.2480  0.4388 -1.0855
 2658SOL     OW19432   2.561   3.630   1.953  0.8239  0.3441  0.1603
 2658SOL    HW119433   2.593   3.700   1.896 -0.1773  0.0608 -0.7516
 2658SOL    HW219434   2.618   3.651   2.026  0.7430  1.6592 -0.1602
 2659SOL     OW19435   3.056   2.696   9.257  0.2429 -0.0659  0.0824
 2659SOL    HW119436   3.134   2.689   9.203 -0.2919 -2.7075 -0.3520
 2659SOL    HW219437   2.990   2.695   9.187  1.1874 -0.7581 -0.8034
 2660SOL     OW19438   3.222   0.668   6.883 -0.1839 -0.2637 -0.0825
 2660SOL    HW119439   3.147   0.682   6.940  0.0009  1.2786 -0.2414
 2660SOL    HW219440   3.296   0.710   6.925 -2.7106  3.7268  0.3002
 2661SOL     OW19441   4.092   2.362  13.026 -0.4034  0.1320 -0.4799
 2661SOL    HW119442   4.073   2.322  12.942  0.2268 -2.0604  0.4240
 2661SOL    HW219443   4.013   2.347  13.077  1.0920  2.2141  2.4811
 2662SOL     OW19444   2.332   1.397  11.292 -0.4459 -0.4896 -0.1778
 2662SOL    HW119445   2.240   1.387  11.315 -0.2658  0.7123  1.1211
 2662SOL    HW219446   2.324   1.438  11.206 -1.4314 -2.3899 -0.9824
 2663SOL     OW19447   3.385   0.903  17.115  0.4525 -0.0122 -0.4073
 2663SOL    HW119448   3.456   0.962  17.088  0.2519 -0.7027 -2.4774
 2663SOL    HW219449   3.386   0.947  17.200  0.4761 -1.9539  0.5747
 2664SOL     OW19450   4.180   0.870   7.020 -0.1610 -1.1314  0.0876
 2664SOL    HW119451   4.146   0.906   7.102  0.1611 -4.8336  1.7987
 2664SOL    HW219452   4.227   0.792   7.048 -0.6374 -0.5865  2.4378
 2665SOL     OW19453   3.864   0.356   6.992  0.4992 -0.2660 -0.6831
 2665SOL    HW119454   3.920   0.319   6.923  1.3504  0.0550 -0.1561
 2665SOL    HW219455   3.929   0.401   7.045 -0.3552 -0.8054  0.8224
 2666SOL     OW19456   0.780   1.205   4.882  0.0177  0.2496 -0.2906
 2666SOL    HW119457   0.781   1.126   4.829  0.2359  1.3101 -1.8558
 2666SOL    HW219458   0.741   1.165   4.960  0.0473 -0.3085 -0.5649
 2667SOL     OW19459   3.038   3.059  15.854 -0.2181 -0.3809  0.4825
 2667SOL    HW119460   2.981   3.112  15.798 -2.3289 -0.4797  2.5390
 2667SOL    HW219461   3.117   3.114  15.857  0.4975 -1.2721 -2.2059
 2668SOL     OW19462   0.391   0.330   6.875  0.2813 -0.0591 -0.6914
 2668SOL    HW119463   0.469   0.358   6.829  1.3625 -1.1833  0.4572
 2668SOL    HW219464   0.325   0.397   6.856 -1.3918 -2.0381 -1.9641
 2669SOL     OW19465   0.788   2.135   3.371  0.2516  0.1160  0.2869
 2669SOL    HW119466   0.725   2.190   3.418  1.1015  1.1498  0.2034
 2669SOL    HW219467   0.748   2.047   3.370  0.8864 -0.1752  0.5044
 2670SOL     OW19468   1.998   1.426  10.972  0.2792 -0.0904 -0.0820
 2670SOL    HW119469   2.009   1.496  10.908  2.1666  0.0246  0.3698
 2670SOL    HW219470   2.084   1.425  11.013  1.0056 -1.0630 -1.6123
 2671SOL     OW19471   2.491   0.451   9.679  0.3527 -0.1679 -0.3399
 2671SOL    HW119472   2.516   0.366   9.713 -0.2830 -0.9801 -1.9165
 2671SOL    HW219473   2.568   0.507   9.695 -0.3793  0.7706 -0.0799
 2672SOL     OW19474   2.000   3.821   5.833  0.2216 -0.1018 -0.1013
 2672SOL    HW119475   2.086   3.794   5.802  0.5072  0.2805  0.3641
 2672SOL    HW219476   2.026   3.896   5.886 -0.9873 -0.0897  0.4685
 2673SOL     OW19477   4.449   3.094  17.673  0.7634  0.1542  0.7541
 2673SOL    HW119478   4.545   3.093  17.680  0.6819 -2.9891  1.1119
 2673SOL    HW219479   4.440   3.093  17.578  0.2996 -0.7538  0.8073
 2674SOL     OW19480   2.836   3.301   4.805 -0.4641  0.1474 -0.3503
 2674SOL    HW119481   2.782   3.368   4.847 -1.3412 -0.4348 -0.5462
 2674SOL    HW219482   2.916   3.336   4.843 -1.8066  0.0808  2.5130
 2675SOL     OW19483   1.432   3.928  14.724  0.4033 -0.2255  0.8810
 2675SOL    HW119484   1.503   3.935  14.660  0.6278 -2.2555  0.9377
 2675SOL    HW219485   1.440   4.017  14.758  0.9116 -0.9576  2.6448
 2676SOL     OW19486   0.609   2.615   9.971 -0.1308 -0.0744 -0.3173
 2676SOL    HW119487   0.641   2.642  10.057  0.9589 -3.1904  0.2427
 2676SOL    HW219488   0.637   2.524   9.962 -0.8249 -0.2657 -0.5818
 2677SOL     OW19489   3.440   3.053   6.788  0.5388  0.4342  0.0146
 2677SOL    HW119490   3.456   3.045   6.694  0.4255 -0.7100  0.0852
 2677SOL    HW219491   3.418   2.965   6.818 -0.2229  1.3152  2.0231
 2678SOL     OW19492   1.795   0.152  15.071 -0.3646  0.3700  0.1500
 2678SOL    HW119493   1.852   0.219  15.110  0.5580 -1.2936  1.6630
 2678SOL    HW219494   1.725   0.145  15.136  2.1439 -3.0164  2.5079
 2679SOL     OW19495   3.857   0.459   9.815 -0.3783  0.1982  0.1576
 2679SOL    HW119496   3.929   0.521   9.804  1.3358 -1.5830  1.2879
 2679SOL    HW219497   3.880   0.400   9.744 -1.4987 -1.0003  0.7891
 2680SOL     OW19498   1.227   0.254   1.828 -0.2764  0.5791  0.1737
 2680SOL    HW119499   1.132   0.268   1.818 -0.1657 -1.8380 -4.4308
 2680SOL    HW219500   1.241   0.310   1.904  3.4433 -1.6698  1.1333
 2681SOL     OW19501   0.258   1.085   5.773 -0.3052  0.0122  0.1665
 2681SOL    HW119502   0.333   1.086   5.714 -0.8968  1.0403 -0.5636
 2681SOL    HW219503   0.257   0.989   5.783 -1.2620  0.2820  2.5123
 2682SOL     OW19504   2.627   3.428  10.439 -0.0390  0.3601 -0.1918
 2682SOL    HW119505   2.690   3.500  10.429 -1.7792  1.7284 -1.1077
 2682SOL    HW219506   2.581   3.434  10.355  0.8373  1.5712 -0.6015
 2683SOL     OW19507   0.450   1.085   7.889  0.1179  0.2159 -0.3277
 2683SOL    HW119508   0.473   1.110   7.799 -1.5645  0.6481 -0.6359
 2683SOL    HW219509   0.488   1.163   7.930 -2.1463 -0.2209  2.6176
 2684SOL     OW19510   3.626   4.456   6.232  0.2753 -0.3660 -0.5053
 2684SOL    HW119511   3.709   4.503   6.241  0.4408 -0.8641  0.5389
 2684SOL    HW219512   3.563   4.529   6.231  0.3182 -0.3180  0.8629
 2685SOL     OW19513   2.998   0.260   3.328  0.5567  0.1014  0.1435
 2685SOL    HW119514   3.004   0.192   3.261 -0.1139  0.1982 -0.0172
 2685SOL    HW219515   2.912   0.242   3.365  0.9932  0.5746  1.3782
 2686SOL     OW19516   0.173   1.931  11.694 -0.2041  0.2566 -0.3933
 2686SOL    HW119517   0.246   1.978  11.733 -1.1092  2.1334 -0.9538
 2686SOL    HW219518   0.137   1.897  11.776 -2.4587  2.3244 -0.5307
 2687SOL     OW19519   2.897   0.803  12.729  0.1313 -0.0730  0.7922
 2687SOL    HW119520   2.949   0.837  12.656  1.1817 -0.8714  1.1786
 2687SOL    HW219521   2.954   0.728  12.743 -0.8465 -0.6757  1.5553
 2688SOL     OW19522   2.728   0.208   2.532  0.1369  0.2819 -0.1953
 2688SOL    HW119523   2.686   0.206   2.618  1.3045 -0.6465  0.3629
 2688SOL    HW219524   2.772   0.293   2.540 -1.8318  1.0445  2.5130
 2689SOL     OW19525   0.397   2.412   4.892 -0.0617  0.5021 -0.2092
 2689SOL    HW119526   0.396   2.507   4.884 -0.4136  0.5817  0.8170
 2689SOL    HW219527   0.322   2.380   4.842  0.5269  0.4603 -1.0784
 2690SOL     OW19528   3.815   0.907  17.138  0.0399 -0.6663  0.0767
 2690SOL    HW119529   3.844   0.842  17.074 -0.8110  0.1181 -1.1259
 2690SOL    HW219530   3.887   0.924  17.198 -0.6312  0.7109  0.5108
 2691SOL     OW19531   1.510   4.717  12.379 -0.4246  0.4214 -0.0871
 2691SOL    HW119532   1.567   4.689  12.450  0.2609  0.9904 -0.4085
 2691SOL    HW219533   1.434   4.669  12.412  0.3897 -1.9160 -1.5735
 2692SOL     OW19534   2.841   4.239  15.680 -0.3384  0.7320  0.1071
 2692SOL    HW119535   2.748   4.250  15.662  0.1155  1.9207 -1.5133
 2692SOL    HW219536   2.872   4.320  15.640 -1.6462 -0.6283 -3.6711
 2693SOL     OW19537   1.139   1.591   0.197  0.0292  0.1022  0.2696
 2693SOL    HW119538   1.230   1.567   0.210 -0.3059 -1.3386 -0.0454
 2693SOL    HW219539   1.140   1.581   0.101 -0.3494  2.4283  0.0018
 2694SOL     OW19540   2.841   0.560   3.442 -0.2238  0.2045 -0.0448
 2694SOL    HW119541   2.762   0.526   3.484 -1.4524 -0.0469 -2.5456
 2694SOL    HW219542   2.851   0.507   3.362 -0.6419  1.2339 -0.7873
 2695SOL     OW19543   1.369   1.492   4.247 -0.5619 -0.2249 -0.3417
 2695SOL    HW119544   1.390   1.566   4.190 -1.4969  0.8041  0.6325
 2695SOL    HW219545   1.273   1.497   4.247 -0.6927 -3.0403  1.1174
 2696SOL     OW19546   2.826   3.313   2.010  0.3644 -0.3140  0.1861
 2696SOL    HW119547   2.736   3.300   2.038 -0.4672 -0.4952 -2.5022
 2696SOL    HW219548   2.828   3.259   1.931  0.5466 -0.9465  0.6324
 2697SOL     OW19549   1.279   1.456   1.398 -0.5539 -0.0202 -0.1493
 2697SOL    HW119550   1.210   1.394   1.421  0.1752 -0.6956  0.2049
 2697SOL    HW219551   1.323   1.419   1.321  1.8216  0.0366  1.1756
 2698SOL     OW19552   0.437   1.154   4.381 -0.5721 -0.0190  0.2229
 2698SOL    HW119553   0.446   1.155   4.476 -2.0327 -0.5223  0.3753
 2698SOL    HW219554   0.377   1.079   4.377  0.7264 -1.2068  3.1596
 2699SOL     OW19555   0.738   3.334  15.019  0.7525  0.1724  0.1010
 2699SOL    HW119556   0.644   3.354  15.022  0.6967  0.2315 -1.9464
 2699SOL    HW219557   0.732   3.239  15.026 -2.3764  0.4815  1.5677
 2700SOL     OW19558   3.969   0.479   5.445 -0.0475  0.2279  0.0053
 2700SOL    HW119559   4.035   0.430   5.495 -1.1455 -0.2553  0.9881
 2700SOL    HW219560   3.988   0.455   5.355  1.5862  0.5566  0.2575
 2701SOL     OW19561   3.530   0.793   2.945  0.2285 -0.6062 -0.0382
 2701SOL    HW119562   3.550   0.742   3.023  2.2925 -0.1076 -0.2452
 2701SOL    HW219563   3.540   0.727   2.876  0.7690  0.6832 -1.1894
 2702SOL     OW19564   2.479   3.794   6.350  0.2662  0.8323 -0.5064
 2702SOL    HW119565   2.530   3.871   6.374 -0.8465  1.7891 -1.1958
 2702SOL    HW219566   2.494   3.731   6.421  3.7892 -0.5634 -2.4855
 2703SOL     OW19567   0.910   2.594   8.282 -0.2603  0.3708 -0.0584
 2703SOL    HW119568   0.920   2.600   8.377  0.4723 -1.2387 -0.0288
 2703SOL    HW219569   0.818   2.615   8.268 -1.2552 -2.9635  1.4444
 2704SOL     OW19570   2.277   2.909   2.888 -0.1291  0.2656  0.2136
 2704SOL    HW119571   2.322   2.964   2.952 -0.9078  1.5607 -0.3569
 2704SOL    HW219572   2.187   2.940   2.885 -0.3388 -0.3383  0.2767
 2705SOL     OW19573   1.674   1.154  11.425  0.1956  0.1877  0.0621
 2705SOL    HW119574   1.699   1.188  11.339  1.1873  0.2761  0.3869
 2705SOL    HW219575   1.617   1.079  11.410 -1.0170  1.0348  0.4525
 2706SOL     OW19576   2.419   2.058   0.386  0.2950 -0.2506 -0.6116
 2706SOL    HW119577   2.435   2.019   0.300  2.1102  0.5018 -0.6273
 2706SOL    HW219578   2.344   2.006   0.413  1.3217  0.4856  3.6312
 2707SOL     OW19579   2.822   3.206   7.750 -0.0541  0.1549 -0.5859
 2707SOL    HW119580   2.730   3.226   7.767  0.1613  2.2358 -1.7891
 2707SOL    HW219581   2.852   3.276   7.691  0.1950 -0.6982 -1.4797
 2708SOL     OW19582   3.806   2.107   2.734 -0.1074  0.0329 -0.4427
 2708SOL    HW119583   3.780   2.135   2.821 -0.1539  2.1398 -1.1293
 2708SOL    HW219584   3.831   2.186   2.686  1.4111 -0.8175 -1.0834
 2709SOL     OW19585   2.438   0.540   8.261  0.2550  0.1996 -0.2356
 2709SOL    HW119586   2.366   0.485   8.233  0.9497 -1.0586  0.4234
 2709SOL    HW219587   2.463   0.490   8.339  2.2069  0.2526 -0.8079
 2710SOL     OW19588   3.051   2.409  12.489  0.1611 -0.1612  0.1925
 2710SOL    HW119589   3.126   2.424  12.432 -0.0385  1.2073  0.3061
 2710SOL    HW219590   3.096   2.411  12.574  0.6996  0.1409 -0.0994
 2711SOL     OW19591   1.819   1.509   4.758  0.0168  0.1332  0.1230
 2711SOL    HW119592   1.841   1.419   4.782  2.7669  1.4461  2.5834
 2711SOL    HW219593   1.902   1.553   4.779 -1.0069  3.0619 -1.9049
 2712SOL     OW19594   2.766   0.110  15.256 -0.4231 -0.1468  0.0295
 2712SOL    HW119595   2.730   0.195  15.234  0.3744  0.3393  0.6070
 2712SOL    HW219596   2.763   0.065  15.172  3.1672  0.7785 -0.6065
 2713SOL     OW19597   3.220   0.158   1.808 -0.1266 -0.7223 -0.4222
 2713SOL    HW119598   3.145   0.099   1.816  0.4179 -1.2745  0.6102
 2713SOL    HW219599   3.266   0.126   1.730 -0.5388  0.4295 -1.1372
 2714SOL     OW19600   3.124   4.660  10.543  0.0527 -0.4532 -0.1404
 2714SOL    HW119601   3.156   4.574  10.518 -0.6592 -0.0053 -2.6113
 2714SOL    HW219602   3.188   4.711  10.494 -1.2954  0.5029 -0.9323
 2715SOL     OW19603   3.325   1.000  11.529  0.0502  0.1662 -0.3041
 2715SOL    HW119604   3.287   1.087  11.522 -2.2846 -0.7476  1.1016
 2715SOL    HW219605   3.243   0.953  11.516  0.1074 -0.7426  2.6836
 2716SOL     OW19606   0.395   3.728   6.380 -0.0876  0.4847  0.1182
 2716SOL    HW119607   0.399   3.636   6.354 -0.4033  1.0241 -1.8356
 2716SOL    HW219608   0.464   3.768   6.327  0.2293  2.5563  2.0918
 2717SOL     OW19609   0.877   0.221   2.126  0.0775  0.7925  0.0891
 2717SOL    HW119610   0.898   0.186   2.040 -2.2218  0.4869 -0.3617
 2717SOL    HW219611   0.907   0.311   2.117 -1.0064  1.2432  1.0011
 2718SOL     OW19612   3.352   0.301  17.107  0.1935  0.1217  0.0440
 2718SOL    HW119613   3.285   0.358  17.067  0.7954 -0.2262 -1.4649
 2718SOL    HW219614   3.301   0.258  17.176 -0.5178  0.4710 -0.2536
 2719SOL     OW19615   1.034   3.534   8.660  0.2151  0.6566 -0.2214
 2719SOL    HW119616   1.097   3.463   8.643  0.0258  0.6092 -0.7239
 2719SOL    HW219617   1.050   3.532   8.755  0.7048  0.3367 -0.3068
 2720SOL     OW19618   4.482   2.515   8.051  1.1689  0.0263  0.7316
 2720SOL    HW119619   4.565   2.468   8.059 -0.2692 -2.0374  3.3729
 2720SOL    HW219620   4.483   2.515   7.955 -1.5148 -1.8934  0.7065
 2721SOL     OW19621   3.026   3.600   6.457  0.3478 -0.3403 -0.2571
 2721SOL    HW119622   3.108   3.553   6.464 -0.5019 -2.1404 -2.3158
 2721SOL    HW219623   3.006   3.593   6.550  0.1682  0.4547 -0.2388
 2722SOL     OW19624   2.396   2.673   2.975 -0.5705  0.3644 -0.0786
 2722SOL    HW119625   2.341   2.719   2.911  0.0558  0.4145 -0.5891
 2722SOL    HW219626   2.413   2.736   3.045  0.0116  1.0993 -0.8844
 2723SOL     OW19627   0.897   0.139  10.712  0.1359 -0.3616 -0.1442
 2723SOL    HW119628   0.885   0.226  10.749  1.1593 -0.1254 -0.3594
 2723SOL    HW219629   0.928   0.088  10.788 -0.9879 -2.7863 -1.3102
 2724SOL     OW19630   0.400   0.272  11.524 -0.8035  0.7108 -0.2407
 2724SOL    HW119631   0.311   0.304  11.538 -0.2139  1.4632  1.8920
 2724SOL    HW219632   0.428   0.347  11.471  1.1759  0.8635  0.9988
 2725SOL     OW19633   4.166   3.518   6.011  0.1833  0.4384 -0.3184
 2725SOL    HW119634   4.227   3.445   6.008 -0.3051 -0.0292  1.0875
 2725SOL    HW219635   4.090   3.472   5.977 -0.8391  1.1634  0.9907
 2726SOL     OW19636   2.360   2.975  10.335  0.4548 -0.1624  1.1346
 2726SOL    HW119637   2.336   3.067  10.339  2.1790  0.2836  1.3895
 2726SOL    HW219638   2.435   2.971  10.395 -2.0698  3.2106  4.4946
 2727SOL     OW19639   0.436   3.970   8.132  0.1433 -0.7956 -0.2635
 2727SOL    HW119640   0.470   3.968   8.222 -0.5808 -0.1909  0.0157
 2727SOL    HW219641   0.394   4.055   8.125  0.9279 -0.1492  2.7869
 2728SOL     OW19642   1.758   0.613   5.202  0.5948 -0.6753 -0.3518
 2728SOL    HW119643   1.819   0.540   5.189  1.2714 -0.0344 -0.7307
 2728SOL    HW219644   1.747   0.646   5.113 -0.7560  2.1910  0.8626
 2729SOL     OW19645   4.594   0.669   6.903  0.4030  0.0767 -0.1537
 2729SOL    HW119646   4.677   0.629   6.928  0.6430 -1.1833 -3.0115
 2729SOL    HW219647   4.587   0.739   6.969  1.3128  0.1391 -0.1329
 2730SOL     OW19648   3.756   0.193   6.200  0.2947 -0.4908 -0.2661
 2730SOL    HW119649   3.823   0.141   6.244  0.4175  0.0510  0.1814
 2730SOL    HW219650   3.686   0.182   6.263 -0.6511  2.6983 -0.8072
 2731SOL     OW19651   0.571   2.555   7.780 -0.0208 -0.6177  0.0398
 2731SOL    HW119652   0.585   2.501   7.858  0.3561 -0.7471 -0.1173
 2731SOL    HW219653   0.662   2.583   7.768  0.1165 -1.2362 -0.3610
 2732SOL     OW19654   1.105   0.212   4.374 -0.1026 -0.3166 -0.0657
 2732SOL    HW119655   1.199   0.223   4.385 -0.2289 -0.1995  0.8850
 2732SOL    HW219656   1.103   0.188   4.281 -0.1469  1.2226 -0.4716
 2733SOL     OW19657   2.537   3.635   2.285 -0.1731  0.8015 -0.8509
 2733SOL    HW119658   2.617   3.671   2.246  1.5906 -1.8640  0.2370
 2733SOL    HW219659   2.568   3.578   2.356 -1.2859  0.1530 -0.8983
 2734SOL     OW19660   2.631   2.119   5.749  0.3805 -0.0325  0.0084
 2734SOL    HW119661   2.571   2.125   5.823 -0.3294  0.8764 -0.6297
 2734SOL    HW219662   2.707   2.105   5.805  1.2648 -0.4080 -1.2832
 2735SOL     OW19663   4.521   4.335   0.888  0.8007  0.6911  0.2922
 2735SOL    HW119664   4.587   4.355   0.822 -0.1293  2.3084 -0.1461
 2735SOL    HW219665   4.571   4.263   0.926  0.0323 -0.1209 -0.2574
 2736SOL     OW19666   2.648   0.348   6.089 -0.5788  0.5475  0.4260
 2736SOL    HW119667   2.675   0.438   6.071 -0.9693  0.6462  0.3439
 2736SOL    HW219668   2.656   0.316   6.000 -2.1719  0.8514  0.1707
 2737SOL     OW19669   0.950   2.919  15.771  0.1894  0.0644 -0.1056
 2737SOL    HW119670   0.912   2.970  15.843  3.3566  0.3423  1.3942
 2737SOL    HW219671   1.042   2.935  15.794  0.1219 -1.7734  1.4264
 2738SOL     OW19672   1.905   2.736   1.223 -0.0591  0.2168  0.1085
 2738SOL    HW119673   1.887   2.719   1.131  1.3600  0.7452 -0.2574
 2738SOL    HW219674   1.905   2.647   1.260 -3.1117  1.3067  2.7502
 2739SOL     OW19675   3.054   4.319  13.530  0.0666 -0.0646  0.2937
 2739SOL    HW119676   3.035   4.360  13.446 -0.2515 -0.0533  0.3689
 2739SOL    HW219677   3.114   4.248  13.510 -0.6723 -0.2621 -1.2357
 2740SOL     OW19678   1.936   1.849  10.073 -0.6202 -0.8815 -0.6465
 2740SOL    HW119679   1.903   1.937  10.094  1.4582  0.2216 -2.0462
 2740SOL    HW219680   1.857   1.806  10.039 -2.0718  1.0330  0.3066
 2741SOL     OW19681   0.126   0.987  12.939 -1.3338 -0.5144  0.1032
 2741SOL    HW119682   0.126   0.931  13.017  3.9490 -0.8112 -0.1321
 2741SOL    HW219683   0.173   1.060  12.978  1.5352 -1.7671 -1.0520
 2742SOL     OW19684   4.473   0.488   4.895 -0.6257 -0.2339  0.2258
 2742SOL    HW119685   4.452   0.455   4.982 -0.4219 -0.1809  0.2964
 2742SOL    HW219686   4.486   0.410   4.841 -0.0653  1.1881 -1.7302
 2743SOL     OW19687   2.907   1.556   8.359  0.7516  0.1797  0.0986
 2743SOL    HW119688   2.941   1.487   8.302  0.3161 -0.8063  1.0354
 2743SOL    HW219689   2.972   1.626   8.351 -1.1570  1.6333 -2.8361
 2744SOL     OW19690   0.994   1.548  10.527  0.1997 -0.6029 -0.1516
 2744SOL    HW119691   0.911   1.592  10.546  0.2961 -0.0931 -0.9447
 2744SOL    HW219692   1.024   1.514  10.612  0.4357 -2.3147 -0.9213
 2745SOL     OW19693   3.737   4.227   1.103 -0.4849  0.7365  0.0169
 2745SOL    HW119694   3.786   4.201   1.024 -1.2300 -1.2453  0.2126
 2745SOL    HW219695   3.673   4.269   1.046  1.6765  0.6011 -2.5537
 2746SOL     OW19696   3.429   1.298   5.195 -0.7363 -0.1104 -0.3399
 2746SOL    HW119697   3.505   1.346   5.160  0.3859 -0.9386  0.9512
 2746SOL    HW219698   3.446   1.223   5.138  1.2225  0.0869 -0.0117
 2747SOL     OW19699   1.385   1.135  11.619 -0.6645  0.7443 -0.1394
 2747SOL    HW119700   1.462   1.192  11.611 -0.5538  0.8089  1.5087
 2747SOL    HW219701   1.384   1.076  11.543  1.2983  1.3592 -0.6508
 2748SOL     OW19702   4.637   3.316   5.103 -0.3390  0.2079  0.4127
 2748SOL    HW119703   4.577   3.390   5.104 -0.6351 -0.0384  0.8202
 2748SOL    HW219704   4.599   3.275   5.025  2.1049 -0.3448 -0.5064
 2749SOL     OW19705   2.901   1.099   2.892  0.2380 -0.1580  0.5023
 2749SOL    HW119706   2.818   1.142   2.871  2.2788  1.4553 -4.3553
 2749SOL    HW219707   2.867   1.017   2.928  0.8500 -0.6203  0.0228
 2750SOL     OW19708   3.227   4.023   7.666  0.0206  0.2004 -0.6783
 2750SOL    HW119709   3.264   4.001   7.581  1.7986  0.9044 -0.0807
 2750SOL    HW219710   3.170   3.946   7.675 -2.3611  2.2470  1.8584
 2751SOL     OW19711   2.290   0.116   7.725 -0.1057 -0.0511  0.1224
 2751SOL    HW119712   2.249   0.135   7.809  1.1921 -2.9388  1.3952
 2751SOL    HW219713   2.384   0.112   7.742  0.3227 -1.0237 -2.3847
 2752SOL     OW19714   3.147   4.089  16.441 -0.4745 -0.0339 -0.1083
 2752SOL    HW119715   3.124   3.997  16.453  1.3347 -0.2847  1.2923
 2752SOL    HW219716   3.182   4.082  16.352 -0.8267  0.5078 -0.2915
 2753SOL     OW19717   4.000   1.831  16.163 -0.6448  0.3410  0.0091
 2753SOL    HW119718   3.981   1.748  16.118  1.5532  0.0615 -0.4176
 2753SOL    HW219719   3.911   1.865  16.172  0.1416  1.5856  3.0071
 2754SOL     OW19720   0.899   0.798  16.596 -0.1820  0.3691 -0.4797
 2754SOL    HW119721   0.826   0.821  16.653  0.0442 -3.2234  1.2478
 2754SOL    HW219722   0.956   0.763  16.665 -2.3669 -0.5305  0.8957
 2755SOL     OW19723   1.536   0.991   3.156 -0.0405 -0.3853 -0.0157
 2755SOL    HW119724   1.604   1.047   3.193  2.4492 -2.5294 -1.3506
 2755SOL    HW219725   1.556   0.901   3.183 -1.0625 -0.3277  0.9230
 2756SOL     OW19726   0.110   0.985   5.487 -0.4359  0.3975  0.2879
 2756SOL    HW119727   0.120   1.067   5.536  0.8014 -0.0199  0.7262
 2756SOL    HW219728   0.099   0.917   5.554 -0.9338 -0.9395 -1.1710
 2757SOL     OW19729   1.449   2.566  10.184 -0.0614  0.2750  0.2517
 2757SOL    HW119730   1.358   2.572  10.212 -0.3104 -3.5881  0.3507
 2757SOL    HW219731   1.451   2.623  10.107 -1.3223  1.7894  1.3555
 2758SOL     OW19732   4.165   0.755   6.045  0.2836 -0.3879  0.2565
 2758SOL    HW119733   4.137   0.664   6.053 -2.9608  0.5687 -0.1632
 2758SOL    HW219734   4.116   0.797   6.116  2.1716  1.0370  0.7075
 2759SOL     OW19735   3.301   0.933   2.937  0.2799  0.9379  0.1959
 2759SOL    HW119736   3.375   0.876   2.954 -1.1606 -1.3064 -1.0620
 2759SOL    HW219737   3.270   0.918   2.848  0.8500 -1.2064  0.3619
 2760SOL     OW19738   0.068   3.250  11.776 -0.6716 -0.1621  0.7521
 2760SOL    HW119739   0.145   3.206  11.740 -1.0682 -0.2199 -0.0199
 2760SOL    HW219740   0.112   3.311  11.835  1.5996 -1.5821  0.4968
 2761SOL     OW19741   1.489   0.466   3.722 -0.7004  0.3011 -0.1590
 2761SOL    HW119742   1.486   0.432   3.633 -0.9309 -0.4959  0.1567
 2761SOL    HW219743   1.432   0.404   3.768 -0.9670  1.1972  0.7321
 2762SOL     OW19744   1.037   4.009   9.233  0.2513 -0.3245  0.0861
 2762SOL    HW119745   1.040   4.040   9.324 -0.3218  1.0219 -0.3502
 2762SOL    HW219746   0.949   4.036   9.206  0.6008  0.8790  0.1756
 2763SOL     OW19747   0.317   2.114  10.644 -0.2238 -0.1822 -0.6593
 2763SOL    HW119748   0.327   2.199  10.686 -1.2075 -1.8700  3.0564
 2763SOL    HW219749   0.408   2.087  10.630 -0.1225 -0.9915  1.5492
 2764SOL     OW19750   0.271   2.945   5.347 -0.3624  0.2907  0.0692
 2764SOL    HW119751   0.306   2.873   5.400 -0.3963  0.4937  0.3713
 2764SOL    HW219752   0.273   2.899   5.263  1.7978 -0.5979  0.6015
 2765SOL     OW19753   3.672   3.599   7.676  0.4321  0.7166 -0.7163
 2765SOL    HW119754   3.654   3.530   7.612 -0.7155 -0.8966  1.3258
 2765SOL    HW219755   3.698   3.544   7.751 -1.8173  0.0528 -0.4297
 2766SOL     OW19756   2.664   0.735  13.120 -0.2259  0.1904 -0.1583
 2766SOL    HW119757   2.580   0.709  13.083 -0.5369  1.5189 -0.4132
 2766SOL    HW219758   2.651   0.828  13.141  0.5534  0.0113  1.1444
 2767SOL     OW19759   0.545   2.032   4.870 -0.0747  0.4308  0.4354
 2767SOL    HW119760   0.549   2.026   4.774  0.2328 -0.5967  0.5134
 2767SOL    HW219761   0.620   2.091   4.879  1.5578 -1.3648 -1.3889
 2768SOL     OW19762   2.839   0.839  11.201 -0.4776  0.0830  0.1781
 2768SOL    HW119763   2.829   0.819  11.108 -1.7585 -1.8897  0.7442
 2768SOL    HW219764   2.895   0.917  11.199 -2.3484  1.4435  0.4829
 2769SOL     OW19765   0.676   3.475   6.355 -0.0129 -0.3882 -0.1984
 2769SOL    HW119766   0.595   3.477   6.304 -0.6140 -0.6514  0.7541
 2769SOL    HW219767   0.723   3.542   6.305 -0.6399 -0.4333 -0.8572
 2770SOL     OW19768   0.338   0.475   7.546  1.0811  0.1427  0.0946
 2770SOL    HW119769   0.410   0.472   7.484  1.1633 -0.5522  0.2160
 2770SOL    HW219770   0.276   0.511   7.483  1.6338 -0.4053 -0.7539
 2771SOL     OW19771   3.487   2.106   0.857 -0.3094 -0.1083  0.3206
 2771SOL    HW119772   3.442   2.096   0.773 -0.0665 -0.3779  0.2245
 2771SOL    HW219773   3.568   2.147   0.825  0.5878 -2.3348 -0.2488
 2772SOL     OW19774   4.462   0.966  12.837 -0.1918 -0.2723 -0.4656
 2772SOL    HW119775   4.528   0.918  12.787  1.2666  1.5880 -0.3429
 2772SOL    HW219776   4.494   0.967  12.927  2.4480 -0.0837 -1.4087
 2773SOL     OW19777   0.445   3.767  14.388  0.1577  0.3891  0.3882
 2773SOL    HW119778   0.463   3.830  14.318  2.3125  0.2478  0.8137
 2773SOL    HW219779   0.531   3.727  14.403  0.4881  0.5320 -1.1104
 2774SOL     OW19780   0.915   3.913   5.528  0.0806  0.1369 -0.0863
 2774SOL    HW119781   0.984   3.950   5.474 -1.9327  1.3900 -1.8190
 2774SOL    HW219782   0.860   3.863   5.467  2.9589 -0.6976 -1.9613
 2775SOL     OW19783   3.092   3.099   4.634  0.4662  0.2381 -0.1136
 2775SOL    HW119784   3.002   3.086   4.603  0.6808 -1.1213 -0.1643
 2775SOL    HW219785   3.126   3.182   4.599  1.5212  0.0885  0.5794
 2776SOL     OW19786   4.174   0.922   2.138  0.3423  0.1687  0.2419
 2776SOL    HW119787   4.261   0.912   2.101 -0.4757  0.9658 -1.8764
 2776SOL    HW219788   4.194   0.900   2.229  1.6019 -2.4141 -0.6713
 2777SOL     OW19789   1.187   1.870   9.142 -0.2388 -0.3132  0.6303
 2777SOL    HW119790   1.232   1.813   9.079 -1.5584  2.2997 -2.7005
 2777SOL    HW219791   1.217   1.954   9.106 -0.4725 -0.1971  0.7108
 2778SOL     OW19792   0.841   1.126   2.845 -0.0234 -0.4940  0.1911
 2778SOL    HW119793   0.870   1.181   2.916 -0.8577  0.5088 -0.2441
 2778SOL    HW219794   0.868   1.170   2.764  2.5901  0.5372  1.6455
 2779SOL     OW19795   0.885   1.290   2.627  0.4099  0.0912  0.5771
 2779SOL    HW119796   0.855   1.214   2.578 -1.3030  1.7593 -0.9845
 2779SOL    HW219797   0.961   1.314   2.574  0.9637 -0.0103  1.3393
 2780SOL     OW19798   0.989   4.469   0.289  0.0379 -0.6973  0.1669
 2780SOL    HW119799   1.034   4.503   0.366  0.9075 -0.5054 -0.4256
 2780SOL    HW219800   0.995   4.376   0.307 -0.1144 -0.7000  0.1991
 2781SOL     OW19801   1.332   2.375   9.930 -0.3290  0.3200  0.5279
 2781SOL    HW119802   1.238   2.380   9.917 -0.7545 -2.1770  2.5148
 2781SOL    HW219803   1.367   2.309   9.870 -1.8099 -0.3270  0.3914
 2782SOL     OW19804   4.525   4.163   9.126  0.5149  0.4215 -0.1223
 2782SOL    HW119805   4.606   4.214   9.118  0.5434  0.4387  0.2679
 2782SOL    HW219806   4.522   4.106   9.049 -0.6619  0.8626 -0.4168
 2783SOL     OW19807   2.326   3.987  16.869  0.2751  0.2225  1.2508
 2783SOL    HW119808   2.356   4.075  16.844 -0.3586  0.3631  0.9834
 2783SOL    HW219809   2.400   3.952  16.917  0.0618 -0.6702  0.9238
 2784SOL     OW19810   0.727   1.079   3.170 -0.3131 -0.3799 -0.4056
 2784SOL    HW119811   0.644   1.061   3.125 -0.7261  1.4378 -0.3473
 2784SOL    HW219812   0.698   1.170   3.165 -1.9566 -0.8490  0.6198
 2785SOL     OW19813   3.739   3.778  12.122 -0.3751  0.1075  0.0555
 2785SOL    HW119814   3.664   3.757  12.066 -0.5638  0.5367  0.1443
 2785SOL    HW219815   3.722   3.717  12.193  0.0804 -0.0823  0.0007
 2786SOL     OW19816   0.667   4.453   0.365  0.8787  0.4702  0.4203
 2786SOL    HW119817   0.696   4.501   0.287  0.9323 -2.6295 -1.4675
 2786SOL    HW219818   0.729   4.381   0.357 -0.9082 -1.3785  3.4410
 2787SOL     OW19819   1.630   1.914   1.884  0.1715 -0.0150 -0.1091
 2787SOL    HW119820   1.633   1.907   1.979 -2.8718  0.3068 -0.0162
 2787SOL    HW219821   1.538   1.918   1.857 -0.1223 -0.6194  0.8367
 2788SOL     OW19822   1.216   0.759   2.516  0.1787 -0.2222 -0.6025
 2788SOL    HW119823   1.175   0.728   2.597  0.3226  1.1286 -0.0128
 2788SOL    HW219824   1.307   0.730   2.524  0.6013  1.1442 -0.4666
 2789SOL     OW19825   0.076   1.150   2.650 -0.0025 -0.3885 -0.1539
 2789SOL    HW119826   0.161   1.124   2.615 -0.0105 -1.0572  0.3317
 2789SOL    HW219827   0.008   1.091   2.617  0.8008 -1.5991  0.3444
 2790SOL     OW19828   3.647   0.665   2.657  0.0102  0.6846 -0.5082
 2790SOL    HW119829   3.740   0.689   2.662 -0.5831  2.8729  0.1474
 2790SOL    HW219830   3.661   0.571   2.663  2.9137  1.0882 -0.6117
 2791SOL     OW19831   3.149   4.089   4.974 -0.4708  0.6297  0.0891
 2791SOL    HW119832   3.232   4.125   4.943  0.8321 -1.5951  1.0542
 2791SOL    HW219833   3.097   4.169   4.983 -0.8035  0.3423  0.6790
 2792SOL     OW19834   1.975   2.932   2.556  0.0465  0.0799  0.1019
 2792SOL    HW119835   2.005   2.864   2.616  0.5900  0.7070  0.5385
 2792SOL    HW219836   2.053   2.982   2.530 -0.6032  0.5578 -0.9252
 2793SOL     OW19837   1.920   3.705   4.919 -0.2700 -0.1122 -0.3392
 2793SOL    HW119838   1.915   3.684   5.012  2.8752  3.3226  0.6121
 2793SOL    HW219839   1.873   3.628   4.889  1.6585 -0.8536 -1.5096
 2794SOL     OW19840   1.833   1.286  11.205 -0.4179  0.1754 -0.2583
 2794SOL    HW119841   1.785   1.330  11.136 -0.4918 -1.0646 -0.9945
 2794SOL    HW219842   1.825   1.197  11.171  0.9776 -0.2926  0.6112
 2795SOL     OW19843   4.019   1.620  15.941  0.4006  0.4933 -0.1140
 2795SOL    HW119844   4.003   1.701  15.892  0.1865  0.0936 -0.7040
 2795SOL    HW219845   4.112   1.637  15.957 -0.1726  0.8409  2.8574
 2796SOL     OW19846   2.433   4.319  13.345  0.5334  0.0427  0.5710
 2796SOL    HW119847   2.490   4.372  13.401  0.8070  0.6891 -0.3210
 2796SOL    HW219848   2.366   4.284  13.404  0.5437  0.8307  1.0585
 2797SOL     OW19849   1.182   2.357   6.240 -0.6444  0.4011 -0.2304
 2797SOL    HW119850   1.136   2.422   6.186  0.3914  2.3260  1.2261
 2797SOL    HW219851   1.196   2.394   6.327  2.3352 -0.0339 -0.5262
 2798SOL     OW19852   0.673   4.450   4.553 -0.4639 -0.1510 -0.1959
 2798SOL    HW119853   0.736   4.475   4.620 -1.5085  0.4522  0.5589
 2798SOL    HW219854   0.733   4.402   4.496  1.4777  1.2654  0.6441
 2799SOL     OW19855   2.540   1.689   7.368  0.0963 -0.2638  0.3658
 2799SOL    HW119856   2.591   1.609   7.371 -2.8878 -2.2011 -0.5961
 2799SOL    HW219857   2.484   1.666   7.294 -0.7346  1.6009  0.4201
 2800SOL     OW19858   4.487   2.016  15.413 -0.9411 -0.0586 -0.1977
 2800SOL    HW119859   4.505   1.936  15.363  0.2188 -0.5116  0.9386
 2800SOL    HW219860   4.574   2.053  15.425 -0.5116 -0.2202 -2.8240
 2801SOL     OW19861   3.807   1.465   2.488  0.3031 -0.0672  0.3049
 2801SOL    HW119862   3.767   1.396   2.540  1.4377 -1.5518 -0.8049
 2801SOL    HW219863   3.890   1.474   2.535  0.1580  0.3600  0.4769
 2802SOL     OW19864   0.958   4.162   8.337 -0.1081  0.0584 -0.8514
 2802SOL    HW119865   0.984   4.196   8.252 -1.1157  0.1638 -1.1171
 2802SOL    HW219866   0.864   4.183   8.335 -0.5287 -1.4587  1.8965
 2803SOL     OW19867   1.015   1.525   1.242 -0.3122  0.6312  0.1054
 2803SOL    HW119868   0.973   1.468   1.306  0.2003 -0.1123 -0.2274
 2803SOL    HW219869   1.107   1.501   1.251 -0.1516  1.6013  1.0714
 2804SOL     OW19870   2.584   1.131   5.179  0.0871 -0.1052  0.1122
 2804SOL    HW119871   2.564   1.133   5.272  1.0427  1.3934  0.2806
 2804SOL    HW219872   2.565   1.224   5.163  1.3299 -0.2471 -2.1285
 2805SOL     OW19873   4.420   4.586   0.606 -0.0574 -0.7152 -0.6328
 2805SOL    HW119874   4.358   4.559   0.674  1.5266  0.7629  1.4112
 2805SOL    HW219875   4.444   4.505   0.562 -1.0383 -0.8821 -0.8649
 2806SOL     OW19876   0.957   2.606   0.324 -0.2356  0.6392 -0.4066
 2806SOL    HW119877   1.018   2.648   0.264  1.3331  0.3611  0.9832
 2806SOL    HW219878   0.927   2.675   0.383 -1.0104  2.1002 -2.5142
 2807SOL     OW19879   4.396   0.763   7.600  0.1415 -0.7207 -0.3503
 2807SOL    HW119880   4.406   0.857   7.581  1.3670 -0.8135 -0.1639
 2807SOL    HW219881   4.467   0.729   7.544  1.8605  0.3933  1.1420
 2808SOL     OW19882   4.252   3.611  11.588 -0.2882 -0.1819 -0.2838
 2808SOL    HW119883   4.206   3.656  11.659 -0.8855 -1.3993  0.1113
 2808SOL    HW219884   4.342   3.617  11.620 -0.1209  3.2213 -1.4871
 2809SOL     OW19885   4.171   0.062  17.023 -0.0357 -0.4333  0.0390
 2809SOL    HW119886   4.257   0.023  17.036  0.6208  0.9662 -0.1092
 2809SOL    HW219887   4.149   0.071  17.116  1.9090  1.3858  0.3149
 2810SOL     OW19888   0.979   4.164   8.046  0.0926  0.5371  0.9664
 2810SOL    HW119889   1.019   4.238   8.000  1.3125 -0.7510 -0.0346
 2810SOL    HW219890   0.889   4.196   8.049 -1.0936 -2.7319  0.0462
 2811SOL     OW19891   2.256   4.446  11.062 -0.2418 -0.6013  0.4292
 2811SOL    HW119892   2.277   4.484  11.147 -0.5655 -0.7251  0.5650
 2811SOL    HW219893   2.251   4.520  11.002 -1.7069 -2.9475 -2.3515
 2812SOL     OW19894   4.650   3.039   4.927 -0.3566 -0.6326 -0.8032
 2812SOL    HW119895   4.697   2.992   4.858  0.0975 -2.9230  1.0495
 2812SOL    HW219896   4.585   3.097   4.887 -0.9096 -0.2226  0.6561
 2813SOL     OW19897   3.187   1.280  10.931  0.1426  0.0640 -0.0513
 2813SOL    HW119898   3.121   1.349  10.937 -1.9510 -2.0777  1.5665
 2813SOL    HW219899   3.139   1.216  10.878  0.5871 -1.4500  1.3608
 2814SOL     OW19900   1.984   1.648   9.755  0.1327  0.2139 -0.5800
 2814SOL    HW119901   2.010   1.737   9.777 -0.7928  0.0585  1.1178
 2814SOL    HW219902   1.905   1.637   9.807  1.1587 -0.3085  0.8616
 2815SOL     OW19903   0.926   0.692   2.491 -0.5426 -0.5541 -0.5986
 2815SOL    HW119904   0.917   0.746   2.413  1.5416 -2.0076 -1.8312
 2815SOL    HW219905   0.999   0.637   2.462 -0.0442  0.5496 -1.4484
 2816SOL     OW19906   1.104   0.800   8.434 -0.0035  0.5656 -0.0545
 2816SOL    HW119907   1.103   0.771   8.525  2.7172 -1.5666 -0.6879
 2816SOL    HW219908   1.114   0.716   8.390  3.0331  1.3729 -0.9221
 2817SOL     OW19909   2.204   4.318   6.291  0.2194 -0.1273  0.3212
 2817SOL    HW119910   2.198   4.223   6.287  1.0439 -0.0967 -1.5045
 2817SOL    HW219911   2.112   4.328   6.315 -0.1213 -0.1317 -0.9862
 2818SOL     OW19912   3.691   0.767   3.315  0.2770 -0.5813 -0.0609
 2818SOL    HW119913   3.784   0.790   3.319 -0.3447  1.6255  1.3955
 2818SOL    HW219914   3.682   0.707   3.388  2.9776 -1.9505 -0.8608
 2819SOL     OW19915   1.459   2.219   0.995  0.1037  0.4563 -0.4588
 2819SOL    HW119916   1.486   2.208   1.086  1.3544  0.2548 -0.8516
 2819SOL    HW219917   1.532   2.254   0.944  1.5562  0.0026  1.3296
 2820SOL     OW19918   0.720   2.080   8.079  0.1179 -0.1239 -0.2972
 2820SOL    HW119919   0.761   2.015   8.021  1.7949  0.8577 -0.1911
 2820SOL    HW219920   0.677   2.025   8.145 -1.1895 -0.2664 -1.2621
 2821SOL     OW19921   2.848   3.989   5.499 -0.0973 -0.0064  0.2327
 2821SOL    HW119922   2.852   4.070   5.551 -0.0206 -1.4554  2.4671
 2821SOL    HW219923   2.904   3.925   5.543 -1.9502 -0.6850  1.6009
 2822SOL     OW19924   1.717   0.824  14.049  0.1683  0.4765  0.2915
 2822SOL    HW119925   1.745   0.733  14.063  0.4143  0.5586  0.3294
 2822SOL    HW219926   1.670   0.819  13.966  0.1934 -3.8992  0.4893
 2823SOL     OW19927   0.771   0.365  10.531 -0.1348  0.1192  0.1807
 2823SOL    HW119928   0.730   0.371  10.617  0.6423 -0.1416  0.5682
 2823SOL    HW219929   0.723   0.290  10.496 -2.1288  0.3443  2.4666
 2824SOL     OW19930   1.711   3.741   3.736 -0.0533  0.1233  0.0502
 2824SOL    HW119931   1.646   3.811   3.732 -1.3842 -1.1668 -0.6635
 2824SOL    HW219932   1.674   3.677   3.676  0.5798  1.0576 -1.3186
 2825SOL     OW19933   3.818   1.209   8.546 -0.9160 -0.1549 -0.0999
 2825SOL    HW119934   3.739   1.244   8.588 -0.3559  0.6213  0.2981
 2825SOL    HW219935   3.850   1.271   8.480  0.7774  0.8714  1.7158
 2826SOL     OW19936   2.410   1.552   3.239  0.5878  0.2147  0.0435
 2826SOL    HW119937   2.462   1.624   3.276  2.3583 -0.0797 -1.9210
 2826SOL    HW219938   2.343   1.555   3.308  2.2070 -0.9544  1.6625
 2827SOL     OW19939   0.852   0.300   4.486 -0.2119 -0.7908 -0.2418
 2827SOL    HW119940   0.936   0.254   4.479  1.3173  2.1540 -1.3180
 2827SOL    HW219941   0.881   0.388   4.459  0.7236 -0.3715  2.1206
 2828SOL     OW19942   3.128   0.317   7.202 -0.3077 -0.1054 -0.0312
 2828SOL    HW119943   3.153   0.353   7.117  1.1483  1.1219  0.9121
 2828SOL    HW219944   3.040   0.282   7.187 -1.3991  1.7482  2.0233
 2829SOL     OW19945   2.765   1.595  17.549 -0.3423 -0.0513 -0.0687
 2829SOL    HW119946   2.830   1.622  17.613 -2.1854  3.5267  0.2982
 2829SOL    HW219947   2.758   1.675  17.496 -1.3668 -0.2429 -0.2260
 2830SOL     OW19948   2.618   3.281   6.889  0.1465  0.2227  0.8218
 2830SOL    HW119949   2.636   3.365   6.932 -0.1186 -0.0408  1.4502
 2830SOL    HW219950   2.583   3.300   6.802  1.8167 -0.5265 -0.0070
 2831SOL     OW19951   3.973   3.770   3.424  0.1839 -0.0747 -0.1018
 2831SOL    HW119952   3.967   3.681   3.390  1.4283  0.4084 -1.6090
 2831SOL    HW219953   3.883   3.801   3.413 -0.7548 -2.5317  0.7171
 2832SOL     OW19954   1.955   0.916   3.669  0.4265 -0.1467 -0.0161
 2832SOL    HW119955   1.968   0.898   3.576 -2.3180 -0.7285 -0.2777
 2832SOL    HW219956   1.967   0.826   3.698 -0.8090 -0.3906 -0.2523
 2833SOL     OW19957   4.032   2.247   7.202 -0.4329 -0.1421 -0.1979
 2833SOL    HW119958   4.033   2.198   7.284 -1.6482  1.5386  0.8101
 2833SOL    HW219959   4.124   2.273   7.191 -0.6413  0.6081 -0.1866
 2834SOL     OW19960   1.589   3.615   0.261 -0.4380 -0.7673 -0.3443
 2834SOL    HW119961   1.521   3.548   0.271 -4.1592  3.3190  1.7610
 2834SOL    HW219962   1.624   3.591   0.175 -0.5479 -2.0126 -0.0537
 2835SOL     OW19963   0.472   0.607   1.598 -0.2846  0.0908 -0.5277
 2835SOL    HW119964   0.530   0.535   1.573  0.4032  0.9603 -1.4245
 2835SOL    HW219965   0.518   0.690   1.602 -0.6499  0.3705 -2.2371
 2836SOL     OW19966   3.761   2.581   9.176  0.3727 -0.1759 -0.3021
 2836SOL    HW119967   3.770   2.590   9.082  0.8412  2.5696  0.0010
 2836SOL    HW219968   3.851   2.591   9.207  0.8751 -0.8548 -1.5771
 2837SOL     OW19969   0.800   4.349   5.537 -0.0689  0.2244 -0.2784
 2837SOL    HW119970   0.878   4.337   5.591 -0.3666 -0.4913 -0.0030
 2837SOL    HW219971   0.732   4.363   5.604  1.1400 -0.1679  1.0222
 2838SOL     OW19972   4.291   0.315   7.841  0.4093  0.5234  0.7387
 2838SOL    HW119973   4.282   0.303   7.935  0.7921  1.2268  0.8656
 2838SOL    HW219974   4.276   0.409   7.837  1.8113  0.6962 -0.3856
 2839SOL     OW19975   1.289   4.036   0.339 -0.7805  0.2135 -0.1642
 2839SOL    HW119976   1.322   4.007   0.254 -0.4522 -0.7914  0.3121
 2839SOL    HW219977   1.214   3.977   0.345 -1.8138  1.6024  0.6183
 2840SOL     OW19978   2.686   0.976  13.225 -0.2502  0.1662 -1.3557
 2840SOL    HW119979   2.756   1.017  13.277 -1.3149  1.0518 -0.6412
 2840SOL    HW219980   2.623   1.047  13.230 -2.4739 -1.9095 -0.2326
 2841SOL     OW19981   3.688   2.176   2.975 -0.1166  0.1185  0.2811
 2841SOL    HW119982   3.607   2.145   3.016  0.3650  0.2044  1.2984
 2841SOL    HW219983   3.669   2.269   2.969  0.0401  0.2012  1.1747
 2842SOL     OW19984   1.549   2.051   7.703 -0.2928  0.6722  0.2105
 2842SOL    HW119985   1.602   1.985   7.659 -0.0685  0.8496  0.2149
 2842SOL    HW219986   1.472   1.995   7.715 -0.4939  0.6199 -1.3812
 2843SOL     OW19987   0.594   3.341   2.520 -0.0531  0.4267 -0.0836
 2843SOL    HW119988   0.578   3.398   2.445  0.7729 -0.0950 -0.6505
 2843SOL    HW219989   0.616   3.262   2.470  2.2000 -0.2775  2.0041
 2844SOL     OW19990   3.191   1.824   4.312  0.2501  0.6122 -0.1281
 2844SOL    HW119991   3.240   1.747   4.283 -0.9017 -0.2523  0.2438
 2844SOL    HW219992   3.173   1.861   4.226 -0.4360  0.4779 -0.0401
 2845SOL     OW19993   0.352   4.548   7.144 -0.3349  0.3585  0.1358
 2845SOL    HW119994   0.391   4.565   7.230 -0.7980  0.0329  0.4087
 2845SOL    HW219995   0.278   4.608   7.138  0.1253  1.1044  1.7985
 2846SOL     OW19996   3.003   0.517   5.564 -0.7115  0.2865 -0.1262
 2846SOL    HW119997   2.979   0.428   5.592 -1.2193  0.0176 -1.4260
 2846SOL    HW219998   3.099   0.517   5.566 -0.7307 -2.0578  1.2687
 2847SOL     OW19999   4.674   0.313   9.457 -0.0089  0.3935 -0.3910
 2847SOL    HW120000   4.652   0.251   9.387 -0.8630 -2.0007  2.0289
 2847SOL    HW220001   0.037   0.282   9.483  0.0871  0.9511 -0.0379
 2848SOL     OW20002   4.242   0.992  11.576 -0.2102  0.1400 -0.0194
 2848SOL    HW120003   4.322   0.938  11.580  0.4703  1.1681  0.2255
 2848SOL    HW220004   4.280   1.059  11.519  2.9680 -0.7723  0.9711
 2849SOL     OW20005   4.503   1.696   7.600  0.5643 -0.4226  0.1972
 2849SOL    HW120006   4.587   1.726   7.565  0.8078 -0.2335  0.9288
 2849SOL    HW220007   4.465   1.680   7.514  1.5225  0.8925 -0.4712
 2850SOL     OW20008   1.414   3.558   4.629  0.4327 -0.2132 -0.1005
 2850SOL    HW120009   1.491   3.529   4.581  0.6010 -2.2315  1.3975
 2850SOL    HW220010   1.337   3.526   4.582 -1.0624 -0.3865  2.4496
 2851SOL     OW20011   2.308   3.828   4.245 -0.2647 -0.0783 -0.2723
 2851SOL    HW120012   2.384   3.813   4.301  0.7142 -0.1199 -1.6467
 2851SOL    HW220013   2.240   3.792   4.302  0.2041 -2.9791 -1.5807
 2852SOL     OW20014   2.559   1.907   6.285  0.4203  0.1084  0.1559
 2852SOL    HW120015   2.522   1.863   6.361 -1.5529  0.6039 -0.5253
 2852SOL    HW220016   2.505   1.985   6.279  1.8041  1.1210  0.8585
 2853SOL     OW20017   0.342   1.350   3.341  0.5705  0.0806 -0.2443
 2853SOL    HW120018   0.318   1.297   3.264 -0.4769  1.1423 -0.6496
 2853SOL    HW220019   0.258   1.393   3.355  0.7281  0.5282 -0.6628
 2854SOL     OW20020   0.259   3.019  10.574 -0.1750  0.1138  0.2812
 2854SOL    HW120021   0.302   2.940  10.604 -0.3244  0.6704  1.9395
 2854SOL    HW220022   0.204   2.984  10.504 -0.5170  1.4883 -0.1450
 2855SOL     OW20023   1.019   1.417  10.781 -0.0707  0.5278 -0.0624
 2855SOL    HW120024   1.097   1.451  10.825  1.8556 -0.5213 -2.6694
 2855SOL    HW220025   0.960   1.401  10.854  1.7368 -0.0083  1.2845
 2856SOL     OW20026   0.341   3.243  10.702 -0.0945  0.2923 -0.0809
 2856SOL    HW120027   0.308   3.166  10.655  0.6269  0.0396 -0.1621
 2856SOL    HW220028   0.427   3.251  10.663 -0.2585  0.4609 -0.4083
 2857SOL     OW20029   0.653   4.046  12.959  0.3632  0.1542  0.4085
 2857SOL    HW120030   0.700   3.975  12.915  2.5156  1.3572  0.7491
 2857SOL    HW220031   0.725   4.108  12.971  1.3249 -0.6712 -1.1315
 2858SOL     OW20032   1.206   1.232   8.047  0.5558  0.3813 -0.5236
 2858SOL    HW120033   1.133   1.254   7.990 -1.2483 -2.6291  0.6359
 2858SOL    HW220034   1.198   1.301   8.113  1.9156 -0.9007  0.9925
 2859SOL     OW20035   3.171   1.594   8.092 -0.0085 -0.0236  0.0272
 2859SOL    HW120036   3.210   1.671   8.135 -1.1682 -0.3576  1.6654
 2859SOL    HW220037   3.222   1.604   8.012  2.7248  0.1458  1.7801
 2860SOL     OW20038   4.044   3.649   3.796  0.2857  0.2181 -0.2214
 2860SOL    HW120039   3.973   3.714   3.802 -0.6530 -0.8119 -0.1930
 2860SOL    HW220040   3.986   3.573   3.795 -2.1357  2.0445  0.2363
 2861SOL     OW20041   0.247   1.758  15.411 -0.2283 -0.3771  0.6577
 2861SOL    HW120042   0.269   1.831  15.469 -0.3980 -0.7028  1.1431
 2861SOL    HW220043   0.263   1.686  15.473  1.1655 -3.7231 -3.5707
 2862SOL     OW20044   4.546   2.085   4.130  0.4814 -0.3276 -0.1520
 2862SOL    HW120045   4.493   2.154   4.169  0.2982  0.3121 -1.5451
 2862SOL    HW220046   4.560   2.115   4.040  1.3899 -0.3191 -0.0081
 2863SOL     OW20047   1.181   2.294  17.323 -0.2037  0.0746  0.2154
 2863SOL    HW120048   1.145   2.297  17.412  1.5049 -2.7916  1.0130
 2863SOL    HW220049   1.274   2.317  17.329 -0.4981  1.3115  0.0437
 2864SOL     OW20050   0.199   1.585   8.810  0.1411 -0.1910 -0.3051
 2864SOL    HW120051   0.134   1.582   8.741 -0.4124  0.8604  0.1789
 2864SOL    HW220052   0.235   1.496   8.802  2.8611  0.8607  0.3296
 2865SOL     OW20053   0.394   3.267   7.683 -0.2074  0.4017  0.0487
 2865SOL    HW120054   0.299   3.279   7.687 -0.0041  1.3598  2.1316
 2865SOL    HW220055   0.411   3.258   7.589  1.2632 -1.3710  0.4986
 2866SOL     OW20056   3.268   1.203  13.540  0.2520  0.5171 -0.1285
 2866SOL    HW120057   3.286   1.158  13.623  1.0152  0.1337 -0.5025
 2866SOL    HW220058   3.179   1.172  13.521  0.6632  0.5062 -2.0484
 2867SOL     OW20059   1.284   0.484   1.643 -0.2233  0.6459 -1.2063
 2867SOL    HW120060   1.320   0.571   1.660  1.1370  0.8748 -5.3149
 2867SOL    HW220061   1.345   0.419   1.678  0.3612  1.5052 -0.6240
 2868SOL     OW20062   4.089   4.672   2.628  0.0592 -0.1539  0.0480
 2868SOL    HW120063   3.995   4.659   2.610 -0.1491 -1.3813  2.0698
 2868SOL    HW220064   4.120   4.680   2.538 -1.6525  0.6182 -0.4803
 2869SOL     OW20065   1.792   2.079  17.431 -0.4844  0.0383  0.7455
 2869SOL    HW120066   1.768   2.162  17.471  1.8818  0.8625  0.4110
 2869SOL    HW220067   1.829   2.026  17.502 -1.5022 -3.1374 -1.0756
 2870SOL     OW20068   2.445   3.752   7.871 -0.1909  0.3402  0.7179
 2870SOL    HW120069   2.365   3.701   7.882 -1.2187  1.6906 -0.6250
 2870SOL    HW220070   2.511   3.690   7.904 -1.4123 -1.4070 -0.1150
 2871SOL     OW20071   1.845   3.787   1.787 -0.0171  0.6121 -0.5077
 2871SOL    HW120072   1.917   3.833   1.744  0.5862  1.4721  1.4234
 2871SOL    HW220073   1.890   3.707   1.816  0.5822  0.0012 -3.0888
 2872SOL     OW20074   4.679   0.308   6.294  0.0568  0.1856 -0.2739
 2872SOL    HW120075   4.688   0.272   6.206 -0.3185 -2.1598  0.6555
 2872SOL    HW220076   0.013   0.385   6.293  0.0864  0.1551 -0.7150
 2873SOL     OW20077   3.472   3.686   7.326  0.2754 -0.3945 -0.2225
 2873SOL    HW120078   3.547   3.716   7.377 -0.9859 -0.7604  1.8292
 2873SOL    HW220079   3.517   3.677   7.242  1.7891  2.1546  0.3162
 2874SOL     OW20080   4.399   0.322  16.047 -0.3682 -0.0141  0.7535
 2874SOL    HW120081   4.453   0.352  16.120  1.0509 -3.6395  1.1549
 2874SOL    HW220082   4.310   0.313  16.082 -0.1319  1.6892  1.8242
 2875SOL     OW20083   1.070   4.691   7.169  0.4397  0.3922 -0.0167
 2875SOL    HW120084   1.028   4.662   7.088 -0.2697  1.3306  0.0083
 2875SOL    HW220085   1.132   0.031   7.134  0.6581  0.2151  0.0491
 2876SOL     OW20086   0.047   1.035   5.012  0.1268  0.8635  0.1436
 2876SOL    HW120087   0.070   1.089   5.088  0.2455  1.1268 -0.0789
 2876SOL    HW220088   0.120   1.050   4.953  0.1301 -3.1463 -0.8903
 2877SOL     OW20089   1.777   3.326  14.722  0.8717 -0.0241 -0.0876
 2877SOL    HW120090   1.697   3.364  14.683  1.4783  0.3920 -0.9399
 2877SOL    HW220091   1.823   3.285  14.649  0.4590 -0.0758 -0.3219
 2878SOL     OW20092   0.331   3.813   3.643  0.2667  0.1789 -0.2507
 2878SOL    HW120093   0.351   3.760   3.721  3.4116  0.5402 -0.7938
 2878SOL    HW220094   0.249   3.768   3.626 -0.0052 -0.4044  2.5184
 2879SOL     OW20095   3.552   3.440   5.245  0.0784 -0.0537  0.2548
 2879SOL    HW120096   3.461   3.408   5.243 -0.1812  0.6631  0.7332
 2879SOL    HW220097   3.599   3.359   5.224  0.5388 -0.0000  1.1030
 2880SOL     OW20098   2.960   2.297   5.809 -0.4462 -0.3288 -0.1186
 2880SOL    HW120099   2.920   2.215   5.841 -2.8685  1.2423  0.8921
 2880SOL    HW220100   3.004   2.272   5.728  3.9182  0.8463  1.9159
 2881SOL     OW20101   0.503   0.411   8.798 -0.1914 -0.4106 -0.2028
 2881SOL    HW120102   0.463   0.496   8.778 -1.2214 -0.5221  1.3689
 2881SOL    HW220103   0.594   0.440   8.797  0.2748 -1.8376  1.4685
 2882SOL     OW20104   2.618   2.548   6.949 -0.1421  1.1333 -0.3809
 2882SOL    HW120105   2.524   2.543   6.968  0.1956 -0.2900  0.9282
 2882SOL    HW220106   2.644   2.542   7.041 -0.0443 -2.4462 -0.6541
 2883SOL     OW20107   0.212   0.073   2.425  0.0671 -0.0385 -0.5311
 2883SOL    HW120108   0.305   0.096   2.418  0.5778 -1.9514 -0.0224
 2883SOL    HW220109   0.205   4.708   2.460  0.5775  0.3134  0.4647
 2884SOL     OW20110   1.900   0.665   8.383 -0.0656 -0.1791  0.0258
 2884SOL    HW120111   1.856   0.581   8.396  1.3357 -0.7678  0.9841
 2884SOL    HW220112   1.946   0.666   8.467 -1.8900 -1.7158  1.0209
 2885SOL     OW20113   0.208   2.837  15.865  0.4564  0.2691 -0.2834
 2885SOL    HW120114   0.178   2.757  15.908  1.3180  1.1953  2.0241
 2885SOL    HW220115   0.205   2.815  15.771  0.4198 -0.1716 -0.1776
 2886SOL     OW20116   0.382   0.842  11.883 -0.2543  0.3224 -0.3323
 2886SOL    HW120117   0.323   0.877  11.816  0.2177  0.6468 -0.5700
 2886SOL    HW220118   0.386   0.748  11.863  3.3406  0.5651 -0.6446
 2887SOL     OW20119   4.653   3.626   2.978  0.0323  0.2245  0.0573
 2887SOL    HW120120   4.674   3.587   2.893  0.8981  1.4204 -0.2840
 2887SOL    HW220121   4.599   3.554   3.011  0.0090  0.6244  0.8805
 2888SOL     OW20122   1.100   0.569   8.271 -0.4308  0.3469 -0.1381
 2888SOL    HW120123   1.012   0.540   8.248 -0.0630 -0.9443  0.0876
 2888SOL    HW220124   1.129   0.600   8.185  0.3355 -1.4003 -0.5072
 2889SOL     OW20125   2.091   1.709   4.147 -0.0979  0.1154  0.0148
 2889SOL    HW120126   2.026   1.659   4.098  1.7132 -2.2944  0.0592
 2889SOL    HW220127   2.059   1.687   4.235  3.8438  1.2484  1.7504
 2890SOL     OW20128   0.724   1.708  14.669 -0.6082 -0.8287  0.0041
 2890SOL    HW120129   0.812   1.744  14.676 -0.5422 -1.3338  1.8122
 2890SOL    HW220130   0.710   1.666  14.755  0.8679 -0.5813  0.3627
 2891SOL     OW20131   3.787   1.945   4.351 -0.3423  0.0376 -0.1162
 2891SOL    HW120132   3.864   1.920   4.299 -0.0779 -0.1198  0.3568
 2891SOL    HW220133   3.830   1.953   4.436 -1.2891 -0.3131  0.3929
 2892SOL     OW20134   2.885   0.012   8.056 -0.1685 -0.0502 -0.3883
 2892SOL    HW120135   2.938   4.662   8.086 -0.2554  0.2681  0.5432
 2892SOL    HW220136   2.904   0.076   8.124  0.3812  0.9493 -1.4880
 2893SOL     OW20137   3.770   0.348  14.900 -0.0917 -0.0723  0.6793
 2893SOL    HW120138   3.703   0.283  14.878 -1.7932  1.0546  2.5678
 2893SOL    HW220139   3.806   0.343  14.811  0.7164 -0.0559  1.0031
 2894SOL     OW20140   4.314   2.870   7.502  0.1592 -0.2214  0.1328
 2894SOL    HW120141   4.323   2.965   7.506 -1.7625 -0.0454  0.1890
 2894SOL    HW220142   4.218   2.862   7.506  0.1766 -1.8128 -2.4117
 2895SOL     OW20143   0.600   3.813   8.335  0.2311  0.7119  0.1772
 2895SOL    HW120144   0.520   3.760   8.335  1.0227 -0.4979  3.9852
 2895SOL    HW220145   0.652   3.784   8.260  1.3387  2.4201  0.2950
 2896SOL     OW20146   3.800   2.686   2.854 -0.1432  0.7500 -0.1438
 2896SOL    HW120147   3.815   2.667   2.761 -0.1742  0.6532 -0.1286
 2896SOL    HW220148   3.860   2.760   2.854 -2.6278  2.8007  1.5628
 2897SOL     OW20149   3.972   0.837   0.580  0.1387  0.0252 -0.0295
 2897SOL    HW120150   4.047   0.892   0.603 -0.4639  0.5133  0.7751
 2897SOL    HW220151   3.904   0.903   0.591 -1.4028 -1.7713  1.2055
 2898SOL     OW20152   1.530   1.932  11.892 -0.1694 -0.3213  0.1794
 2898SOL    HW120153   1.584   2.001  11.851 -2.3443  0.6756 -1.0482
 2898SOL    HW220154   1.450   1.932  11.838  0.0746  0.4687 -0.1858
 2899SOL     OW20155   0.810   4.641   2.055 -0.0683  0.0353 -0.4955
 2899SOL    HW120156   0.725   4.681   2.073 -0.4727 -0.7189 -0.7023
 2899SOL    HW220157   0.790   4.547   2.050  4.5402 -0.8348 -2.5731
 2900SOL     OW20158   4.526   2.564   2.182 -0.2448 -0.3719  0.1954
 2900SOL    HW120159   4.518   2.609   2.098 -2.4229  0.4333  0.8371
 2900SOL    HW220160   4.512   2.473   2.154  0.0977 -0.5582  0.6379
 2901SOL     OW20161   2.470   0.954   4.165  0.2006 -0.2297  0.0514
 2901SOL    HW120162   2.464   1.032   4.222  2.3185  0.3432 -0.5055
 2901SOL    HW220163   2.399   0.974   4.104  0.1982 -3.4970 -0.9882
 2902SOL     OW20164   3.961   1.939   0.722  0.2281  0.2076  0.3986
 2902SOL    HW120165   3.903   1.972   0.652  0.4722  0.7008  0.4295
 2902SOL    HW220166   4.026   1.890   0.672 -1.9268 -1.5544 -0.6879
 2903SOL     OW20167   0.030   0.658   1.375  0.4063  0.8451  0.1688
 2903SOL    HW120168   0.034   0.751   1.397 -1.2896  0.5390  1.7990
 2903SOL    HW220169   0.076   0.618   1.449  2.2380  3.5466  0.4911
 2904SOL     OW20170   2.269   2.235  15.495 -0.5544 -0.0875 -0.0462
 2904SOL    HW120171   2.283   2.266  15.406 -4.5519 -1.1245 -1.0501
 2904SOL    HW220172   2.224   2.314  15.526  1.0065  0.5124  0.6682
 2905SOL     OW20173   0.187   0.080   9.199  0.4844  0.2246  0.3227
 2905SOL    HW120174   0.140   0.124   9.128 -0.5667  0.0161  0.8865
 2905SOL    HW220175   0.171   4.712   9.178 -0.0057  0.7132 -1.4542
 2906SOL     OW20176   4.503   3.220   5.581 -0.1340  0.1536  0.4181
 2906SOL    HW120177   4.538   3.257   5.500 -2.6053 -1.5935 -1.4565
 2906SOL    HW220178   4.553   3.138   5.574 -2.0206 -1.2347  3.2456
 2907SOL     OW20179   3.611   4.267  11.415 -0.0515 -0.0950  0.1202
 2907SOL    HW120180   3.669   4.191  11.427 -2.8949 -1.9647  1.9190
 2907SOL    HW220181   3.675   4.337  11.401 -0.2473  0.3018  1.2065
 2908SOL     OW20182   2.921   2.243   5.315 -0.2250  0.0416 -0.1080
 2908SOL    HW120183   2.875   2.167   5.350 -0.9861  0.3977 -0.3122
 2908SOL    HW220184   3.014   2.222   5.309  0.3183  2.4111 -0.1351
 2909SOL     OW20185   4.354   0.083   4.132 -0.2423  0.1059  0.5976
 2909SOL    HW120186   4.357   4.714   4.108  0.1004  0.4773 -0.7905
 2909SOL    HW220187   4.440   0.098   4.172  0.7648 -2.3716 -0.5932
 2910SOL     OW20188   1.104   2.230   5.479  0.8366  0.1223  0.3453
 2910SOL    HW120189   1.069   2.234   5.390  1.0121 -1.7538  0.1937
 2910SOL    HW220190   1.183   2.175   5.480  1.2368  0.6771 -0.8330
 2911SOL     OW20191   3.024   3.330  12.692 -0.2055 -0.3823 -0.0921
 2911SOL    HW120192   3.050   3.325  12.600 -0.8591  1.9468 -0.3991
 2911SOL    HW220193   3.099   3.280  12.727  0.4216  1.0924  0.6829
 2912SOL     OW20194   0.321   3.857   2.118  0.0534 -0.3291 -0.4723
 2912SOL    HW120195   0.270   3.815   2.188  0.6130  0.2202  0.2667
 2912SOL    HW220196   0.394   3.889   2.172 -0.6998  0.9279 -0.1887
 2913SOL     OW20197   4.462   4.020   9.947 -0.6426  0.8865  0.2236
 2913SOL    HW120198   4.402   4.087   9.981 -0.3749  0.1761  2.1040
 2913SOL    HW220199   4.500   4.007  10.034  3.1561 -1.2683 -1.7481
 2914SOL     OW20200   2.237   0.140   8.305 -0.0182  0.1817 -0.0838
 2914SOL    HW120201   2.230   0.173   8.395 -0.9627 -1.7447  0.5281
 2914SOL    HW220202   2.308   0.076   8.310 -2.7782 -2.6231  3.3362
 2915SOL     OW20203   3.185   1.944   1.280  0.4908  0.4583 -0.1189
 2915SOL    HW120204   3.191   1.849   1.270  0.1945  0.3950  0.2921
 2915SOL    HW220205   3.266   1.979   1.241  0.2485  0.3615 -0.7013
 2916SOL     OW20206   0.958   1.693   7.471  0.5459  0.2089 -0.7362
 2916SOL    HW120207   1.033   1.717   7.526 -0.7398 -1.1500  1.5979
 2916SOL    HW220208   0.985   1.634   7.402 -0.1526  0.6724 -1.4108
 2917SOL     OW20209   0.256   2.324  14.274  0.0540  0.1150 -0.3905
 2917SOL    HW120210   0.333   2.272  14.253  0.9896  1.4669 -0.2575
 2917SOL    HW220211   0.183   2.262  14.271 -0.5330  0.6934  1.7343
 2918SOL     OW20212   2.169   1.437   4.351 -0.4156  0.1611 -0.4713
 2918SOL    HW120213   2.075   1.431   4.338 -0.4566  0.6504 -0.3876
 2918SOL    HW220214   2.180   1.352   4.394  1.7942 -0.0336 -1.4342
 2919SOL     OW20215   3.311   3.028   3.280  0.2465 -0.1302  0.2115
 2919SOL    HW120216   3.366   2.959   3.244 -1.4761 -0.7594 -1.2469
 2919SOL    HW220217   3.258   3.041   3.201  2.0965 -0.9749 -1.1639
 2920SOL     OW20218   2.575   2.902   1.070  0.1714  0.1341  0.0579
 2920SOL    HW120219   2.567   2.842   1.144 -1.8322  2.1805  1.5275
 2920SOL    HW220220   2.495   2.953   1.083 -1.0270 -1.2379 -1.8028
 2921SOL     OW20221   0.846   0.512   9.609 -0.2228  0.9655 -0.0923
 2921SOL    HW120222   0.785   0.438   9.608  0.9198 -0.0515  2.9016
 2921SOL    HW220223   0.860   0.522   9.704  3.2540 -0.0420 -0.4974
 2922SOL     OW20224   3.345   3.576   2.234  0.3018 -0.0988 -0.7557
 2922SOL    HW120225   3.432   3.558   2.270  0.4044  0.8044 -0.5382
 2922SOL    HW220226   3.295   3.613   2.308 -0.6978  0.8512 -1.9026
 2923SOL     OW20227   2.386   2.737  14.928 -0.9575  0.5419  0.0209
 2923SOL    HW120228   2.328   2.772  14.996  1.4900  2.3931  1.1244
 2923SOL    HW220229   2.351   2.786  14.853  0.6195 -1.0765 -1.7640
 2924SOL     OW20230   0.830   2.529   6.979  0.3687 -0.1625 -0.2800
 2924SOL    HW120231   0.840   2.497   7.068  0.5001 -0.2004 -0.3086
 2924SOL    HW220232   0.753   2.585   6.988 -0.5209 -1.5135  0.5941
 2925SOL     OW20233   1.537   1.641   5.074 -0.4993  1.0484  0.4624
 2925SOL    HW120234   1.565   1.672   5.160  0.1381  2.8949 -0.4244
 2925SOL    HW220235   1.450   1.680   5.074 -0.4288  1.2320 -1.6783
 2926SOL     OW20236   4.296   1.341   7.410 -0.5923 -0.8623 -0.2201
 2926SOL    HW120237   4.239   1.347   7.333 -0.5230  1.3887 -0.0910
 2926SOL    HW220238   4.246   1.370   7.486  1.3105  1.9967 -0.0446
 2927SOL     OW20239   3.011   4.305  17.157 -0.5222  0.0263 -0.2461
 2927SOL    HW120240   3.078   4.267  17.215 -0.3265  1.3083  0.3763
 2927SOL    HW220241   3.064   4.324  17.079  0.3088  0.3266  0.3905
 2928SOL     OW20242   2.971   1.152  12.745 -0.2157  0.4213  0.2845
 2928SOL    HW120243   2.945   1.136  12.654 -1.3314  3.3992  0.0836
 2928SOL    HW220244   3.031   1.083  12.773  0.2504  0.1798 -1.3213
 2929SOL     OW20245   2.779   4.423  13.828  0.2527 -0.3406  0.1425
 2929SOL    HW120246   2.828   4.376  13.896  0.0880  0.8378  1.0712
 2929SOL    HW220247   2.689   4.431  13.859  0.3776  2.0031 -0.1278
 2930SOL     OW20248   3.706   2.170   7.880  0.6901 -0.0975  0.1412
 2930SOL    HW120249   3.752   2.105   7.829 -0.7223 -2.8273  2.3154
 2930SOL    HW220250   3.687   2.120   7.960  1.1652  0.0759  0.3615
 2931SOL     OW20251   3.209   3.197   6.722  0.4346 -0.5568  0.2229
 2931SOL    HW120252   3.262   3.121   6.743  0.2816 -0.1782  1.9578
 2931SOL    HW220253   3.148   3.203   6.796  0.7912 -0.8876  0.5440
 2932SOL     OW20254   2.455   1.783  10.444  0.0605 -0.3160 -0.0864
 2932SOL    HW120255   2.494   1.858  10.486 -2.1296  0.1099  1.1819
 2932SOL    HW220256   2.524   1.758  10.382  1.2154 -1.7632  1.7971
 2933SOL     OW20257   0.027   2.121   6.939 -0.0477  0.6901 -0.0835
 2933SOL    HW120258   4.706   2.043   6.906  0.5128  0.5624 -0.5447
 2933SOL    HW220259   0.059   2.079   7.018  3.0706  1.7884 -0.7805
 2934SOL     OW20260   1.229   1.972   1.669  0.8460 -0.5112  0.2555
 2934SOL    HW120261   1.205   2.024   1.592  1.5880  1.9284  1.6730
 2934SOL    HW220262   1.198   1.894   1.623  0.3767 -0.0745 -0.1703
 2935SOL     OW20263   4.356   1.748   5.408  0.0121  0.0578 -0.2278
 2935SOL    HW120264   4.299   1.736   5.484 -0.2787 -1.0547 -0.6104
 2935SOL    HW220265   4.402   1.827   5.434  0.6686 -1.4401  3.2873
 2936SOL     OW20266   1.353   2.274   7.217 -0.6852  0.4138 -0.0088
 2936SOL    HW120267   1.331   2.197   7.165 -2.1191 -0.4741  1.9010
 2936SOL    HW220268   1.449   2.279   7.213 -0.7130  0.6732 -0.3080
 2937SOL     OW20269   1.402   2.031   6.623  0.3903  0.1549  0.1774
 2937SOL    HW120270   1.436   1.948   6.589  1.2305  1.3059 -1.7546
 2937SOL    HW220271   1.488   2.071   6.636 -0.6541  2.3683  0.2826
 2938SOL     OW20272   3.975   2.347   0.601  0.5207  0.2399 -0.6473
 2938SOL    HW120273   4.044   2.337   0.667  0.4520  2.3164 -0.2597
 2938SOL    HW220274   3.967   2.441   0.617  2.4370  0.0250  1.6833
 2939SOL     OW20275   3.089   0.698   3.877  0.5111  0.3622 -0.2178
 2939SOL    HW120276   3.025   0.745   3.823  1.0919  0.5011 -0.7881
 2939SOL    HW220277   3.164   0.692   3.818  1.5558 -2.7235  1.4197
 2940SOL     OW20278   1.006   1.691   6.356  0.0215 -0.2844 -0.1731
 2940SOL    HW120279   0.969   1.610   6.323  1.7340 -1.2107  0.1791
 2940SOL    HW220280   0.928   1.742   6.334  1.1647  0.8087 -1.6687
 2941SOL     OW20281   1.132   4.051   2.855 -0.2661 -0.2733  0.4658
 2941SOL    HW120282   1.072   4.085   2.922  0.1859  1.5545 -0.0525
 2941SOL    HW220283   1.156   3.966   2.890  2.8623  1.1267  1.6731
 2942SOL     OW20284   3.630   1.410  16.765 -0.0654 -0.4359  0.6284
 2942SOL    HW120285   3.642   1.400  16.671  0.9184  0.4951  0.6606
 2942SOL    HW220286   3.717   1.422  16.803  0.7988 -0.8618 -1.2628
 2943SOL     OW20287   2.063   0.528   5.175  0.5830 -0.0306  0.2224
 2943SOL    HW120288   2.141   0.572   5.208 -0.3919  1.4898  0.5492
 2943SOL    HW220289   2.093   0.503   5.088  1.0381 -0.3519  0.4754
 2944SOL     OW20290   3.296   3.393   5.322  0.4319  0.0222  0.2999
 2944SOL    HW120291   3.247   3.326   5.274 -0.4654 -0.8211  2.4017
 2944SOL    HW220292   3.225   3.453   5.344  0.6021 -0.1015  1.1635
 2945SOL     OW20293   1.564   3.026   8.728 -0.4424  0.0481 -0.5211
 2945SOL    HW120294   1.631   3.073   8.777 -0.7378  0.0512 -0.1147
 2945SOL    HW220295   1.533   2.976   8.804 -1.7005  1.5467 -0.0476
 2946SOL     OW20296   1.997   2.773   2.047  0.2111 -0.6794  0.5745
 2946SOL    HW120297   2.069   2.751   2.107 -1.3051 -1.2534  2.1811
 2946SOL    HW220298   1.956   2.842   2.100  1.4699  1.0198 -0.6674
 2947SOL     OW20299   2.933   0.784   7.303 -0.0327 -0.5395  0.1515
 2947SOL    HW120300   2.968   0.695   7.295  1.1137 -0.0931  0.2575
 2947SOL    HW220301   2.879   0.777   7.381  0.9977  1.1381  1.0278
 2948SOL     OW20302   4.368   2.217  15.915 -0.2524 -0.5167 -0.0329
 2948SOL    HW120303   4.278   2.201  15.886  0.2104  0.8059 -2.2352
 2948SOL    HW220304   4.419   2.222  15.834 -1.2058  1.0874 -0.5357
 2949SOL     OW20305   2.730   3.001   5.827  0.6580 -0.1401 -0.5454
 2949SOL    HW120306   2.731   2.910   5.795 -0.5044 -0.8190  1.3947
 2949SOL    HW220307   2.752   2.977   5.917 -0.1911  0.0476 -0.2975
 2950SOL     OW20308   3.615   3.356   2.899 -0.0904  0.4310  0.0599
 2950SOL    HW120309   3.620   3.271   2.857  0.9435 -0.4519  2.0003
 2950SOL    HW220310   3.705   3.386   2.911 -0.0587  0.1608  0.5151
 2951SOL     OW20311   2.765   1.760   0.454 -0.6258 -0.3833 -0.3266
 2951SOL    HW120312   2.800   1.740   0.541 -1.6752  0.7545  0.3608
 2951SOL    HW220313   2.726   1.680   0.418 -0.3027 -0.8720  0.4107
 2952SOL     OW20314   2.087   2.158   1.583 -0.0799 -0.4577  0.0580
 2952SOL    HW120315   2.113   2.086   1.525 -2.5075 -0.5151 -0.9768
 2952SOL    HW220316   1.995   2.163   1.558 -0.2728 -4.4311 -0.0250
 2953SOL     OW20317   4.035   1.942   1.507  0.1922  0.6553  0.8356
 2953SOL    HW120318   4.045   2.007   1.438 -1.4807 -2.0565 -1.9687
 2953SOL    HW220319   3.940   1.936   1.521  0.0503 -0.0233 -0.4164
 2954SOL     OW20320   4.571   1.921   7.348  0.2258 -0.2397  0.6362
 2954SOL    HW120321   4.531   2.005   7.371 -0.4971 -1.1491  2.6201
 2954SOL    HW220322   4.515   1.905   7.271 -0.7629 -0.3250  1.3663
 2955SOL     OW20323   3.457   3.619   2.726  0.2860 -0.4855  0.0276
 2955SOL    HW120324   3.509   3.560   2.781  0.9098  0.3258  0.3142
 2955SOL    HW220325   3.526   3.675   2.691  0.6696 -0.3782  0.9661
 2956SOL     OW20326   1.001   3.902   8.071  0.1713  0.5545 -0.1408
 2956SOL    HW120327   1.005   3.996   8.052  0.0321  0.4603 -0.6444
 2956SOL    HW220328   0.941   3.909   8.145  0.9257 -1.4309  0.6642
 2957SOL     OW20329   0.627   3.907   7.933  0.0951 -0.7834 -0.3422
 2957SOL    HW120330   0.575   3.938   8.007  1.2719 -1.9364  0.9567
 2957SOL    HW220331   0.673   3.988   7.907 -0.8682  0.4321  1.7704
 2958SOL     OW20332   0.346   2.059   3.741  0.2948  0.1329  0.4686
 2958SOL    HW120333   0.318   2.006   3.667  0.3351  0.0947  0.4807
 2958SOL    HW220334   0.441   2.047   3.746  0.1919 -0.7871  0.3155
 2959SOL     OW20335   2.803   0.261  12.007 -0.3619 -0.3249 -0.1796
 2959SOL    HW120336   2.791   0.275  11.913 -1.0368  1.7176  0.2264
 2959SOL    HW220337   2.723   0.212  12.025  0.7986 -1.1920  2.6234
 2960SOL     OW20338   4.014   2.725   7.199 -0.6827  0.2155 -0.5262
 2960SOL    HW120339   4.011   2.723   7.295  0.3659  0.0471 -0.5001
 2960SOL    HW220340   3.985   2.636   7.179  0.2649 -0.1823 -0.1390
 2961SOL     OW20341   2.475   4.072   3.741 -0.2732  0.4072 -0.1586
 2961SOL    HW120342   2.484   4.160   3.777  1.8386  1.0977 -2.4153
 2961SOL    HW220343   2.398   4.086   3.685 -0.4059  0.4849  0.0439
 2962SOL     OW20344   3.474   1.088   7.867  0.1225 -0.1743 -0.6096
 2962SOL    HW120345   3.398   1.033   7.846 -0.3739  0.0809  0.5000
 2962SOL    HW220346   3.536   1.018   7.890  0.1608 -0.0512 -0.3420
 2963SOL     OW20347   2.173   3.727   8.358  0.5959 -0.4018  0.0464
 2963SOL    HW120348   2.107   3.790   8.328  1.9949  1.1805  0.3030
 2963SOL    HW220349   2.235   3.785   8.401 -0.1827 -0.6037  1.4267
 2964SOL     OW20350   0.472   3.480   8.121  0.3192  0.2833 -0.2125
 2964SOL    HW120351   0.494   3.431   8.042  0.0786  0.1729 -0.2102
 2964SOL    HW220352   0.558   3.503   8.157 -0.9483  1.0159  2.3196
 2965SOL     OW20353   0.966   2.442   1.118 -0.0072 -0.1789  0.0806
 2965SOL    HW120354   0.912   2.401   1.184 -1.9640  0.3960 -1.1630
 2965SOL    HW220355   0.938   2.533   1.129  0.3178  0.1592 -1.8907
 2966SOL     OW20356   2.295   0.778   7.755  0.6582  0.0970  0.4837
 2966SOL    HW120357   2.299   0.742   7.844  1.8544  2.3825  1.3450
 2966SOL    HW220358   2.243   0.857   7.765  0.3194  0.2490 -2.4990
 2967SOL     OW20359   3.185   1.094  15.377 -0.5179 -0.1657  0.4922
 2967SOL    HW120360   3.218   1.057  15.294  0.3114 -0.2671  0.8656
 2967SOL    HW220361   3.125   1.157  15.338 -0.8671 -0.8422 -0.0542
 2968SOL     OW20362   3.565   0.603   3.133  0.1552 -0.1579 -0.0691
 2968SOL    HW120363   3.593   0.516   3.163  0.1491 -0.3126 -0.5152
 2968SOL    HW220364   3.611   0.672   3.181 -0.5181 -0.2160  0.6556
 2969SOL     OW20365   2.067   2.066  13.972 -0.0908 -0.3066 -0.2232
 2969SOL    HW120366   1.985   2.017  13.974 -0.6333  0.7121  2.5080
 2969SOL    HW220367   2.030   2.153  13.985 -0.3421 -0.2921 -0.9997
 2970SOL     OW20368   2.806   0.511  13.010 -0.5794  0.2422  0.0594
 2970SOL    HW120369   2.727   0.481  12.964  0.3859  1.5775 -2.4925
 2970SOL    HW220370   2.765   0.533  13.094 -1.3748 -0.1077 -0.2340
 2971SOL     OW20371   2.903   0.214   8.255 -0.2532  0.0047  0.4818
 2971SOL    HW120372   2.877   0.306   8.245  0.8930  0.1525 -1.2066
 2971SOL    HW220373   2.986   0.225   8.301  0.6102 -1.9491 -0.6417
 2972SOL     OW20374   1.391   2.852   7.763  0.8325  0.3640 -0.1723
 2972SOL    HW120375   1.316   2.801   7.794  0.3520  0.3136 -1.4133
 2972SOL    HW220376   1.458   2.830   7.827 -0.0653  0.1577  0.6982
 2973SOL     OW20377   2.763   3.753   7.169  0.6367 -0.2096  0.1354
 2973SOL    HW120378   2.693   3.690   7.183  1.6554 -0.8884  2.2376
 2973SOL    HW220379   2.824   3.734   7.240 -0.3569  0.4453  1.1701
 2974SOL     OW20380   0.748   4.622   7.123  0.6675 -0.0699  0.0994
 2974SOL    HW120381   0.703   4.676   7.187  1.3225 -2.1055  2.2836
 2974SOL    HW220382   0.809   4.567   7.171 -1.4007 -0.3978  2.3040
 2975SOL     OW20383   3.397   1.079   9.520  0.5443 -0.4465 -0.5476
 2975SOL    HW120384   3.344   1.038   9.451 -1.0589 -0.8354  0.9010
 2975SOL    HW220385   3.453   1.009   9.552  1.5532  0.1918 -0.9411
 2976SOL     OW20386   1.904   0.185   2.087 -0.1402  0.4949 -0.6988
 2976SOL    HW120387   1.998   0.196   2.096  0.0532  0.2862 -2.4781
 2976SOL    HW220388   1.882   0.102   2.130 -0.6600  2.0097  1.9483
 2977SOL     OW20389   4.436   4.621   6.115  0.0278 -0.2530 -0.9688
 2977SOL    HW120390   4.359   4.586   6.160 -1.3094  1.2974 -2.0673
 2977SOL    HW220391   4.422   4.593   6.025  0.3882 -0.3523 -0.9929
 2978SOL     OW20392   0.940   3.665   7.367 -0.1685  0.5267 -0.1179
 2978SOL    HW120393   0.952   3.654   7.273 -1.9254  2.6212 -0.5879
 2978SOL    HW220394   0.923   3.760   7.366  2.0275  0.9635  2.1371
 2979SOL     OW20395   0.316   0.948   6.105  0.7136 -0.4034  0.3673
 2979SOL    HW120396   0.335   1.029   6.059  3.3093 -0.4332  1.3725
 2979SOL    HW220397   0.222   0.949   6.088  1.0394  1.0303 -1.2812
 2980SOL     OW20398   0.262   0.602  16.556 -0.4946 -0.0910  0.5957
 2980SOL    HW120399   0.333   0.540  16.535 -0.6124 -0.7515  2.1392
 2980SOL    HW220400   0.292   0.636  16.641 -1.2522  1.8596  0.0801
 2981SOL     OW20401   4.684   1.269  13.145  0.9542 -0.7706 -0.0382
 2981SOL    HW120402   4.698   1.176  13.162  0.6644 -0.3911  2.3588
 2981SOL    HW220403   4.662   1.274  13.052 -0.5678 -1.4155  0.2890
 2982SOL     OW20404   1.629   3.153   1.571 -0.1102 -0.2248 -0.4264
 2982SOL    HW120405   1.641   3.099   1.493 -1.1200  0.1334 -0.8232
 2982SOL    HW220406   1.541   3.178   1.545  0.1372 -1.6304 -2.5872
 2983SOL     OW20407   3.956   3.915  12.111 -0.2406  0.9440  0.1902
 2983SOL    HW120408   4.007   3.847  12.066  1.9677 -0.4585  4.7427
 2983SOL    HW220409   3.869   3.876  12.116 -0.6658  1.8892  0.0339
 2984SOL     OW20410   1.431   4.608   2.541 -0.1217  0.0872 -0.2817
 2984SOL    HW120411   1.405   4.519   2.517  2.0056 -0.2912 -1.1828
 2984SOL    HW220412   1.516   4.591   2.581 -0.5999 -1.2514  0.1634
 2985SOL     OW20413   2.126   2.486   3.895 -0.2172  0.0077  0.2866
 2985SOL    HW120414   2.039   2.461   3.927  0.6180 -0.8438  1.9072
 2985SOL    HW220415   2.160   2.525   3.975 -0.3806 -0.0553  0.3879
 2986SOL     OW20416   2.002   2.085   1.323  0.3306 -0.3884  0.3313
 2986SOL    HW120417   2.081   2.068   1.273 -1.5640  0.9958 -3.1744
 2986SOL    HW220418   1.935   2.072   1.255  2.9593 -1.9938 -1.9688
 2987SOL     OW20419   0.563   2.735   6.184  0.6339 -0.0252 -0.6249
 2987SOL    HW120420   0.567   2.640   6.173  1.0060 -0.0969  0.0914
 2987SOL    HW220421   0.506   2.755   6.110  1.6172  1.4848 -0.9677
 2988SOL     OW20422   3.740   2.118   5.477 -0.0712  0.6794  0.3536
 2988SOL    HW120423   3.693   2.191   5.436 -0.9555 -0.6687 -1.0484
 2988SOL    HW220424   3.690   2.111   5.558 -2.9573  3.1129 -1.2146
 2989SOL     OW20425   4.421   4.621   3.187  0.4888  0.3932 -0.1559
 2989SOL    HW120426   4.330   4.646   3.174  0.4599 -0.3873 -1.4948
 2989SOL    HW220427   4.416   4.525   3.191  1.4640  0.2940 -1.1160
 2990SOL     OW20428   2.395   0.537   3.941 -0.4830  0.2828  0.2380
 2990SOL    HW120429   2.386   0.612   3.882 -0.8966  0.0358 -0.0059
 2990SOL    HW220430   2.403   0.463   3.881 -1.5783 -0.7076  1.3154
 2991SOL     OW20431   4.215   3.973   4.537 -0.4253  1.3135 -0.0211
 2991SOL    HW120432   4.149   3.939   4.597 -0.2650 -1.5443 -1.4550
 2991SOL    HW220433   4.172   4.055   4.513 -0.4777  1.2886 -0.0128
 2992SOL     OW20434   2.017   0.310   7.447  0.7110 -0.4879  0.4290
 2992SOL    HW120435   1.963   0.376   7.492 -1.2666 -0.5992 -1.7781
 2992SOL    HW220436   2.095   0.326   7.500 -1.2162  0.7165  2.9375
 2993SOL     OW20437   4.621   1.169   0.426  0.4103 -0.3760  0.4298
 2993SOL    HW120438   4.712   1.195   0.420 -0.5039  2.5076 -0.9869
 2993SOL    HW220439   4.615   1.196   0.517 -2.0512  0.0798  0.1330
 2994SOL     OW20440   0.838   4.542  11.767  0.0942  0.0152  0.3048
 2994SOL    HW120441   0.922   4.497  11.762  0.0301  0.2203 -2.7306
 2994SOL    HW220442   0.871   4.631  11.757 -1.7691  0.4259 -2.5491
 2995SOL     OW20443   3.342   2.618   4.639 -0.3089 -0.1591  0.4239
 2995SOL    HW120444   3.364   2.530   4.671  1.5085  0.4192  0.8033
 2995SOL    HW220445   3.368   2.674   4.713 -1.0960  1.0702 -0.2337
 2996SOL     OW20446   1.858   4.021  15.079 -0.8494  0.5843  0.1994
 2996SOL    HW120447   1.926   4.080  15.113  0.1506 -0.0233 -0.7514
 2996SOL    HW220448   1.870   4.018  14.984  0.0119  0.1165  0.3248
 2997SOL     OW20449   3.189   4.013   8.547 -0.3012 -0.4226  0.5953
 2997SOL    HW120450   3.183   3.924   8.511  2.1027 -0.8784  1.3357
 2997SOL    HW220451   3.101   4.049   8.536 -0.7230 -1.8868 -0.8049
 2998SOL     OW20452   2.153   4.102   5.654  0.5027  0.0444  0.9213
 2998SOL    HW120453   2.233   4.052   5.669  0.9833  0.8477  1.0038
 2998SOL    HW220454   2.154   4.173   5.718 -1.8355 -0.5974  1.6819
 2999SOL     OW20455   1.343   2.029  11.403 -0.8264 -0.4863 -0.0008
 2999SOL    HW120456   1.326   1.938  11.377 -0.3542 -0.7720  0.7135
 2999SOL    HW220457   1.288   2.084  11.347  0.5148 -0.3415 -1.1738
 3000SOL     OW20458   3.041   2.164   2.013  0.4194 -0.2297  0.8661
 3000SOL    HW120459   3.048   2.210   1.929 -3.7959 -0.3725  0.4544
 3000SOL    HW220460   2.975   2.097   1.995  1.0405  0.0298 -2.2619
 3001SOL     OW20461   3.500   2.337   6.821  0.0457  0.3746 -0.6553
 3001SOL    HW120462   3.572   2.356   6.881  0.6579 -0.5918 -1.0809
 3001SOL    HW220463   3.548   2.321   6.739 -0.4142 -0.6643 -0.7251
 3002SOL     OW20464   0.992   3.211  16.349 -0.0763  0.3912 -0.5580
 3002SOL    HW120465   1.052   3.231  16.277 -0.8777 -0.6650 -1.5126
 3002SOL    HW220466   1.010   3.117  16.348  0.5980  0.4908  3.0973
 3003SOL     OW20467   3.406   2.948   2.988  0.0765 -0.1789 -0.5148
 3003SOL    HW120468   3.319   2.977   3.014  0.1508 -0.6325  0.2352
 3003SOL    HW220469   3.404   2.990   2.902 -1.3732 -2.5528 -1.6274
 3004SOL     OW20470   2.468   4.593   4.633 -0.3206 -0.3439 -0.6651
 3004SOL    HW120471   2.537   4.642   4.677  1.0268 -1.3001 -1.7079
 3004SOL    HW220472   2.509   4.510   4.610 -1.8843 -0.2705 -3.7353
 3005SOL     OW20473   0.082   0.095   7.594 -0.2387  0.4085  0.9287
 3005SOL    HW120474   0.036   0.178   7.576 -0.4482  0.1995  0.4894
 3005SOL    HW220475   0.134   0.117   7.671 -1.3580  2.0672  1.2230
 3006SOL     OW20476   1.257   3.275  11.834  0.1970  0.2653  0.0456
 3006SOL    HW120477   1.206   3.352  11.811  0.1404 -0.3977 -2.0460
 3006SOL    HW220478   1.189   3.222  11.877 -0.1120 -0.2539 -1.0710
 3007SOL     OW20479   1.318   1.977   6.011 -0.1486  0.4278 -0.2307
 3007SOL    HW120480   1.351   2.052   6.061 -0.4210  1.0418 -0.9633
 3007SOL    HW220481   1.370   1.996   5.933  0.0369  1.3928  0.1170
 3008SOL     OW20482   2.100   4.496  17.629 -0.5124  0.4490  0.3537
 3008SOL    HW120483   2.068   4.432  17.693  1.0109  0.3724  1.0623
 3008SOL    HW220484   2.189   4.511  17.662  0.4229 -0.5678 -1.6800
 3009SOL     OW20485   1.303   1.506   9.218  0.1139  0.4707 -0.4843
 3009SOL    HW120486   1.372   1.439   9.222 -1.5563 -1.1655  0.5523
 3009SOL    HW220487   1.235   1.457   9.172 -0.4564 -0.2835  1.1903
 3010SOL     OW20488   2.519   2.299   0.352 -0.0822 -0.1061 -0.1466
 3010SOL    HW120489   2.551   2.259   0.271  1.3563 -0.0105  0.3784
 3010SOL    HW220490   2.484   2.222   0.397  0.1964 -0.3316 -0.3198
 3011SOL     OW20491   0.151   1.595  12.871 -0.2932 -0.0579 -0.1005
 3011SOL    HW120492   0.181   1.523  12.815 -0.7363 -0.2414 -0.1054
 3011SOL    HW220493   0.067   1.613  12.829 -0.2988  2.8273  1.1438
 3012SOL     OW20494   2.685   4.296   8.599  0.2773 -0.7012  0.1698
 3012SOL    HW120495   2.602   4.281   8.554  0.6202 -1.3710 -0.2499
 3012SOL    HW220496   2.683   4.391   8.591  0.4425 -0.9135 -2.5283
 3013SOL     OW20497   0.746   3.729   5.399  0.2380 -0.0001  0.7209
 3013SOL    HW120498   0.655   3.727   5.370  0.6464  0.5439 -0.5814
 3013SOL    HW220499   0.795   3.679   5.334 -2.8850  0.5490 -1.9933
 3014SOL     OW20500   4.119   0.525   1.740  0.0624 -0.1124  0.0726
 3014SOL    HW120501   4.149   0.448   1.692  0.7270 -0.4639  1.0688
 3014SOL    HW220502   4.041   0.502   1.790  0.1233 -0.1616  0.1444
 3015SOL     OW20503   0.345   4.038   1.357  0.2750  0.0678 -0.3127
 3015SOL    HW120504   0.405   4.044   1.431  1.9583 -3.1067 -1.3884
 3015SOL    HW220505   0.340   3.944   1.336  0.1262  0.2402 -1.0652
 3016SOL     OW20506   1.013   4.085   4.066  0.3236 -0.2550  0.3450
 3016SOL    HW120507   0.953   4.148   4.106 -1.1207 -0.1921 -1.8553
 3016SOL    HW220508   0.974   4.002   4.093  2.1852 -1.9882 -2.2294
 3017SOL     OW20509   2.858   2.314   6.814 -0.4313  0.2809 -0.5064
 3017SOL    HW120510   2.916   2.363   6.756  0.6753 -0.4560 -0.0147
 3017SOL    HW220511   2.918   2.291   6.885 -0.2559  2.9985  0.2236
 3018SOL     OW20512   1.635   0.739   4.335  0.2209  1.2642 -0.3035
 3018SOL    HW120513   1.702   0.676   4.360 -0.8048  0.0889 -0.5410
 3018SOL    HW220514   1.659   0.753   4.243  0.0795 -1.8158 -0.7876
 3019SOL     OW20515   2.095   2.743   3.603  0.0626  0.3290  0.8322
 3019SOL    HW120516   2.178   2.757   3.650  0.0244  3.7166 -0.1415
 3019SOL    HW220517   2.022   2.762   3.661  0.8016 -0.7713  2.1192
 3020SOL     OW20518   2.101   3.377  12.633 -0.3685 -0.0096 -0.0229
 3020SOL    HW120519   2.084   3.461  12.591 -0.5587 -0.4612 -0.8472
 3020SOL    HW220520   2.100   3.390  12.728  1.0541 -0.1631  0.0160
 3021SOL     OW20521   3.532   3.812   8.589  0.3407  0.5251 -0.3326
 3021SOL    HW120522   3.451   3.812   8.537  0.2205  0.6994 -0.1448
 3021SOL    HW220523   3.540   3.720   8.616 -3.2123  0.2289 -0.3142
 3022SOL     OW20524   1.376   0.966   6.831 -0.4901 -0.1075  0.3801
 3022SOL    HW120525   1.292   1.008   6.813 -0.6298 -1.1143 -1.3103
 3022SOL    HW220526   1.365   0.935   6.921 -1.0472  1.5415  0.8954
 3023SOL     OW20527   2.081   4.247  11.902 -0.0983  0.2285  0.1498
 3023SOL    HW120528   2.137   4.189  11.851  0.0258  0.6562 -0.2093
 3023SOL    HW220529   2.000   4.233  11.853  2.4587  1.0252 -4.3557
 3024SOL     OW20530   0.100   0.635   8.005  0.1503 -0.5155 -0.2976
 3024SOL    HW120531   0.099   0.728   7.980  0.5841  0.2545  2.5940
 3024SOL    HW220532   0.170   0.597   7.952  0.8060 -1.4764  1.2947
 3025SOL     OW20533   0.232   0.419  11.691  0.2894  0.3251  0.5509
 3025SOL    HW120534   0.310   0.469  11.667 -1.9217  3.9202  0.9744
 3025SOL    HW220535   0.179   0.473  11.749 -1.0071 -2.1425  1.6337
 3026SOL     OW20536   3.956   1.857   6.129 -0.0744  0.0441 -1.1361
 3026SOL    HW120537   4.030   1.831   6.074  0.6333 -0.9321  0.2727
 3026SOL    HW220538   3.947   1.775   6.178  0.4163  1.2046  0.8858
 3027SOL     OW20539   2.799   3.676   6.304 -0.0349 -0.1745 -0.3545
 3027SOL    HW120540   2.774   3.741   6.369  3.0290  0.9202 -0.2694
 3027SOL    HW220541   2.868   3.625   6.347  0.1751  0.6587  0.3001
 3028SOL     OW20542   1.320   3.468   2.681 -0.1181 -0.2855  0.1132
 3028SOL    HW120543   1.310   3.450   2.774 -1.0705  0.8934  0.2309
 3028SOL    HW220544   1.361   3.386   2.652  1.0771 -0.5373  2.5799
 3029SOL     OW20545   2.218   3.212   6.811  0.0974  0.7177  0.3617
 3029SOL    HW120546   2.179   3.198   6.724 -1.6149  3.3056  0.7259
 3029SOL    HW220547   2.307   3.180   6.796 -0.1028  0.5653 -0.5106
 3030SOL     OW20548   2.612   0.874  17.566 -0.3195  0.2053  1.0261
 3030SOL    HW120549   2.683   0.819  17.599  0.1593  0.1832 -0.0440
 3030SOL    HW220550   2.634   0.959  17.604  0.4545  0.6656 -0.4461
 3031SOL     OW20551   1.779   1.090   0.217 -0.2335 -0.0533  0.1469
 3031SOL    HW120552   1.758   1.043   0.298  1.0640 -1.0315 -0.0978
 3031SOL    HW220553   1.855   1.141   0.243 -0.5284  0.8077 -0.6729
 3032SOL     OW20554   4.578   0.334   6.816 -0.5487 -0.1722  0.7896
 3032SOL    HW120555   4.528   0.262   6.776 -1.4737  0.5390  0.6667
 3032SOL    HW220556   4.641   0.281   6.864 -0.3243  0.3032  1.0093
 3033SOL     OW20557   3.616   4.072   4.522  0.0952  0.4966 -0.9547
 3033SOL    HW120558   3.584   4.078   4.432  0.9647  2.2737 -1.1560
 3033SOL    HW220559   3.561   4.001   4.554  1.5820 -0.2073  0.0276
 3034SOL     OW20560   2.880   2.308   8.097 -0.5849 -0.1648  0.3077
 3034SOL    HW120561   2.874   2.384   8.155  0.3984  1.4995 -1.7752
 3034SOL    HW220562   2.932   2.344   8.025 -0.1886  1.3686  1.3539
 3035SOL     OW20563   1.368   2.152   9.546 -0.4863 -0.1220  0.0256
 3035SOL    HW120564   1.425   2.174   9.621 -0.4590 -1.6207  0.4441
 3035SOL    HW220565   1.291   2.118   9.590 -0.1158  1.3716  1.8855
 3036SOL     OW20566   1.265   0.317   3.858  0.0953 -0.3396 -0.0186
 3036SOL    HW120567   1.234   0.234   3.821 -2.4672  0.6630 -0.1121
 3036SOL    HW220568   1.245   0.305   3.951 -0.7695 -1.3415 -0.3382
 3037SOL     OW20569   1.117   2.256   2.744  0.1325 -0.3582 -0.3244
 3037SOL    HW120570   1.165   2.181   2.708  0.6273 -1.1893  2.0605
 3037SOL    HW220571   1.045   2.208   2.785 -1.7524  0.3532 -2.7754
 3038SOL     OW20572   3.187   3.541  15.424 -0.1427  0.1913  0.0313
 3038SOL    HW120573   3.133   3.602  15.374 -0.5699 -0.4416 -0.2788
 3038SOL    HW220574   3.268   3.537  15.373  0.5659  0.1034  1.1696
 3039SOL     OW20575   3.742   3.580  12.749  0.2130 -0.3101 -0.1840
 3039SOL    HW120576   3.774   3.657  12.704  3.3285 -0.5208  1.6591
 3039SOL    HW220577   3.827   3.552  12.782 -0.7960 -4.4763 -1.0940
 3040SOL     OW20578   0.713   3.885   3.399 -0.5199 -0.1661 -0.1572
 3040SOL    HW120579   0.666   3.947   3.455  1.4623 -0.2602  1.6233
 3040SOL    HW220580   0.643   3.823   3.377  0.5198 -1.0575 -0.9510
 3041SOL     OW20581   2.900   0.097   4.183 -0.0615  0.4587 -0.4040
 3041SOL    HW120582   2.811   0.117   4.212  0.1861  0.8154  0.1134
 3041SOL    HW220583   2.887   0.044   4.105  1.7707  0.0714 -0.4526
 3042SOL     OW20584   0.023   3.811  10.302  0.2949  0.1914 -0.0683
 3042SOL    HW120585   0.033   3.895  10.346 -0.6948 -0.0420  0.6031
 3042SOL    HW220586   0.091   3.763  10.349 -1.5127 -1.5572  0.7745
 3043SOL     OW20587   0.201   2.134  12.969 -0.6068  0.2683  0.2777
 3043SOL    HW120588   0.211   2.043  12.943  0.5496  0.5821 -0.4233
 3043SOL    HW220589   0.185   2.121  13.062 -0.1745 -1.0762  0.1614
 3044SOL     OW20590   1.625   2.191  11.453 -0.4638 -0.2980 -0.5363
 3044SOL    HW120591   1.572   2.264  11.419 -1.7072 -0.8223  0.2774
 3044SOL    HW220592   1.664   2.156  11.374  2.0250  0.5708  0.2909
 3045SOL     OW20593   0.572   0.297   6.574 -0.0820 -0.3408  0.1511
 3045SOL    HW120594   0.655   0.311   6.527  0.0171 -2.2756 -0.2180
 3045SOL    HW220595   0.602   0.232   6.638  0.7915  0.6004  0.7158
 3046SOL     OW20596   4.001   3.156   6.716 -0.4570  0.7701  0.9558
 3046SOL    HW120597   4.016   3.062   6.707 -1.7230  0.6186  0.4690
 3046SOL    HW220598   4.042   3.171   6.802 -0.5216 -0.1531  1.1481
 3047SOL     OW20599   1.378   4.624   3.321  0.5552 -0.3263  0.4524
 3047SOL    HW120600   1.309   4.629   3.254  0.2866  0.0316  0.7600
 3047SOL    HW220601   1.344   4.576   3.396 -1.4645 -0.6994 -0.6925
 3048SOL     OW20602   4.533   3.536   1.456 -0.3324 -0.1923 -0.0756
 3048SOL    HW120603   4.626   3.551   1.474 -0.5648 -0.0195  0.9614
 3048SOL    HW220604   4.522   3.453   1.502  0.7274 -0.2373  0.0958
 3049SOL     OW20605   3.050   0.269   0.091 -0.2550 -0.7538 -0.2220
 3049SOL    HW120606   3.075   0.273  17.694 -0.2728  2.6580 -0.0530
 3049SOL    HW220607   3.128   0.229   0.131  0.3175 -1.5539 -2.1266
 3050SOL     OW20608   1.817   1.188   2.887  0.2687  0.0995  0.1180
 3050SOL    HW120609   1.894   1.235   2.856 -0.7567  1.7561  0.1198
 3050SOL    HW220610   1.854   1.141   2.963  1.5778  0.5783 -0.2279
 3051SOL     OW20611   3.192   1.355   7.547  0.6463  0.4098  0.1153
 3051SOL    HW120612   3.103   1.321   7.556  1.4103 -1.6483 -0.1999
 3051SOL    HW220613   3.214   1.394   7.632  1.9287 -1.0599  0.4496
 3052SOL     OW20614   3.098   0.134   4.902  0.5553  0.3601 -0.2343
 3052SOL    HW120615   3.148   0.057   4.874  1.2782  0.4284  0.8693
 3052SOL    HW220616   3.053   0.139   4.818 -0.4722 -1.0654  0.2154
 3053SOL     OW20617   1.168   1.527  13.874  0.2458 -0.8307 -0.0174
 3053SOL    HW120618   1.228   1.562  13.940  0.3489  0.3047 -0.7142
 3053SOL    HW220619   1.222   1.463  13.828 -0.0516 -0.2196 -1.2320
 3054SOL     OW20620   1.307   2.931   5.288  0.2777 -0.4585  0.0488
 3054SOL    HW120621   1.323   2.889   5.373 -1.4125  0.2697  0.7346
 3054SOL    HW220622   1.240   2.996   5.312  1.9874  1.2823  0.1258
 3055SOL     OW20623   1.184   4.436  17.367  0.8329 -0.3068  0.1227
 3055SOL    HW120624   1.107   4.461  17.417 -0.2141  0.2068 -1.7388
 3055SOL    HW220625   1.226   4.522  17.371  0.5993 -0.2657  1.5120
 3056SOL     OW20626   3.820   1.732   5.113  0.5042  0.2295  0.6809
 3056SOL    HW120627   3.828   1.796   5.043 -2.1132  1.3706  1.4285
 3056SOL    HW220628   3.749   1.765   5.169 -1.2496  1.0670 -2.0626
 3057SOL     OW20629   4.261   0.748   3.197 -0.0280 -0.1467  0.2375
 3057SOL    HW120630   4.299   0.812   3.136  0.6587 -1.1384 -0.3668
 3057SOL    HW220631   4.191   0.708   3.145  0.4267  0.1240 -0.5829
 3058SOL     OW20632   1.390   3.812   8.632  0.3269  0.1878  0.1792
 3058SOL    HW120633   1.412   3.719   8.637 -0.4768 -0.0522 -0.7098
 3058SOL    HW220634   1.347   3.816   8.717 -0.7192 -0.0746 -0.3319
 3059SOL     OW20635   4.374   4.663  16.773 -0.0653 -0.3123 -0.6053
 3059SOL    HW120636   4.390   0.028  16.805  0.0960  0.1415 -1.9411
 3059SOL    HW220637   4.392   4.602  16.845 -3.2079 -0.2820  0.2228
 3060SOL     OW20638   0.761   0.741   3.292 -0.3784 -0.3396  0.4608
 3060SOL    HW120639   0.684   0.760   3.346  1.2009  1.1239  2.2079
 3060SOL    HW220640   0.708   0.734   3.212 -0.0534  1.2931  0.1071
 3061SOL     OW20641   0.921   0.713  14.529  0.4047  0.1287  0.0921
 3061SOL    HW120642   0.996   0.721  14.588  0.7223  1.6013 -0.5170
 3061SOL    HW220643   0.949   0.770  14.458  0.5040  0.8754  0.7271
 3062SOL     OW20644   3.603   2.404   3.731  0.0123  0.5528 -0.3387
 3062SOL    HW120645   3.598   2.471   3.799  0.0495 -0.4644  0.6740
 3062SOL    HW220646   3.654   2.456   3.669  0.3525  0.8305  0.1744
 3063SOL     OW20647   2.929   2.396   9.258 -0.2131  0.5439 -0.4230
 3063SOL    HW120648   2.908   2.322   9.315 -1.3916  0.8183 -0.5040
 3063SOL    HW220649   2.897   2.467   9.313  1.6040  0.8740  0.2041
 3064SOL     OW20650   2.641   1.318   4.051  0.1799  0.5271  0.1244
 3064SOL    HW120651   2.684   1.301   4.135 -1.9000 -1.2188  0.8155
 3064SOL    HW220652   2.553   1.282   4.060  0.9595 -0.9368  1.8828
 3065SOL     OW20653   2.798   3.646  10.352 -0.2136 -0.3278 -0.3576
 3065SOL    HW120654   2.864   3.592  10.309 -1.1165 -0.4908 -1.5628
 3065SOL    HW220655   2.789   3.711  10.283 -2.3440  1.0751  1.2469
 3066SOL     OW20656   1.214   2.687   3.617 -0.0604  0.2283  0.0705
 3066SOL    HW120657   1.179   2.765   3.574  1.3006  0.3323 -0.8405
 3066SOL    HW220658   1.200   2.627   3.543 -1.3448 -0.2487  0.7026
 3067SOL     OW20659   1.059   0.490  14.152 -0.1591  0.2088  0.1822
 3067SOL    HW120660   1.106   0.570  14.127  0.3129 -0.0273  0.3081
 3067SOL    HW220661   1.119   0.421  14.124 -0.0457  0.9322 -1.3533
 3068SOL     OW20662   3.821   0.009   0.578  0.0936 -0.3050  0.2329
 3068SOL    HW120663   3.807   0.075   0.646 -0.5520  0.3851 -0.5666
 3068SOL    HW220664   3.736   4.688   0.582  1.6148 -3.4740 -2.8930
 3069SOL     OW20665   3.940   1.393  10.159 -0.7404  0.7537  0.0001
 3069SOL    HW120666   3.915   1.337  10.085  1.3638 -0.6017  0.3110
 3069SOL    HW220667   3.961   1.474  10.112  1.1989  0.3602  0.1829
 3070SOL     OW20668   2.639   3.531   9.709  0.6041 -0.6481 -0.0875
 3070SOL    HW120669   2.580   3.470   9.753  2.0325 -2.2579 -0.4020
 3070SOL    HW220670   2.578   3.585   9.660  4.0669  1.5211 -2.0566
 3071SOL     OW20671   1.548   0.851   2.811 -0.7755  0.3940  0.2674
 3071SOL    HW120672   1.592   0.935   2.805  0.0227 -0.0090  0.4238
 3071SOL    HW220673   1.473   0.860   2.870 -0.5715  1.2867  0.3926
 3072SOL     OW20674   3.764   2.837   8.188  0.1332  0.0491 -0.6244
 3072SOL    HW120675   3.754   2.900   8.259  0.9822  1.9595 -2.1965
 3072SOL    HW220676   3.817   2.888   8.127 -0.1427  3.1144  1.7056
 3073SOL     OW20677   4.661   1.255   4.011 -0.4324  0.0895 -0.2032
 3073SOL    HW120678   4.633   1.336   3.968  1.2409  0.8149  0.0780
 3073SOL    HW220679   0.032   1.264   4.004 -0.6358 -0.3840 -3.7321
 3074SOL     OW20680   0.736   3.228   6.442 -0.1801 -0.6359 -0.1879
 3074SOL    HW120681   0.730   3.318   6.411  0.2581 -0.0973  1.2590
 3074SOL    HW220682   0.832   3.222   6.446 -0.0500  2.1805  1.0681
 3075SOL     OW20683   3.494   3.648  14.631 -0.2141  0.5303 -0.2065
 3075SOL    HW120684   3.540   3.729  14.611  1.3141 -0.2041  0.3350
 3075SOL    HW220685   3.491   3.619  14.540  0.9577 -0.8895  0.2049
 3076SOL     OW20686   1.952   1.164   8.665 -0.1984  0.1919 -0.8345
 3076SOL    HW120687   2.036   1.199   8.635 -0.2540  1.0409 -0.0057
 3076SOL    HW220688   1.940   1.203   8.752  0.1469  0.7289 -1.0254
 3077SOL     OW20689   4.640   3.871   6.029  0.1258  0.4722  0.1196
 3077SOL    HW120690   4.623   3.778   6.013 -0.0263  0.3916  0.7349
 3077SOL    HW220691   4.642   3.873   6.125  0.3420  1.3559  0.0930
 3078SOL     OW20692   0.521   1.347  11.936 -0.3973 -0.2313 -0.5859
 3078SOL    HW120693   0.530   1.329  11.842 -0.4923 -0.5192 -0.5427
 3078SOL    HW220694   0.613   1.346  11.962  0.1241 -0.1291 -2.4363
 3079SOL     OW20695   4.610   3.090  16.304 -0.0274 -0.4794  0.5183
 3079SOL    HW120696   4.542   3.025  16.316 -0.1097 -1.0345 -2.8673
 3079SOL    HW220697   4.578   3.120  16.219 -2.0428  1.2925  1.9251
 3080SOL     OW20698   0.520   4.154  16.850  0.4814  0.0345  0.4836
 3080SOL    HW120699   0.537   4.183  16.940  0.5562  1.2143  0.0878
 3080SOL    HW220700   0.607   4.173  16.815  0.7823 -0.9471  0.6922
 3081SOL     OW20701   3.167   1.393   7.821  0.2767 -0.1108 -0.5881
 3081SOL    HW120702   3.261   1.407   7.824  0.3536 -0.9334  0.9806
 3081SOL    HW220703   3.154   1.304   7.852  1.4147 -0.2487 -0.5068
 3082SOL     OW20704   3.374   0.120  13.232  0.1951  1.0597 -0.0041
 3082SOL    HW120705   3.319   0.065  13.175 -1.9256  1.2450  1.8680
 3082SOL    HW220706   3.348   0.206  13.198 -0.3740  1.4953  1.5240
 3083SOL     OW20707   0.367   1.623  16.437  0.4149  0.3783  0.5932
 3083SOL    HW120708   0.403   1.711  16.445  0.6635  0.5742 -2.5486
 3083SOL    HW220709   0.400   1.599  16.351 -2.0162  0.3839 -0.3547
 3084SOL     OW20710   1.168   2.503   5.460  0.9194 -0.0386  0.0757
 3084SOL    HW120711   1.246   2.512   5.515 -1.1141 -2.7057  3.3529
 3084SOL    HW220712   1.145   2.413   5.481 -2.1357  0.2484 -1.9721
 3085SOL     OW20713   1.105   1.361   9.076  0.0084  0.2483 -0.3599
 3085SOL    HW120714   1.038   1.427   9.094  0.9112  0.7041  1.4218
 3085SOL    HW220715   1.163   1.404   9.013  0.1266  1.4875  0.5925
 3086SOL     OW20716   0.945   1.232   9.326 -0.6219 -0.3677 -0.4462
 3086SOL    HW120717   0.948   1.160   9.389  0.1433  2.6869  3.0298
 3086SOL    HW220718   1.001   1.298   9.368 -1.0091  0.8137 -1.8036
 3087SOL     OW20719   2.561   1.998  15.774 -0.3706 -0.0090 -0.7422
 3087SOL    HW120720   2.478   2.046  15.774 -1.3413 -1.6636 -2.8934
 3087SOL    HW220721   2.612   2.046  15.709 -0.8851 -2.2354 -2.8288
 3088SOL     OW20722   4.029   3.107   4.419  0.2231 -0.1565  0.0204
 3088SOL    HW120723   3.984   3.029   4.385 -1.2150  1.8818 -2.8273
 3088SOL    HW220724   3.953   3.159   4.444  0.7379  1.0342 -0.8599
 3089SOL     OW20725   0.140   3.858   3.846 -0.5116 -0.1145  0.1823
 3089SOL    HW120726   0.128   3.864   3.941  0.3521  2.8105  0.1121
 3089SOL    HW220727   0.076   3.795   3.815  0.3157 -1.3747  1.0332
 3090SOL     OW20728   3.239   2.417   2.330 -0.4519 -0.1609 -0.3224
 3090SOL    HW120729   3.149   2.421   2.296 -0.8498 -1.7205  0.5397
 3090SOL    HW220730   3.229   2.457   2.416  0.6587  1.9824 -1.2033
 3091SOL     OW20731   0.527   3.943  13.653 -0.3756  0.0824 -0.2161
 3091SOL    HW120732   0.499   3.923  13.742 -0.8311  0.8788 -0.1794
 3091SOL    HW220733   0.618   3.971  13.667 -0.5707  0.7440 -0.2879
 3092SOL     OW20734   4.669   4.006  11.099 -0.3177  0.3670  0.0540
 3092SOL    HW120735   4.654   3.912  11.088  0.8844  0.1427  0.3691
 3092SOL    HW220736   4.705   4.008  11.188 -0.5734  1.3810  0.1390
 3093SOL     OW20737   2.318   0.624   5.262 -0.3159 -0.0166 -0.4950
 3093SOL    HW120738   2.347   0.622   5.170  0.3922  0.3254 -0.2793
 3093SOL    HW220739   2.394   0.662   5.305 -0.4971  0.7995 -0.9068
 3094SOL     OW20740   1.728   2.599   0.491  0.3070  0.9220  0.0036
 3094SOL    HW120741   1.782   2.638   0.559  1.4247 -2.6871  1.1811
 3094SOL    HW220742   1.648   2.571   0.535 -0.1278  1.0753 -0.6855
 3095SOL     OW20743   4.346   4.376   4.262  0.0254  0.1550  0.0325
 3095SOL    HW120744   4.368   4.436   4.191 -1.0157 -0.0102 -0.4368
 3095SOL    HW220745   4.381   4.424   4.338 -1.1840 -0.2753  0.8660
 3096SOL     OW20746   2.960   2.924   3.739  0.0823 -0.2491  0.7119
 3096SOL    HW120747   2.964   2.933   3.834  2.1337 -2.2577  0.8168
 3096SOL    HW220748   2.877   2.877   3.745  1.4065 -2.7018 -0.2064
 3097SOL     OW20749   0.056   1.969  16.386 -0.1499 -0.0386 -0.1499
 3097SOL    HW120750   4.692   1.935  16.405  0.2267 -1.1913 -0.4623
 3097SOL    HW220751   0.107   1.909  16.440 -0.9756 -0.6685 -0.0786
 3098SOL     OW20752   4.372   2.798   4.514 -0.1708 -0.2308  0.1955
 3098SOL    HW120753   4.334   2.769   4.431  0.1837  0.3828 -0.1764
 3098SOL    HW220754   4.300   2.853   4.544 -0.0913 -0.3512  0.6047
 3099SOL     OW20755   4.280   0.392   2.559  0.2676 -0.2991 -0.0186
 3099SOL    HW120756   4.324   0.413   2.476 -0.1792  1.0542  0.0818
 3099SOL    HW220757   4.246   0.481   2.569  0.0493 -0.5619  1.5002
 3100SOL     OW20758   4.232   0.278  10.776  0.3608 -0.6299 -0.1331
 3100SOL    HW120759   4.177   0.304  10.701  1.1158 -0.8652 -0.7668
 3100SOL    HW220760   4.166   0.301  10.842  2.5126  2.0288  1.1172
 3101SOL     OW20761   4.035   4.303   0.477  1.0116  0.0693  0.6852
 3101SOL    HW120762   4.007   4.215   0.501 -0.7960  0.7025  0.9248
 3101SOL    HW220763   4.051   4.336   0.565  0.0144 -0.7884  1.1825
 3102SOL     OW20764   0.606   3.085  14.947 -0.0109  0.3292  0.1485
 3102SOL    HW120765   0.550   3.011  14.970  0.1453  0.2070  0.1424
 3102SOL    HW220766   0.552   3.155  14.983 -1.9286 -0.0386 -2.0320
 3103SOL     OW20767   2.649   3.711   0.372  0.4807  0.3952 -0.0516
 3103SOL    HW120768   2.633   3.620   0.395  1.0132  0.3146 -0.0010
 3103SOL    HW220769   2.624   3.761   0.450 -0.3750  1.7115 -1.1517
 3104SOL     OW20770   4.417   1.389   3.561  0.2196  0.4654 -0.2973
 3104SOL    HW120771   4.328   1.383   3.597  0.6481  2.4796  1.1354
 3104SOL    HW220772   4.444   1.299   3.577  0.4464  0.2844 -1.7599
 3105SOL     OW20773   0.912   3.074  10.262  0.0612 -0.5018  0.1509
 3105SOL    HW120774   0.989   3.054  10.314  0.2240  0.4295  0.2725
 3105SOL    HW220775   0.917   3.169  10.278  0.1511 -0.1127 -2.1716
 3106SOL     OW20776   1.049   0.280   3.576  0.2574  0.1613 -0.2242
 3106SOL    HW120777   1.051   0.206   3.516  1.5070  0.0965 -0.1008
 3106SOL    HW220778   1.093   0.242   3.652  1.4490  0.3715 -0.8180
 3107SOL     OW20779   3.341   0.519  13.687  0.1708  0.0529  0.1959
 3107SOL    HW120780   3.298   0.573  13.753  0.1775  0.5917 -0.2456
 3107SOL    HW220781   3.266   0.465  13.660  0.3262 -0.7943  1.4304
 3108SOL     OW20782   1.169   1.151   5.440 -0.1808 -0.4180  0.2326
 3108SOL    HW120783   1.219   1.159   5.521  1.7384 -1.5447 -0.8393
 3108SOL    HW220784   1.093   1.207   5.452  0.1668 -0.5449  2.9283
 3109SOL     OW20785   0.815   1.924   2.479 -0.3563 -0.4378  0.0931
 3109SOL    HW120786   0.796   1.997   2.538 -0.7684 -0.6594  0.2339
 3109SOL    HW220787   0.734   1.912   2.430 -0.1401 -1.2463 -0.0664
 3110SOL     OW20788   3.680   2.559  15.933  0.5008 -0.5981  0.0065
 3110SOL    HW120789   3.681   2.469  15.900  2.7019 -0.8311  0.7531
 3110SOL    HW220790   3.587   2.582  15.935  0.4975 -0.6350  0.3198
 3111SOL     OW20791   4.133   1.258   3.496 -0.7684  0.1683 -0.4705
 3111SOL    HW120792   4.151   1.295   3.582  2.3223 -0.0674 -1.0185
 3111SOL    HW220793   4.116   1.169   3.527  0.0479 -0.4199 -1.7144
 3112SOL     OW20794   2.980   3.026   1.429 -0.1183 -0.1848 -0.7042
 3112SOL    HW120795   2.889   3.050   1.449 -0.5704 -1.5669 -1.1194
 3112SOL    HW220796   3.027   3.105   1.456 -2.0731  1.3218 -1.6628
 3113SOL     OW20797   0.514   2.952   7.534 -0.0569 -0.0223 -0.1192
 3113SOL    HW120798   0.561   2.939   7.452 -1.9071 -1.2916 -0.9780
 3113SOL    HW220799   0.456   2.877   7.523  2.3320 -2.1933  2.0885
 3114SOL     OW20800   1.176   0.808   5.600  0.1522  0.8896 -0.2654
 3114SOL    HW120801   1.217   0.721   5.603 -0.0867  0.8732  1.9598
 3114SOL    HW220802   1.238   0.853   5.542  1.7548 -0.8387  0.1057
 3115SOL     OW20803   2.069   3.343   4.872 -0.1373 -0.0557  0.5307
 3115SOL    HW120804   2.154   3.315   4.837  1.0454  0.7834  2.7486
 3115SOL    HW220805   2.080   3.392   4.954 -1.0758  1.4687 -0.2551
 3116SOL     OW20806   0.130   0.242   2.712 -0.4942  0.0434 -0.1029
 3116SOL    HW120807   0.171   0.159   2.686  1.1497  0.7540  0.2157
 3116SOL    HW220808   0.093   0.274   2.629  0.2752 -0.1891 -0.5338
 3117SOL     OW20809   3.632   1.215   3.136 -0.5400 -0.4814  0.1028
 3117SOL    HW120810   3.563   1.176   3.083  0.1491  0.9528 -1.8655
 3117SOL    HW220811   3.595   1.300   3.160  0.5571  0.4666 -1.5553
 3118SOL     OW20812   0.578   4.497   2.666  0.2125 -0.3219  0.0344
 3118SOL    HW120813   0.605   4.548   2.589  0.3639 -1.2090 -0.5032
 3118SOL    HW220814   0.563   4.562   2.734 -2.7927 -0.8560 -0.1369
 3119SOL     OW20815   2.075   0.282   6.436 -0.1542  0.1504  0.3138
 3119SOL    HW120816   2.075   0.214   6.369 -1.9058  1.6366 -1.1886
 3119SOL    HW220817   2.038   0.235   6.511  1.1994  1.7555  1.9885
 3120SOL     OW20818   3.768   1.383   6.613 -0.3790  0.4682  0.0450
 3120SOL    HW120819   3.725   1.318   6.558  1.3623 -0.5569 -0.0963
 3120SOL    HW220820   3.832   1.325   6.653 -0.3284 -0.3236 -1.1807
 3121SOL     OW20821   4.693   2.280   9.580 -0.2853  0.5766  0.2044
 3121SOL    HW120822   4.680   2.280   9.485 -4.0299  2.2980  0.6947
 3121SOL    HW220823   4.669   2.192   9.609  1.1270 -0.6675 -2.3346
 3122SOL     OW20824   2.687   2.251  16.044  0.6078  0.0786  0.1734
 3122SOL    HW120825   2.734   2.238  15.961 -0.5784  0.6839 -0.5746
 3122SOL    HW220826   2.602   2.243  16.001 -0.8370  2.3241  2.6380
 3123SOL     OW20827   3.932   4.659   6.816 -0.4805 -0.1164  0.1603
 3123SOL    HW120828   3.904   4.586   6.760 -2.3022 -0.0650  1.0005
 3123SOL    HW220829   4.012   4.619   6.851 -0.2207  0.4907  0.2546
 3124SOL     OW20830   3.279   2.079   7.277 -0.4022  0.0134 -0.0792
 3124SOL    HW120831   3.201   2.068   7.221  0.0651 -2.4457 -0.2619
 3124SOL    HW220832   3.351   2.073   7.215 -1.2526  0.6829 -1.1497
 3125SOL     OW20833   3.244   4.116  13.525  0.5241  0.3521 -0.1318
 3125SOL    HW120834   3.251   4.123  13.620 -0.0569 -0.2796 -0.0388
 3125SOL    HW220835   3.331   4.087  13.494  0.3440 -0.9827  0.5862
 3126SOL     OW20836   2.962   2.600   1.074  0.9652 -0.6944  1.0037
 3126SOL    HW120837   2.962   2.642   1.159 -0.2677  0.8491  0.2289
 3126SOL    HW220838   2.899   2.529   1.086 -0.6410  0.5124 -0.2588
 3127SOL     OW20839   3.896   2.849   3.643 -0.5905  0.6988  0.0572
 3127SOL    HW120840   3.911   2.831   3.736  0.7734 -1.9410 -0.6645
 3127SOL    HW220841   3.887   2.944   3.642 -0.0182  0.7539 -0.0864
 3128SOL     OW20842   0.027   0.504   6.689 -0.3629  0.0689 -0.4311
 3128SOL    HW120843   4.680   0.507   6.754  0.0621  0.2516  0.0265
 3128SOL    HW220844   0.101   0.545   6.733 -1.3466  2.1888 -0.7453
 3129SOL     OW20845   3.598   3.974   3.612  0.0540 -0.5638  0.2932
 3129SOL    HW120846   3.522   3.977   3.670 -0.4301  0.6467 -0.4117
 3129SOL    HW220847   3.656   4.033   3.659  0.0394  0.3544 -0.8336
 3130SOL     OW20848   4.041   2.337   2.873  0.0165  0.4238  0.0138
 3130SOL    HW120849   3.992   2.332   2.792  1.5014 -0.7534 -0.8140
 3130SOL    HW220850   4.049   2.249   2.912 -3.8522  0.2599  0.3859
 3131SOL     OW20851   2.368   0.265   2.124 -0.6278 -0.3178 -0.1762
 3131SOL    HW120852   2.304   0.193   2.119 -0.8142 -0.0112 -1.9416
 3131SOL    HW220853   2.306   0.331   2.094 -0.8837 -0.8077 -0.7177
 3132SOL     OW20854   0.370   3.958   6.761 -0.0814 -0.1955 -0.4097
 3132SOL    HW120855   0.463   3.978   6.776  0.7982 -3.4472 -1.5898
 3132SOL    HW220856   0.324   4.019   6.820  0.9735  1.3698 -1.2025
 3133SOL     OW20857   0.121   3.299   7.697  0.4782 -0.6250  0.5550
 3133SOL    HW120858   0.030   3.310   7.725  1.5903  1.8080  3.2630
 3133SOL    HW220859   0.161   3.374   7.742 -0.2670  0.1189 -0.0249
 3134SOL     OW20860   1.233   0.087   2.565 -0.2238  0.2896 -0.0171
 3134SOL    HW120861   1.161   0.027   2.583  0.1078 -0.7570 -2.1646
 3134SOL    HW220862   1.309   0.031   2.575 -0.2698  0.2751  0.2557
 3135SOL     OW20863   1.772   2.370   1.427  0.2498  0.4803 -0.5169
 3135SOL    HW120864   1.852   2.342   1.383  1.1357  2.5496 -0.2304
 3135SOL    HW220865   1.778   2.319   1.508  3.2767 -0.3400 -1.2855
 3136SOL     OW20866   0.269   3.907   8.497  0.2113 -0.7473  0.1222
 3136SOL    HW120867   0.174   3.909   8.494  0.3014  1.9166 -1.6422
 3136SOL    HW220868   0.298   3.821   8.468  1.8470 -0.1965  0.0743
 3137SOL     OW20869   0.909   2.182   8.952 -0.1102 -0.6689 -0.5180
 3137SOL    HW120870   0.817   2.198   8.932  0.1331  1.3303 -0.0154
 3137SOL    HW220871   0.931   2.244   9.021 -1.1886  0.9721 -1.6678
 3138SOL     OW20872   1.535   0.731   3.639 -0.1307  0.5481 -0.2247
 3138SOL    HW120873   1.511   0.644   3.673  2.2785  0.1544  0.4371
 3138SOL    HW220874   1.584   0.785   3.700 -0.0523  1.1655 -0.8315
 3139SOL     OW20875   3.021   3.191  15.563  0.5507 -0.2989 -0.5625
 3139SOL    HW120876   3.025   3.287  15.564  0.7102 -0.3060 -0.5345
 3139SOL    HW220877   3.107   3.163  15.592  0.4926 -0.4545 -0.5443
 3140SOL     OW20878   2.277   2.456   4.912  0.2024 -0.1425 -0.3709
 3140SOL    HW120879   2.371   2.472   4.913  0.2358 -0.4246  1.3380
 3140SOL    HW220880   2.247   2.486   4.998  1.2155  1.4059 -0.5687
 3141SOL     OW20881   1.458   0.627   5.328 -0.0494  0.0457 -0.1891
 3141SOL    HW120882   1.489   0.579   5.404 -2.6217 -1.8762 -0.3636
 3141SOL    HW220883   1.527   0.606   5.265 -0.6430  0.4138 -0.9595
 3142SOL     OW20884   2.968   3.876   4.400 -0.0074  0.1197  0.9230
 3142SOL    HW120885   2.884   3.847   4.363  2.3678 -2.1787 -2.6655
 3142SOL    HW220886   2.973   3.967   4.370  0.9833 -0.1174  0.3732
 3143SOL     OW20887   3.916   0.750   9.085 -0.0065 -0.0428 -0.5031
 3143SOL    HW120888   3.899   0.772   9.176 -0.1603 -2.6629  0.1048
 3143SOL    HW220889   4.008   0.774   9.083 -0.3461  1.4045  0.7885
 3144SOL     OW20890   3.130   4.541  12.340 -0.0621  0.4223 -0.2263
 3144SOL    HW120891   3.093   4.543  12.428 -0.3249  0.7870 -0.3498
 3144SOL    HW220892   3.172   4.455  12.334 -0.5538  0.0911  1.2255
 3145SOL     OW20893   1.166   4.246   2.314 -0.2717 -0.1697 -0.4373
 3145SOL    HW120894   1.112   4.325   2.319  0.6210  0.4698 -0.9272
 3145SOL    HW220895   1.190   4.253   2.222  0.2304  1.1635 -0.2017
 3146SOL     OW20896   0.537   0.456  14.570  0.2816  0.5832  0.2776
 3146SOL    HW120897   0.627   0.454  14.538  0.8721 -1.8643  2.0532
 3146SOL    HW220898   0.517   0.363  14.585 -0.1238  0.6434  0.1249
 3147SOL     OW20899   3.327   1.214   3.723 -0.0711 -0.4334 -0.4509
 3147SOL    HW120900   3.396   1.152   3.700  0.1299  0.2896 -1.8192
 3147SOL    HW220901   3.366   1.258   3.799 -0.0097  0.9217 -1.2710
 3148SOL     OW20902   4.289   2.519  16.558 -0.1557  0.2043  1.1013
 3148SOL    HW120903   4.273   2.586  16.623 -1.6276 -0.4898  1.4376
 3148SOL    HW220904   4.249   2.561  16.482  1.2418 -2.0505 -0.8934
 3149SOL     OW20905   2.543   2.722   4.596 -0.0515  0.1911  0.1836
 3149SOL    HW120906   2.619   2.762   4.554  0.4869 -0.9769  0.0665
 3149SOL    HW220907   2.546   2.740   4.690 -0.7777 -0.7839  0.3879
 3150SOL     OW20908   3.080   1.663   6.419 -0.1866 -0.1709 -0.4517
 3150SOL    HW120909   3.088   1.569   6.408  0.1544 -0.5646  3.0657
 3150SOL    HW220910   3.158   1.675   6.474 -1.6793  0.0100  1.6410
 3151SOL     OW20911   3.930   0.415   3.394  0.3194 -0.3632 -0.0019
 3151SOL    HW120912   3.978   0.332   3.398  0.6680 -0.0424  2.3524
 3151SOL    HW220913   3.894   0.414   3.483  1.7101  0.0162  0.5715
 3152SOL     OW20914   1.837   3.279  13.630  0.2581 -0.5293 -0.8061
 3152SOL    HW120915   1.752   3.235  13.635  1.1319 -2.1243  0.3792
 3152SOL    HW220916   1.845   3.299  13.723  1.8688 -2.0177 -0.6131
 3153SOL     OW20917   0.016   2.481  16.236 -0.5979 -0.6477 -0.2088
 3153SOL    HW120918   4.688   2.513  16.310 -1.0226 -0.4871 -0.5753
 3153SOL    HW220919   4.711   2.389  16.244 -1.8447 -0.1993  0.5189
 3154SOL     OW20920   3.342   3.518   8.536  0.2221  0.5456 -0.4443
 3154SOL    HW120921   3.373   3.449   8.595 -1.4912  1.3976  1.4487
 3154SOL    HW220922   3.371   3.471   8.458 -0.6604  0.0954 -0.5061
 3155SOL     OW20923   0.323   0.843   7.258  0.3008  0.0429  0.5456
 3155SOL    HW120924   0.270   0.848   7.338  0.6550  3.7225  0.5856
 3155SOL    HW220925   0.308   0.932   7.226 -0.1875 -0.5337 -0.8166
 3156SOL     OW20926   3.823   3.584   3.192  0.0404  0.0975 -0.2039
 3156SOL    HW120927   3.814   3.525   3.117 -3.4548  0.7157 -0.2921
 3156SOL    HW220928   3.898   3.539   3.231 -0.0350 -0.6297 -0.8919
 3157SOL     OW20929   3.249   0.264   0.852  0.7542 -0.6440  0.3483
 3157SOL    HW120930   3.336   0.296   0.830  0.7074  0.0853  1.2198
 3157SOL    HW220931   3.226   0.311   0.932 -0.1895 -2.7011  1.2734
 3158SOL     OW20932   4.101   1.336  10.378 -0.0993 -0.3725  0.3769
 3158SOL    HW120933   4.175   1.365  10.323 -0.3788 -2.9536 -1.3487
 3158SOL    HW220934   4.035   1.363  10.314 -1.3268 -0.0448  1.7956
 3159SOL     OW20935   0.540   4.468   9.898 -0.1412  0.1187  0.4635
 3159SOL    HW120936   0.570   4.404   9.833  1.3650  0.8248  0.4523
 3159SOL    HW220937   0.448   4.470   9.874  0.2638  2.4048 -0.8973
 3160SOL     OW20938   4.552   0.542   8.036 -0.2635  0.2484 -0.2701
 3160SOL    HW120939   4.481   0.578   7.984  0.1329  1.4646  0.0161
 3160SOL    HW220940   4.622   0.603   8.012 -0.7354  1.5820  1.7648
 3161SOL     OW20941   4.657   3.471  13.705 -0.3107 -0.5008  0.3788
 3161SOL    HW120942   0.026   3.489  13.689 -0.4127 -0.6744 -0.3885
 3161SOL    HW220943   4.609   3.512  13.634 -1.5717  0.7309  1.9325
 3162SOL     OW20944   1.053   3.298   2.451  0.1567 -0.3604  0.6949
 3162SOL    HW120945   1.027   3.281   2.360  0.2592 -0.3803  0.6688
 3162SOL    HW220946   1.016   3.221   2.495  0.7785 -0.2562  1.4097
 3163SOL     OW20947   0.292   1.048  14.956 -0.1102 -0.0938  0.2250
 3163SOL    HW120948   0.291   0.954  14.940  0.6674  0.1334 -1.1912
 3163SOL    HW220949   0.331   1.052  15.043  0.1288  2.3707  0.0184
 3164SOL     OW20950   2.958   3.679  16.683  0.0814 -0.3671  0.0119
 3164SOL    HW120951   2.945   3.641  16.597  0.7527 -1.0838  0.2292
 3164SOL    HW220952   2.932   3.771  16.670  0.4009 -0.4700 -1.3587
 3165SOL     OW20953   1.807   0.378   9.150  0.1904 -0.3418  0.5351
 3165SOL    HW120954   1.727   0.351   9.105  0.2516  0.7008 -0.2003
 3165SOL    HW220955   1.774   0.410   9.234  0.2926 -1.2666  0.9327
 3166SOL     OW20956   1.340   1.223   4.171  0.0413 -0.2979  0.0986
 3166SOL    HW120957   1.358   1.306   4.216 -0.3007 -1.2397  1.9789
 3166SOL    HW220958   1.321   1.166   4.246 -4.6778 -2.3476 -2.6347
 3167SOL     OW20959   2.358   2.633   7.871 -0.5592 -0.2111  0.3618
 3167SOL    HW120960   2.300   2.685   7.926 -1.1158 -1.4603  0.9409
 3167SOL    HW220961   2.341   2.660   7.781 -2.0980 -1.7815  0.1909
 3168SOL     OW20962   0.859   2.783  17.114 -0.2831  0.1019  1.0192
 3168SOL    HW120963   0.834   2.827  17.033 -0.9900 -2.3851 -0.1068
 3168SOL    HW220964   0.951   2.809  17.118 -0.1709 -0.0720 -0.3241
 3169SOL     OW20965   1.152   4.676   8.886 -0.1471 -0.3474  0.2016
 3169SOL    HW120966   1.174   4.592   8.927  0.5647 -0.4926 -0.4670
 3169SOL    HW220967   1.102   0.008   8.945  0.0469 -2.6204  2.5209
 3170SOL     OW20968   4.229   1.885  14.372 -0.1732  0.5920 -0.1150
 3170SOL    HW120969   4.143   1.904  14.335 -1.5057 -0.8237  2.3093
 3170SOL    HW220970   4.281   1.952  14.327  0.7433  0.4047  0.6540
 3171SOL     OW20971   0.368   0.892   8.054  0.5127  0.1125 -1.0526
 3171SOL    HW120972   0.414   0.933   8.128  1.1156  1.7271 -2.3195
 3171SOL    HW220973   0.388   0.954   7.985 -1.9087  0.2672 -1.6264
 3172SOL     OW20974   3.305   2.421   3.871  0.2189  0.4729 -0.0131
 3172SOL    HW120975   3.235   2.388   3.928  0.6841 -2.0205 -0.8914
 3172SOL    HW220976   3.340   2.340   3.835 -0.2930  1.7859 -3.4251
 3173SOL     OW20977   3.817   2.532   8.916  0.6159  0.0369  0.4754
 3173SOL    HW120978   3.912   2.541   8.916  0.2873  3.3301 -0.1207
 3173SOL    HW220979   3.809   2.438   8.904 -1.8067  0.6967 -2.7069
 3174SOL     OW20980   2.811   0.874   7.895 -0.1006 -0.1165 -0.1760
 3174SOL    HW120981   2.717   0.892   7.903 -0.2861 -1.3517  0.4273
 3174SOL    HW220982   2.843   0.948   7.947  0.7806 -0.8798  0.3592
 3175SOL     OW20983   2.553   0.259   6.886  0.4574 -0.7257  0.2091
 3175SOL    HW120984   2.465   0.222   6.882  0.6350 -1.0356 -1.0503
 3175SOL    HW220985   2.541   0.353   6.886  1.4327 -0.5978  1.6009
 3176SOL     OW20986   2.986   0.965  13.249  0.3847  0.0968  0.1219
 3176SOL    HW120987   3.000   1.048  13.203 -0.9139 -0.2265 -0.8588
 3176SOL    HW220988   2.943   0.904  13.188 -1.3531 -1.0820  2.5322
 3177SOL     OW20989   1.161   3.400  12.997 -0.1565 -0.2835 -0.0774
 3177SOL    HW120990   1.115   3.446  12.926 -1.4485 -0.5226  0.6113
 3177SOL    HW220991   1.087   3.359  13.042 -1.8239 -0.1860 -2.6693
 3178SOL     OW20992   4.143   1.439   3.971 -0.2088 -0.4140  0.3651
 3178SOL    HW120993   4.227   1.483   3.986 -1.0084  1.5024 -0.9403
 3178SOL    HW220994   4.116   1.437   4.063  1.2366 -2.8103  0.7643
 3179SOL     OW20995   2.210   4.521   8.887 -0.3176 -0.2864 -1.0733
 3179SOL    HW120996   2.152   4.453   8.922 -1.0444  1.1804  0.5799
 3179SOL    HW220997   2.194   4.583   8.958  1.3546  0.1349 -1.0671
 3180SOL     OW20998   0.995   0.353   5.023 -0.4322 -0.7633 -0.3410
 3180SOL    HW120999   0.973   0.298   4.948  0.2569 -0.7895 -0.5231
 3180SOL    HW221000   1.002   0.293   5.098 -2.1484  0.2939  0.6584
 3181SOL     OW21001   2.176   2.139   4.917 -0.2413 -0.3450 -0.2877
 3181SOL    HW121002   2.202   2.047   4.918 -2.3497 -0.9764 -1.8193
 3181SOL    HW221003   2.239   2.189   4.865 -0.4073 -0.8634 -0.9838
 3182SOL     OW21004   3.425   0.388  14.041  0.2656  0.5522  0.2429
 3182SOL    HW121005   3.480   0.380  14.119 -1.7785 -1.0094  1.5104
 3182SOL    HW221006   3.489   0.375  13.971 -0.7533 -0.3212 -0.5312
 3183SOL     OW21007   1.435   2.385   8.436  0.0923  0.5695 -0.1449
 3183SOL    HW121008   1.407   2.476   8.442  0.5956  0.5212  3.4202
 3183SOL    HW221009   1.386   2.340   8.505  1.3858 -0.4846  0.1010
 3184SOL     OW21010   4.313   0.700   4.618 -0.2111  0.2924 -0.1804
 3184SOL    HW121011   4.222   0.727   4.606  0.0696  1.4319  0.2864
 3184SOL    HW221012   4.296   0.608   4.640  1.5829  0.6492  2.7282
 3185SOL     OW21013   4.200   0.957   5.864  0.1511  0.1100  0.6072
 3185SOL    HW121014   4.160   1.031   5.910 -1.2240 -1.2165  1.5580
 3185SOL    HW221015   4.160   0.882   5.907 -1.1847  1.1500  1.1983
 3186SOL     OW21016   1.789   4.088   0.239  0.3832 -0.3656  0.1549
 3186SOL    HW121017   1.696   4.099   0.260  0.5391  0.8455  0.2176
 3186SOL    HW221018   1.812   4.180   0.227 -1.3699 -0.1991 -1.8777
 3187SOL     OW21019   1.509   2.329   7.617  0.1432  1.3661 -0.1340
 3187SOL    HW121020   1.556   2.245   7.619 -1.9008  0.2009 -0.9701
 3187SOL    HW221021   1.504   2.350   7.710  0.6484 -0.9005  0.4203
 3188SOL     OW21022   4.106   0.223   6.813 -0.5930 -0.4550  0.2914
 3188SOL    HW121023   4.126   0.176   6.732 -1.8964 -0.6327  0.0680
 3188SOL    HW221024   4.117   0.154   6.878 -1.5501 -1.4514 -0.6105
 3189SOL     OW21025   2.390   2.778   2.003  1.0239 -0.2794 -0.1166
 3189SOL    HW121026   2.419   2.688   2.002 -0.8671 -0.8972 -0.4331
 3189SOL    HW221027   2.421   2.797   1.914  2.0260  2.1865  0.7480
 3190SOL     OW21028   0.914   1.466  17.319 -0.1972  0.1264  0.0816
 3190SOL    HW121029   0.835   1.510  17.350  0.3225  0.9559  0.2366
 3190SOL    HW221030   0.952   1.444  17.404 -0.8608 -1.8336 -0.1289
 3191SOL     OW21031   2.321   3.284   3.630 -0.4693  0.6798  0.1687
 3191SOL    HW121032   2.278   3.205   3.597 -0.1534 -0.3716  2.2420
 3191SOL    HW221033   2.242   3.337   3.643 -0.4741  0.9748 -1.0409
 3192SOL     OW21034   4.672   3.004   6.619 -0.2059  0.0263  0.6670
 3192SOL    HW121035   4.692   2.969   6.532  0.1695 -1.0981  1.1982
 3192SOL    HW221036   0.019   3.069   6.615 -1.6168  1.4741 -0.6416
 3193SOL     OW21037   2.961   1.445  13.006 -0.5198  0.8037 -0.7409
 3193SOL    HW121038   2.925   1.463  12.919 -0.6307  1.4995 -0.5550
 3193SOL    HW221039   2.969   1.537  13.033  2.4987  0.3485 -0.0724
 3194SOL     OW21040   2.519   4.303   3.866 -0.3120 -0.2653  0.3862
 3194SOL    HW121041   2.479   4.384   3.835 -2.2470 -1.4483 -0.2262
 3194SOL    HW221042   2.582   4.328   3.933 -0.3490 -0.4708  0.4994
 3195SOL     OW21043   0.530   0.224   2.699 -0.9334 -0.7001  0.1757
 3195SOL    HW121044   0.619   0.223   2.663 -0.7727 -0.0312  0.5420
 3195SOL    HW221045   0.483   0.194   2.621  0.9638 -1.0551 -0.8522
 3196SOL     OW21046   2.630   3.439   3.033 -0.4600 -0.2157 -0.4466
 3196SOL    HW121047   2.676   3.357   3.011 -0.6188  0.1823 -2.2739
 3196SOL    HW221048   2.559   3.402   3.086  0.0338 -0.3547  0.1197
 3197SOL     OW21049   2.900   2.925   1.715  0.0873  0.4146 -0.3756
 3197SOL    HW121050   2.929   2.834   1.724  1.6150  0.9837  0.4667
 3197SOL    HW221051   2.804   2.919   1.717 -0.0315  2.6164 -0.3105
 3198SOL     OW21052   3.511   3.595   8.036 -0.0582 -0.2628  0.3872
 3198SOL    HW121053   3.560   3.527   7.989  0.2166 -0.1835  0.5614
 3198SOL    HW221054   3.544   3.671   7.987  0.4360 -0.3907  0.5236
 3199SOL     OW21055   2.428   3.464  15.186  0.0636  0.3969 -0.2252
 3199SOL    HW121056   2.417   3.379  15.230  1.7986 -0.1152 -0.7785
 3199SOL    HW221057   2.518   3.476  15.217 -0.9032 -1.9614  3.5333
 3200SOL     OW21058   3.297   4.061   7.940 -0.0879  0.6239 -0.0841
 3200SOL    HW121059   3.250   4.008   7.875  1.4143  2.0060 -2.2767
 3200SOL    HW221060   3.379   4.073   7.893  0.1598  1.0951  0.4741
 3201SOL     OW21061   1.410   3.888   7.373  0.5001  0.3543  0.1207
 3201SOL    HW121062   1.490   3.932   7.399  0.6374  1.9098 -2.9198
 3201SOL    HW221063   1.423   3.805   7.419  0.9747  0.1572 -0.3675
 3202SOL     OW21064   2.595   3.432  13.035  0.2541  0.0394 -0.0378
 3202SOL    HW121065   2.632   3.483  13.107 -0.7057 -2.9146  2.5977
 3202SOL    HW221066   2.515   3.396  13.074  0.2076 -0.0297 -0.1974
 3203SOL     OW21067   0.542   3.992  13.342  0.7380  0.2616  0.2944
 3203SOL    HW121068   0.502   4.029  13.263  0.5967  2.9487  1.6442
 3203SOL    HW221069   0.492   3.910  13.348 -1.5618  1.7528  1.4061
 3204SOL     OW21070   2.121   1.136   7.249 -0.0769 -0.1227 -0.3219
 3204SOL    HW121071   2.124   1.056   7.302  0.5522  0.2877  0.2676
 3204SOL    HW221072   2.213   1.163   7.251 -0.9071  2.7013 -0.0061
 3205SOL     OW21073   0.591   0.404   1.494 -0.0251  0.2450  0.3033
 3205SOL    HW121074   0.681   0.430   1.473 -0.8543  2.4463 -0.5284
 3205SOL    HW221075   0.558   0.400   1.405 -0.8863 -0.7592  0.6745
 3206SOL     OW21076   0.099   2.510  15.444  0.2852 -0.6566 -0.2209
 3206SOL    HW121077   0.149   2.513  15.525  1.1407 -1.3257 -0.7213
 3206SOL    HW221078   0.081   2.602  15.424 -0.1083 -0.8595 -0.8295
 3207SOL     OW21079   0.379   3.507  12.438 -0.0929 -0.4489  0.0997
 3207SOL    HW121080   0.305   3.446  12.437 -0.0065 -0.5570  0.2373
 3207SOL    HW221081   0.400   3.514  12.531  4.3685 -0.0793 -0.9208
 3208SOL     OW21082   3.376   1.037  12.897  0.2585  0.0317  0.5295
 3208SOL    HW121083   3.362   1.062  12.806 -0.5489 -0.4021  0.5410
 3208SOL    HW221084   3.297   0.985  12.909 -0.3932  0.8007 -0.5362
 3209SOL     OW21085   0.342   4.006   9.314 -0.0395  0.2448  0.4646
 3209SOL    HW121086   0.349   3.910   9.319  3.6319  0.4087 -1.6948
 3209SOL    HW221087   0.335   4.023   9.220  1.3580 -0.4151  0.2367
 3210SOL     OW21088   4.487   2.937  15.483 -0.3685  0.3718  0.2128
 3210SOL    HW121089   4.555   2.891  15.533  2.5228  2.4436 -1.8120
 3210SOL    HW221090   4.418   2.947  15.548 -1.5807  2.5179 -1.4123
 3211SOL     OW21091   2.410   4.448   6.405 -0.1048  0.5165 -0.5741
 3211SOL    HW121092   2.361   4.528   6.385 -2.5754 -0.2765  2.1747
 3211SOL    HW221093   2.356   4.381   6.363  1.2485 -1.1128  0.2921
 3212SOL     OW21094   4.137   0.314   4.977  0.1323 -0.4880 -0.7929
 3212SOL    HW121095   4.142   0.250   5.049 -0.1442 -1.1438 -1.3518
 3212SOL    HW221096   4.205   0.375   5.007  1.2079 -1.5419 -1.0655
 3213SOL     OW21097   1.427   3.330   9.718  0.0940  0.1834  0.4384
 3213SOL    HW121098   1.497   3.290   9.770 -1.7768 -0.0987  2.6945
 3213SOL    HW221099   1.344   3.326   9.766 -1.0119  1.1007 -1.4107
 3214SOL     OW21100   0.916   3.747   0.259  0.1207  0.0023  0.5695
 3214SOL    HW121101   0.965   3.687   0.203  0.3935 -0.4480  1.2973
 3214SOL    HW221102   0.852   3.689   0.300 -0.1919  1.3205  1.9522
 3215SOL     OW21103   2.477   2.734   6.599  0.3510  0.4967  0.6554
 3215SOL    HW121104   2.474   2.815   6.650  1.6374  0.6969  0.4203
 3215SOL    HW221105   2.560   2.697   6.630  0.3273  0.2191  0.3934
 3216SOL     OW21106   2.174   0.863   4.420  0.4209  0.3129 -0.1348
 3216SOL    HW121107   2.254   0.831   4.462 -0.0352  1.8396  1.8931
 3216SOL    HW221108   2.161   0.947   4.464  1.5540  0.5153 -0.1771
 3217SOL     OW21109   2.928   3.191   1.773  0.2474 -0.4870 -0.2758
 3217SOL    HW121110   2.873   3.221   1.702  0.1218 -0.1174 -0.0177
 3217SOL    HW221111   2.938   3.096   1.763  1.4679 -0.5425  1.4139
 3218SOL     OW21112   2.287   2.712   0.838 -0.2502 -0.3091 -0.4814
 3218SOL    HW121113   2.216   2.682   0.782 -1.1535  0.1019  0.4313
 3218SOL    HW221114   2.277   2.653   0.913 -1.5596 -1.5799 -1.6645
 3219SOL     OW21115   0.746   3.595   4.569 -0.3132  0.5915 -0.1150
 3219SOL    HW121116   0.757   3.594   4.474 -2.0981  2.7621 -0.3535
 3219SOL    HW221117   0.742   3.690   4.581 -1.0065  0.5882 -0.3046
 3220SOL     OW21118   1.264   4.434   9.599 -0.1974  0.0899 -0.1866
 3220SOL    HW121119   1.174   4.453   9.575 -0.1398  0.6906  0.0762
 3220SOL    HW221120   1.252   4.441   9.694  3.9123  0.8744  0.2892
 3221SOL     OW21121   3.603   2.871   5.977 -0.3256 -0.0521  0.2511
 3221SOL    HW121122   3.646   2.949   6.010  0.1680 -0.3632  0.3376
 3221SOL    HW221123   3.513   2.901   5.963 -0.1451  1.9561  3.5178
 3222SOL     OW21124   3.179   0.446  16.936  0.3089 -0.8063  0.0875
 3222SOL    HW121125   3.099   0.495  16.952  0.3034 -0.6131 -0.5182
 3222SOL    HW221126   3.237   0.514  16.969  1.4848 -0.7122 -2.1266
 3223SOL     OW21127   3.612   1.965   3.938  0.1360 -0.1312  0.3315
 3223SOL    HW121128   3.528   1.932   3.905 -0.0376  0.0474  0.5935
 3223SOL    HW221129   3.659   1.883   3.949 -1.1636 -1.0081 -0.6110
 3224SOL     OW21130   4.197   3.606  10.121  0.0418  0.8189 -0.0724
 3224SOL    HW121131   4.259   3.595  10.049  2.7054 -1.0420  2.5167
 3224SOL    HW221132   4.149   3.682  10.089 -1.2920 -0.6176 -1.5322
 3225SOL     OW21133   2.862   0.157   7.566  0.1663 -0.0327  0.3428
 3225SOL    HW121134   2.866   0.171   7.661  0.9105 -1.4102  0.5226
 3225SOL    HW221135   2.917   0.079   7.555  0.1647 -0.0448  0.4199
 3226SOL     OW21136   4.116   0.337   0.498 -0.1877  0.1514  0.0370
 3226SOL    HW121137   4.060   0.410   0.523  3.3467  2.3325  1.4659
 3226SOL    HW221138   4.151   0.306   0.581  1.8428 -3.4117 -2.1370
 3227SOL     OW21139   2.276   3.547   6.792 -0.0986 -0.3283 -0.8107
 3227SOL    HW121140   2.246   3.456   6.789  3.0014 -1.3298 -1.4542
 3227SOL    HW221141   2.199   3.590   6.830  0.3518 -0.6566  0.5017
 3228SOL     OW21142   3.061   3.409   2.379  0.2275 -0.1661  0.1609
 3228SOL    HW121143   3.154   3.406   2.400 -0.3667 -0.5183  2.6830
 3228SOL    HW221144   3.034   3.327   2.421 -0.3913 -0.8973 -1.6394
 3229SOL     OW21145   0.949   2.474   2.705 -0.5644 -0.0082  0.4351
 3229SOL    HW121146   0.989   2.539   2.763 -0.2413 -2.3963  2.8901
 3229SOL    HW221147   0.989   2.394   2.740 -0.7128  0.2771  1.2527
 3230SOL     OW21148   2.400   2.209   2.927 -0.2313 -0.3292 -0.0518
 3230SOL    HW121149   2.460   2.283   2.936 -1.2717  0.4618  0.3396
 3230SOL    HW221150   2.366   2.224   2.838 -2.8384 -1.5791  0.7264
 3231SOL     OW21151   0.754   2.462   0.613  0.3327  0.2054  0.3231
 3231SOL    HW121152   0.671   2.508   0.604 -0.5957 -1.0476  2.4434
 3231SOL    HW221153   0.751   2.423   0.526  4.0667  1.8495 -0.5368
 3232SOL     OW21154   2.653   3.337  10.828  0.0272  0.2306 -0.5326
 3232SOL    HW121155   2.604   3.363  10.906  0.8841  0.2429  0.0050
 3232SOL    HW221156   2.691   3.422  10.810  0.3197  0.8283  2.8900
 3233SOL     OW21157   2.599   1.054   4.796  0.4533  0.0928 -0.4439
 3233SOL    HW121158   2.528   1.089   4.742 -0.7782 -1.9158 -0.1227
 3233SOL    HW221159   2.674   1.077   4.741  1.2594 -0.0592  0.5936
 3234SOL     OW21160   4.513   1.826   4.086  0.3662 -0.1149  0.0197
 3234SOL    HW121161   4.515   1.921   4.094 -0.0476 -0.1481  0.5534
 3234SOL    HW221162   4.603   1.812   4.115  0.8485 -1.8161 -2.3050
 3235SOL     OW21163   2.159   3.039   7.929 -0.4394 -0.3262 -0.0446
 3235SOL    HW121164   2.096   3.025   8.000 -1.0752  1.9476 -0.1674
 3235SOL    HW221165   2.092   3.071   7.868 -1.6392  0.6938  1.7945
 3236SOL     OW21166   0.159   3.808   5.146 -0.3289  0.4624  0.1464
 3236SOL    HW121167   0.117   3.894   5.137  1.2461  1.2425  0.2003
 3236SOL    HW221168   0.192   3.800   5.057  0.2492  1.7061  0.2478
 3237SOL     OW21169   2.970   0.782   5.689 -0.4470  0.3218  0.2135
 3237SOL    HW121170   3.037   0.804   5.624  0.1730 -0.1613  0.6911
 3237SOL    HW221171   2.969   0.686   5.690  1.8034  0.2957  0.5325
 3238SOL     OW21172   3.738   3.373   9.241 -0.0173 -0.4649  0.1111
 3238SOL    HW121173   3.691   3.349   9.320 -1.1585 -1.0462 -0.7576
 3238SOL    HW221174   3.800   3.437   9.277  1.3670 -1.2775 -0.8180
 3239SOL     OW21175   2.198   3.832   6.333 -0.1144  0.1528 -0.1031
 3239SOL    HW121176   2.185   3.922   6.360 -1.5794 -0.5653  1.5980
 3239SOL    HW221177   2.288   3.812   6.360  0.4887  0.2960 -2.0083
 3240SOL     OW21178   3.561   1.067   6.186 -0.1575 -0.3222 -0.0563
 3240SOL    HW121179   3.496   1.081   6.118 -0.0305  0.3323 -0.0465
 3240SOL    HW221180   3.505   1.033   6.256 -0.9092  0.4072 -0.3137
 3241SOL     OW21181   1.429   1.410   0.875  0.2331 -0.5555  0.1476
 3241SOL    HW121182   1.344   1.368   0.876  1.4143 -2.9167  1.0813
 3241SOL    HW221183   1.409   1.491   0.922  1.0955  0.1508 -0.6814
 3242SOL     OW21184   2.763   0.197   3.429 -0.1100 -0.5957 -0.0185
 3242SOL    HW121185   2.749   0.121   3.484 -0.3476  0.7225  1.7372
 3242SOL    HW221186   2.679   0.202   3.384 -1.1985 -0.4522  2.0811
 3243SOL     OW21187   2.010   3.528   5.328 -0.3540  0.3565 -0.8020
 3243SOL    HW121188   1.969   3.483   5.403 -0.6883  1.6563 -0.2125
 3243SOL    HW221189   2.054   3.466   5.270 -2.8817  0.8463 -3.1793
 3244SOL     OW21190   0.751   1.972  17.634 -0.2481  0.1564  0.5392
 3244SOL    HW121191   0.691   1.917  17.583  0.4113  1.3988 -1.5810
 3244SOL    HW221192   0.761   2.048  17.576  1.5899 -0.6592 -0.1886
 3245SOL     OW21193   4.469   0.155  17.076  0.4889  0.1119  0.2058
 3245SOL    HW121194   4.476   0.184  16.985 -2.1523 -0.2204 -0.0954
 3245SOL    HW221195   4.514   0.226  17.121  0.6387  0.8662 -1.1194
 3246SOL     OW21196   2.611   0.005   8.001 -0.2453  0.2564 -0.0885
 3246SOL    HW121197   2.705   0.020   7.995 -0.1829  1.0257  2.6245
 3246SOL    HW221198   2.597   4.634   7.995 -0.0027  0.1671  0.7830
 3247SOL     OW21199   4.034   0.761   4.563 -0.7944 -0.1789  0.2499
 3247SOL    HW121200   4.011   0.773   4.655 -0.1816  1.3001  0.2052
 3247SOL    HW221201   3.947   0.744   4.527  0.1284 -4.6634  0.1177
 3248SOL     OW21202   2.882   4.694  12.296  0.8569 -0.0292  0.3149
 3248SOL    HW121203   2.951   4.627  12.298 -0.0916 -1.0455 -0.8603
 3248SOL    HW221204   2.810   4.630  12.295  0.5574  0.2614  3.1951
 3249SOL     OW21205   1.938   3.360   8.114  0.1864 -0.3166 -0.3032
 3249SOL    HW121206   1.987   3.441   8.102 -0.0405 -0.3639 -1.5649
 3249SOL    HW221207   1.969   3.340   8.203  0.0400 -0.7046 -0.3410
 3250SOL     OW21208   3.224   4.493   6.265 -0.0974 -0.0961 -0.2487
 3250SOL    HW121209   3.137   4.458   6.248 -0.7159  1.1275  0.4307
 3250SOL    HW221210   3.286   4.443   6.212  0.6071 -1.1182  1.5453
 3251SOL     OW21211   0.761   1.207   8.406 -0.3701  0.2006  0.2782
 3251SOL    HW121212   0.850   1.238   8.423  0.0728 -0.4662 -0.8076
 3251SOL    HW221213   0.719   1.211   8.492  1.1278  1.6051  0.9503
 3252SOL     OW21214   0.840   2.305   5.969  0.3418  0.0536  0.2261
 3252SOL    HW121215   0.795   2.233   6.014  1.1757 -1.1001 -0.7996
 3252SOL    HW221216   0.927   2.298   6.010  0.8564 -1.5115 -1.1083
 3253SOL     OW21217   3.636   3.295   7.227  0.0050  0.1638 -0.3207
 3253SOL    HW121218   3.665   3.206   7.205 -0.6395  0.4964 -2.5498
 3253SOL    HW221219   3.541   3.288   7.214  0.2058  1.5003 -2.5177
 3254SOL     OW21220   3.810   3.312   1.049 -0.1263 -0.0668  0.1913
 3254SOL    HW121221   3.736   3.251   1.051  1.2854 -1.8672 -2.3349
 3254SOL    HW221222   3.842   3.293   0.960 -0.1861  0.3936  0.0739
 3255SOL     OW21223   2.176   2.672  11.037  0.0519 -0.2837 -0.1994
 3255SOL    HW121224   2.224   2.722  10.970  0.7423  0.5162  0.9020
 3255SOL    HW221225   2.221   2.709  11.113 -1.5631 -1.3566  1.2615
 3256SOL     OW21226   2.782   4.039   4.578  0.5181  0.1242 -0.4563
 3256SOL    HW121227   2.803   4.045   4.672 -1.6305 -0.1785  0.0555
 3256SOL    HW221228   2.868   4.050   4.538 -0.6204  0.4092 -2.8289
 3257SOL     OW21229   1.309   0.843  13.724 -0.2673 -0.4375 -0.2169
 3257SOL    HW121230   1.227   0.844  13.773  0.0177  2.4606  0.2181
 3257SOL    HW221231   1.268   0.794  13.653 -0.4680  0.4365 -0.7090
 3258SOL     OW21232   3.817   1.224   2.914  0.4535 -0.0017 -0.0939
 3258SOL    HW121233   3.788   1.135   2.894  0.6426  0.0056 -0.3989
 3258SOL    HW221234   3.767   1.231   2.995  2.6666  0.7480  1.1888
 3259SOL     OW21235   0.432   0.862  12.149  0.7806 -0.0140 -0.2324
 3259SOL    HW121236   0.455   0.954  12.133 -0.8044  0.3413 -0.5333
 3259SOL    HW221237   0.409   0.832  12.060 -1.5634  0.5790  0.1580
 3260SOL     OW21238   0.402   3.126   6.721  0.9932  0.3736  0.4704
 3260SOL    HW121239   0.400   3.043   6.769  1.1129 -1.0745 -2.0298
 3260SOL    HW221240   0.342   3.108   6.649 -0.3579  1.3163  1.3762
 3261SOL     OW21241   4.236   0.329   1.598 -0.6335 -0.3572 -0.4599
 3261SOL    HW121242   4.313   0.297   1.646  1.1923  2.7778 -1.3099
 3261SOL    HW221243   4.192   0.251   1.565  0.6316 -1.3681  0.2392
 3262SOL     OW21244   1.256   2.178   0.517 -0.2989  0.3736 -0.2675
 3262SOL    HW121245   1.245   2.202   0.609 -0.8627  1.2048 -0.5454
 3262SOL    HW221246   1.243   2.258   0.465  1.0564  0.1184 -1.0034
 3263SOL     OW21247   1.567   4.291   2.891  0.0670  0.0911  0.5407
 3263SOL    HW121248   1.619   4.266   2.967  1.7618  3.0025  0.3306
 3263SOL    HW221249   1.616   4.371   2.869  1.5068 -0.9944 -0.1404
 3264SOL     OW21250   3.614   2.016  14.258  0.1353  0.2103 -0.0393
 3264SOL    HW121251   3.600   1.930  14.298  1.4686  0.9525  2.0672
 3264SOL    HW221252   3.686   2.045  14.314  1.2369 -2.3529 -0.0983
 3265SOL     OW21253   4.690   0.265   6.031 -0.3389 -0.4534 -0.2385
 3265SOL    HW121254   4.632   0.255   5.956 -2.0001  0.7908  0.8923
 3265SOL    HW221255   0.004   0.350   6.011 -3.4665  0.7820 -0.8730
 3266SOL     OW21256   1.628   3.207   8.079  0.0166 -0.3222  0.7448
 3266SOL    HW121257   1.671   3.155   8.148  1.8030  1.0217  0.6496
 3266SOL    HW221258   1.590   3.279   8.129  0.0166 -0.1997  0.5655
 3267SOL     OW21259   4.194   0.955   5.253  0.0505  0.0944  0.1463
 3267SOL    HW121260   4.139   0.958   5.331 -2.2042 -0.2199 -1.4441
 3267SOL    HW221261   4.157   1.030   5.206  2.6675  0.1876 -1.7418
 3268SOL     OW21262   1.638   2.919  13.119 -0.3988  0.1055 -0.2204
 3268SOL    HW121263   1.562   2.882  13.165  0.1429  0.4928  0.9849
 3268SOL    HW221264   1.703   2.892  13.184  0.8815 -0.9071 -1.9424
 3269SOL     OW21265   1.426   1.788  15.550 -0.5122 -0.5137  0.0438
 3269SOL    HW121266   1.443   1.836  15.469  2.9098 -0.0647  1.0365
 3269SOL    HW221267   1.512   1.748  15.563 -0.9502 -0.8251  1.9675
 3270SOL     OW21268   1.142   3.806  12.668  0.2675 -0.1684  0.8311
 3270SOL    HW121269   1.168   3.895  12.646  1.7224 -0.7098  0.3546
 3270SOL    HW221270   1.073   3.796  12.602  0.1018  2.4743  0.6138
 3271SOL     OW21271   2.148   3.720  15.767 -0.7779 -0.4525 -0.0724
 3271SOL    HW121272   2.102   3.804  15.768  0.7170  0.3531  0.9154
 3271SOL    HW221273   2.189   3.731  15.852  0.8841  0.5582 -1.0183
 3272SOL     OW21274   1.638   1.400   4.272  0.0283 -0.1435  0.1504
 3272SOL    HW121275   1.549   1.433   4.260  0.2020  0.2097 -0.1854
 3272SOL    HW221276   1.621   1.319   4.320  0.3718  0.0533  0.6083
 3273SOL     OW21277   1.710   0.375   7.351  0.5360 -0.2872 -0.2372
 3273SOL    HW121278   1.785   0.342   7.400  1.6671 -0.1034 -1.8509
 3273SOL    HW221279   1.742   0.406   7.266 -0.5847  1.1104 -0.1523
 3274SOL     OW21280   0.301   2.383   6.253 -0.6451 -0.3333 -0.2366
 3274SOL    HW121281   0.362   2.385   6.326 -0.0249 -2.3625 -0.7030
 3274SOL    HW221282   0.333   2.307   6.205 -0.8995 -1.0924  0.7975
 3275SOL     OW21283   1.109   2.586   6.957  0.2652 -0.5986  0.0226
 3275SOL    HW121284   1.143   2.569   7.045 -1.3412  2.2275  1.1740
 3275SOL    HW221285   1.015   2.572   6.975  0.6978 -1.7385  1.4268
 3276SOL     OW21286   0.620   2.448  10.911  0.2029 -0.2357  0.1476
 3276SOL    HW121287   0.600   2.534  10.875 -0.8827 -0.7908 -0.5705
 3276SOL    HW221288   0.591   2.460  11.002 -1.3544 -0.4360 -0.3250
 3277SOL     OW21289   0.189   2.878  14.147 -0.3585 -0.1981  0.0836
 3277SOL    HW121290   0.146   2.958  14.118 -0.5197  1.0526  3.7896
 3277SOL    HW221291   0.119   2.844  14.203  2.1137 -1.9438  2.0991
 3278SOL     OW21292   2.723   3.036  12.308 -0.4855 -0.1289  0.1722
 3278SOL    HW121293   2.676   2.965  12.264 -0.4358 -0.2920  0.3775
 3278SOL    HW221294   2.682   3.026  12.394  1.9175 -1.6724  1.1371
 3279SOL     OW21295   2.517   1.758   5.400 -0.7874 -0.6878  0.6778
 3279SOL    HW121296   2.525   1.805   5.483 -0.4358 -0.2903  0.4166
 3279SOL    HW221297   2.426   1.772   5.374 -0.1306  0.8435 -0.7643
 3280SOL     OW21298   3.789   4.648  10.869 -0.2564  0.1446 -0.3756
 3280SOL    HW121299   3.768   4.617  10.958  3.2600  0.5756  0.6202
 3280SOL    HW221300   3.852   4.718  10.889  2.1600 -1.8337 -1.1283
 3281SOL     OW21301   1.358   4.070   1.679  0.3337  0.0564 -0.0214
 3281SOL    HW121302   1.268   4.100   1.664  0.5288 -0.6770 -2.6896
 3281SOL    HW221303   1.397   4.149   1.717 -1.7589  0.6132  0.9884
 3282SOL     OW21304   2.557   2.306   9.456 -0.1910 -0.7909  0.1411
 3282SOL    HW121305   2.560   2.270   9.367  1.0869  3.1328 -1.4294
 3282SOL    HW221306   2.560   2.398   9.430 -1.5619 -0.9401 -0.5719
 3283SOL     OW21307   0.499   1.669   0.076  0.5952  0.1693 -0.0244
 3283SOL    HW121308   0.564   1.605   0.047  1.1873  0.1116  1.4320
 3283SOL    HW221309   0.521   1.664   0.169  0.5211 -1.3554 -0.0924
 3284SOL     OW21310   3.994   4.075  10.270 -0.4860  0.3243  0.4021
 3284SOL    HW121311   4.058   4.036  10.330 -1.6707 -1.6577  0.3558
 3284SOL    HW221312   3.920   4.054  10.326 -0.1721 -1.5283  0.1330
 3285SOL     OW21313   0.370   2.473  14.463 -0.4851  0.6614  0.3899
 3285SOL    HW121314   0.448   2.432  14.425 -1.5841 -0.0992 -1.0950
 3285SOL    HW221315   0.311   2.441  14.394  1.2380  0.3198 -0.9372
 3286SOL     OW21316   0.027   0.302  15.982 -0.1010  0.5030  0.0741
 3286SOL    HW121317   4.688   0.356  16.030 -2.3688 -0.9058 -1.2561
 3286SOL    HW221318   4.719   0.214  16.001 -3.1909  1.6543  0.3393
 3287SOL     OW21319   3.329   1.618   4.255  0.3964  0.3133 -0.9199
 3287SOL    HW121320   3.353   1.525   4.251 -0.9705 -0.0556 -0.5684
 3287SOL    HW221321   3.405   1.664   4.221  2.0397  0.0028  2.3043
 3288SOL     OW21322   1.449   0.431   7.110 -0.1082  0.1040 -0.1647
 3288SOL    HW121323   1.409   0.433   7.023  0.0796 -2.4120 -0.3126
 3288SOL    HW221324   1.386   0.489   7.152 -0.7539  0.6529 -1.8678
 3289SOL     OW21325   3.542   1.484  17.611 -0.2302 -0.0519  0.2948
 3289SOL    HW121326   3.595   1.517  17.683  1.7978 -1.2001 -0.6647
 3289SOL    HW221327   3.458   1.520  17.639  0.3070  2.4626 -1.3549
 3290SOL     OW21328   0.584   1.346  15.341  0.6333 -0.3254  0.2450
 3290SOL    HW121329   0.666   1.297  15.352  1.7774  1.5557 -0.0428
 3290SOL    HW221330   0.608   1.412  15.276 -2.5825  2.3922  1.8321
 3291SOL     OW21331   1.412   3.490   7.799  0.2574 -0.4677  0.3555
 3291SOL    HW121332   1.453   3.532   7.723 -1.0175 -2.2458 -1.3005
 3291SOL    HW221333   1.450   3.403   7.815  2.3309  0.3100 -0.2906
 3292SOL     OW21334   0.616   3.695   9.053 -0.1262  0.2249 -0.2429
 3292SOL    HW121335   0.521   3.692   9.046 -0.0016 -1.5392 -1.4589
 3292SOL    HW221336   0.629   3.756   9.125 -2.1624  0.5493 -0.1654
 3293SOL     OW21337   1.307   3.625  13.819  0.2719 -0.0601  0.0614
 3293SOL    HW121338   1.250   3.586  13.752 -0.8570  0.3519  0.7797
 3293SOL    HW221339   1.388   3.628  13.768 -2.3223 -1.6632 -4.1528
 3294SOL     OW21340   1.425   2.468   6.850  0.1779  0.1659 -0.0316
 3294SOL    HW121341   1.516   2.489   6.833  0.0327  0.8136 -0.0282
 3294SOL    HW221342   1.382   2.485   6.766  3.8273 -0.0412 -1.9343
 3295SOL     OW21343   1.362   3.812   7.826 -0.8251  0.0980  0.2500
 3295SOL    HW121344   1.380   3.906   7.830 -2.1038  0.4755 -2.4645
 3295SOL    HW221345   1.314   3.807   7.743  0.3940 -1.2910 -0.3680
 3296SOL     OW21346   3.811   3.326   4.748 -0.4795 -0.1626 -0.5257
 3296SOL    HW121347   3.772   3.393   4.804  1.1593 -0.5689  1.0905
 3296SOL    HW221348   3.881   3.295   4.806 -0.4316 -0.0914 -0.5448
 3297SOL     OW21349   1.278   2.802   1.475 -0.0164 -0.3896  0.0470
 3297SOL    HW121350   1.304   2.812   1.567 -0.0136 -2.2922  0.2509
 3297SOL    HW221351   1.364   2.795   1.433  1.0036 -0.3635  2.1641
 3298SOL     OW21352   0.273   0.217   4.845 -0.3163 -0.0645  0.2881
 3298SOL    HW121353   0.295   0.283   4.911 -0.6275 -0.9314  1.2642
 3298SOL    HW221354   0.271   0.271   4.766  0.5315  2.1116  1.7615
 3299SOL     OW21355   2.573   0.650   5.382 -0.2372  0.1262 -0.4934
 3299SOL    HW121356   2.658   0.618   5.353 -0.3633 -2.2078  1.5991
 3299SOL    HW221357   2.596   0.742   5.387  0.9230 -0.2120  0.5699
 3300SOL     OW21358   2.726   1.060  14.758 -0.4237  0.1282  0.3707
 3300SOL    HW121359   2.636   1.085  14.736 -0.2104  0.0185 -0.6360
 3300SOL    HW221360   2.774   1.105  14.688  1.5676 -2.2826  0.1608
 3301SOL     OW21361   3.024   4.581   0.820  0.2688 -0.1855 -0.1459
 3301SOL    HW121362   3.010   4.640   0.894 -0.0571  2.1273 -2.0678
 3301SOL    HW221363   3.108   4.537   0.834  0.7639  0.8126  0.0661
 3302SOL     OW21364   0.302   1.381  15.308 -0.5176  0.3391  0.6105
 3302SOL    HW121365   0.268   1.429  15.384  1.4649 -0.1990  1.8569
 3302SOL    HW221366   0.393   1.376  15.340 -0.7163  0.5737  1.2241
 3303SOL     OW21367   4.210   0.802   4.301 -0.0689 -0.1390  0.5750
 3303SOL    HW121368   4.288   0.750   4.279 -0.4592  0.0027 -1.1243
 3303SOL    HW221369   4.170   0.733   4.355  0.1569 -1.2497 -0.6697
 3304SOL     OW21370   2.872   3.284   6.525 -0.2334 -0.6551  0.8263
 3304SOL    HW121371   2.794   3.286   6.469  0.0010  2.4991  0.6539
 3304SOL    HW221372   2.860   3.352   6.591 -1.6106 -0.5992  0.5244
 3305SOL     OW21373   0.907   3.290  11.082  0.2470  0.5619  0.4670
 3305SOL    HW121374   0.815   3.316  11.088 -0.7853 -3.2388  1.6065
 3305SOL    HW221375   0.941   3.339  11.008  0.6274  0.3245  0.4827
 3306SOL     OW21376   4.595   0.577   1.643 -0.0334 -0.5863  0.0516
 3306SOL    HW121377   4.627   0.490   1.666 -2.8297 -1.3986  0.8582
 3306SOL    HW221378   4.630   0.579   1.554 -0.8355  0.7702 -0.2319
 3307SOL     OW21379   2.114   0.025  15.280 -0.8935  0.2356 -0.0079
 3307SOL    HW121380   2.099   4.713  15.192  1.5371 -0.6236 -0.0752
 3307SOL    HW221381   2.040   4.704  15.319 -0.9747  1.5630  1.3455
 3308SOL     OW21382   3.435   1.190  14.609 -0.9715 -0.0890 -0.3422
 3308SOL    HW121383   3.478   1.253  14.553  0.2414 -0.2902  0.3657
 3308SOL    HW221384   3.500   1.125  14.635  1.7218  2.9754  0.5407
 3309SOL     OW21385   2.830   1.975   3.481 -0.1307  0.6147  0.3180
 3309SOL    HW121386   2.866   1.908   3.423  0.3098 -0.2985  1.6406
 3309SOL    HW221387   2.737   1.954   3.470 -0.3748 -0.0184  3.5766
 3310SOL     OW21388   0.852   4.089   3.073 -0.1468 -0.7866 -0.2432
 3310SOL    HW121389   0.795   4.061   3.001  1.1497 -2.2991 -0.6894
 3310SOL    HW221390   0.847   4.016   3.135 -3.2434  1.8951  2.6056
 3311SOL     OW21391   3.089   1.123   0.132  0.0088  0.0249 -0.1549
 3311SOL    HW121392   3.083   1.202   0.185  2.2689  1.0878 -1.4878
 3311SOL    HW221393   3.022   1.067   0.172  0.7509 -0.9242 -0.2292
 3312SOL     OW21394   2.059   4.518   0.751  0.6005 -0.1045 -0.3710
 3312SOL    HW121395   2.063   4.593   0.809 -0.9656 -1.3942  1.4095
 3312SOL    HW221396   2.107   4.456   0.805 -1.0108 -0.5660  0.5405
 3313SOL     OW21397   4.404   0.939   3.051  0.0177  0.1545  0.1781
 3313SOL    HW121398   4.430   0.905   2.966 -0.7656 -0.0146  0.0083
 3313SOL    HW221399   4.366   1.023   3.025  0.6695  1.2666  2.7915
 3314SOL     OW21400   4.519   4.610  11.455 -0.1772  0.3871  0.3820
 3314SOL    HW121401   4.528   4.702  11.429  2.0010  0.1408  0.2421
 3314SOL    HW221402   4.584   4.566  11.401  0.1607  2.0562 -0.5785
 3315SOL     OW21403   2.325   2.023   3.860 -0.2989 -0.2684 -0.3804
 3315SOL    HW121404   2.254   2.015   3.923  0.4518  2.6197  0.8575
 3315SOL    HW221405   2.312   1.943   3.810  0.7558 -0.1009 -0.9272
 3316SOL     OW21406   0.518   2.625   3.868  0.2360 -0.9092 -0.3606
 3316SOL    HW121407   0.435   2.587   3.895 -0.1525 -0.1893 -0.5409
 3316SOL    HW221408   0.498   2.717   3.854  0.4958 -0.8485 -0.3394
 3317SOL     OW21409   4.610   4.037   2.142  0.2783 -0.8684 -0.8601
 3317SOL    HW121410   4.623   3.952   2.102  0.4116 -1.1695 -0.1749
 3317SOL    HW221411   4.530   4.021   2.193  1.6923 -3.0340  0.6343
 3318SOL     OW21412   2.232   3.712   5.739  0.8998  0.5591  0.0441
 3318SOL    HW121413   2.297   3.779   5.716 -0.1659  1.2493 -0.9642
 3318SOL    HW221414   2.277   3.659   5.805  2.2516  2.1518  0.4223
 3319SOL     OW21415   3.179   0.545  17.692 -0.0884  0.1707  0.3976
 3319SOL    HW121416   3.223   0.611  17.639  0.7662 -0.2279  0.6084
 3319SOL    HW221417   3.112   0.508  17.634  0.5785  0.8646 -0.8157
 3320SOL     OW21418   1.581   0.363   8.105  0.1030 -0.0622  0.2942
 3320SOL    HW121419   1.524   0.433   8.138  0.8825  1.3137 -1.2623
 3320SOL    HW221420   1.565   0.296   8.172 -1.1894 -0.9829 -0.9237
 3321SOL     OW21421   0.323   3.554   4.268 -0.1801  0.2591 -0.0498
 3321SOL    HW121422   0.363   3.641   4.273 -1.9764  0.9872  1.8028
 3321SOL    HW221423   0.354   3.511   4.347 -0.5705 -2.1878 -1.2477
 3322SOL     OW21424   4.691   2.241  13.156 -0.8125  0.1679 -0.2359
 3322SOL    HW121425   0.051   2.212  13.193 -1.6460 -1.9585  0.0012
 3322SOL    HW221426   4.701   2.212  13.065 -1.1361  1.8196 -0.7855
 3323SOL     OW21427   0.667   4.504  12.427 -0.4060 -0.0349 -0.2461
 3323SOL    HW121428   0.761   4.521  12.436 -0.7139  0.2354  2.5290
 3323SOL    HW221429   0.642   4.466  12.511 -0.9710  2.3322  0.6676
 3324SOL     OW21430   4.573   3.121   2.140  0.0194  0.0157 -0.1405
 3324SOL    HW121431   4.607   3.206   2.111 -2.1849  1.4537  1.4555
 3324SOL    HW221432   4.654   3.069   2.149 -0.1661 -0.3007 -0.3134
 3325SOL     OW21433   4.304   0.361   4.623 -0.2467  0.7014 -0.3599
 3325SOL    HW121434   4.210   0.358   4.642 -0.1033 -3.3780 -0.3049
 3325SOL    HW221435   4.328   0.268   4.627  0.5555  0.9093 -0.3883
 3326SOL     OW21436   1.301   0.002   5.721 -0.4651 -0.1435  0.2665
 3326SOL    HW121437   1.335   4.647   5.678 -2.1607 -0.2818 -0.8189
 3326SOL    HW221438   1.363   0.011   5.792  0.1898 -2.6397  0.0006
 3327SOL     OW21439   4.593   2.692   3.801  0.0204 -0.3531  0.4239
 3327SOL    HW121440   4.616   2.680   3.709  1.0372 -0.1459  0.6458
 3327SOL    HW221441   4.626   2.612   3.841 -2.9344 -1.0777  1.3736
 3328SOL     OW21442   4.246   2.792   3.282  0.4403 -0.1708 -0.0846
 3328SOL    HW121443   4.301   2.727   3.239  0.4058  0.2089 -0.7010
 3328SOL    HW221444   4.292   2.872   3.256  2.7416 -1.2491  0.6923
 3329SOL     OW21445   4.115   2.347  17.618 -0.5180 -0.2043  0.7626
 3329SOL    HW121446   4.190   2.390  17.659 -0.4004 -0.5141  0.8737
 3329SOL    HW221447   4.151   2.327  17.532 -0.6888 -1.3091  0.9541
 3330SOL     OW21448   1.384   3.637   6.065 -0.0097  0.1844 -0.0969
 3330SOL    HW121449   1.414   3.619   6.154  0.3773  0.4128 -0.1790
 3330SOL    HW221450   1.388   3.733   6.060  0.8089  0.2272  1.4019
 3331SOL     OW21451   2.319   2.350  15.274  0.1480 -0.1243 -0.1656
 3331SOL    HW121452   2.286   2.347  15.184 -0.3011  1.5589 -0.0640
 3331SOL    HW221453   2.409   2.370  15.250 -0.2208  1.0182 -0.6399
 3332SOL     OW21454   3.741   4.449   0.739  0.0609 -0.1546 -0.1763
 3332SOL    HW121455   3.821   4.474   0.692  1.3112 -1.0895  1.4495
 3332SOL    HW221456   3.679   4.491   0.680 -2.4464 -3.0547  0.3788
 3333SOL     OW21457   0.947   2.875   0.485 -0.1936  0.1498  0.1366
 3333SOL    HW121458   0.909   2.869   0.573 -2.7276 -0.8472 -1.0426
 3333SOL    HW221459   0.873   2.884   0.426  1.4052  0.9236 -1.7365
 3334SOL     OW21460   0.118   3.569   1.566  0.5730  0.4919  0.6425
 3334SOL    HW121461   0.149   3.645   1.517 -0.1261 -1.1207 -2.3316
 3334SOL    HW221462   0.193   3.550   1.623  0.2343  0.0643  0.9502
 3335SOL     OW21463   3.639   4.512   5.035  0.2683 -0.0410  0.1575
 3335SOL    HW121464   3.634   4.528   5.129  1.4835  0.5632  0.1259
 3335SOL    HW221465   3.669   4.598   5.007  1.2661 -0.9259 -1.4919
 3336SOL     OW21466   3.193   1.864  13.667  0.0050  0.4155  0.2427
 3336SOL    HW121467   3.144   1.859  13.750  0.6228 -2.2922  0.4441
 3336SOL    HW221468   3.166   1.780  13.630  1.7225 -0.5217  1.1280
 3337SOL     OW21469   4.398   1.618   9.395  0.6702  0.0093 -0.1871
 3337SOL    HW121470   4.428   1.529   9.378 -0.1158 -0.6631  1.9693
 3337SOL    HW221471   4.344   1.629   9.316  0.3013  2.4912  0.4036
 3338SOL     OW21472   2.441   0.212   9.441 -0.2699  0.0329 -0.3910
 3338SOL    HW121473   2.519   0.262   9.418 -0.0005  0.0665  0.5885
 3338SOL    HW221474   2.451   0.201   9.535 -2.3648  2.2581  0.0724
 3339SOL     OW21475   1.431   3.083   8.272  0.5290 -0.0155 -0.2281
 3339SOL    HW121476   1.419   3.161   8.218  0.1887  0.8720  1.1540
 3339SOL    HW221477   1.492   3.026   8.223 -0.4590 -1.7729  0.5859
 3340SOL     OW21478   1.461   3.162   2.947 -0.3869 -0.4833  0.7423
 3340SOL    HW121479   1.531   3.130   2.890 -1.9959 -0.9333 -0.9421
 3340SOL    HW221480   1.400   3.088   2.946 -1.5279  0.5017 -1.6431
 3341SOL     OW21481   3.208   4.396   5.286  0.5387  0.1503  0.2234
 3341SOL    HW121482   3.266   4.437   5.350  0.7600 -0.2454  0.2735
 3341SOL    HW221483   3.272   4.387   5.215  1.5718  1.1432  1.0350
 3342SOL     OW21484   0.670   4.332   3.943  0.2175  0.4732 -0.2540
 3342SOL    HW121485   0.698   4.298   3.858 -0.2199  0.7878 -0.5239
 3342SOL    HW221486   0.623   4.410   3.913 -2.1548 -0.1921  1.7462
 3343SOL     OW21487   0.373   0.495   9.343 -0.2554 -0.4729  0.3701
 3343SOL    HW121488   0.350   0.433   9.274  1.0399 -0.0745 -0.4315
 3343SOL    HW221489   0.299   0.554   9.328  0.5688  0.7927  1.2062
 3344SOL     OW21490   4.222   0.373  10.400  0.2910  0.1223 -0.0375
 3344SOL    HW121491   4.289   0.307  10.421 -0.1123 -0.4910 -0.6478
 3344SOL    HW221492   4.163   0.361  10.474 -1.1347  2.5415 -0.8046
 3345SOL     OW21493   3.722   4.472   5.349 -0.0544 -0.0126 -0.0571
 3345SOL    HW121494   3.803   4.456   5.397  1.0614  0.7517 -1.6744
 3345SOL    HW221495   3.702   4.381   5.325  0.8673 -0.3918  0.6093
 3346SOL     OW21496   3.196   3.055   9.159 -0.0885  0.0528 -0.3652
 3346SOL    HW121497   3.241   3.116   9.101 -0.1094  0.6365  0.2265
 3346SOL    HW221498   3.268   3.020   9.211 -2.2655 -1.5146  1.5775
 3347SOL     OW21499   4.316   1.390   0.651 -0.8679  0.2150  0.4564
 3347SOL    HW121500   4.384   1.331   0.684 -0.8061  0.0923  0.1108
 3347SOL    HW221501   4.296   1.448   0.725  0.8274  2.0169 -0.5038
 3348SOL     OW21502   0.602   3.677   3.232  0.3284  1.1813 -0.8416
 3348SOL    HW121503   0.507   3.665   3.233  0.3105  1.4159  0.7187
 3348SOL    HW221504   0.639   3.596   3.266 -2.1319  0.8770  1.1233
 3349SOL     OW21505   0.029   3.252   3.313  0.9134 -0.4288 -0.0316
 3349SOL    HW121506   0.076   3.174   3.345 -1.2882 -1.8490 -0.2693
 3349SOL    HW221507   0.056   3.242   3.221 -0.4269  3.2532 -0.8194
 3350SOL     OW21508   3.441   0.110  13.883 -0.3847 -0.0750 -0.3677
 3350SOL    HW121509   3.353   0.145  13.871 -0.6791 -0.5436  0.4063
 3350SOL    HW221510   3.462   0.064  13.802  0.4924  0.7753 -0.6257
 3351SOL     OW21511   0.681   4.241   3.688 -0.0353  0.4643  0.2235
 3351SOL    HW121512   0.662   4.247   3.594 -0.7275  1.6946  0.4404
 3351SOL    HW221513   0.641   4.158   3.713  2.0784 -1.0865 -1.6238
 3352SOL     OW21514   1.039   1.560   8.803  0.9679 -0.5268 -0.8504
 3352SOL    HW121515   1.134   1.567   8.805  0.8687  0.5059  0.5841
 3352SOL    HW221516   1.019   1.630   8.741 -2.7115 -0.3591  0.4819
 3353SOL     OW21517   4.600   3.197  13.321 -0.3376  0.0630  0.2296
 3353SOL    HW121518   4.633   3.109  13.301  0.4451  0.2911  0.4933
 3353SOL    HW221519   4.659   3.251  13.267 -0.2244 -0.3972 -0.1042
 3354SOL     OW21520   1.422   2.508   1.204  0.0959  0.4686  0.1834
 3354SOL    HW121521   1.394   2.428   1.247 -0.4092  1.5217  1.7902
 3354SOL    HW221522   1.350   2.519   1.142 -0.0178  3.8764  0.9126
 3355SOL     OW21523   4.450   4.152   5.757 -0.7470 -0.0164  0.1021
 3355SOL    HW121524   4.380   4.111   5.808 -0.9134  0.9164  0.6382
 3355SOL    HW221525   4.412   4.164   5.670  3.5600  2.9905 -1.3206
 3356SOL     OW21526   2.472   3.077   3.385  0.1893 -0.0460  0.1194
 3356SOL    HW121527   2.415   3.012   3.344 -1.2222  1.1656  0.1964
 3356SOL    HW221528   2.473   3.044   3.475  0.1144 -1.4456 -0.3933
 3357SOL     OW21529   0.947   2.228  17.227 -0.2376 -0.4987  0.8184
 3357SOL    HW121530   1.036   2.264  17.222 -0.6990  0.8618  2.2314
 3357SOL    HW221531   0.895   2.288  17.173  0.9747 -3.9132 -4.0942
 3358SOL     OW21532   1.592   0.221   6.970  0.4494 -0.4747 -0.3042
 3358SOL    HW121533   1.548   0.296   7.010  1.5546 -0.5386  1.0446
 3358SOL    HW221534   1.591   0.241   6.877  2.2811 -2.2216 -0.6949
 3359SOL     OW21535   0.411   0.616   5.556  0.0153  0.6652 -0.1358
 3359SOL    HW121536   0.367   0.576   5.631  1.2495  0.5996  0.5666
 3359SOL    HW221537   0.340   0.610   5.493  0.5799  0.8628 -0.7946
 3360SOL     OW21538   2.873   2.645   3.045  0.0872  0.3170  0.1418
 3360SOL    HW121539   2.804   2.681   3.101 -0.2886  2.9048 -1.9912
 3360SOL    HW221540   2.943   2.625   3.108  0.1781 -3.0591 -1.0523
 3361SOL     OW21541   2.908   2.812   7.284 -0.0891  0.2980  0.1508
 3361SOL    HW121542   2.977   2.866   7.245  0.3262  0.2285  0.8016
 3361SOL    HW221543   2.951   2.728   7.300  0.4181  0.3715 -0.7804
 3362SOL     OW21544   0.380   1.042  10.937  0.0820  0.4852 -0.3166
 3362SOL    HW121545   0.369   1.102  10.862 -1.5479  0.3501 -0.1854
 3362SOL    HW221546   0.473   1.060  10.950 -0.2394  1.1552  1.0953
 3363SOL     OW21547   4.104   3.020   7.336 -0.2022  0.1774  0.8668
 3363SOL    HW121548   4.085   2.942   7.388 -0.7739 -0.2769 -0.0270
 3363SOL    HW221549   4.189   3.056   7.364  0.6333  0.3496 -1.8366
 3364SOL     OW21550   4.340   1.592   4.097 -0.1891  0.4441  0.0912
 3364SOL    HW121551   4.401   1.666   4.100  0.1322  0.2996 -2.7401
 3364SOL    HW221552   4.328   1.572   4.190 -1.6734 -0.7782 -0.3626
 3365SOL     OW21553   1.791   3.646   5.875  0.1993 -0.6262  0.5865
 3365SOL    HW121554   1.815   3.592   5.950  3.0262 -0.2181 -0.0259
 3365SOL    HW221555   1.863   3.709   5.875 -0.7427  0.4409  2.0885
 3366SOL     OW21556   0.487   3.286   4.167  0.0878 -0.3315  0.7259
 3366SOL    HW121557   0.580   3.308   4.166 -0.2831  1.0074 -2.7394
 3366SOL    HW221558   0.446   3.370   4.149 -1.5376 -1.1111  0.7790
 3367SOL     OW21559   0.087   1.425   1.666  0.8880  0.1314 -0.4508
 3367SOL    HW121560   0.116   1.348   1.715  3.7200  0.2202 -2.0194
 3367SOL    HW221561   0.080   1.389   1.578 -0.9042 -1.5123  0.3521
 3368SOL     OW21562   2.378   0.777   3.820 -0.2949 -0.4939 -0.0454
 3368SOL    HW121563   2.459   0.807   3.778 -0.4249 -1.0217 -0.6665
 3368SOL    HW221564   2.347   0.856   3.864 -2.8110 -0.4603 -1.8537
 3369SOL     OW21565   1.573   2.332   2.596 -0.1108  0.1407 -0.4774
 3369SOL    HW121566   1.545   2.241   2.594  1.0497 -0.2012 -0.5522
 3369SOL    HW221567   1.501   2.374   2.645  1.5645  0.5521  1.6356
 3370SOL     OW21568   4.222   0.259   3.390  0.1265  0.0364  0.0009
 3370SOL    HW121569   4.202   0.326   3.456 -1.9504 -0.1361 -0.4518
 3370SOL    HW221570   4.315   0.243   3.402 -0.2197  0.0584  2.7126
 3371SOL     OW21571   2.762   2.765   1.420  0.1054  0.5841 -0.1702
 3371SOL    HW121572   2.713   2.808   1.490 -0.5962  0.9538 -0.8889
 3371SOL    HW221573   2.693   2.746   1.356  0.7397 -1.5891 -0.2258
 3372SOL     OW21574   2.420   4.316   8.508  0.1108  0.0923 -0.3487
 3372SOL    HW121575   2.341   4.266   8.486  0.5537 -0.5071 -0.5820
 3372SOL    HW221576   2.391   4.377   8.576  0.6925  0.6360 -0.5839
 3373SOL     OW21577   3.908   0.791   8.149  0.3791  0.3111 -0.3628
 3373SOL    HW121578   3.872   0.879   8.139  4.5060  1.8336 -1.5995
 3373SOL    HW221579   3.968   0.804   8.222 -1.1932  2.1726  0.6006
 3374SOL     OW21580   1.103   4.490   4.139  0.6197  0.2126  0.5387
 3374SOL    HW121581   1.014   4.480   4.171  0.0076 -1.0988 -1.5904
 3374SOL    HW221582   1.095   4.480   4.044  0.8661  2.4407  0.2702
 3375SOL     OW21583   2.441   2.774   6.010  0.0358  0.2096 -0.4260
 3375SOL    HW121584   2.434   2.830   5.933  1.2592 -0.1914 -0.8229
 3375SOL    HW221585   2.532   2.795   6.031 -0.1019  0.1883  0.2078
 3376SOL     OW21586   4.076   0.988   1.750  0.4799 -0.2896 -0.4716
 3376SOL    HW121587   4.163   1.026   1.735 -0.4948  1.3797 -1.8585
 3376SOL    HW221588   4.059   0.993   1.844 -0.6386 -0.2813 -0.6763
 3377SOL     OW21589   4.568   0.269   5.397 -0.2899 -0.0701  0.1985
 3377SOL    HW121590   4.639   0.309   5.347 -0.7765  0.4741 -0.0573
 3377SOL    HW221591   4.570   0.175   5.380  2.6935  0.0653 -0.1802
 3378SOL     OW21592   1.104   3.130   4.398 -0.1951 -0.5737  0.5561
 3378SOL    HW121593   1.040   3.127   4.468  1.7906 -1.5280  2.3433
 3378SOL    HW221594   1.086   3.046   4.355 -2.1050 -0.2824  0.8193
 3379SOL     OW21595   2.269   2.531   8.879  0.5301 -0.3694  0.0937
 3379SOL    HW121596   2.357   2.568   8.873 -0.1545  1.3004  0.3844
 3379SOL    HW221597   2.248   2.566   8.966 -1.0852 -1.6172  0.2140
 3380SOL     OW21598   3.566   0.603  15.005 -0.2218  0.1972  0.5543
 3380SOL    HW121599   3.530   0.687  14.978  0.2413  0.2204 -0.0050
 3380SOL    HW221600   3.630   0.636  15.067  0.4926 -1.1198  0.5125
 3381SOL     OW21601   2.068   3.781   4.695  0.7207  0.0083 -0.1531
 3381SOL    HW121602   2.023   3.865   4.691  2.8157  1.1240 -0.4429
 3381SOL    HW221603   2.006   3.740   4.756  1.0116  0.2297  0.2885
 3382SOL     OW21604   2.487   3.707   4.479 -0.1966  0.4365  0.3545
 3382SOL    HW121605   2.423   3.691   4.548 -3.2951  1.4715 -2.3186
 3382SOL    HW221606   2.546   3.632   4.490 -0.6797  0.1183  0.7470
 3383SOL     OW21607   3.237   2.472   7.628 -0.2172  0.6078 -0.0457
 3383SOL    HW121608   3.245   2.382   7.598  2.0426  1.5593 -2.2915
 3383SOL    HW221609   3.189   2.517   7.559  0.9653 -0.4761 -1.5688
 3384SOL     OW21610   0.629   0.392  15.491 -0.2275 -0.3982 -0.1825
 3384SOL    HW121611   0.539   0.376  15.460 -0.7414 -1.8101  2.0615
 3384SOL    HW221612   0.632   0.483  15.521  1.1460 -0.7813  0.8268
 3385SOL     OW21613   2.463   2.471   0.954  0.6447  0.5595 -0.0774
 3385SOL    HW121614   2.517   2.393   0.953  2.3300  1.7262  0.9614
 3385SOL    HW221615   2.435   2.479   0.862 -1.5565  1.5063  0.6637
 3386SOL     OW21616   3.665   2.613   1.075  0.8466 -0.0363 -0.3324
 3386SOL    HW121617   3.691   2.527   1.042  0.5587 -0.2144 -0.1076
 3386SOL    HW221618   3.743   2.636   1.125 -0.5048  1.3467  1.1522
 3387SOL     OW21619   1.533   3.588   6.748 -0.3812 -0.3021  0.0902
 3387SOL    HW121620   1.508   3.605   6.657 -2.1435 -2.6290  0.1452
 3387SOL    HW221621   1.489   3.662   6.790  0.4717 -0.2907  0.9761
 3388SOL     OW21622   3.431   4.715   5.700 -0.1002 -0.4136 -0.2372
 3388SOL    HW121623   3.369   4.714   5.627  0.0513  0.4295 -0.3791
 3388SOL    HW221624   3.507   0.037   5.663 -0.7795 -0.0815 -1.2430
 3389SOL     OW21625   3.017   3.272   0.698  0.1532 -0.0175  0.9679
 3389SOL    HW121626   2.988   3.183   0.717  0.9180 -0.0744  1.8804
 3389SOL    HW221627   2.941   3.318   0.734 -1.3493 -0.7415 -1.2447
 3390SOL     OW21628   3.066   1.212   5.398 -0.1333 -0.0266 -0.6926
 3390SOL    HW121629   3.112   1.289   5.430  0.0512 -0.5003  0.1866
 3390SOL    HW221630   3.098   1.203   5.308  0.4559 -1.4160 -0.3527
 3391SOL     OW21631   2.880   4.520   4.907  0.0762 -0.0638 -0.2884
 3391SOL    HW121632   2.824   4.520   4.830  2.5611 -1.7985 -2.1058
 3391SOL    HW221633   2.821   4.563   4.969  0.0225 -0.4431 -0.0712
 3392SOL     OW21634   2.952   4.516   2.803  0.4719 -0.1047  0.1237
 3392SOL    HW121635   2.926   4.599   2.764 -1.2936 -1.3832 -1.4128
 3392SOL    HW221636   3.037   4.498   2.763  0.6090 -1.9189  1.2434
 3393SOL     OW21637   3.566   0.642  13.703  0.5797 -0.3999 -0.0649
 3393SOL    HW121638   3.561   0.700  13.628 -0.2753  1.0825  1.1510
 3393SOL    HW221639   3.492   0.582  13.689 -0.2890  0.3785  1.1726
 3394SOL     OW21640   4.524   0.901  13.114  0.2803  0.2706 -0.4603
 3394SOL    HW121641   4.598   0.932  13.165 -1.0576  1.0747  1.0047
 3394SOL    HW221642   4.455   0.946  13.163 -1.0002 -2.4251  0.1765
 3395SOL     OW21643   0.336   0.759   4.967  0.4380  0.3392 -0.2806
 3395SOL    HW121644   0.357   0.852   4.969  1.9268  0.0230 -0.9594
 3395SOL    HW221645   0.420   0.727   4.998  1.2946  1.1237 -1.8149
 3396SOL     OW21646   0.688   1.261  17.217 -0.3444 -0.5141 -0.1086
 3396SOL    HW121647   0.635   1.310  17.154  0.6264 -2.3695 -2.3476
 3396SOL    HW221648   0.745   1.334  17.243 -0.7756 -0.4539  0.6789
 3397SOL     OW21649   2.257   3.479   4.104  0.9792 -0.0002  0.1056
 3397SOL    HW121650   2.203   3.483   4.025  1.3399  1.7850 -0.0687
 3397SOL    HW221651   2.328   3.538   4.079 -0.3991  1.1343 -1.1074
 3398SOL     OW21652   0.191   4.628   9.652 -0.1515 -0.2620 -0.8670
 3398SOL    HW121653   0.199   4.543   9.695  1.8883 -0.5770 -1.8621
 3398SOL    HW221654   0.096   4.634   9.666  0.3657  0.9661  2.1205
 3399SOL     OW21655   2.076   0.040  11.970 -0.2618  0.6048 -0.0377
 3399SOL    HW121656   2.070   4.711  12.050  0.6466  1.4919  0.6168
 3399SOL    HW221657   2.043   4.710  11.898  3.0168  0.7249 -1.6214
 3400SOL     OW21658   4.707   2.369  15.906 -0.0940  0.0503  0.0700
 3400SOL    HW121659   4.633   2.350  15.848  1.7117 -3.4539 -1.0801
 3400SOL    HW221660   4.723   2.280  15.936 -0.9738 -0.6070 -1.4255
 3401SOL     OW21661   0.033   4.006   2.767 -0.5121  0.2620  0.3034
 3401SOL    HW121662   4.708   4.069   2.821  1.0591  2.0904 -0.4063
 3401SOL    HW221663   0.089   3.972   2.837 -0.4259 -0.0257  0.0915
 3402SOL     OW21664   4.256   2.556   4.346 -0.5739 -0.1249  0.2962
 3402SOL    HW121665   4.171   2.594   4.366  0.5818  3.6340 -1.9991
 3402SOL    HW221666   4.252   2.470   4.389 -1.2707  0.3308  1.1489
 3403SOL     OW21667   3.211   0.292  17.537  0.6938  0.1486 -0.5314
 3403SOL    HW121668   3.216   0.333  17.451 -0.3976 -1.9383 -1.5764
 3403SOL    HW221669   3.191   0.202  17.512  1.8194 -0.7984  1.9230
 3404SOL     OW21670   3.802   2.590   8.298  0.2517  0.0414 -0.0367
 3404SOL    HW121671   3.783   2.670   8.249 -1.4041  0.8502  1.9286
 3404SOL    HW221672   3.725   2.581   8.354  0.7748 -0.9437  0.5346
 3405SOL     OW21673   1.486   1.090  15.620 -0.0660 -0.0194  0.1125
 3405SOL    HW121674   1.422   1.142  15.571 -0.8213  0.2091  1.3286
 3405SOL    HW221675   1.431   1.084  15.698  0.8088 -2.1282  0.5588
 3406SOL     OW21676   2.606   2.213  16.930 -0.6943  0.0785  0.3122
 3406SOL    HW121677   2.697   2.197  16.907 -0.9971 -0.5617 -0.4418
 3406SOL    HW221678   2.604   2.160  17.010 -2.1384  0.1217  0.3086
 3407SOL     OW21679   1.054   2.720   6.270 -0.2591 -0.0415  0.0072
 3407SOL    HW121680   1.084   2.762   6.351  1.2510  0.6370 -0.8837
 3407SOL    HW221681   0.978   2.767   6.236  2.1492  3.2934 -0.8697
 3408SOL     OW21682   2.645   2.131   2.303 -0.8564  0.1077 -0.2198
 3408SOL    HW121683   2.620   2.102   2.215  0.1272 -0.8976 -0.1836
 3408SOL    HW221684   2.706   2.060   2.325 -1.0326 -0.3794 -1.2691
 3409SOL     OW21685   3.979   2.794   4.393  0.4346  0.3455  0.7535
 3409SOL    HW121686   3.891   2.814   4.424  0.0221 -0.4501  0.0867
 3409SOL    HW221687   4.009   2.740   4.466  1.7706  0.5223  0.3374
 3410SOL     OW21688   4.046   2.347   4.796 -0.4755  0.1101  0.2140
 3410SOL    HW121689   3.956   2.328   4.770 -0.5215  1.3843 -0.5903
 3410SOL    HW221690   4.036   2.361   4.890  0.0170 -0.1191  0.3004
 3411SOL     OW21691   1.850   3.682   4.405 -0.4571 -0.2784 -0.3234
 3411SOL    HW121692   1.823   3.653   4.317  1.5346 -1.0950 -0.6517
 3411SOL    HW221693   1.854   3.604   4.460 -0.6851  0.7730  1.1584
 3412SOL     OW21694   4.043   2.051   6.973 -0.1268  0.1346 -0.3100
 3412SOL    HW121695   4.087   2.090   7.048 -0.3192  1.3711 -0.8371
 3412SOL    HW221696   4.062   1.961   6.996  2.4441  1.0557  1.0699
 3413SOL     OW21697   4.440   1.508   5.527  0.5656  0.1670 -0.1622
 3413SOL    HW121698   4.437   1.573   5.457 -1.3756  1.7654  1.3762
 3413SOL    HW221699   4.432   1.425   5.480 -0.4295  0.5203 -0.6180
 3414SOL     OW21700   2.612   1.896   7.942 -0.2863 -0.1006 -0.3715
 3414SOL    HW121701   2.623   1.841   7.865  0.0267 -0.7239  0.1209
 3414SOL    HW221702   2.684   1.959   7.941  0.3532 -0.8532 -2.1170
 3415SOL     OW21703   0.831   0.053   8.570 -0.0279 -0.3210 -0.3038
 3415SOL    HW121704   0.846   4.703   8.631  0.6394  1.2710  1.4432
 3415SOL    HW221705   0.899   0.030   8.506 -0.1723 -2.2676  0.2188
 3416SOL     OW21706   3.586   3.108   6.371  0.4415  0.1940 -0.1774
 3416SOL    HW121707   3.502   3.075   6.402 -0.3127 -0.1264 -2.5002
 3416SOL    HW221708   3.625   3.129   6.455  2.7536 -0.2503 -1.1303
 3417SOL     OW21709   0.025   0.309   3.774 -0.1958  0.4566 -0.1437
 3417SOL    HW121710   0.111   0.326   3.734  1.4617 -2.9150  1.9703
 3417SOL    HW221711   0.015   0.218   3.746  0.5619  0.9180 -1.9725
 3418SOL     OW21712   0.219   0.473   8.962  0.0337 -0.0869  0.4316
 3418SOL    HW121713   0.205   0.492   8.870 -0.3949 -0.8486  0.3380
 3418SOL    HW221714   0.143   0.511   9.007 -0.2255  0.3537 -0.3782
 3419SOL     OW21715   0.855   2.093   4.081  0.0047  0.1772  0.0426
 3419SOL    HW121716   0.875   2.091   3.987  3.0429  2.4869  0.6184
 3419SOL    HW221717   0.784   2.157   4.087  1.2535  1.4940  1.0053
 3420SOL     OW21718   3.802   3.410   3.606 -0.2872 -0.0999  0.0672
 3420SOL    HW121719   3.888   3.376   3.633  0.2230  0.4948 -0.8198
 3420SOL    HW221720   3.741   3.337   3.609 -0.1383 -0.3246 -2.6034
 3421SOL     OW21721   4.599   1.618   6.950  0.0348  0.4783 -0.1469
 3421SOL    HW121722   4.616   1.636   6.858  2.0563 -0.5659  0.0361
 3421SOL    HW221723   4.675   1.666   6.981  0.9853 -0.3952 -1.1298
 3422SOL     OW21724   3.104   1.776   2.058  0.0338 -0.2701  0.3734
 3422SOL    HW121725   3.162   1.701   2.048  1.0222  0.6577 -0.8608
 3422SOL    HW221726   3.166   1.849   2.067 -1.3605  1.0328 -0.5683
 3423SOL     OW21727   4.072   0.838  11.448 -0.3197  0.1346 -0.6948
 3423SOL    HW121728   4.113   0.902  11.506  0.0558 -1.3083  0.6427
 3423SOL    HW221729   4.097   0.755  11.489  1.5284  0.7625 -0.5573
 3424SOL     OW21730   2.752   0.174  12.462 -0.0316 -0.0295  0.0752
 3424SOL    HW121731   2.798   0.095  12.433  0.9981  0.6568 -0.1818
 3424SOL    HW221732   2.813   0.248  12.455  1.9543 -1.6570 -0.0567
 3425SOL     OW21733   1.628   2.776   7.888  0.0207 -0.0741 -0.7129
 3425SOL    HW121734   1.713   2.810   7.862  1.2736 -1.9974  0.8814
 3425SOL    HW221735   1.641   2.684   7.862 -0.4099 -0.6166  0.9805
 3426SOL     OW21736   0.327   3.687   8.865  0.0585  0.1803 -0.1692
 3426SOL    HW121737   0.400   3.724   8.816 -0.1097 -0.3071 -0.7896
 3426SOL    HW221738   0.347   3.710   8.956  2.7779 -0.2157 -0.6828
 3427SOL     OW21739   3.025   1.273  15.233 -0.0551  0.1723 -0.2638
 3427SOL    HW121740   2.943   1.316  15.212 -0.9573 -1.4766 -0.0989
 3427SOL    HW221741   3.055   1.279  15.142 -0.5592 -1.4225 -0.5264
 3428SOL     OW21742   0.004   3.317   8.409  0.0813  0.1389  0.1627
 3428SOL    HW121743   4.723   3.413   8.406 -0.4762  0.1985  3.1039
 3428SOL    HW221744   0.091   3.291   8.439  0.4017  1.3520  0.3070
 3429SOL     OW21745   1.348   3.053  11.604  0.2495  0.1377  0.1017
 3429SOL    HW121746   1.334   3.010  11.688  0.3258 -1.0733 -0.5015
 3429SOL    HW221747   1.279   3.012  11.552 -0.6083  0.8507  0.6865
 3430SOL     OW21748   0.156   0.852   7.448 -0.3145 -0.1050 -0.7701
 3430SOL    HW121749   0.071   0.892   7.465 -1.2770 -3.4798  2.5487
 3430SOL    HW221750   0.207   0.873   7.526  0.9055 -0.2530 -1.5245
 3431SOL     OW21751   4.630   1.157   5.619  0.5725  0.3644  0.0268
 3431SOL    HW121752   4.571   1.102   5.568 -0.8422  1.7536  0.1704
 3431SOL    HW221753   4.661   1.087   5.678  1.1422  1.0162  0.5099
 3432SOL     OW21754   1.946   3.721   3.048  0.4692  0.0939 -1.3525
 3432SOL    HW121755   1.878   3.725   2.981  1.7479 -0.6985 -2.7250
 3432SOL    HW221756   2.012   3.691   2.984 -1.2099 -0.9619 -2.5722
 3433SOL     OW21757   4.628   4.404  10.453 -0.3258  1.0832  0.1605
 3433SOL    HW121758   4.577   4.391  10.533 -2.4434 -0.4285 -1.4445
 3433SOL    HW221759   4.612   4.313  10.428  1.7995  0.0472  2.5057
 3434SOL     OW21760   1.403   2.701   3.814  0.1178 -0.2403  0.0916
 3434SOL    HW121761   1.411   2.606   3.820 -1.2703 -0.2697  1.4355
 3434SOL    HW221762   1.348   2.708   3.736 -0.1684  1.5526  0.4609
 3435SOL     OW21763   0.234   4.572   8.911 -0.4752 -0.7300 -0.3539
 3435SOL    HW121764   0.329   4.564   8.911 -0.4290 -0.1276  0.1689
 3435SOL    HW221765   0.215   4.480   8.890  0.7949 -0.9517 -0.5087
 3436SOL     OW21766   3.051   4.237  17.638  0.5254 -0.1054  0.4668
 3436SOL    HW121767   3.022   4.198   0.024 -0.2122 -1.7493 -0.5792
 3436SOL    HW221768   2.976   4.214  17.583 -1.1597  0.5972  2.4685
 3437SOL     OW21769   4.403   2.063  16.212  0.4108  0.2728  0.0931
 3437SOL    HW121770   4.336   2.059  16.143 -0.4751  0.0849  0.9576
 3437SOL    HW221771   4.401   2.150  16.250 -0.8243 -0.2219  1.1683
 3438SOL     OW21772   3.664   0.090   5.600 -0.2933  0.2760  0.1347
 3438SOL    HW121773   3.754   0.115   5.580  0.0931 -2.3299 -1.3344
 3438SOL    HW221774   3.624   0.140   5.529  0.3006  0.1112 -0.3230
 3439SOL     OW21775   0.041   0.289   9.965 -0.1340 -0.1400  0.6977
 3439SOL    HW121776   4.718   0.355  10.017  1.3503  2.9949 -1.9537
 3439SOL    HW221777   0.034   0.213  10.022  1.9694 -1.9671 -1.4657
 3440SOL     OW21778   4.409   0.956  13.574  0.5998  0.0943  0.1693
 3440SOL    HW121779   4.453   1.040  13.563 -0.4705  0.9485  2.3462
 3440SOL    HW221780   4.464   0.898  13.521 -1.2149 -1.0850 -0.4689
 3441SOL     OW21781   0.993   2.562   9.373 -0.2987 -0.0879  0.1481
 3441SOL    HW121782   1.087   2.563   9.358 -0.2916  1.1123  0.2803
 3441SOL    HW221783   0.980   2.500   9.445  3.1859 -1.5125 -0.4572
 3442SOL     OW21784   4.600   4.539  17.543 -0.2063 -0.5538  0.2750
 3442SOL    HW121785   4.689   4.540  17.577 -0.8394 -3.0117  1.9696
 3442SOL    HW221786   4.556   4.552  17.627 -2.0319  3.5698 -1.3052
 3443SOL     OW21787   2.499   0.394   0.039 -0.6355  0.1736 -0.4922
 3443SOL    HW121788   2.523   0.452  17.663 -0.1105  0.9365  0.2953
 3443SOL    HW221789   2.584   0.374   0.078 -0.9207 -1.0737 -0.5085
 3444SOL     OW21790   1.251   1.762   6.834  0.1101  0.2593 -0.5724
 3444SOL    HW121791   1.193   1.814   6.778 -0.4811  0.1405 -0.0664
 3444SOL    HW221792   1.340   1.786   6.809 -0.3281  2.3063 -0.1837
 3445SOL     OW21793   4.124   1.741   2.413 -0.2024 -0.1430 -0.0380
 3445SOL    HW121794   4.068   1.680   2.364  1.8597 -0.6997 -1.6832
 3445SOL    HW221795   4.120   1.819   2.357 -2.4732 -0.9078 -0.9589
 3446SOL     OW21796   4.497   2.834   2.490  0.3529  0.2528 -0.0470
 3446SOL    HW121797   4.460   2.871   2.410 -0.7151  0.9815  0.7876
 3446SOL    HW221798   4.572   2.791   2.450 -0.9620 -1.0346 -1.1239
 3447SOL     OW21799   0.385   0.788   4.235 -0.1387  0.9337  0.4864
 3447SOL    HW121800   0.354   0.833   4.156 -1.3760  0.9704  0.9985
 3447SOL    HW221801   0.467   0.750   4.204 -2.7021 -3.2366 -1.1351
 3448SOL     OW21802   4.093   2.189  15.872 -0.4294 -0.1378 -0.3969
 3448SOL    HW121803   4.030   2.243  15.919 -2.3463 -0.5145 -2.5216
 3448SOL    HW221804   4.059   2.169  15.785  0.5048  0.6897 -0.9511
 3449SOL     OW21805   2.775   4.518   5.732  0.8572  0.4274  0.3327
 3449SOL    HW121806   2.855   4.515   5.785  1.0381 -0.2675  0.0230
 3449SOL    HW221807   2.722   4.586   5.773 -0.8081  0.0461 -1.1807
 3450SOL     OW21808   2.778   4.370   8.216  0.3670 -0.9276 -0.6307
 3450SOL    HW121809   2.721   4.406   8.148 -2.2160 -1.5820  1.2141
 3450SOL    HW221810   2.706   4.331   8.264  0.4056  2.1918  1.9976
 3451SOL     OW21811   3.817   2.675   2.347 -0.1071  0.4510  0.0303
 3451SOL    HW121812   3.772   2.730   2.283 -2.4612 -1.4058  0.1171
 3451SOL    HW221813   3.861   2.609   2.293 -0.2323 -0.0001  0.4820
 3452SOL     OW21814   0.033   3.767   5.365 -0.0327  0.3583 -0.2456
 3452SOL    HW121815   0.077   3.766   5.280  1.6368 -1.7038  0.6450
 3452SOL    HW221816   0.094   3.814   5.422 -0.2961  1.8058 -1.1744
 3453SOL     OW21817   3.801   2.073  10.064 -0.6982 -0.3805  0.0087
 3453SOL    HW121818   3.783   2.163  10.036 -1.5364 -0.3259  0.7364
 3453SOL    HW221819   3.731   2.033  10.012  0.7439  0.2323 -2.4160
 3454SOL     OW21820   4.026   1.434   4.620  0.0187 -0.3584  0.4107
 3454SOL    HW121821   4.053   1.494   4.690 -1.7811  1.6653 -0.6137
 3454SOL    HW221822   3.948   1.398   4.662  0.9642  0.7288  3.1498
 3455SOL     OW21823   2.420   4.117   4.036 -0.1399 -0.9105  0.1055
 3455SOL    HW121824   2.407   4.192   4.095  0.6526 -1.5932  1.1591
 3455SOL    HW221825   2.451   4.162   3.958 -1.4096  0.3357  0.3330
 3456SOL     OW21826   0.567   1.770  16.918  0.2995 -0.0409  0.0557
 3456SOL    HW121827   0.646   1.791  16.869 -0.0511  0.3043 -0.3592
 3456SOL    HW221828   0.550   1.852  16.964 -2.8823 -0.4367 -0.4168
 3457SOL     OW21829   1.736   1.170   4.513 -0.4761 -0.2313 -0.5730
 3457SOL    HW121830   1.761   1.254   4.552 -0.4181 -0.2244 -0.6254
 3457SOL    HW221831   1.642   1.183   4.506 -0.1974  1.4554 -1.2915
 3458SOL     OW21832   4.164   0.008   8.505  0.2881 -0.4110 -0.6077
 3458SOL    HW121833   4.246   0.048   8.476  0.6545 -0.8812 -0.2067
 3458SOL    HW221834   4.144   0.067   8.579 -1.8082 -2.8236  0.7418
 3459SOL     OW21835   0.401   4.424   5.039  0.1416  0.5078 -0.6069
 3459SOL    HW121836   0.437   4.510   5.015 -0.1722  0.6868 -0.4353
 3459SOL    HW221837   0.380   4.383   4.955  0.1345  0.0570 -0.3841
 3460SOL     OW21838   1.698   4.197   5.295 -0.0088 -0.2751  0.6811
 3460SOL    HW121839   1.656   4.128   5.346 -0.4831  0.8014  1.7402
 3460SOL    HW221840   1.671   4.185   5.204  1.8863 -1.8341  0.3319
 3461SOL     OW21841   3.508   1.813   5.515 -0.8351 -0.2393 -0.1225
 3461SOL    HW121842   3.601   1.799   5.497 -0.8344  3.4160 -2.8995
 3461SOL    HW221843   3.505   1.810   5.611 -0.3568  1.8974 -0.0332
 3462SOL     OW21844   0.770   3.420  16.632  0.8904  0.5890  0.3411
 3462SOL    HW121845   0.765   3.345  16.572  0.0741  0.9734 -0.0688
 3462SOL    HW221846   0.859   3.445  16.608  1.0566  0.7921  1.2086
 3463SOL     OW21847   1.961   4.676   8.618  0.5172 -0.3840 -0.0377
 3463SOL    HW121848   1.925   4.612   8.680  0.3790 -0.1659  0.1059
 3463SOL    HW221849   1.888   0.013   8.608 -0.6185 -2.0643 -1.9572
 3464SOL     OW21850   4.263   1.368   4.917  0.3206  0.5291 -0.3132
 3464SOL    HW121851   4.251   1.310   4.842  1.1414  2.3013 -1.8339
 3464SOL    HW221852   4.322   1.432   4.875  1.5866 -0.7563 -0.4868
 3465SOL     OW21853   4.117   3.243   2.725 -0.1350 -0.0757  0.3630
 3465SOL    HW121854   4.180   3.224   2.655 -1.2367  0.8250 -0.8537
 3465SOL    HW221855   4.148   3.190   2.799  0.2448  0.3228  0.4887
 3466SOL     OW21856   0.439   1.753   0.810  0.3040 -0.4261 -0.1737
 3466SOL    HW121857   0.474   1.833   0.848 -3.2638  1.5875 -1.1652
 3466SOL    HW221858   0.346   1.774   0.806  0.4484  0.8941  3.5635
 3467SOL     OW21859   1.779   2.239  16.313 -0.1945 -0.0690 -0.2893
 3467SOL    HW121860   1.843   2.171  16.292 -0.2093 -0.0193 -0.4939
 3467SOL    HW221861   1.754   2.229  16.405  1.6727  2.3448  0.4767
 3468SOL     OW21862   1.951   1.404   7.984 -0.4530  0.1682 -0.0247
 3468SOL    HW121863   1.909   1.466   8.043 -1.8245 -0.2085 -0.6111
 3468SOL    HW221864   1.924   1.437   7.899  1.1101 -0.3288 -0.7206
 3469SOL     OW21865   1.374   3.701  10.189 -0.6113  0.4850  0.2330
 3469SOL    HW121866   1.330   3.641  10.128 -1.6162  0.5216  0.9094
 3469SOL    HW221867   1.467   3.693  10.170 -0.6838 -3.9964  1.7977
 3470SOL     OW21868   3.869   2.952   2.515  0.3721 -0.1896 -0.1097
 3470SOL    HW121869   3.910   2.921   2.596  2.3499 -0.2440 -1.1228
 3470SOL    HW221870   3.828   2.873   2.479 -1.5980  1.4062 -1.3564
 3471SOL     OW21871   0.545   4.484   6.953 -0.2854 -0.5200 -0.2612
 3471SOL    HW121872   0.601   4.508   7.026  0.6611 -1.6906 -0.5958
 3471SOL    HW221873   0.459   4.502   6.991 -1.2109 -0.8196 -2.2064
 3472SOL     OW21874   4.532   0.798   5.680 -0.0434 -0.2795 -0.0438
 3472SOL    HW121875   4.570   0.872   5.727  0.0003  1.1433 -2.2646
 3472SOL    HW221876   4.551   0.725   5.739  0.1212 -1.0945 -1.0889
 3473SOL     OW21877   1.360   3.660   3.994 -0.0922  0.1648  0.3647
 3473SOL    HW121878   1.334   3.649   3.902 -1.7016 -0.7389  0.9261
 3473SOL    HW221879   1.271   3.651   4.029 -0.1745  1.5549  0.5257
 3474SOL     OW21880   4.291   4.227  17.352  0.2623 -0.1590 -0.1733
 3474SOL    HW121881   4.359   4.294  17.352 -0.9880  1.0985  0.3668
 3474SOL    HW221882   4.307   4.207  17.445  1.1357  2.4192  0.2271
 3475SOL     OW21883   2.133   2.699  11.672  0.6751 -0.0666  0.1515
 3475SOL    HW121884   2.086   2.624  11.707 -0.5276  0.3337 -0.5914
 3475SOL    HW221885   2.221   2.676  11.702  1.0811 -1.0829 -1.8035
 3476SOL     OW21886   4.266   0.155  12.838 -0.2238  0.2932  0.1451
 3476SOL    HW121887   4.256   0.137  12.745 -1.4145 -1.7335  0.6666
 3476SOL    HW221888   4.362   0.157  12.843 -0.1356  0.1465 -1.4917
 3477SOL     OW21889   3.409   1.763   7.583  0.0184  0.2788  0.4088
 3477SOL    HW121890   3.453   1.739   7.501 -0.2827  1.2460 -0.0323
 3477SOL    HW221891   3.437   1.703   7.653  0.2987 -2.0196 -1.6629
 3478SOL     OW21892   0.540   1.305   5.385 -0.2060  0.3031 -0.1657
 3478SOL    HW121893   0.517   1.396   5.369 -2.2726 -0.4334 -1.4477
 3478SOL    HW221894   0.631   1.317   5.413 -0.5929  1.4449  0.5909
 3479SOL     OW21895   2.437   0.808   6.371 -0.5382  0.2020  0.2636
 3479SOL    HW121896   2.494   0.885   6.367 -0.3681  0.0624 -0.0091
 3479SOL    HW221897   2.390   0.813   6.455 -1.2252 -1.1826 -0.0369
 3480SOL     OW21898   4.223   0.246   6.169 -0.1703  0.6309 -0.1214
 3480SOL    HW121899   4.297   0.276   6.222  0.4249 -0.4523 -0.3408
 3480SOL    HW221900   4.255   0.260   6.080 -0.6943 -1.3088 -0.6193
 3481SOL     OW21901   1.600   3.355   8.709  0.1890  0.3687 -0.3798
 3481SOL    HW121902   1.590   3.378   8.801 -0.1822 -1.4187  0.0189
 3481SOL    HW221903   1.523   3.300   8.694  1.8562 -1.5823 -1.7828
 3482SOL     OW21904   2.358   1.009   5.439  0.1193 -0.3627 -0.1940
 3482SOL    HW121905   2.414   1.085   5.453 -2.7064  1.6250  0.1278
 3482SOL    HW221906   2.286   1.032   5.380  0.8389 -0.1313 -0.9869
 3483SOL     OW21907   1.168   1.352   6.007 -0.0658 -0.0220  0.2928
 3483SOL    HW121908   1.228   1.352   6.081 -0.0375 -0.0319  0.2700
 3483SOL    HW221909   1.234   1.331   5.940 -2.1788 -0.2754 -1.7109
 3484SOL     OW21910   3.716   1.399   7.559  0.0935 -0.4805 -0.4330
 3484SOL    HW121911   3.720   1.353   7.643 -2.5169 -0.0126 -0.0477
 3484SOL    HW221912   3.649   1.346   7.515  0.3142  0.0534 -1.4071
 3485SOL     OW21913   2.922   4.542   3.467 -1.0579  0.1270 -0.0254
 3485SOL    HW121914   2.856   4.487   3.510 -0.9919  0.9930  1.1978
 3485SOL    HW221915   2.899   4.550   3.375  0.5151  3.7735 -0.0950
 3486SOL     OW21916   4.353   2.176   7.767 -0.2071  0.4865  0.1045
 3486SOL    HW121917   4.440   2.152   7.798 -0.0225  1.4530  0.3251
 3486SOL    HW221918   4.352   2.270   7.785  1.3021  0.7502 -1.2221
 3487SOL     OW21919   0.846   0.989   3.599 -0.3750 -0.0411  0.1308
 3487SOL    HW121920   0.921   1.001   3.541  1.7984  1.6491  3.2541
 3487SOL    HW221921   0.862   0.904   3.640  2.2873  0.0892 -0.6559
 3488SOL     OW21922   2.038   2.009  15.918 -0.2407  0.5931  0.1113
 3488SOL    HW121923   2.094   1.932  15.910 -1.7260 -0.3479 -1.0870
 3488SOL    HW221924   1.955   1.963  15.917 -0.2133  0.5311  0.6631
 3489SOL     OW21925   2.361   3.864   4.851 -0.5808 -0.3185 -0.0507
 3489SOL    HW121926   2.325   3.935   4.904 -0.0307 -0.5286  0.6019
 3489SOL    HW221927   2.304   3.789   4.867 -0.7318  0.1953  1.8110
 3490SOL     OW21928   1.660   4.180   9.161  0.7832 -0.0475  0.7979
 3490SOL    HW121929   1.584   4.164   9.106  0.7771 -2.3348  1.4742
 3490SOL    HW221930   1.642   4.264   9.204 -0.5981 -0.5450  1.2059
 3491SOL     OW21931   3.604   3.807   7.878  0.3642  0.4702 -0.0129
 3491SOL    HW121932   3.625   3.738   7.814 -1.2953  0.9207 -1.0389
 3491SOL    HW221933   3.657   3.882   7.850 -0.1650  0.6294 -0.6033
 3492SOL     OW21934   1.658   4.040   2.785  0.1048 -0.2944 -0.0032
 3492SOL    HW121935   1.607   4.035   2.704 -0.3173 -0.4110  0.2677
 3492SOL    HW221936   1.644   4.132   2.809  0.6655 -0.1039 -0.4274
 3493SOL     OW21937   2.534   3.575  14.001 -0.3688 -0.0212 -0.1630
 3493SOL    HW121938   2.531   3.637  13.928 -1.9262 -1.0706 -0.9827
 3493SOL    HW221939   2.606   3.611  14.054 -2.7635  4.0309  0.3447
 3494SOL     OW21940   2.449   2.348  14.490 -0.1495 -0.1265 -0.2734
 3494SOL    HW121941   2.456   2.399  14.571 -0.9437 -0.4347 -0.0089
 3494SOL    HW221942   2.492   2.268  14.519 -0.0838  0.5070  1.3932
 3495SOL     OW21943   1.389   0.812  16.836 -0.2780 -0.4485  0.0345
 3495SOL    HW121944   1.388   0.717  16.827 -0.9844 -0.6372  2.0573
 3495SOL    HW221945   1.336   0.844  16.764  0.7255 -1.4220 -1.1363
 3496SOL     OW21946   4.304   1.967  16.900  0.1998  0.0702 -0.0394
 3496SOL    HW121947   4.232   1.917  16.862 -0.0577 -0.0254  0.5725
 3496SOL    HW221948   4.308   2.040  16.838  0.8286 -0.4259 -0.5875
 3497SOL     OW21949   3.830   0.189  17.155 -0.2978  0.0218  0.1942
 3497SOL    HW121950   3.749   0.229  17.187  0.8051  0.0051  3.0101
 3497SOL    HW221951   3.886   0.253  17.199  0.6760 -2.0898  2.0356
 3498SOL     OW21952   1.862   4.428   8.761  0.2350 -0.5551 -0.3969
 3498SOL    HW121953   1.773   4.393   8.753 -0.1537  0.3003  0.2103
 3498SOL    HW221954   1.914   4.355   8.729 -1.1982 -1.2307 -1.1883
 3499SOL     OW21955   0.681   0.323   2.302  0.0199 -0.3915  1.3244
 3499SOL    HW121956   0.753   0.335   2.364  0.2224 -0.6911  1.1431
 3499SOL    HW221957   0.726   0.274   2.233 -0.5777  1.4328 -0.3859
 3500SOL     OW21958   1.261   3.312   0.774 -0.6883  0.1472  0.2884
 3500SOL    HW121959   1.240   3.358   0.693  0.2342 -0.2135 -0.1558
 3500SOL    HW221960   1.237   3.224   0.747  1.0651  0.3902 -2.0711
 3501SOL     OW21961   3.333   0.182   5.242 -0.4774 -0.4735  0.1882
 3501SOL    HW121962   3.349   0.136   5.160 -1.6897  2.0565 -1.4812
 3501SOL    HW221963   3.418   0.222   5.259 -2.0008  2.0284  2.0040
 3502SOL     OW21964   4.274   3.259   6.006  0.5591  0.8222  0.2744
 3502SOL    HW121965   4.252   3.212   6.086 -0.2881  3.2852  1.5021
 3502SOL    HW221966   4.302   3.186   5.951  3.7023  0.4409  2.3407
 3503SOL     OW21967   1.129   0.411   5.591 -0.0793 -0.0179 -0.4724
 3503SOL    HW121968   1.094   0.323   5.604  0.9777 -0.5694 -1.3351
 3503SOL    HW221969   1.055   0.466   5.617 -1.1766 -0.2604 -3.1782
 3504SOL     OW21970   2.084   1.332   9.044  0.0086  0.4658  0.5911
 3504SOL    HW121971   2.076   1.426   9.061 -3.2146  0.5911 -1.6340
 3504SOL    HW221972   1.998   1.314   9.006 -0.0436 -0.2238  1.0354
 3505SOL     OW21973   2.587   3.140  13.140  0.0096  0.4061  0.0465
 3505SOL    HW121974   2.653   3.171  13.202  0.1818 -0.6144  0.3842
 3505SOL    HW221975   2.550   3.224  13.113  2.9917  1.5232 -0.5432
 3506SOL     OW21976   2.909   0.051  13.993 -0.4113 -0.0602 -0.0081
 3506SOL    HW121977   2.872   0.138  14.008 -0.2862  0.3094 -1.8366
 3506SOL    HW221978   3.001   0.075  13.983 -0.6250 -0.0316 -1.9068
 3507SOL     OW21979   1.554   0.974  17.015  0.3925 -0.0028 -0.0978
 3507SOL    HW121980   1.526   0.953  17.104  2.0794 -0.6891  0.2701
 3507SOL    HW221981   1.507   0.916  16.956  1.2748  0.8309 -1.6038
 3508SOL     OW21982   2.153   3.186   3.324  0.4027 -0.3320 -0.3673
 3508SOL    HW121983   2.094   3.167   3.251  0.7685  1.0934 -1.0317
 3508SOL    HW221984   2.139   3.279   3.341 -0.9057 -0.6503  0.2670
 3509SOL     OW21985   2.278   1.790  15.689 -0.3714 -0.1867  0.2841
 3509SOL    HW121986   2.262   1.803  15.783  1.3765  0.9803  0.4243
 3509SOL    HW221987   2.214   1.851  15.653 -0.9325 -0.9120  0.0614
 3510SOL     OW21988   0.751   1.572   0.738 -0.0030  0.6061 -0.8953
 3510SOL    HW121989   0.794   1.556   0.654 -0.9397 -0.2143 -1.2081
 3510SOL    HW221990   0.825   1.566   0.800 -0.5877  0.5767 -0.2040
 3511SOL     OW21991   3.048   1.817   8.389  0.5265 -0.4728  0.3871
 3511SOL    HW121992   2.975   1.872   8.418  1.4621  1.3455 -0.7558
 3511SOL    HW221993   3.117   1.858   8.442  1.8687  1.6831 -3.0284
 3512SOL     OW21994   3.552   4.691   8.077  0.4261  0.2845  0.2292
 3512SOL    HW121995   3.606   4.614   8.058 -1.1863 -0.4862 -1.2457
 3512SOL    HW221996   3.507   4.707   7.994 -0.4756  0.0326  0.6675
 3513SOL     OW21997   1.540   0.880   5.051 -0.2529 -0.1746  0.0762
 3513SOL    HW121998   1.454   0.839   5.058 -0.5625  0.3505 -0.5740
 3513SOL    HW221999   1.593   0.808   5.016  1.5337  0.3806  1.6145
 3514SOL     OW22000   2.404   3.094  17.643  1.1522 -0.1636 -0.2085
 3514SOL    HW122001   2.354   3.031  17.591 -0.0659  1.0490 -0.5021
 3514SOL    HW222002   2.465   3.037  17.690  0.1098 -0.9924  0.1566
 3515SOL     OW22003   3.889   1.401   5.535 -0.4619 -0.0519 -0.1008
 3515SOL    HW122004   3.828   1.442   5.473  1.3444  1.4711 -0.8829
 3515SOL    HW222005   3.973   1.431   5.500 -0.0847  1.2298  1.8910
 3516SOL     OW22006   1.987   2.671   4.509  0.3321  0.1522 -0.0785
 3516SOL    HW122007   1.977   2.576   4.495  2.6818  0.0728 -1.1786
 3516SOL    HW222008   2.023   2.666   4.597 -0.4762 -0.6456  0.2029
 3517SOL     OW22009   0.188   2.217   3.379  0.0332 -0.2811  0.2537
 3517SOL    HW122010   0.223   2.305   3.392 -1.8357  0.1867  2.1853
 3517SOL    HW222011   0.239   2.182   3.452 -1.0646 -0.4935  0.9299
 3518SOL     OW22012   0.167   1.794   2.786 -0.0017 -0.2369  0.6792
 3518SOL    HW122013   0.100   1.774   2.721  0.3654 -0.7803  0.4619
 3518SOL    HW222014   0.167   1.711   2.835  1.5304 -0.7096 -0.0940
 3519SOL     OW22015   2.451   3.834   6.825  0.5782 -0.3143  0.4090
 3519SOL    HW122016   2.407   3.883   6.755  1.8313  2.8396  1.8368
 3519SOL    HW222017   2.373   3.793   6.862 -0.3466  2.1206  1.1184
 3520SOL     OW22018   1.594   2.188  15.786  0.0647 -0.7219  0.4064
 3520SOL    HW122019   1.528   2.202  15.717  0.3040 -1.4614  0.0325
 3520SOL    HW222020   1.547   2.225  15.861 -1.8963 -0.6066 -0.8571
 3521SOL     OW22021   3.626   4.345   1.592  0.0318  0.7721  0.0425
 3521SOL    HW122022   3.628   4.290   1.513 -2.6350 -2.1323  2.0086
 3521SOL    HW222023   3.717   4.375   1.591  0.4724 -0.5249  0.6033
 3522SOL     OW22024   3.185   0.505   6.348  0.6790 -0.4131  0.1768
 3522SOL    HW122025   3.155   0.446   6.278  0.2968  0.6449 -0.5457
 3522SOL    HW222026   3.121   0.497   6.418  0.4337 -2.4457 -0.2550
 3523SOL     OW22027   1.714   2.742  10.338  0.4513 -0.2388  0.0203
 3523SOL    HW122028   1.734   2.649  10.339  0.2998 -0.2626  0.4913
 3523SOL    HW222029   1.683   2.749  10.428 -0.4232 -2.5866 -0.1003
 3524SOL     OW22030   0.109   0.808  16.413 -0.2988 -0.0614 -0.4743
 3524SOL    HW122031   0.151   0.735  16.458  2.6953  2.4137  0.7703
 3524SOL    HW222032   0.103   0.874  16.482 -3.3616 -0.7567 -0.0688
 3525SOL     OW22033   2.487   0.968   1.961  0.3350  0.1247  0.2781
 3525SOL    HW122034   2.531   1.004   1.885  1.4116  1.3379  1.4759
 3525SOL    HW222035   2.559   0.997   2.018  0.3424 -0.7790  0.7352
 3526SOL     OW22036   3.749   0.273   1.988 -0.4884 -0.1287  0.8771
 3526SOL    HW122037   3.659   0.251   1.967 -0.4000  1.1947 -0.8915
 3526SOL    HW222038   3.747   0.290   2.082  2.2690  1.1602  0.7031
 3527SOL     OW22039   3.930   2.246   8.059 -0.9346 -0.4564  0.1608
 3527SOL    HW122040   3.998   2.202   8.008 -2.0984 -2.1381  0.0646
 3527SOL    HW222041   3.858   2.201   8.014 -1.1832 -1.9500  2.0586
 3528SOL     OW22042   3.833   0.824   4.348  0.3291 -0.4187  0.6337
 3528SOL    HW122043   3.768   0.846   4.415  1.6099 -1.5477  2.2432
 3528SOL    HW222044   3.806   0.734   4.330  0.5728 -0.5111  0.7364
 3529SOL     OW22045   0.030   4.009  10.548  0.3129  0.3122  0.3553
 3529SOL    HW122046   0.002   4.042  10.633 -0.0582 -1.9061  1.0793
 3529SOL    HW222047   0.118   3.971  10.557  0.2690 -0.0509 -0.7390
 3530SOL     OW22048   2.907   0.353  17.148  0.0308 -0.3116  0.6977
 3530SOL    HW122049   2.814   0.337  17.134 -0.0089 -0.1201  0.7447
 3530SOL    HW222050   2.935   0.373  17.058 -1.3232 -1.3782  0.0430
 3531SOL     OW22051   4.467   0.060   8.474  0.1496 -0.0851  0.1769
 3531SOL    HW122052   4.504   4.721   8.411 -2.6963 -0.2861 -1.3266
 3531SOL    HW222053   4.505   0.145   8.453 -3.0271  0.6866 -2.4366
 3532SOL     OW22054   0.650   3.934   0.927  0.6082  0.6570  0.1046
 3532SOL    HW122055   0.593   3.992   0.977  0.1629 -0.8958  1.4066
 3532SOL    HW222056   0.601   3.935   0.845 -0.4529 -1.5598  0.7185
 3533SOL     OW22057   1.661   4.204   7.241 -0.1676  0.2213  0.1684
 3533SOL    HW122058   1.604   4.151   7.297 -0.7250 -0.2469 -0.8469
 3533SOL    HW222059   1.651   4.288   7.287 -0.6659 -0.1868  0.7940
 3534SOL     OW22060   4.704   0.611   0.315  0.2998 -0.4948 -0.1980
 3534SOL    HW122061   0.036   0.687   0.332 -1.1477  0.5824 -0.3084
 3534SOL    HW222062   4.617   0.629   0.351 -0.6630 -0.7887 -2.4240
 3535SOL     OW22063   2.903   1.761   6.905 -0.5292 -0.0440 -0.1153
 3535SOL    HW122064   2.898   1.668   6.925 -1.6358  0.5342  2.2959
 3535SOL    HW222065   2.877   1.802   6.988 -3.0270 -1.6514 -0.1038
 3536SOL     OW22066   0.480   0.207   5.430 -0.1427 -0.4610 -0.3510
 3536SOL    HW122067   0.437   0.291   5.416 -1.4268 -1.0200  0.1808
 3536SOL    HW222068   0.569   0.230   5.455 -0.1673  1.0081 -1.6478
 3537SOL     OW22069   0.517   0.990   8.294  0.6779  0.2117 -0.0400
 3537SOL    HW122070   0.542   0.901   8.318  2.3586  1.1632  1.6590
 3537SOL    HW222071   0.451   1.007   8.362  0.5079 -0.2300 -0.0922
 3538SOL     OW22072   0.773   1.061   5.322 -0.7555  0.1147 -0.5520
 3538SOL    HW122073   0.849   1.003   5.319 -0.8770 -0.1899  2.3262
 3538SOL    HW222074   0.792   1.133   5.382  1.5163 -2.2025  1.4838
 3539SOL     OW22075   1.620   2.520   8.190  0.0197 -0.8419 -0.2375
 3539SOL    HW122076   1.668   2.521   8.107 -0.4253  0.6063 -0.4757
 3539SOL    HW222077   1.651   2.436   8.225 -1.4958 -2.0340 -1.7425
 3540SOL     OW22078   2.794   2.795   0.609 -0.1948 -0.2832 -0.5247
 3540SOL    HW122079   2.705   2.766   0.629 -0.0204 -0.5206 -0.0957
 3540SOL    HW222080   2.850   2.726   0.643 -0.0042 -0.9198 -2.1112
 3541SOL     OW22081   4.236   0.656   2.704  0.4974  0.0306 -0.1457
 3541SOL    HW122082   4.202   0.714   2.772 -0.8780  0.2511 -1.0178
 3541SOL    HW222083   4.303   0.620   2.762  0.5482  1.0284  0.4285
 3542SOL     OW22084   0.140   4.705   6.817 -1.3253 -0.0040 -0.5293
 3542SOL    HW122085   0.216   0.004   6.871  0.2078 -2.1306 -1.8110
 3542SOL    HW222086   0.128   0.067   6.774  0.6706  0.1568 -0.7574
 3543SOL     OW22087   1.538   0.997   8.792 -0.5400 -0.5872  0.2116
 3543SOL    HW122088   1.520   1.084   8.755 -1.1211 -0.4582  0.7896
 3543SOL    HW222089   1.583   1.030   8.871 -0.7735  0.8543 -0.2588
 3544SOL     OW22090   0.804   0.063   9.682 -0.1345  0.2970  0.3871
 3544SOL    HW122091   0.765   0.141   9.642 -2.8391 -0.6016  1.3232
 3544SOL    HW222092   0.781   0.087   9.771  2.0858  0.2063  0.9904
 3545SOL     OW22093   2.941   0.119   2.036  0.0120 -0.8630  0.4859
 3545SOL    HW122094   3.015   0.141   2.093 -0.6819 -1.3199  1.5584
 3545SOL    HW222095   2.872   0.169   2.078 -1.1330 -0.8609 -1.4137
 3546SOL     OW22096   1.331   2.206  12.611  0.1715  0.1373  0.2128
 3546SOL    HW122097   1.377   2.163  12.683  2.0137  1.5638 -0.1121
 3546SOL    HW222098   1.400   2.188  12.548  0.0711 -0.7169  0.3482
 3547SOL     OW22099   0.113   2.082   6.414  0.5239 -0.3416  0.2631
 3547SOL    HW122100   0.176   2.093   6.485  0.8670 -1.5517  0.1603
 3547SOL    HW222101   0.087   2.173   6.404  2.9292  0.0681 -2.0843
 3548SOL     OW22102   1.499   3.116   5.760  0.0760 -0.2407 -0.0385
 3548SOL    HW122103   1.496   3.040   5.701 -0.1326  1.4096 -2.1414
 3548SOL    HW222104   1.408   3.145   5.760 -0.2274 -1.1864 -0.0065
 3549SOL     OW22105   1.737   4.253  16.837  0.3605 -0.3478  0.1571
 3549SOL    HW122106   1.665   4.224  16.893  0.3341 -0.6252 -0.0199
 3549SOL    HW222107   1.750   4.344  16.865  0.2903 -0.1036 -0.6152
 3550SOL     OW22108   4.371   1.635   5.815  0.3288  0.4018  0.3431
 3550SOL    HW122109   4.430   1.710   5.812 -0.5453  0.9222 -3.6939
 3550SOL    HW222110   4.381   1.589   5.732 -0.5443 -0.7709  0.8898
 3551SOL     OW22111   0.015   0.348  15.510  0.6408  0.2947 -0.5670
 3551SOL    HW122112   4.713   0.313  15.424 -1.4568  1.0361 -0.2369
 3551SOL    HW222113   4.709   0.272  15.561  1.8464 -0.0622 -0.3940
 3552SOL     OW22114   4.478   0.598   1.243  0.0806  0.0108 -0.2758
 3552SOL    HW122115   4.408   0.594   1.308  0.8576  0.4553  0.6028
 3552SOL    HW222116   4.442   0.538   1.178 -0.7630 -0.4276  0.6047
 3553SOL     OW22117   0.594   2.276  12.421  0.1931  0.5991 -0.4266
 3553SOL    HW122118   0.650   2.351  12.399  1.4723 -0.4531 -0.7567
 3553SOL    HW222119   0.538   2.316  12.487 -1.6892 -1.1555 -0.9449
 3554SOL     OW22120   2.879   2.250  16.729  0.1087 -0.3248  0.5365
 3554SOL    HW122121   2.887   2.332  16.779  0.0758  1.0131 -1.6686
 3554SOL    HW222122   2.965   2.210  16.740  0.9444  1.4614  0.5520
 3555SOL     OW22123   1.465   2.323   5.118 -0.6020  0.0780  0.4853
 3555SOL    HW122124   1.542   2.358   5.075  1.6210 -3.5220  1.4667
 3555SOL    HW222125   1.402   2.394   5.103 -2.0601 -1.1441  0.7438
 3556SOL     OW22126   0.176   2.223   2.671  0.5129 -0.4659 -0.4858
 3556SOL    HW122127   0.137   2.310   2.663  0.0778 -0.4628  1.6849
 3556SOL    HW222128   0.122   2.175   2.608 -0.5194 -0.0576  0.1085
 3557SOL     OW22129   1.464   4.341   8.353 -0.0701 -0.6239  0.0810
 3557SOL    HW122130   1.559   4.345   8.367 -0.1885 -1.9849  1.2852
 3557SOL    HW222131   1.441   4.262   8.402 -1.5111 -0.8022 -0.8955
 3558SOL     OW22132   3.010   0.761  14.024 -0.1309 -0.0931 -0.3524
 3558SOL    HW122133   2.925   0.736  13.990 -0.4248  0.3761  0.0311
 3558SOL    HW222134   3.009   0.742  14.118 -0.0055  0.0549 -0.3216
 3559SOL     OW22135   4.030   0.627  10.713 -0.1422  0.1225  0.2329
 3559SOL    HW122136   4.023   0.722  10.700  0.5921  0.0029 -1.0164
 3559SOL    HW222137   3.996   0.623  10.803  1.5452  2.0999  0.9471
 3560SOL     OW22138   1.480   0.828   2.555 -0.1771 -0.2576  0.1828
 3560SOL    HW122139   1.516   0.760   2.498  2.4817  1.0469  0.3049
 3560SOL    HW222140   1.498   0.805   2.646  0.9826 -2.0348 -0.5048
 3561SOL     OW22141   1.065   3.131   3.915 -0.0592  0.2459 -0.1326
 3561SOL    HW122142   0.975   3.161   3.930 -0.0945  0.3818 -0.6193
 3561SOL    HW222143   1.066   3.036   3.914 -0.0952  0.2258  1.4538
 3562SOL     OW22144   0.236   2.329  14.850 -0.5043 -0.3990 -0.4858
 3562SOL    HW122145   0.269   2.383  14.778 -1.7561 -0.7108 -1.3005
 3562SOL    HW222146   0.143   2.325  14.826 -0.1926  0.3383 -1.8274
 3563SOL     OW22147   2.571   1.947   4.238 -0.2982  0.8346 -0.0130
 3563SOL    HW122148   2.516   1.871   4.218  0.8651  0.1948 -0.7850
 3563SOL    HW222149   2.624   1.958   4.159  1.3859  2.1440  1.3061
 3564SOL     OW22150   1.237   2.992   7.383  0.6023  0.0795 -0.2362
 3564SOL    HW122151   1.199   3.059   7.438  1.1386  1.4404 -1.5126
 3564SOL    HW222152   1.319   2.976   7.429  0.9804  2.0780 -0.2191
 3565SOL     OW22153   2.774   1.051  12.930  0.0374  0.0830 -0.7140
 3565SOL    HW122154   2.784   1.085  12.841  2.9420 -0.6299 -0.6556
 3565SOL    HW222155   2.750   0.961  12.911  2.2546 -0.2807 -1.7565
 3566SOL     OW22156   3.163   0.796   7.618 -0.4257 -0.1424  0.3054
 3566SOL    HW122157   3.076   0.834   7.632 -0.5983 -0.5680  0.3896
 3566SOL    HW222158   3.160   0.721   7.678  1.3275  0.2776  0.9032
 3567SOL     OW22159   2.806   2.441   1.830  0.0913 -0.7706  0.4069
 3567SOL    HW122160   2.842   2.398   1.752 -0.9786  0.6101 -0.8715
 3567SOL    HW222161   2.722   2.396   1.843 -0.1219 -0.8318 -1.1071
 3568SOL     OW22162   1.970   1.729   1.856  0.2857  0.2404  0.0077
 3568SOL    HW122163   1.887   1.683   1.840  0.3851 -0.2317  0.8211
 3568SOL    HW222164   1.964   1.807   1.801  2.7621  0.2352 -0.2430
 3569SOL     OW22165   2.744   0.225   6.324 -0.8130 -0.2019 -0.4444
 3569SOL    HW122166   2.833   0.204   6.354 -0.8953  0.1626  0.0532
 3569SOL    HW222167   2.765   0.288   6.255 -2.1609  1.4919  0.6933
 3570SOL     OW22168   0.744   1.367   7.729 -0.2143 -0.8717  0.2394
 3570SOL    HW122169   0.789   1.449   7.749  1.2924 -2.2060  2.2877
 3570SOL    HW222170   0.744   1.368   7.634 -2.5334 -1.7385  0.2080
 3571SOL     OW22171   2.913   3.968  13.416  0.5855  0.4095  0.0265
 3571SOL    HW122172   2.916   3.877  13.446  1.4377  0.0733 -1.0824
 3571SOL    HW222173   2.938   3.958  13.324  1.4430  1.1204  0.1889
 3572SOL     OW22174   4.440   4.643   8.717 -0.1731 -0.3538  0.3129
 3572SOL    HW122175   4.515   4.601   8.673  1.0288  1.4201  0.6598
 3572SOL    HW222176   4.401   4.677   8.637 -1.4388 -0.3633  0.9353
 3573SOL     OW22177   3.728   0.046   6.482  0.3958  0.5356 -0.0326
 3573SOL    HW122178   3.814   0.004   6.487 -0.2132 -0.4367  1.9937
 3573SOL    HW222179   3.728   0.114   6.549  0.1179 -0.5300  1.0317
 3574SOL     OW22180   4.334   1.655   7.841 -0.0122  0.2737  0.5911
 3574SOL    HW122181   4.337   1.701   7.757 -0.5238  1.4386  1.2065
 3574SOL    HW222182   4.383   1.576   7.817 -2.0792 -0.6365 -0.6144
 3575SOL     OW22183   1.264   1.128   5.709  0.3258 -0.5086 -0.1291
 3575SOL    HW122184   1.310   1.187   5.769  3.8171 -0.9380 -2.3208
 3575SOL    HW222185   1.242   1.054   5.765 -1.5724  0.5518  0.5287
 3576SOL     OW22186   4.674   0.796   6.408 -0.3329  0.5095 -0.0686
 3576SOL    HW122187   0.040   0.763   6.412 -1.4803 -2.1496  2.8269
 3576SOL    HW222188   4.647   0.768   6.495  0.9382 -0.8257 -0.0997
 3577SOL     OW22189   2.716   3.505   4.272  0.2038  0.0124  0.0873
 3577SOL    HW122190   2.687   3.470   4.188  0.6914  2.9470 -1.3009
 3577SOL    HW222191   2.809   3.501   4.252  0.0703  0.1437 -0.5586
 3578SOL     OW22192   0.082   3.805   1.971  0.2848  0.1620 -0.1582
 3578SOL    HW122193   0.101   3.802   1.878 -0.7392  2.3225 -0.4376
 3578SOL    HW222194   0.169   3.829   2.003  1.5451 -3.5171 -0.7739
 3579SOL     OW22195   0.534   2.445   4.622 -0.0149 -0.0560 -0.3497
 3579SOL    HW122196   0.463   2.380   4.621 -1.5608  1.5885  0.7454
 3579SOL    HW222197   0.533   2.461   4.717  0.8162  1.1080 -0.5424
 3580SOL     OW22198   3.673   3.594   6.009  0.1052  0.2269  0.1294
 3580SOL    HW122199   3.630   3.649   6.075  1.2751  0.7200  0.4770
 3580SOL    HW222200   3.623   3.600   5.928 -0.2044 -1.9914  0.1700
 3581SOL     OW22201   2.375   1.048  14.568  0.1212  0.1223 -0.3699
 3581SOL    HW122202   2.307   1.079  14.628  1.6231 -0.2833  1.5306
 3581SOL    HW222203   2.427   1.127  14.553 -0.1921  0.1751 -1.1781
 3582SOL     OW22204   4.332   3.135   7.509  0.9066  0.0481 -0.0343
 3582SOL    HW122205   4.416   3.156   7.549  0.5817  1.3835 -0.0308
 3582SOL    HW222206   4.338   3.183   7.426  1.4352  0.7950  0.4416
 3583SOL     OW22207   2.054   1.831   2.469 -0.4345 -0.1433  0.2916
 3583SOL    HW122208   1.983   1.885   2.504 -0.7673  1.7434 -3.2722
 3583SOL    HW222209   2.098   1.904   2.424 -0.7267  0.7191  1.4002
 3584SOL     OW22210   4.006   2.460   7.402 -0.0901 -0.6190 -0.4421
 3584SOL    HW122211   4.007   2.379   7.350  0.5038  0.0483 -1.4787
 3584SOL    HW222212   4.031   2.421   7.486 -0.9008  2.0708  1.0155
 3585SOL     OW22213   2.920   2.399  15.326  0.0421 -0.0052  0.0063
 3585SOL    HW122214   2.917   2.415  15.231 -0.0159 -1.4161 -0.2278
 3585SOL    HW222215   3.004   2.440  15.350  0.3334  0.3033 -1.4920
 3586SOL     OW22216   1.805   3.409   6.024  0.0599 -0.2157 -0.4319
 3586SOL    HW122217   1.756   3.327   6.029 -0.1084 -0.0275  0.8988
 3586SOL    HW222218   1.898   3.389   6.034  0.2773  0.2573 -1.5038
 3587SOL     OW22219   3.976   2.214   5.645 -0.3636  0.4508  0.5328
 3587SOL    HW122220   3.898   2.190   5.595  0.1174 -1.1097  0.5450
 3587SOL    HW222221   3.973   2.157   5.721 -1.9946  1.5610  1.3223
 3588SOL     OW22222   4.305   4.370  13.893 -0.1826 -0.4195  0.3368
 3588SOL    HW122223   4.381   4.312  13.903 -0.9150 -1.5395 -0.5856
 3588SOL    HW222224   4.343   4.429  13.828 -1.1348 -0.2241 -0.0494
 3589SOL     OW22225   1.739   1.930   2.738  0.0336  0.1541 -0.0115
 3589SOL    HW122226   1.778   1.994   2.679  2.2927 -1.0593  0.1687
 3589SOL    HW222227   1.702   1.984   2.808  2.2849  2.0415 -0.2801
 3590SOL     OW22228   1.165   4.218   7.218 -0.0665  0.7298 -0.3443
 3590SOL    HW122229   1.182   4.305   7.252 -1.9778  0.6646  0.7401
 3590SOL    HW222230   1.166   4.239   7.124  0.0964 -0.2321 -0.5591
 3591SOL     OW22231   1.252   4.612   2.186 -0.5199 -0.1848  0.4844
 3591SOL    HW122232   1.186   4.680   2.171  0.1730  0.5043  0.5640
 3591SOL    HW222233   1.200   4.553   2.240 -1.2788  0.3495  0.3248
 3592SOL     OW22234   0.048   4.101   6.369  0.0246  0.0770 -0.2659
 3592SOL    HW122235   0.058   4.148   6.451  0.2117 -0.3682 -0.0312
 3592SOL    HW222236   4.701   4.039   6.388  0.1620  0.5530  1.8021
 3593SOL     OW22237   2.515   0.565  13.895  0.9659  0.2546 -0.2595
 3593SOL    HW122238   2.495   0.472  13.882 -2.4419  1.0501 -0.9059
 3593SOL    HW222239   2.508   0.600  13.806 -0.0643 -0.9727 -0.6693
 3594SOL     OW22240   2.566   4.525  11.229 -0.0638 -0.7157  0.1840
 3594SOL    HW122241   2.570   4.563  11.142 -0.0600 -0.5734  0.2460
 3594SOL    HW222242   2.479   4.547  11.264  0.3513  0.4146  0.5100
 3595SOL     OW22243   1.625   4.400   4.153 -0.5151 -0.2347 -0.6286
 3595SOL    HW122244   1.591   4.404   4.243 -0.4629 -0.5729 -0.5922
 3595SOL    HW222245   1.571   4.328   4.121 -1.3392 -0.6398  1.6378
 3596SOL     OW22246   0.252   2.378   7.392 -0.2829 -0.3059 -0.1071
 3596SOL    HW122247   0.264   2.443   7.323  1.2124  0.6010  0.9859
 3596SOL    HW222248   0.314   2.404   7.461  2.2349 -1.7027 -1.8359
 3597SOL     OW22249   0.036   1.141  12.718 -0.0062 -0.0626 -0.4406
 3597SOL    HW122250   0.021   1.058  12.762 -0.7110  0.8914  1.1390
 3597SOL    HW222251   0.033   1.119  12.625 -3.7942  1.7728 -0.7688
 3598SOL     OW22252   1.277   1.977  17.316 -0.1545  0.3405 -0.5345
 3598SOL    HW122253   1.371   1.981  17.335 -0.4000  1.2490  0.4319
 3598SOL    HW222254   1.262   2.032  17.238 -0.9731 -0.4473 -0.9310
 3599SOL     OW22255   2.346   2.973  11.887  0.3551  0.1198  0.3766
 3599SOL    HW122256   2.365   3.066  11.897  0.1991  0.1009  0.8587
 3599SOL    HW222257   2.254   2.973  11.916 -0.0613 -2.6380 -0.9453
 3600SOL     OW22258   3.671   3.027   7.175  0.3380  0.1288 -0.0107
 3600SOL    HW122259   3.663   2.932   7.178 -0.9709  0.2528  0.7641
 3600SOL    HW222260   3.739   3.037   7.109  0.0387  0.7246 -0.2246
 3601SOL     OW22261   0.325   3.652   3.238  0.2597 -0.5157 -0.1723
 3601SOL    HW122262   0.294   3.628   3.151 -0.9158  0.8264 -0.1218
 3601SOL    HW222263   0.279   3.733   3.258 -1.5837 -1.7948  0.7019
 3602SOL     OW22264   3.608   0.496  16.936  0.7259 -0.0902  0.0861
 3602SOL    HW122265   3.612   0.555  16.861  2.3785 -1.4920 -0.9281
 3602SOL    HW222266   3.537   0.436  16.915  1.3821 -0.6924 -0.4001
 3603SOL     OW22267   1.791   3.885   4.120 -0.5993  0.0558  0.9163
 3603SOL    HW122268   1.729   3.949   4.155 -1.0442  0.6059 -0.8730
 3603SOL    HW222269   1.736   3.810   4.099  0.0320 -0.1444 -0.0263
 3604SOL     OW22270   2.893   4.391   8.950  0.7797 -0.7534  0.7504
 3604SOL    HW122271   2.919   4.423   8.863 -1.7230  1.2037  0.7073
 3604SOL    HW222272   2.895   4.463   9.012 -1.6468  0.9473 -1.1499
 3605SOL     OW22273   1.542   2.368  17.357  0.1613  0.3753  0.0289
 3605SOL    HW122274   1.610   2.434  17.351 -0.7612  1.1960 -1.3546
 3605SOL    HW222275   1.518   2.355  17.265  1.5865  2.9055 -0.7011
 3606SOL     OW22276   1.810   2.511   2.911 -0.1360 -0.5545 -0.5220
 3606SOL    HW122277   1.872   2.452   2.868 -1.0966 -1.3797 -0.7733
 3606SOL    HW222278   1.803   2.575   2.839  0.0917  0.0197 -0.0389
 3607SOL     OW22279   3.665   4.163   1.375  0.5001  0.2497 -0.4208
 3607SOL    HW122280   3.622   4.089   1.419  1.0168 -0.5084 -1.1944
 3607SOL    HW222281   3.693   4.134   1.288 -1.1378 -1.4471 -0.3948
 3608SOL     OW22282   2.799   3.792   1.622 -0.4462  0.2493  0.1671
 3608SOL    HW122283   2.818   3.698   1.623 -0.3811  0.2582 -0.3331
 3608SOL    HW222284   2.866   3.811   1.688 -1.0868 -0.8988  1.1443
 3609SOL     OW22285   1.884   1.275  14.495  0.5817  0.0286 -0.6470
 3609SOL    HW122286   1.960   1.317  14.455 -0.4387  3.3436  0.8722
 3609SOL    HW222287   1.844   1.350  14.537  0.6890 -0.6769  0.7191
 3610SOL     OW22288   2.868   4.365  13.235 -0.0321 -0.1440  0.0489
 3610SOL    HW122289   2.833   4.290  13.187 -1.1168 -0.4647  1.3583
 3610SOL    HW222290   2.790   4.386  13.286 -1.0207 -0.7967 -1.1909
 3611SOL     OW22291   0.277   2.214   0.717 -0.2538  0.0559  0.5958
 3611SOL    HW122292   0.209   2.259   0.767 -0.2814 -1.3268  1.8034
 3611SOL    HW222293   0.296   2.281   0.652  0.7208 -1.7200 -0.9446
 3612SOL     OW22294   1.337   4.043  12.955 -0.1259 -0.7573  0.3915
 3612SOL    HW122295   1.381   4.027  12.872 -0.3280  0.4488  0.0493
 3612SOL    HW222296   1.315   4.135  12.946  0.8100 -0.5807 -0.1465
 3613SOL     OW22297   1.299   3.088  12.309  0.1875 -1.0148  0.0216
 3613SOL    HW122298   1.223   3.120  12.259  0.5505 -0.8452 -0.4197
 3613SOL    HW222299   1.356   3.164  12.304 -1.6132  0.4197  1.0410
 3614SOL     OW22300   3.197   3.603   2.690  0.5121 -0.5425  0.2626
 3614SOL    HW122301   3.212   3.602   2.596  0.9346  1.8941  0.2986
 3614SOL    HW222302   3.291   3.606   2.711  0.9082 -0.2229 -1.5997
 3615SOL     OW22303   0.656   0.765  14.576  0.1563  0.0174 -0.6169
 3615SOL    HW122304   0.741   0.725  14.561 -0.9790 -2.2576 -0.9260
 3615SOL    HW222305   0.682   0.857  14.576 -0.1791  0.1188 -0.0103
 3616SOL     OW22306   1.804   0.392   7.653 -0.0959 -0.2299  0.0460
 3616SOL    HW122307   1.885   0.420   7.697 -0.2577  1.1254 -0.4935
 3616SOL    HW222308   1.786   0.311   7.699  1.0691  0.4537  1.7386
 3617SOL     OW22309   3.568   0.393   5.675 -0.1478 -0.3343  0.0943
 3617SOL    HW122310   3.611   0.479   5.671  2.2758 -1.5994 -1.1668
 3617SOL    HW222311   3.545   0.389   5.582  0.0008 -0.3554  0.0585
 3618SOL     OW22312   3.601   3.163   0.978 -0.1151  0.1463 -0.2374
 3618SOL    HW122313   3.606   3.090   1.039 -1.2898  0.7198  0.5471
 3618SOL    HW222314   3.646   3.129   0.900  2.2345  0.5603  0.9257
 3619SOL     OW22315   2.259   3.630   3.563 -0.4982  0.1400  0.0426
 3619SOL    HW122316   2.221   3.715   3.539  0.0802 -0.3321 -2.5009
 3619SOL    HW222317   2.183   3.575   3.582 -1.0609  1.4172  1.5452
 3620SOL     OW22318   0.690   1.840   8.245 -0.4789  0.0036  0.5181
 3620SOL    HW122319   0.673   1.824   8.338  1.2447  0.2934  0.8947
 3620SOL    HW222320   0.655   1.770   8.191  0.8002 -1.5689  1.7207
 3621SOL     OW22321   3.394   0.975  15.937  0.3029  0.2367  0.2596
 3621SOL    HW122322   3.465   0.918  15.906 -0.5588 -0.8784  0.3281
 3621SOL    HW222323   3.362   0.913  16.003  0.8553 -1.2965 -0.9089
 3622SOL     OW22324   4.255   0.085  15.184 -0.0142  0.6671  1.0181
 3622SOL    HW122325   4.168   0.105  15.150  0.4323 -0.2337 -0.6575
 3622SOL    HW222326   4.263   4.716  15.159  0.9287  0.8767  0.5441
 3623SOL     OW22327   0.364   0.703  13.810 -0.6402 -0.3039 -0.2534
 3623SOL    HW122328   0.303   0.751  13.867 -3.6534 -2.1358 -1.9082
 3623SOL    HW222329   0.333   0.612  13.804 -1.3907 -0.1773  1.4679
 3624SOL     OW22330   2.825   0.483   3.067  0.1515 -0.5687  0.4386
 3624SOL    HW122331   2.755   0.435   3.024 -0.4802  0.5030  0.2684
 3624SOL    HW222332   2.771   0.550   3.109 -0.1709 -0.5202 -0.0464
 3625SOL     OW22333   1.058   3.509   1.874 -0.4074 -0.0234 -0.2855
 3625SOL    HW122334   1.018   3.567   1.939 -3.5682 -0.7042 -1.5988
 3625SOL    HW222335   1.015   3.428   1.900 -1.0317 -0.4829 -2.7391
 3626SOL     OW22336   1.092   1.320   2.436  0.1126 -0.0041 -0.2795
 3626SOL    HW122337   1.135   1.241   2.468  0.9165  0.8911  0.8622
 3626SOL    HW222338   1.088   1.298   2.343 -0.2014  0.6977 -0.4307
 3627SOL     OW22339   2.469   3.310   9.793  0.2706  0.5988  0.0419
 3627SOL    HW122340   2.505   3.286   9.878 -1.0344 -0.8626  0.1738
 3627SOL    HW222341   2.489   3.232   9.742 -0.9559  0.2260  0.1179
 3628SOL     OW22342   1.652   1.339   6.136  0.6399 -0.1859 -0.2737
 3628SOL    HW122343   1.636   1.320   6.044 -0.1397 -0.4198 -0.0930
 3628SOL    HW222344   1.645   1.434   6.125 -2.3823 -0.5210 -1.1302
 3629SOL     OW22345   2.565   3.296   7.345  0.2683 -0.0298  0.3104
 3629SOL    HW122346   2.589   3.203   7.343 -1.1580 -0.4032  1.0838
 3629SOL    HW222347   2.589   3.322   7.434 -0.3051  0.9456  0.1758
 3630SOL     OW22348   2.965   2.413   8.520  0.0286  0.1246  0.4039
 3630SOL    HW122349   2.976   2.498   8.563 -1.2336  0.7571 -0.5532
 3630SOL    HW222350   2.926   2.350   8.580  2.9909 -0.2132  2.0194
 3631SOL     OW22351   4.565   1.450   7.410 -0.7421 -0.0386  0.0589
 3631SOL    HW122352   4.480   1.411   7.392 -0.0186 -0.3622 -2.5882
 3631SOL    HW222353   4.596   1.474   7.323  0.8181 -1.0760  0.3231
 3632SOL     OW22354   2.351   2.778   3.722  0.1810  0.0187 -0.3802
 3632SOL    HW122355   2.374   2.757   3.812 -0.3943 -1.0402 -0.4818
 3632SOL    HW222356   2.395   2.862   3.704  0.5004  0.5872  3.1893
 3633SOL     OW22357   2.152   2.641   2.753 -0.2990 -0.3339  0.3694
 3633SOL    HW122358   2.117   2.695   2.823  1.0847 -0.7608  1.3739
 3633SOL    HW222359   2.146   2.552   2.789  2.7138 -0.6795 -0.0351
 3634SOL     OW22360   0.963   2.048   2.178  1.2130  0.2590  0.4024
 3634SOL    HW122361   0.894   2.110   2.153  1.1841  0.7558  1.7170
 3634SOL    HW222362   1.005   2.092   2.252  1.2879 -1.1568  1.2127
 3635SOL     OW22363   0.685   0.983   7.501 -0.4405  0.2976  0.0185
 3635SOL    HW122364   0.661   0.904   7.453  1.0850  0.2500 -0.6848
 3635SOL    HW222365   0.691   0.944   7.588 -0.5427 -0.9881 -0.5492
 3636SOL     OW22366   3.465   2.232   2.757 -0.1125  0.2249  0.4141
 3636SOL    HW122367   3.480   2.177   2.834 -0.6066 -1.1633 -0.4718
 3636SOL    HW222368   3.443   2.316   2.798  1.4777  0.2322  1.2179
 3637SOL     OW22369   2.186   3.572  16.348  0.2883 -0.5592  0.4468
 3637SOL    HW122370   2.092   3.589  16.356  0.0598 -0.4092 -2.3582
 3637SOL    HW222371   2.185   3.492  16.296  1.3530  0.1455 -0.6609
 3638SOL     OW22372   3.395   0.337  10.596  0.0442  0.0871  0.2315
 3638SOL    HW122373   3.400   0.322  10.501 -1.0236 -0.4636  0.2584
 3638SOL    HW222374   3.462   0.405  10.606 -0.8626  1.0216 -0.0522
 3639SOL     OW22375   1.332   3.478   0.343  0.2756  0.4322  0.0003
 3639SOL    HW122376   1.287   3.420   0.404 -1.2865  1.5830 -0.0574
 3639SOL    HW222377   1.339   3.563   0.386 -0.0746  0.8522 -0.7656
 3640SOL     OW22378   3.385   2.645   8.578  0.7700  0.3755 -0.5901
 3640SOL    HW122379   3.345   2.600   8.653  1.9580 -2.0737 -1.4313
 3640SOL    HW222380   3.306   2.651   8.524  1.0446  0.1076 -1.0169
 3641SOL     OW22381   0.691   4.239   8.320 -0.2046  0.4961  0.1199
 3641SOL    HW122382   0.685   4.301   8.392 -1.2846  0.2788  0.2090
 3641SOL    HW222383   0.613   4.187   8.338  1.9319 -2.5781  0.5118
 3642SOL     OW22384   3.100   2.290   4.554 -0.1366  0.4573  0.0323
 3642SOL    HW122385   3.180   2.329   4.521 -1.1876  1.8226 -0.8876
 3642SOL    HW222386   3.113   2.203   4.517 -1.4907 -0.2071  1.0932
 3643SOL     OW22387   1.024   3.509   8.965  0.0405  0.2390  0.3562
 3643SOL    HW122388   1.072   3.442   9.013 -0.8747 -0.3359  0.4683
 3643SOL    HW222389   1.050   3.589   9.011 -1.1916  1.7121 -1.5022
 3644SOL     OW22390   4.351   1.658   8.137 -0.2216 -0.3604 -0.5563
 3644SOL    HW122391   4.336   1.743   8.096  0.7871  0.3276  0.5178
 3644SOL    HW222392   4.257   1.638   8.130 -0.6124  1.3330 -0.3345
 3645SOL     OW22393   1.531   2.354   0.182 -0.3548 -0.0187  0.3791
 3645SOL    HW122394   1.498   2.366   0.093  1.4496  0.3894 -0.2370
 3645SOL    HW222395   1.574   2.437   0.204 -0.9383  0.3288  0.2150
 3646SOL     OW22396   0.478   4.715   3.531 -0.0211  0.3901 -0.1251
 3646SOL    HW122397   0.530   0.043   3.592 -0.2286 -3.1003  2.9901
 3646SOL    HW222398   0.408   0.054   3.511  2.4997  2.6800 -1.7108
 3647SOL     OW22399   4.373   2.131  12.141 -0.0551  0.3081  0.2684
 3647SOL    HW122400   4.364   2.202  12.076  0.2871 -0.0109 -0.1323
 3647SOL    HW222401   4.467   2.143  12.154  0.0287  1.4602 -1.2550
 3648SOL     OW22402   3.067   0.765   3.455  0.8961  0.1135 -0.0502
 3648SOL    HW122403   2.991   0.708   3.472 -0.2612  1.8822  0.6926
 3648SOL    HW222404   3.126   0.695   3.428 -1.5733 -1.4304 -1.4624
 3649SOL     OW22405   1.702   4.097   9.465  0.4690  0.4809  0.1262
 3649SOL    HW122406   1.665   4.102   9.378 -0.1532  2.1887  0.4865
 3649SOL    HW222407   1.793   4.074   9.447  1.1887  1.5385  2.3584
 3650SOL     OW22408   1.791   3.449   4.825 -0.1321 -0.2109 -0.2966
 3650SOL    HW122409   1.869   3.394   4.819 -0.8278 -1.2631  0.2531
 3650SOL    HW222410   1.720   3.384   4.824 -0.7036  0.4378 -1.5693
 3651SOL     OW22411   1.812   2.335   5.116  0.2700  0.4059  0.8296
 3651SOL    HW122412   1.891   2.298   5.153 -0.6184 -1.9521  0.3291
 3651SOL    HW222413   1.820   2.419   5.162 -0.0366 -0.0598  1.7397
 3652SOL     OW22414   1.543   3.935   3.628  0.4840  0.2685  0.3336
 3652SOL    HW122415   1.452   3.905   3.630  0.0326  1.7195  2.3740
 3652SOL    HW222416   1.550   3.971   3.540 -0.9707  0.0698  0.1468
 3653SOL     OW22417   1.583   1.963   7.031 -0.5237  0.4704  0.1978
 3653SOL    HW122418   1.626   1.878   7.044 -0.5719  0.5245  0.7188
 3653SOL    HW222419   1.656   2.009   6.990 -1.1929 -1.1106 -2.7580
 3654SOL     OW22420   3.446   3.810   1.697  0.3141  0.3334  0.4958
 3654SOL    HW122421   3.492   3.739   1.653 -0.0237  0.4386 -0.0294
 3654SOL    HW222422   3.506   3.882   1.679 -0.8559  1.0424 -0.5620
 3655SOL     OW22423   3.438   4.693   4.632 -0.3015 -0.0099 -0.0460
 3655SOL    HW122424   3.436   4.632   4.558 -3.1878 -0.4458  0.3849
 3655SOL    HW222425   3.345   4.692   4.656 -0.2806  0.4163  0.0364
 3656SOL     OW22426   0.463   1.551  13.401 -0.4116 -0.6430 -0.4875
 3656SOL    HW122427   0.427   1.567  13.488 -2.3849  0.6691 -1.5440
 3656SOL    HW222428   0.434   1.632  13.359 -1.3092 -0.4302  0.5420
 3657SOL     OW22429   3.466   0.931   6.411 -0.1457 -0.4865 -0.2551
 3657SOL    HW122430   3.466   0.850   6.361 -0.8012 -0.1929 -0.7399
 3657SOL    HW222431   3.529   0.910   6.480  1.6808  1.9670 -1.1723
 3658SOL     OW22432   3.175   4.593   4.812  0.0011  0.0895  0.2714
 3658SOL    HW122433   3.081   4.575   4.811 -0.3412  1.8112  1.6803
 3658SOL    HW222434   3.208   4.504   4.825  2.2885  1.0705  1.2003
 3659SOL     OW22435   1.935   3.902   5.570  0.0216 -0.4043  0.1342
 3659SOL    HW122436   1.915   3.871   5.658 -0.0441  2.5642  1.1647
 3659SOL    HW222437   1.993   3.974   5.595 -1.6294  0.8435  0.3696
 3660SOL     OW22438   2.985   1.690   1.002  0.2888  0.0876  0.1934
 3660SOL    HW122439   2.970   1.603   1.039 -0.7844  0.1442 -0.1007
 3660SOL    HW222440   2.974   1.741   1.082 -0.8516  1.9971 -1.1699
 3661SOL     OW22441   4.088   0.114   9.713 -0.5281  0.2519 -0.3215
 3661SOL    HW122442   3.998   0.084   9.720 -0.2250  0.3092  3.5010
 3661SOL    HW222443   4.133   0.090   9.794 -2.2422 -0.7814  0.3244
 3662SOL     OW22444   3.225   2.882   3.671  0.4598 -0.1511 -0.6070
 3662SOL    HW122445   3.195   2.797   3.704  2.0259 -0.1377  0.8153
 3662SOL    HW222446   3.152   2.939   3.696  1.6316  2.1258 -2.3389
 3663SOL     OW22447   4.120   4.582  13.409 -0.5820 -0.2425  0.0940
 3663SOL    HW122448   4.051   4.637  13.372 -1.0377  0.7851  2.4862
 3663SOL    HW222449   4.071   4.501  13.424  1.0137 -1.5186 -1.5972
 3664SOL     OW22450   4.656   3.923  14.768 -0.4825  0.0246  0.0249
 3664SOL    HW122451   4.646   4.009  14.727  0.3465  0.3655  0.5509
 3664SOL    HW222452   4.561   3.908  14.771 -0.5245  0.4605  0.9474
 3665SOL     OW22453   1.772   4.532   6.985 -0.2719 -0.0973  0.6383
 3665SOL    HW122454   1.817   4.483   7.053  2.3178  0.0874 -0.9254
 3665SOL    HW222455   1.725   4.463   6.938  1.1933 -1.1015  0.6361
 3666SOL     OW22456   1.387   0.151   7.366  0.3369  0.3083 -0.6906
 3666SOL    HW122457   1.292   0.149   7.373  0.1711  2.1774 -2.5925
 3666SOL    HW222458   1.409   0.241   7.389 -0.2693 -0.3627  2.4863
 3667SOL     OW22459   0.974   4.162   2.069  0.1340  0.4818  0.2121
 3667SOL    HW122460   0.931   4.082   2.099 -0.3935  0.3941 -0.7657
 3667SOL    HW222461   1.065   4.148   2.095  1.1422  0.8620 -3.1124
 3668SOL     OW22462   4.244   4.503  15.244  0.7399  0.2600 -0.0294
 3668SOL    HW122463   4.165   4.465  15.283  0.4815 -1.2496 -2.0225
 3668SOL    HW222464   4.309   4.479  15.310  1.2698 -1.9858 -1.3792
 3669SOL     OW22465   1.146   0.545  12.521  0.4354 -0.0473  0.0659
 3669SOL    HW122466   1.087   0.605  12.567  2.2878  0.6124  1.6152
 3669SOL    HW222467   1.164   0.489  12.596 -3.9649 -0.6236  0.6720
 3670SOL     OW22468   1.300   1.398  16.149 -0.6715  0.2854  0.3994
 3670SOL    HW122469   1.376   1.456  16.155 -0.2173 -0.4384  1.8400
 3670SOL    HW222470   1.340   1.317  16.182  0.4577  0.0818 -1.4718
 3671SOL     OW22471   3.136   0.133   5.817  0.2149  0.1762 -0.4713
 3671SOL    HW122472   3.217   0.184   5.812 -1.0839  2.3782  1.1767
 3671SOL    HW222473   3.161   0.066   5.880 -2.2317  0.2320  0.5521
 3672SOL     OW22474   3.456   0.711   3.607 -0.0759 -0.2145  0.1191
 3672SOL    HW122475   3.385   0.657   3.642  0.2503 -1.1710 -0.7076
 3672SOL    HW222476   3.515   0.654   3.558  1.1119  0.6342  0.5735
 3673SOL     OW22477   0.994   4.491   9.626  0.2363 -0.0992  0.6346
 3673SOL    HW122478   1.003   4.487   9.722  1.7974  1.4880  0.5614
 3673SOL    HW222479   0.905   4.525   9.622 -0.0120 -0.5633  2.1038
 3674SOL     OW22480   4.037   4.236   6.966  0.1351 -0.5136 -0.0276
 3674SOL    HW122481   4.121   4.240   7.012 -0.2463 -0.2843  0.6499
 3674SOL    HW222482   4.057   4.224   6.873  1.2226 -1.4448  0.3255
 3675SOL     OW22483   0.643   2.270   3.543 -0.1227 -0.3477  0.1966
 3675SOL    HW122484   0.669   2.355   3.579 -2.2521 -0.2147  1.4189
 3675SOL    HW222485   0.548   2.273   3.539 -0.0969  0.0137 -0.1967
 3676SOL     OW22486   2.573   3.637   2.727 -0.1416  0.1911 -0.1925
 3676SOL    HW122487   2.613   3.685   2.799  0.7460  0.4080 -0.8317
 3676SOL    HW222488   2.542   3.707   2.670 -0.8219 -1.2387 -1.5729
 3677SOL     OW22489   2.929   2.058  11.705 -0.5265  0.7601 -0.4004
 3677SOL    HW122490   2.928   2.001  11.628 -0.7532  0.7513 -0.3913
 3677SOL    HW222491   2.996   2.121  11.679 -0.5569  1.2164  0.6366
 3678SOL     OW22492   3.936   3.143   1.505 -0.5685 -0.1000  0.8774
 3678SOL    HW122493   3.890   3.191   1.575 -0.3255  2.0466 -0.4217
 3678SOL    HW222494   3.856   3.101   1.473  0.6676 -2.4824  1.0038
 3679SOL     OW22495   1.622   1.863   0.588  0.8046 -0.1179  0.0008
 3679SOL    HW122496   1.590   1.952   0.571 -1.7411 -1.3729 -1.8178
 3679SOL    HW222497   1.549   1.812   0.553  1.4402  0.9801 -2.8892
 3680SOL     OW22498   3.398   2.316  14.613 -0.1236 -0.2708 -0.3513
 3680SOL    HW122499   3.325   2.278  14.661  0.8425 -0.1475  1.2266
 3680SOL    HW222500   3.389   2.280  14.525 -0.2599  0.2683 -0.5590
 3681SOL     OW22501   3.498   3.752   6.507  0.2667 -0.4403 -0.1734
 3681SOL    HW122502   3.444   3.731   6.431  0.1002  1.5013 -0.5942
 3681SOL    HW222503   3.510   3.666   6.548  1.5647  0.7568  1.9649
 3682SOL     OW22504   0.344   3.444   3.420  0.4038 -0.7630 -0.0555
 3682SOL    HW122505   0.264   3.452   3.473  0.9957  0.7156  0.6293
 3682SOL    HW222506   0.328   3.513   3.356 -0.9205 -1.5605 -0.5946
 3683SOL     OW22507   1.036   2.121   6.261  0.5163  0.2971  0.3920
 3683SOL    HW122508   1.100   2.192   6.260  1.9043 -0.9461  2.4951
 3683SOL    HW222509   1.088   2.041   6.257  1.8158  1.2129 -1.2342
 3684SOL     OW22510   0.210   3.005   7.650  0.2983  0.1869 -0.3664
 3684SOL    HW122511   0.300   2.983   7.625 -0.0857 -3.4974  1.4943
 3684SOL    HW222512   0.215   3.099   7.667  0.9608 -0.1542  1.3636
 3685SOL     OW22513   3.396   0.690   8.292  0.1383 -0.1417  0.2169
 3685SOL    HW122514   3.384   0.776   8.252  1.0499  0.3558  1.0103
 3685SOL    HW222515   3.455   0.660   8.223 -0.5068 -0.5000 -0.1766
 3686SOL     OW22516   3.163   0.037   7.345 -0.3724 -0.0893 -0.2345
 3686SOL    HW122517   3.079   4.716   7.351 -1.2046  1.6525  1.2500
 3686SOL    HW222518   3.137   0.123   7.311 -0.2352  0.2235  0.4372
 3687SOL     OW22519   2.149   0.141   2.511  0.1047 -0.0747 -0.3239
 3687SOL    HW122520   2.177   0.233   2.509 -0.3057  0.0996  2.2663
 3687SOL    HW222521   2.054   0.153   2.509  0.0281 -0.3896  1.9314
 3688SOL     OW22522   1.185   1.881  15.664 -0.0509  0.0282  0.0620
 3688SOL    HW122523   1.188   1.975  15.685 -1.0425  0.1398 -0.3046
 3688SOL    HW222524   1.276   1.873  15.633  0.3147  0.2461  1.1025
 3689SOL     OW22525   4.487   4.380   0.445 -0.1033  0.4340  0.2814
 3689SOL    HW122526   4.485   4.453   0.383  1.4962  0.5091  0.3332
 3689SOL    HW222527   4.543   4.319   0.396 -1.3667 -0.4412 -0.0881
 3690SOL     OW22528   1.573   1.720  17.558  0.9076  0.2405  0.1989
 3690SOL    HW122529   1.578   1.745  17.650  0.3354  0.7583  0.0880
 3690SOL    HW222530   1.655   1.673  17.547  0.7812 -0.1679  1.0246
 3691SOL     OW22531   2.421   3.002   5.465 -0.3054  0.0763  0.4848
 3691SOL    HW122532   2.469   3.008   5.383  1.8529  0.0573  1.7368
 3691SOL    HW222533   2.486   3.029   5.530 -0.5125  2.0630 -0.1337
 3692SOL     OW22534   0.456   0.612   6.569 -0.1423 -0.1841  0.1558
 3692SOL    HW122535   0.497   0.529   6.545  0.7484 -0.3401  2.2924
 3692SOL    HW222536   0.538   0.648   6.603  0.4420 -3.3972  2.1197
 3693SOL     OW22537   0.046   2.740   8.132  0.3501  0.6946 -0.5001
 3693SOL    HW122538   4.719   2.676   8.082  0.9928 -0.0096 -0.2458
 3693SOL    HW222539   0.097   2.671   8.175 -1.1139  0.6226  1.1629
 3694SOL     OW22540   1.490   2.507  10.469  0.1562  0.4292  0.2803
 3694SOL    HW122541   1.478   2.526  10.376 -1.2937  0.0398  0.3972
 3694SOL    HW222542   1.415   2.449  10.485  1.4146 -1.3830 -0.2924
 3695SOL     OW22543   1.213   2.027   5.682  0.1436  0.8282 -0.1159
 3695SOL    HW122544   1.168   1.963   5.737  1.6579 -0.8823 -0.8770
 3695SOL    HW222545   1.207   1.986   5.596  1.6060  1.9479 -0.7455
 3696SOL     OW22546   1.315   1.869   8.913  0.4310 -0.0442  0.8530
 3696SOL    HW122547   1.286   1.942   8.859 -2.0782 -0.8843  1.0806
 3696SOL    HW222548   1.365   1.824   8.845 -1.0465 -0.6481  0.1609
 3697SOL     OW22549   3.651   0.559   6.418  0.1832  0.1074  0.9229
 3697SOL    HW122550   3.637   0.592   6.506 -2.3390 -0.1676  0.6147
 3697SOL    HW222551   3.574   0.598   6.377  1.3618  1.0031 -0.4858
 3698SOL     OW22552   1.053   1.654   4.287  0.0551  0.2115 -0.1105
 3698SOL    HW122553   1.040   1.593   4.215 -1.2054 -0.1290  0.4010
 3698SOL    HW222554   0.991   1.724   4.266 -1.9466 -1.1226  1.2695
 3699SOL     OW22555   1.971   3.335  17.402 -0.4521 -0.6924 -0.1697
 3699SOL    HW122556   2.062   3.350  17.379 -0.4750 -1.9685 -1.1023
 3699SOL    HW222557   1.935   3.315  17.315 -1.1666 -1.4572  0.2984
 3700SOL     OW22558   3.999   3.205  17.525  0.2981  0.7699  0.3150
 3700SOL    HW122559   4.081   3.244  17.496  0.7042 -0.4608 -0.2030
 3700SOL    HW222560   3.941   3.246  17.460  0.6169  0.8288  0.0695
 3701SOL     OW22561   0.844   2.418   6.743  0.2878  0.1504 -0.0369
 3701SOL    HW122562   0.842   2.456   6.831 -0.6169 -0.9179  0.4111
 3701SOL    HW222563   0.890   2.492   6.702  2.4773 -0.5971  1.0403
 3702SOL     OW22564   2.424   0.509   6.392 -0.2523  0.1329 -0.0758
 3702SOL    HW122565   2.345   0.477   6.348 -0.7098  1.6830 -0.3754
 3702SOL    HW222566   2.409   0.603   6.389  0.4576  0.2579  0.3132
 3703SOL     OW22567   0.115   1.154  15.193 -0.2464 -0.2882  0.2610
 3703SOL    HW122568   0.041   1.120  15.242  0.7014 -1.6125  0.7692
 3703SOL    HW222569   0.166   1.183  15.268  0.1455  1.2742 -0.6071
 3704SOL     OW22570   3.790   1.824  11.075  0.0644  0.4198 -0.8070
 3704SOL    HW122571   3.786   1.848  11.168 -1.8849 -0.0324 -0.7617
 3704SOL    HW222572   3.805   1.729  11.077 -0.2515  0.3520 -1.9856
 3705SOL     OW22573   3.235   0.063  14.976  0.4846 -0.2819 -0.3966
 3705SOL    HW122574   3.161   0.093  14.922  1.0768 -0.2536 -1.1882
 3705SOL    HW222575   3.310   0.065  14.917  0.1277 -0.1469 -0.8498
 3706SOL     OW22576   2.025   0.219  15.998 -0.0841 -0.3524 -0.5409
 3706SOL    HW122577   1.993   0.236  16.086  0.7522 -0.7499 -0.1505
 3706SOL    HW222578   1.951   0.252  15.948 -1.3213 -1.6083  0.4429
 3707SOL     OW22579   2.500   1.536   4.901  0.4458  0.1048 -1.0333
 3707SOL    HW122580   2.504   1.567   4.991 -1.4589 -0.5708 -0.7247
 3707SOL    HW222581   2.417   1.562   4.862  1.4189  0.6603 -2.7433
 3708SOL     OW22582   2.314   2.254   6.929 -0.2164  0.2668  0.6958
 3708SOL    HW122583   2.241   2.196   6.910 -0.1239  0.1851  0.5874
 3708SOL    HW222584   2.369   2.195   6.981  1.9672  0.7403 -1.0651
 3709SOL     OW22585   2.849   2.487   9.013 -0.2935  0.7277  0.0336
 3709SOL    HW122586   2.874   2.434   9.088 -0.9742  0.7065  0.2433
 3709SOL    HW222587   2.760   2.458   8.990  0.7324 -0.7914 -2.0386
 3710SOL     OW22588   1.830   1.378   7.239  0.2494  0.3160 -0.5508
 3710SOL    HW122589   1.891   1.451   7.224  0.1522 -0.1501 -3.1882
 3710SOL    HW222590   1.875   1.306   7.195  1.0827 -0.6076  1.8489
 3711SOL     OW22591   4.500   1.976   3.084  0.5227 -0.7258 -0.0073
 3711SOL    HW122592   4.549   1.965   3.165 -0.7012  1.7223  1.0755
 3711SOL    HW222593   4.485   2.071   3.086 -2.5878 -1.1880 -0.5787
 3712SOL     OW22594   1.424   0.885   7.574 -0.1092  0.4602 -0.0530
 3712SOL    HW122595   1.464   0.918   7.655 -0.3968 -1.8600  1.0151
 3712SOL    HW222596   1.448   0.958   7.517  0.7747 -0.6387 -1.0784
 3713SOL     OW22597   1.305   3.224   2.004  0.1485  0.0341  0.5576
 3713SOL    HW122598   1.229   3.278   2.029 -0.8591 -0.5407 -1.2729
 3713SOL    HW222599   1.371   3.284   2.039  0.2434 -0.2457  0.8597
 3714SOL     OW22600   2.684   0.139   7.365 -0.1646  0.5136 -0.3429
 3714SOL    HW122601   2.607   0.115   7.418 -0.0579  2.2090  0.5583
 3714SOL    HW222602   2.755   0.143   7.430 -0.9951 -0.9226  0.6776
 3715SOL     OW22603   4.078   4.106   1.031  0.2341  0.5446  0.0772
 3715SOL    HW122604   4.084   4.067   1.119 -1.0213  1.5891  0.6223
 3715SOL    HW222605   4.162   4.150   1.017  0.4049  0.2566  0.1754
 3716SOL     OW22606   1.133   1.016  16.158  0.3801  0.3241 -0.8589
 3716SOL    HW122607   1.047   1.054  16.141  1.4272  2.3984 -1.5166
 3716SOL    HW222608   1.109   0.934  16.202 -1.0432  0.7517 -0.8553
 3717SOL     OW22609   1.852   3.553   6.392 -0.7002  0.5192  0.4549
 3717SOL    HW122610   1.780   3.508   6.348 -1.5486 -1.3740  3.7587
 3717SOL    HW222611   1.798   3.625   6.425 -0.4722  0.3481  1.2175
 3718SOL     OW22612   3.312   4.534   9.049 -0.0658  0.5106 -0.4697
 3718SOL    HW122613   3.400   4.508   9.077 -0.1614  1.4592  0.7089
 3718SOL    HW222614   3.269   4.449   9.055 -1.8904  1.4204 -0.9237
 3719SOL     OW22615   2.343   4.607   8.033  0.2474  0.1394 -0.1725
 3719SOL    HW122616   2.338   4.662   7.955  2.0581 -0.4191 -0.6755
 3719SOL    HW222617   2.371   4.663   8.106 -1.8907  0.3745  0.4697
 3720SOL     OW22618   0.802   3.994   0.255 -0.4039  0.0810 -0.4457
 3720SOL    HW122619   0.850   3.912   0.248 -0.5681 -0.1579  1.1778
 3720SOL    HW222620   0.710   3.967   0.247 -0.7658  0.8287  1.0394
 3721SOL     OW22621   0.298   4.371  14.855  0.8409  0.2658  0.1475
 3721SOL    HW122622   0.365   4.437  14.840  1.0124  0.0206 -0.1443
 3721SOL    HW222623   0.309   4.309  14.784  1.9454 -1.9957  2.2916
 3722SOL     OW22624   0.659   3.365   7.444 -0.1482  0.3727 -0.2676
 3722SOL    HW122625   0.628   3.279   7.472  0.1017  1.2898  2.7691
 3722SOL    HW222626   0.581   3.408   7.409 -0.0174 -0.1184 -1.1561
 3723SOL     OW22627   0.729   3.403   5.750  0.1173 -0.0410 -0.0869
 3723SOL    HW122628   0.725   3.495   5.722 -4.3734  0.2402  1.4776
 3723SOL    HW222629   0.656   3.377   5.693  1.2383 -3.3079 -0.0555
 3724SOL     OW22630   0.415   3.083   7.125  0.0302  0.3972  0.3976
 3724SOL    HW122631   0.337   3.031   7.110  1.3831 -1.1097 -1.4810
 3724SOL    HW222632   0.379   3.171   7.131 -1.5240 -0.1636 -0.8613
 3725SOL     OW22633   0.657   0.850   0.151  0.4772 -0.1681 -0.0260
 3725SOL    HW122634   0.701   0.914   0.095 -2.3314  0.5632 -1.3943
 3725SOL    HW222635   0.650   0.768   0.102 -1.2192  1.6102 -2.7512
 3726SOL     OW22636   2.162   1.254   4.542 -0.1821 -0.0573  0.0446
 3726SOL    HW122637   2.148   1.161   4.558 -0.4921 -0.3390 -1.8396
 3726SOL    HW222638   2.110   1.280   4.617 -0.1794 -0.4413  0.1799
 3727SOL     OW22639   2.619   0.535   4.599  0.0283 -0.3523  0.0664
 3727SOL    HW122640   2.618   0.618   4.647  2.1181 -1.4766  2.0311
 3727SOL    HW222641   2.536   0.546   4.551  1.0963  1.5170 -1.3544
 3728SOL     OW22642   2.644   1.741   3.863 -0.0382  0.0506  0.4576
 3728SOL    HW122643   2.681   1.726   3.776 -0.7076 -1.6764  0.4760
 3728SOL    HW222644   2.574   1.676   3.867  0.2709 -0.2937  0.2812
 3729SOL     OW22645   3.956   3.367   5.927  0.1594  0.5527  0.2498
 3729SOL    HW122646   4.008   3.294   5.892  0.0857  1.2206 -1.2583
 3729SOL    HW222647   3.894   3.371   5.854 -2.2512 -0.9932  2.2107
 3730SOL     OW22648   3.074   4.683  10.918 -0.5715  0.2712  0.3718
 3730SOL    HW122649   3.120   0.030  10.871  0.4945 -0.5240  0.2242
 3730SOL    HW222650   3.021   0.008  10.980 -1.3219  0.6527 -0.5709
 3731SOL     OW22651   3.112   2.002   1.001  0.4278  0.1489  0.4917
 3731SOL    HW122652   3.192   1.975   0.956 -0.7437 -2.3122 -0.1133
 3731SOL    HW222653   3.144   2.002   1.091 -2.5702  1.8711  1.5543
 3732SOL     OW22654   1.183   2.175  15.413  0.1171 -0.1898 -0.5140
 3732SOL    HW122655   1.126   2.121  15.359 -0.4456 -0.7399  0.6625
 3732SOL    HW222656   1.164   2.260  15.371  3.2451  1.5944  1.6472
 3733SOL     OW22657   3.640   4.680   3.293 -0.2296  0.2538 -0.1102
 3733SOL    HW122658   3.572   4.613   3.296 -0.5415  0.5854  0.2333
 3733SOL    HW222659   3.616   0.009   3.216  1.1292  0.0961 -0.6346
 3734SOL     OW22660   0.570   2.371  14.345 -0.0643 -0.3976 -0.4893
 3734SOL    HW122661   0.630   2.342  14.276 -1.4710 -2.5219 -0.7918
 3734SOL    HW222662   0.639   2.365  14.411 -0.4241  1.6330  0.0832
 3735SOL     OW22663   3.787   3.911   0.433  0.7190  0.1870 -0.4387
 3735SOL    HW122664   3.715   3.927   0.372  1.0706  1.6611 -0.4661
 3735SOL    HW222665   3.759   3.829   0.475  0.4919  0.5518  0.1271
 3736SOL     OW22666   0.872   3.941   7.409 -0.2471 -0.4539 -0.2477
 3736SOL    HW122667   0.859   3.979   7.322 -0.0796 -0.4819 -0.2842
 3736SOL    HW222668   0.950   3.986   7.441  0.2998 -1.9395  0.4969
 3737SOL     OW22669   3.968   1.540   9.508  0.2004  0.0348 -0.0827
 3737SOL    HW122670   3.967   1.599   9.433 -1.7432  0.4518  0.2619
 3737SOL    HW222671   4.052   1.494   9.508  1.1030  1.6779 -0.2095
 3738SOL     OW22672   0.113   0.047   1.422 -0.2681  0.3228  0.1283
 3738SOL    HW122673   0.189   0.010   1.376 -1.0208 -2.9391  1.4929
 3738SOL    HW222674   0.039   4.716   1.397  0.0651  0.7516 -1.7961
 3739SOL     OW22675   0.138   1.627   3.778  0.3450  0.5158  0.2636
 3739SOL    HW122676   0.232   1.638   3.760  0.8382 -0.9402  1.9759
 3739SOL    HW222677   0.106   1.691   3.713  0.6979  0.4099 -0.0169
 3740SOL     OW22678   2.495   1.539  13.052 -0.3792 -0.7462  0.4384
 3740SOL    HW122679   2.557   1.471  13.027  0.0409 -0.4247  0.6002
 3740SOL    HW222680   2.428   1.521  12.987  0.5577 -0.2293 -0.6762
 3741SOL     OW22681   1.721   3.114   7.838  0.1399 -0.4913  0.1950
 3741SOL    HW122682   1.701   3.161   7.919 -1.1896 -0.4892 -0.1474
 3741SOL    HW222683   1.635   3.110   7.797  0.1992 -1.2906  0.1549
 3742SOL     OW22684   3.264   2.051   8.112 -0.6459  0.1901  0.0199
 3742SOL    HW122685   3.316   2.086   8.184  0.1089 -1.3949  0.2263
 3742SOL    HW222686   3.180   2.058   8.158 -0.8796  1.0600 -0.5298
 3743SOL     OW22687   0.149   4.673   5.770 -0.3207 -0.3152  0.2719
 3743SOL    HW122688   0.238   4.686   5.737 -0.5245  0.5719  0.0682
 3743SOL    HW222689   0.126   0.040   5.788  1.7363  0.3748 -0.5942
 3744SOL     OW22690   1.342   3.421  12.156  0.0602  0.0913  0.1392
 3744SOL    HW122691   1.374   3.384  12.238 -0.4529 -2.2368 -0.7141
 3744SOL    HW222692   1.253   3.435  12.190  0.9497  1.2516  1.9959
 3745SOL     OW22693   3.354   1.972   2.449  0.4311  0.2187 -0.3935
 3745SOL    HW122694   3.443   1.986   2.481  1.6407 -0.5537 -3.3437
 3745SOL    HW222695   3.357   1.879   2.423  1.2450  0.0817  0.1667
 3746SOL     OW22696   0.860   3.004  17.543 -0.3723 -0.4609  0.1095
 3746SOL    HW122697   0.844   2.920  17.585 -1.3585 -0.2634  0.1278
 3746SOL    HW222698   0.796   3.064  17.581  0.4624  0.8305 -0.4984
 3747SOL     OW22699   3.236   1.948   7.708 -0.1056  0.2963  0.5184
 3747SOL    HW122700   3.196   1.932   7.793  1.2387  0.0325  1.0893
 3747SOL    HW222701   3.297   1.875   7.704 -2.0596 -1.3606  0.8644
 3748SOL     OW22702   0.951   4.395   1.508 -0.1852  0.2484 -0.0489
 3748SOL    HW122703   1.019   4.340   1.547 -1.8254 -0.2586  2.0926
 3748SOL    HW222704   0.898   4.417   1.585 -1.9629 -0.9955 -0.9055
 3749SOL     OW22705   3.729   4.638   7.528 -1.2371  0.1527  0.2256
 3749SOL    HW122706   3.683   4.704   7.476  0.1431  1.2621  0.4232
 3749SOL    HW222707   3.675   4.633   7.607  1.0258  1.5043  1.8440
 3750SOL     OW22708   3.286   0.487   8.467  0.0371 -0.4698 -0.0152
 3750SOL    HW122709   3.277   0.553   8.535  0.6199  0.4283 -0.8060
 3750SOL    HW222710   3.310   0.545   8.394 -1.6430  1.6818  1.1526
 3751SOL     OW22711   2.967   0.675   2.041 -0.2187  0.8393  0.7159
 3751SOL    HW122712   2.990   0.753   1.991  2.1460 -0.7066 -0.6626
 3751SOL    HW222713   2.940   0.616   1.970  1.1777  0.7428  0.2596
 3752SOL     OW22714   0.379   2.093  11.812 -0.2206 -0.5989  0.0193
 3752SOL    HW122715   0.384   2.169  11.754 -1.5192 -1.8048 -1.6558
 3752SOL    HW222716   0.440   2.109  11.884 -0.4405 -0.8888  0.2706
 3753SOL     OW22717   3.351   2.832   6.291  0.3561 -0.1042  0.7756
 3753SOL    HW122718   3.333   2.747   6.332  0.5547 -0.5322 -0.0403
 3753SOL    HW222719   3.322   2.894   6.358  0.0949 -1.9979  2.4024
 3754SOL     OW22720   2.503   2.508   2.030  0.2517 -0.1097  0.0406
 3754SOL    HW122721   2.451   2.455   2.089 -0.7922 -1.2084 -1.8597
 3754SOL    HW222722   2.499   2.448   1.955  0.0037 -1.0073  0.7722
 3755SOL     OW22723   0.728   1.489   8.125  0.1211  0.1741  0.5450
 3755SOL    HW122724   0.689   1.492   8.213  0.3927 -1.5386  0.7242
 3755SOL    HW222725   0.819   1.465   8.144 -0.2405 -1.3227  0.3799
 3756SOL     OW22726   4.512   3.407   3.004 -0.3100 -0.2388 -0.6614
 3756SOL    HW122727   4.491   3.378   3.093 -0.5043 -2.5035 -1.4190
 3756SOL    HW222728   4.535   3.319   2.974  0.7466 -0.4923  0.9044
 3757SOL     OW22729   1.356   1.684   3.459  0.1620 -0.0058 -0.6206
 3757SOL    HW122730   1.368   1.596   3.424 -0.6627  0.3225 -1.7215
 3757SOL    HW222731   1.261   1.696   3.452  0.4390  1.6809 -1.5333
 3758SOL     OW22732   3.490   3.673   0.201  0.5005  0.1847 -0.4682
 3758SOL    HW122733   3.492   3.666   0.106 -2.2939  0.0393 -0.5229
 3758SOL    HW222734   3.436   3.596   0.219  0.2412  0.1879 -1.2099
 3759SOL     OW22735   0.624   2.130   6.493 -0.3367 -0.4692  0.2254
 3759SOL    HW122736   0.690   2.183   6.446 -1.5296  1.6524  0.9506
 3759SOL    HW222737   0.686   2.115   6.564  0.4854  0.4068 -0.3023
 3760SOL     OW22738   3.146   3.037   0.874  0.5246  0.0103 -0.4182
 3760SOL    HW122739   3.215   3.083   0.923  0.3742  0.3529 -0.5253
 3760SOL    HW222740   3.098   3.001   0.948  1.4142 -1.6756 -0.6772
 3761SOL     OW22741   4.100   4.539   8.713 -0.3842 -0.3059 -0.8288
 3761SOL    HW122742   4.104   4.607   8.645  1.8258  2.0408  1.6706
 3761SOL    HW222743   4.170   4.478   8.688  1.0217  0.7092  0.6099
 3762SOL     OW22744   1.158   4.540   0.099  0.6045  0.0171 -0.1353
 3762SOL    HW122745   1.088   4.505   0.043 -0.8534  0.2870  1.5402
 3762SOL    HW222746   1.109   4.515   0.177 -1.0290 -0.8720 -1.4269
 3763SOL     OW22747   3.289   2.036   9.626 -0.1394 -0.3103 -0.3162
 3763SOL    HW122748   3.202   2.050   9.590 -0.7047  2.4864  2.1208
 3763SOL    HW222749   3.304   1.944   9.604 -2.0872 -0.1517 -2.2220
 3764SOL     OW22750   1.783   0.559  11.079  0.6275 -0.0438 -0.4599
 3764SOL    HW122751   1.832   0.481  11.109 -0.9509 -0.6636  0.4999
 3764SOL    HW222752   1.739   0.584  11.160  0.0786 -0.8253 -0.5121
 3765SOL     OW22753   0.350   2.018  11.468 -0.4439 -0.5538 -0.0408
 3765SOL    HW122754   0.398   1.940  11.441 -1.0477 -0.3681 -1.6427
 3765SOL    HW222755   0.266   1.973  11.480 -1.3114  0.6586 -1.6121
 3766SOL     OW22756   3.216   0.208   3.038 -0.0330 -0.3898 -0.2306
 3766SOL    HW122757   3.156   0.240   2.970 -0.7448  0.9401  1.0252
 3766SOL    HW222758   3.158   0.163   3.100 -0.1098  1.7647  1.2891
 3767SOL     OW22759   0.540   3.823   4.991  0.6299 -0.5339 -0.2337
 3767SOL    HW122760   0.619   3.866   5.023 -1.2599  1.7890  1.3366
 3767SOL    HW222761   0.502   3.879   4.923 -1.7072 -0.4905  1.1265
 3768SOL     OW22762   2.124   4.440   7.948 -0.1571  0.1435 -0.2364
 3768SOL    HW122763   2.167   4.511   7.996  0.9908 -0.6972 -0.0386
 3768SOL    HW222764   2.037   4.445   7.989  0.6767  1.5244  1.3835
 3769SOL     OW22765   1.251   3.439  16.342  0.0563 -0.0021 -0.2613
 3769SOL    HW122766   1.322   3.493  16.306 -0.8965 -0.5486 -2.9359
 3769SOL    HW222767   1.257   3.363  16.285 -2.2673 -0.8877  0.6807
 3770SOL     OW22768   3.522   2.374   8.828 -0.2422 -0.1386  0.3485
 3770SOL    HW122769   3.584   2.356   8.897  1.8858 -0.8913 -1.7605
 3770SOL    HW222770   3.451   2.412   8.879 -2.0357 -0.6983 -1.6937
 3771SOL     OW22771   2.166   0.170  15.740  0.2221 -0.1487 -0.1743
 3771SOL    HW122772   2.237   0.235  15.733  0.4637 -0.1075  2.8819
 3771SOL    HW222773   2.115   0.191  15.818  0.9845 -0.4235  0.3962
 3772SOL     OW22774   2.826   1.866  17.608  0.1001 -0.2182  0.1256
 3772SOL    HW122775   2.805   1.844   0.002 -1.5144 -0.5791 -0.3380
 3772SOL    HW222776   2.847   1.959  17.607  0.9699 -0.4137  0.2770
 3773SOL     OW22777   3.419   0.248   4.773 -0.3055  0.0639  0.5750
 3773SOL    HW122778   3.494   0.248   4.713 -2.2964  0.0358 -1.9117
 3773SOL    HW222779   3.349   0.245   4.708  0.4716  0.8133 -0.2916
 3774SOL     OW22780   4.062   0.548   8.119 -0.7450  0.0370  0.0787
 3774SOL    HW122781   3.994   0.593   8.170  0.2210  0.9767  0.5411
 3774SOL    HW222782   4.131   0.614   8.121 -1.1316  0.5058 -1.6040
 3775SOL     OW22783   3.027   2.032   6.222 -0.2234  0.4433 -0.2335
 3775SOL    HW122784   2.980   1.972   6.279  1.2608 -1.4275 -0.9880
 3775SOL    HW222785   2.962   2.099   6.203  0.6861  1.0731 -1.1120
 3776SOL     OW22786   2.054   0.620   7.211  0.0756  0.0315 -0.4863
 3776SOL    HW122787   2.015   0.673   7.281  0.2249 -1.7130  0.9448
 3776SOL    HW222788   2.132   0.666   7.180  0.4817  0.0577  0.5620
 3777SOL     OW22789   2.244   1.949   1.283 -0.5711  0.0545 -0.2320
 3777SOL    HW122790   2.202   1.942   1.197 -1.9758 -1.0640  0.5583
 3777SOL    HW222791   2.316   2.006   1.255  0.6650 -0.2714  2.3540
 3778SOL     OW22792   4.513   2.871  17.096  0.1618 -0.4868 -0.0202
 3778SOL    HW122793   4.551   2.958  17.093 -0.1694 -0.2694  2.3426
 3778SOL    HW222794   4.432   2.899  17.054  0.5819  0.5015 -0.1756
 3779SOL     OW22795   1.380   3.801   6.862 -0.4448  0.1789 -0.1339
 3779SOL    HW122796   1.363   3.888   6.827 -2.4932  0.4779  1.6582
 3779SOL    HW222797   1.366   3.817   6.955 -2.3127 -2.8187  0.1246
 3780SOL     OW22798   3.583   4.687   7.073 -0.8802  0.3520 -0.2017
 3780SOL    HW122799   3.635   0.043   7.061  0.9086 -0.3048  3.2604
 3780SOL    HW222800   3.504   0.000   7.112 -0.1103 -0.3801  2.0180
 3781SOL     OW22801   3.634   3.137   5.218 -0.3539  0.1690 -0.2284
 3781SOL    HW122802   3.697   3.076   5.255 -2.9158 -0.4887  3.0665
 3781SOL    HW222803   3.558   3.128   5.276 -0.0777 -1.7237 -0.1756
 3782SOL     OW22804   1.476   1.280   8.806  0.5735 -0.2131  0.4080
 3782SOL    HW122805   1.536   1.310   8.874  0.1256 -1.1027  1.1941
 3782SOL    HW222806   1.534   1.286   8.730 -0.5926 -2.2682 -0.6583
 3783SOL     OW22807   0.244   4.307   8.887  0.4610  0.7433  0.0669
 3783SOL    HW122808   0.170   4.294   8.828  0.9482  0.9990 -0.6148
 3783SOL    HW222809   0.318   4.283   8.831 -0.8491 -0.4099 -1.1728
 3784SOL     OW22810   1.643   3.632   2.065  0.1018 -0.2541 -0.6153
 3784SOL    HW122811   1.648   3.605   2.157  0.9446 -0.1451 -0.6296
 3784SOL    HW222812   1.682   3.719   2.069  0.2487 -0.4045  1.1234
 3785SOL     OW22813   3.142   3.954   2.396 -0.0051 -0.2919  0.0466
 3785SOL    HW122814   3.064   3.992   2.435  0.9601 -1.0394  2.7335
 3785SOL    HW222815   3.201   4.019   2.434  1.0108 -0.2967 -1.5023
 3786SOL     OW22816   3.427   4.121   4.790 -0.1017 -0.0841 -0.8109
 3786SOL    HW122817   3.454   4.044   4.739  1.4458  0.1516 -0.3439
 3786SOL    HW222818   3.498   4.183   4.774 -0.3625  0.8882  1.9469
 3787SOL     OW22819   0.415   3.739  11.934 -0.3351  0.4062 -0.1056
 3787SOL    HW122820   0.385   3.719  12.022  1.8201  0.1972  0.5727
 3787SOL    HW222821   0.451   3.827  11.947 -1.7075  0.8758  0.5662
 3788SOL     OW22822   2.191   2.714   1.132 -0.7165 -0.3492  0.1367
 3788SOL    HW122823   2.151   2.655   1.196  1.8323 -2.1919  0.0073
 3788SOL    HW222824   2.134   2.791   1.135  0.3264  0.3358  2.5472
 3789SOL     OW22825   4.189   3.239   2.406  0.5820  0.5915 -0.4121
 3789SOL    HW122826   4.256   3.174   2.428  2.2093  1.9376 -1.3431
 3789SOL    HW222827   4.117   3.180   2.387  0.6252  0.6896 -0.8795
 3790SOL     OW22828   1.589   3.097  12.136 -0.0806 -0.0601 -0.4602
 3790SOL    HW122829   1.659   3.061  12.190  2.3745  2.9934 -1.5731
 3790SOL    HW222830   1.545   3.015  12.118  0.1651 -0.8131  2.2795
 3791SOL     OW22831   0.055   0.746   4.940  0.2777  0.0153  0.6217
 3791SOL    HW122832   0.145   0.773   4.959  0.7398  0.1254 -1.7327
 3791SOL    HW222833   0.020   0.833   4.919 -0.7380 -0.1602  1.5724
 3792SOL     OW22834   4.287   4.500   3.817  0.1514 -0.2002  0.1627
 3792SOL    HW122835   4.239   4.561   3.761 -2.8523 -2.0399  0.7057
 3792SOL    HW222836   4.280   4.421   3.763  0.6022  1.1992 -1.9473
 3793SOL     OW22837   4.357   4.075   6.717 -0.3735  0.4378  0.4061
 3793SOL    HW122838   4.275   4.025   6.724  0.3339 -0.8263 -0.3643
 3793SOL    HW222839   4.322   4.164   6.709 -0.2809  0.5286  1.0271
 3794SOL     OW22840   1.937   3.854   7.159 -0.3230 -0.1738 -0.1284
 3794SOL    HW122841   1.993   3.819   7.228  0.9419 -1.3296 -1.7444
 3794SOL    HW222842   1.868   3.788   7.148 -1.1290  0.6647 -0.1584
 3795SOL     OW22843   0.395   2.589   6.659  0.1139  0.5610 -0.1784
 3795SOL    HW122844   0.452   2.648   6.708  0.0954 -2.2351  3.1790
 3795SOL    HW222845   0.431   2.578   6.571  0.7023  0.6074  0.0607
 3796SOL     OW22846   4.537   2.866   6.087 -0.4219  0.4197  0.5660
 3796SOL    HW122847   4.518   2.869   6.181 -2.3281 -0.7331  0.2131
 3796SOL    HW222848   4.468   2.817   6.043 -0.3884  1.7581 -0.9462
 3797SOL     OW22849   1.001   3.076   2.588 -0.4292  0.1328  0.1634
 3797SOL    HW122850   1.058   2.999   2.595  0.1151  0.4797 -0.5184
 3797SOL    HW222851   0.918   3.030   2.573 -1.7714  2.4675  0.4311
 3798SOL     OW22852   0.980   3.287   2.181  0.5892 -0.1020 -0.0185
 3798SOL    HW122853   0.938   3.372   2.173 -0.9859 -0.7933  0.8533
 3798SOL    HW222854   0.974   3.261   2.089 -0.2346  0.3779 -0.0949
 3799SOL     OW22855   0.620   4.420   6.316  0.0173 -0.6725 -0.3755
 3799SOL    HW122856   0.599   4.330   6.342  1.7832 -0.5451  1.5005
 3799SOL    HW222857   0.548   4.439   6.257 -0.7532  2.1716  1.4825
 3800SOL     OW22858   3.304   1.198  10.544  0.1295  0.5452 -0.1442
 3800SOL    HW122859   3.220   1.228  10.509  0.3801  0.5004 -0.7814
 3800SOL    HW222860   3.371   1.257  10.509  0.2137  0.7789  0.4137
 3801SOL     OW22861   3.347   3.912  13.293  0.3366  0.0725  0.1248
 3801SOL    HW122862   3.345   3.978  13.223 -3.2529  1.5733  1.6029
 3801SOL    HW222863   3.379   3.835  13.248  0.7697  0.3904 -0.1097
 3802SOL     OW22864   3.302   4.509   2.279 -0.6820  0.0125 -0.3580
 3802SOL    HW122865   3.341   4.590   2.244 -0.4733 -1.4775 -3.5320
 3802SOL    HW222866   3.368   4.442   2.263  1.0514  1.4828  0.4944
 3803SOL     OW22867   3.430   3.705   1.999 -0.1330 -0.0593  0.0846
 3803SOL    HW122868   3.524   3.694   2.016 -0.4032 -0.7514  1.0975
 3803SOL    HW222869   3.396   3.667   2.080 -0.2187 -0.4288 -0.1253
 3804SOL     OW22870   0.725   1.154   9.902  0.2207  0.1896  0.0316
 3804SOL    HW122871   0.658   1.086   9.908  0.7742 -0.2967  0.7304
 3804SOL    HW222872   0.784   1.138   9.977 -0.1248 -0.1805  0.2226
 3805SOL     OW22873   3.587   0.589  10.611  0.3510 -0.2825 -0.1436
 3805SOL    HW122874   3.644   0.661  10.639 -0.4727 -0.8731  3.0969
 3805SOL    HW222875   3.520   0.636  10.562 -0.4150 -3.2859 -1.9384
 3806SOL     OW22876   4.539   2.943   5.562  0.4383  0.2551 -0.0584
 3806SOL    HW122877   4.561   2.859   5.602  1.0568  1.3011  1.8234
 3806SOL    HW222878   4.593   2.939   5.483 -0.4356 -1.6153 -0.5573
 3807SOL     OW22879   1.419   2.591   5.024  0.2785 -1.0407  0.0037
 3807SOL    HW122880   1.472   2.660   4.983 -0.9828 -0.2710 -0.3111
 3807SOL    HW222881   1.351   2.650   5.055  0.2500 -1.5559  0.9088
 3808SOL     OW22882   2.826   4.182  13.526  0.3997  0.4788  0.5241
 3808SOL    HW122883   2.850   4.096  13.491 -0.3171  2.0775 -3.9220
 3808SOL    HW222884   2.912   4.222  13.530 -0.5925  2.4539  2.3401
 3809SOL     OW22885   1.578   0.053   4.495 -0.0245  0.1512  0.1721
 3809SOL    HW122886   1.599   4.717   4.567  0.3958  1.9517  1.5386
 3809SOL    HW222887   1.651   0.062   4.433  1.8247  2.5630  2.6432
 3810SOL     OW22888   1.198   2.045  10.481 -0.0306  0.5121  0.1530
 3810SOL    HW122889   1.241   1.969  10.443  0.7162  1.5484 -1.0673
 3810SOL    HW222890   1.142   2.084  10.413 -0.5924  2.5019  1.7439
 3811SOL     OW22891   1.316   3.395   2.948  0.1424 -0.0621  0.4271
 3811SOL    HW122892   1.377   3.322   2.945  0.5758  0.3973 -1.6544
 3811SOL    HW222893   1.237   3.357   2.985 -0.2256 -0.4321 -0.7503
 3812SOL     OW22894   0.649   2.478   5.042  0.1185 -0.3294  0.2711
 3812SOL    HW122895   0.633   2.492   5.135 -0.8015  1.0988 -0.0999
 3812SOL    HW222896   0.561   2.445   5.023  0.2027 -1.9141  2.5788
 3813SOL     OW22897   2.516   2.606  14.383 -0.5980 -0.6068 -0.3764
 3813SOL    HW122898   2.459   2.582  14.309 -1.0802 -0.0738 -0.1774
 3813SOL    HW222899   2.500   2.527  14.435 -2.5709  0.4180  0.5548
 3814SOL     OW22900   2.003   3.597   7.733  0.4929 -0.0211  0.9009
 3814SOL    HW122901   1.935   3.561   7.789  0.1905 -0.0716  0.5019
 3814SOL    HW222902   2.054   3.650   7.794  1.3997 -1.5231  1.4415
 3815SOL     OW22903   0.540   0.020   6.369 -0.1527 -0.1983  0.0332
 3815SOL    HW122904   0.492   0.024   6.286 -0.0213  1.6266  0.0550
 3815SOL    HW222905   0.473   0.047   6.432 -1.2936 -0.6316 -0.9957
 3816SOL     OW22906   3.465   0.710  14.128 -0.5520  0.3095 -0.0093
 3816SOL    HW122907   3.518   0.714  14.048  0.3574 -0.1335  0.5765
 3816SOL    HW222908   3.379   0.677  14.103  0.7481 -3.2224  0.0477
 3817SOL     OW22909   3.071   3.760   7.623 -0.6819 -0.3031  0.3716
 3817SOL    HW122910   3.013   3.828   7.591 -0.7372 -0.2359  0.6197
 3817SOL    HW222911   3.004   3.712   7.673 -1.4735  0.3353 -0.0812
 3818SOL     OW22912   0.041   2.555   9.713  0.1822  0.1463  0.3541
 3818SOL    HW122913   0.023   2.468   9.679 -0.8753  0.3437  0.4056
 3818SOL    HW222914   0.002   2.565   9.800  0.6569  1.4082  0.4253
 3819SOL     OW22915   2.195   0.514  14.160  0.2873  0.5319 -0.6347
 3819SOL    HW122916   2.175   0.594  14.209 -0.1197 -1.1531  1.9167
 3819SOL    HW222917   2.217   0.455  14.231 -0.4345  0.5128 -0.4256
 3820SOL     OW22918   3.982   4.008   7.133 -0.0039 -0.0660 -0.4009
 3820SOL    HW122919   4.051   4.011   7.066  0.5788 -0.1665  0.1904
 3820SOL    HW222920   3.965   4.102   7.147 -0.6828 -0.2362 -0.0983
 3821SOL     OW22921   0.999   3.347  10.243  0.1759  0.0316 -0.4284
 3821SOL    HW122922   1.056   3.288  10.193  1.3691 -0.8650  2.0109
 3821SOL    HW222923   1.055   3.422  10.260  1.4092 -0.2928 -3.0315
 3822SOL     OW22924   0.731   1.240   1.216 -0.4576 -0.1776  0.3527
 3822SOL    HW122925   0.790   1.272   1.284 -2.1684  0.2022  1.6662
 3822SOL    HW222926   0.674   1.316   1.213 -0.2082 -0.0683 -1.4722
 3823SOL     OW22927   3.330   1.572   1.382 -0.5600 -0.0745 -0.0527
 3823SOL    HW122928   3.366   1.489   1.413 -0.1499  0.0194 -0.2793
 3823SOL    HW222929   3.413   1.618   1.370  0.2009 -1.3515  0.3687
 3824SOL     OW22930   4.427   3.652   4.006  0.5493  0.0889  0.1696
 3824SOL    HW122931   4.445   3.591   3.935 -2.6186 -2.9086  1.9093
 3824SOL    HW222932   4.353   3.702   3.970 -1.3343 -1.3933  1.9412
 3825SOL     OW22933   3.386   2.954  14.940 -0.5586 -0.0679 -0.1101
 3825SOL    HW122934   3.353   2.996  15.019 -0.8514 -1.3036  0.4335
 3825SOL    HW222935   3.294   2.931  14.927  0.2721 -2.6776 -1.4307
 3826SOL     OW22936   0.226   2.547   5.385  0.0951 -0.0413 -0.5768
 3826SOL    HW122937   0.170   2.470   5.396  1.2058 -0.9515 -1.1968
 3826SOL    HW222938   0.295   2.515   5.326 -1.4565 -1.9770 -1.3584
 3827SOL     OW22939   2.755   1.980   4.035 -0.0008 -0.1033  0.0033
 3827SOL    HW122940   2.849   1.997   4.033  0.3041 -1.9017 -2.1286
 3827SOL    HW222941   2.758   1.889   4.006  3.2626  0.6080 -1.9208
 3828SOL     OW22942   2.504   1.350   6.846 -0.2691  0.4527  1.0889
 3828SOL    HW122943   2.465   1.438   6.841 -1.4532 -0.1928 -0.8114
 3828SOL    HW222944   2.437   1.309   6.901 -0.4638 -0.0588  0.4660
 3829SOL     OW22945   3.051   4.349   2.312 -0.0756 -0.0333  0.1899
 3829SOL    HW122946   3.115   4.303   2.259 -1.4276 -0.2247 -1.2823
 3829SOL    HW222947   3.098   4.432   2.320 -0.7025  0.3496 -0.0515
 3830SOL     OW22948   3.397   3.174   5.620 -0.3350  0.0575  0.6911
 3830SOL    HW122949   3.462   3.204   5.683  1.4754 -1.1354 -0.6405
 3830SOL    HW222950   3.348   3.108   5.669  0.2192 -0.3160  0.7349
 3831SOL     OW22951   4.368   1.866  10.974 -0.1383  0.2762  0.1528
 3831SOL    HW122952   4.444   1.809  10.989  0.7047  1.6592  1.1471
 3831SOL    HW222953   4.419   1.946  10.960 -0.1410  0.4304  1.0287
 3832SOL     OW22954   0.545   4.492   3.125  1.2053  0.4672 -0.1701
 3832SOL    HW122955   0.495   4.490   3.207  0.1401 -0.2579 -0.8412
 3832SOL    HW222956   0.561   4.398   3.112  0.9256  0.3700  0.1649
 3833SOL     OW22957   2.841   1.692   1.822  0.0262 -0.5001  0.0836
 3833SOL    HW122958   2.765   1.634   1.817 -0.8677  0.8703 -2.1148
 3833SOL    HW222959   2.905   1.629   1.855  0.4554  2.0408  4.1442
 3834SOL     OW22960   4.312   0.352  14.861 -0.3391 -0.2798 -0.1164
 3834SOL    HW122961   4.269   0.314  14.784  0.7056 -0.9435 -0.3786
 3834SOL    HW222962   4.377   0.410  14.823  0.2925  0.1164  1.5633
 3835SOL     OW22963   4.137   4.590   8.057  0.4075  0.5692  0.3702
 3835SOL    HW122964   4.195   4.562   8.128 -1.3399 -2.3132  0.6560
 3835SOL    HW222965   4.098   4.671   8.089  0.4567  0.8809 -0.3623
 3836SOL     OW22966   4.363   2.248   2.389 -0.0473  0.5059  0.4789
 3836SOL    HW122967   4.289   2.289   2.345  0.9356  0.4706 -1.2060
 3836SOL    HW222968   4.331   2.159   2.373 -2.6894  1.2671  1.6542
 3837SOL     OW22969   3.073   4.344   4.679 -0.0545 -0.5170 -0.4322
 3837SOL    HW122970   3.119   4.264   4.654 -0.9343 -1.4843  0.9862
 3837SOL    HW222971   2.996   4.293   4.706 -1.0671  1.5020  0.4941
 3838SOL     OW22972   0.945   2.720   3.255  0.4643  0.1033  0.0437
 3838SOL    HW122973   0.970   2.642   3.206 -1.3743 -0.0938 -0.5898
 3838SOL    HW222974   0.876   2.682   3.309  0.9342 -0.6567  0.1094
 3839SOL     OW22975   1.167   2.017   7.483 -0.0189  0.2451  0.3373
 3839SOL    HW122976   1.077   2.043   7.466 -0.3759 -1.1679  0.0567
 3839SOL    HW222977   1.207   2.095   7.522 -0.4370 -0.1721  1.5920
 3840SOL     OW22978   2.668   4.293   7.127  0.3166 -0.1518  0.3901
 3840SOL    HW122979   2.721   4.343   7.066 -0.4222 -1.6307 -1.4445
 3840SOL    HW222980   2.665   4.210   7.081 -1.0198 -0.2048  0.5478
 3841SOL     OW22981   3.977   4.576   9.277  0.1630 -0.0143  0.0405
 3841SOL    HW122982   4.030   4.596   9.354 -1.7659  3.8976  0.3420
 3841SOL    HW222983   4.017   4.492   9.252 -0.1527  0.0383 -0.6440
 3842SOL     OW22984   3.145   1.600  11.443 -0.0014  0.0375 -0.2768
 3842SOL    HW122985   3.103   1.594  11.529  2.2262 -0.2596  0.7917
 3842SOL    HW222986   3.195   1.682  11.447  2.6025 -1.4873 -2.0180
 3843SOL     OW22987   3.549   0.506  17.387 -0.0696 -0.1045 -0.1910
 3843SOL    HW122988   3.501   0.543  17.460  0.1300 -0.3162  0.0466
 3843SOL    HW222989   3.621   0.568  17.380 -0.7588  0.5019 -2.0267
 3844SOL     OW22990   3.555   4.693  10.604  0.2611 -0.5251  0.2041
 3844SOL    HW122991   3.595   0.049  10.638 -1.6920  1.4180 -2.0057
 3844SOL    HW222992   3.573   4.699  10.510 -1.1354 -0.9234 -0.0975
 3845SOL     OW22993   0.199   0.842   3.869  0.5767 -0.0609  0.4974
 3845SOL    HW122994   0.212   0.818   3.777  0.1104  3.1381 -0.4154
 3845SOL    HW222995   0.247   0.924   3.877 -0.1503  0.4088  0.1058
 3846SOL     OW22996   2.432   1.742   6.471 -0.1398 -0.7062 -0.1817
 3846SOL    HW122997   2.385   1.690   6.406 -1.6076 -0.1233  0.4204
 3846SOL    HW222998   2.361   1.765   6.531  1.7297 -2.2657  2.6375
 3847SOL     OW22999   3.573   4.360   7.445 -0.2584 -0.1801 -0.6882
 3847SOL    HW123000   3.594   4.453   7.438  0.6048 -0.2558  0.8635
 3847SOL    HW223001   3.613   4.341   7.360  0.2791 -0.5662 -0.3482
 3848SOL     OW23002   1.758   0.440   3.787 -0.2161  0.3210  0.0827
 3848SOL    HW123003   1.669   0.462   3.760  0.2142  1.8955 -0.0531
 3848SOL    HW223004   1.750   0.360   3.840  3.0277 -0.3268 -0.3649
 3849SOL     OW23005   4.629   1.331  12.870  0.6469  0.1328 -0.0625
 3849SOL    HW123006   4.643   1.416  12.829  0.3417 -0.5624 -1.6032
 3849SOL    HW223007   4.670   1.270  12.809 -0.9495 -0.6971 -0.3284
 3850SOL     OW23008   3.947   0.952   6.918  0.1138 -0.0888  0.6935
 3850SOL    HW123009   4.026   0.917   6.957  0.4635  0.1209  0.1773
 3850SOL    HW223010   3.874   0.898   6.948  0.0633 -2.5615 -3.8064
 3851SOL     OW23011   2.263   0.772  17.115  0.3594 -0.0283  0.4838
 3851SOL    HW123012   2.338   0.726  17.153  1.9061  0.6234 -1.7947
 3851SOL    HW223013   2.293   0.778  17.024 -1.1524  0.7470  0.0423
 3852SOL     OW23014   2.291   3.327   9.229 -0.3438 -0.0037 -0.5960
 3852SOL    HW123015   2.209   3.291   9.263  0.3761 -1.5335 -0.4584
 3852SOL    HW223016   2.341   3.343   9.308  1.5250  1.1642 -2.0173
 3853SOL     OW23017   1.462   1.497   5.356  0.2071  0.0283  0.5328
 3853SOL    HW123018   1.431   1.471   5.443  1.3272 -1.2645  0.5552
 3853SOL    HW223019   1.429   1.431   5.295 -1.1389  1.4464 -0.2338
 3854SOL     OW23020   0.566   1.048  13.026 -0.1752  0.5012  0.2521
 3854SOL    HW123021   0.491   1.097  13.058  0.8125  1.6390  0.8237
 3854SOL    HW223022   0.606   1.061  13.111 -0.4221 -0.1909  0.4758
 3855SOL     OW23023   0.114   3.373  17.203 -0.0018  0.2584  0.5724
 3855SOL    HW123024   0.064   3.292  17.208  3.2887 -1.7486  0.6452
 3855SOL    HW223025   0.055   3.425  17.258 -0.2691 -1.0793  1.5488
 3856SOL     OW23026   0.811   1.209   0.603 -0.1203 -0.9060 -0.3228
 3856SOL    HW123027   0.756   1.234   0.529  0.3035 -0.5019 -0.5043
 3856SOL    HW223028   0.858   1.134   0.566  0.6266 -0.9417  0.6877
 3857SOL     OW23029   1.024   4.579  10.125 -0.1540  0.6250 -0.3362
 3857SOL    HW123030   1.011   4.636  10.200 -3.2313  1.6546 -1.6326
 3857SOL    HW223031   1.099   4.526  10.151 -1.3976 -0.4611  1.0262
 3858SOL     OW23032   1.256   1.310   4.986  0.2500  0.4194  0.2674
 3858SOL    HW123033   1.252   1.245   4.916  0.6773  1.5658 -0.8110
 3858SOL    HW223034   1.197   1.273   5.052 -0.0031  0.7142  0.2083
 3859SOL     OW23035   3.642   0.869   7.936 -0.3330  0.1608  0.0744
 3859SOL    HW123036   3.705   0.916   7.990 -0.2252  0.8268 -0.6149
 3859SOL    HW223037   3.603   0.812   8.002 -0.7114 -1.2260 -1.3462
 3860SOL     OW23038   3.602   3.610   4.641 -0.0953  0.5219  0.1667
 3860SOL    HW123039   3.646   3.622   4.726 -1.9190 -0.8911  1.3095
 3860SOL    HW223040   3.683   3.633   4.594 -0.4472  0.1968 -0.5961
 3861SOL     OW23041   1.383   4.345   2.458 -0.5250 -0.3546  0.2232
 3861SOL    HW123042   1.380   4.301   2.542 -2.1152  0.7047  0.7283
 3861SOL    HW223043   1.298   4.328   2.418  0.1024  1.4043 -1.9049
 3862SOL     OW23044   2.908   4.601   4.519 -0.5524  0.5719 -0.7676
 3862SOL    HW123045   2.993   4.559   4.507 -0.2115  0.6604  1.2993
 3862SOL    HW223046   2.936   4.692   4.530  1.8082  0.1048 -2.9822
 3863SOL     OW23047   0.317   4.274   6.685  0.1507  0.6499  0.7004
 3863SOL    HW123048   0.228   4.272   6.650  0.2074 -1.5302  0.6387
 3863SOL    HW223049   0.301   4.310   6.772  1.7609  1.0378  0.8448
 3864SOL     OW23050   1.387   2.061   5.107 -0.1810  0.3936 -0.3376
 3864SOL    HW123051   1.352   2.052   5.019 -1.7769  0.8128  0.2575
 3864SOL    HW223052   1.403   2.155   5.105  0.5896  0.2665 -0.4364
 3865SOL     OW23053   2.938   0.259   4.666 -0.4184 -0.6405 -0.5004
 3865SOL    HW123054   2.886   0.289   4.741  1.7564  1.1396  0.3123
 3865SOL    HW223055   2.920   0.317   4.592  3.6575  1.0018 -0.1968
 3866SOL     OW23056   3.002   0.194   6.447 -0.5552 -0.0365 -0.3740
 3866SOL    HW123057   3.056   0.116   6.458  0.6080  1.0487  1.7028
 3866SOL    HW223058   3.047   0.247   6.513  0.4282  0.0637 -1.1259
 3867SOL     OW23059   2.285   2.692  13.937 -0.2054 -0.4621 -0.3906
 3867SOL    HW123060   2.233   2.734  13.869 -1.4311  2.5581  2.3777
 3867SOL    HW223061   2.282   2.771  13.992  0.7633  0.6647 -1.9322
 3868SOL     OW23062   3.015   2.368   0.456  0.7159  0.5933  0.4630
 3868SOL    HW123063   2.960   2.445   0.467 -0.9906 -0.3597 -1.4410
 3868SOL    HW223064   2.954   2.310   0.411 -0.2161  3.6945 -2.1864
 3869SOL     OW23065   2.440   0.643   8.903  0.0548  0.5455  0.2527
 3869SOL    HW123066   2.442   0.578   8.833 -2.1232 -0.5396  1.1956
 3869SOL    HW223067   2.479   0.723   8.868 -1.2955  0.7463 -0.7632
 3870SOL     OW23068   3.737   0.362  10.639  0.8258  0.1648 -0.3775
 3870SOL    HW123069   3.728   0.344  10.733 -0.4408 -0.1241 -0.5598
 3870SOL    HW223070   3.698   0.449  10.632 -1.0095 -0.7497 -1.5079
 3871SOL     OW23071   3.959   2.560   3.508  0.4535 -0.3817 -0.1574
 3871SOL    HW123072   4.011   2.554   3.428  0.3939  0.1626 -0.2405
 3871SOL    HW223073   3.877   2.576   3.462  0.9069 -0.3725 -0.9607
 3872SOL     OW23074   1.026   1.266  10.164  0.1295 -0.1248 -0.1101
 3872SOL    HW123075   1.004   1.333  10.099 -1.0431  0.0066  0.4144
 3872SOL    HW223076   0.995   1.189  10.118  1.5778 -0.3261 -0.7431
 3873SOL     OW23077   1.205   1.738   4.708  0.1708  0.4611  0.2490
 3873SOL    HW123078   1.224   1.772   4.621 -0.3028 -1.4545 -0.6060
 3873SOL    HW223079   1.283   1.775   4.751 -0.6731  0.7164  1.5727
 3874SOL     OW23080   0.922   1.619   6.921 -0.2018  0.1545  0.5221
 3874SOL    HW123081   0.972   1.595   6.842  0.3935 -0.2624  1.0290
 3874SOL    HW223082   0.840   1.570   6.912  0.1547 -0.7208  2.0439
 3875SOL     OW23083   1.972   3.214   7.779  0.0669  0.3605 -0.1120
 3875SOL    HW123084   1.882   3.185   7.798  0.9365 -3.1504 -1.2172
 3875SOL    HW223085   1.959   3.283   7.714  3.4992  1.3079  0.2416
 3876SOL     OW23086   0.353   2.492   0.295  0.1979 -0.2543 -0.4529
 3876SOL    HW123087   0.298   2.527   0.225 -1.7275 -0.8023  0.7807
 3876SOL    HW223088   0.359   2.400   0.268  1.1273  0.3461 -2.2969
 3877SOL     OW23089   4.148   2.617   6.778  0.3866 -0.4931 -1.1135
 3877SOL    HW123090   4.076   2.558   6.756 -1.7144  2.0045 -0.9019
 3877SOL    HW223091   4.096   2.695   6.759  1.6240  0.2047 -1.6034
 3878SOL     OW23092   2.678   3.652   7.977  0.6992  0.2906  0.3205
 3878SOL    HW123093   2.705   3.730   8.026  2.4891 -0.4970  0.5999
 3878SOL    HW223094   2.671   3.585   8.045  2.9862  1.2470  1.5383
 3879SOL     OW23095   0.577   1.001   8.702  0.2564  0.8561 -0.3542
 3879SOL    HW123096   0.552   0.926   8.648  0.7889  1.1742 -1.0406
 3879SOL    HW223097   0.580   0.957   8.787  1.8693  0.2147 -0.7291
 3880SOL     OW23098   2.549   1.404   2.733 -0.1907 -0.1001 -0.3185
 3880SOL    HW123099   2.568   1.318   2.769 -1.5538  0.7603  2.4373
 3880SOL    HW223100   2.456   1.412   2.754  0.1798 -0.3592  1.3913
 3881SOL     OW23101   0.386   2.484   2.295  0.6468 -0.4152 -0.4945
 3881SOL    HW123102   0.324   2.420   2.259  0.0029 -0.8045  1.3105
 3881SOL    HW223103   0.462   2.435   2.327  0.8226  0.4300  0.3876
 3882SOL     OW23104   2.700   1.800  16.219 -0.1812  0.0262  0.4261
 3882SOL    HW123105   2.724   1.875  16.274  0.1373  1.1680 -1.3010
 3882SOL    HW223106   2.714   1.839  16.133  0.3722  2.0387  1.4232
 3883SOL     OW23107   0.006   4.358   1.312  0.4292 -0.6488  0.3752
 3883SOL    HW123108   4.722   4.280   1.257 -2.1716 -0.4442  0.4805
 3883SOL    HW223109   0.098   4.376   1.290  0.4067 -2.2047 -1.0018
 3884SOL     OW23110   2.264   0.122   6.782 -0.0723 -0.3772  0.5915
 3884SOL    HW123111   2.208   0.044   6.794 -0.7439 -0.0745 -0.5960
 3884SOL    HW223112   2.336   0.089   6.728  0.4521  0.9170  0.4962
 3885SOL     OW23113   3.758   1.238   0.794  0.0828 -0.6072 -0.2782
 3885SOL    HW123114   3.693   1.289   0.745 -1.2130 -0.6256  1.4338
 3885SOL    HW223115   3.707   1.217   0.872 -1.3645  0.5967 -0.9109
 3886SOL     OW23116   2.662   1.963   1.086 -0.2788  0.4121 -0.4799
 3886SOL    HW123117   2.712   1.971   1.005  1.4056 -1.3523  0.3875
 3886SOL    HW223118   2.732   1.925   1.139 -0.6955 -0.5546 -0.6225
 3887SOL     OW23119   1.908   3.105   1.900 -0.3979 -0.5235 -0.5474
 3887SOL    HW123120   1.875   3.046   1.968  1.8078 -0.0718  0.8987
 3887SOL    HW223121   1.912   3.190   1.945  0.7176 -0.2250 -1.2038
 3888SOL     OW23122   2.535   3.005   2.516  0.2438 -0.2562  0.2101
 3888SOL    HW123123   2.615   2.955   2.498  0.0047  0.2029 -2.0523
 3888SOL    HW223124   2.484   2.951   2.576 -0.9083  0.8975  0.2754
 3889SOL     OW23125   1.162   0.887   7.888 -0.1298  0.1761  0.6505
 3889SOL    HW123126   1.223   0.913   7.957  0.6601 -0.8123  0.3231
 3889SOL    HW223127   1.202   0.814   7.841  3.3497  1.0069  2.2720
 3890SOL     OW23128   2.955   1.831   8.040 -0.0366  0.4174  0.4158
 3890SOL    HW123129   3.018   1.787   8.097  0.6495 -1.0184 -1.4239
 3890SOL    HW223130   2.932   1.762   7.977 -0.6541 -0.6025  1.7524
 3891SOL     OW23131   3.182   1.312   8.326 -0.3008  0.0717  0.0233
 3891SOL    HW123132   3.164   1.243   8.389  1.6849  0.5820  1.1482
 3891SOL    HW223133   3.248   1.274   8.268  0.0366 -0.3690  0.7035
 3892SOL     OW23134   1.330   0.681   4.782  0.1621 -0.1100 -0.4862
 3892SOL    HW123135   1.327   0.655   4.874  2.1209 -0.1581 -0.4352
 3892SOL    HW223136   1.237   0.700   4.772  0.2853  2.0031  2.5082
 3893SOL     OW23137   2.965   2.614   5.292 -0.3743 -0.0633 -0.1704
 3893SOL    HW123138   3.040   2.581   5.341  0.3592  0.0448 -1.2430
 3893SOL    HW223139   2.961   2.708   5.310 -0.8752  0.0575 -0.9025
 3894SOL     OW23140   3.242   1.291   9.604  0.1118 -0.1116  0.3052
 3894SOL    HW123141   3.311   1.350   9.573 -1.1613 -0.2330 -2.7185
 3894SOL    HW223142   3.288   1.207   9.608  1.0325  0.4694  1.7935
 3895SOL     OW23143   1.043   2.758   5.476  0.2812 -0.3853 -0.4785
 3895SOL    HW123144   1.128   2.793   5.502 -0.2599  0.1909  0.4915
 3895SOL    HW223145   1.074   2.672   5.448  2.5757  0.4763 -0.5832
 3896SOL     OW23146   2.962   2.672   6.881  0.1514 -0.4366  0.0602
 3896SOL    HW123147   2.963   2.653   6.974 -3.1601  1.2380  0.4411
 3896SOL    HW223148   3.008   2.595   6.847  1.1001  0.2923 -0.3064
 3897SOL     OW23149   0.986   2.291   5.235  0.5105  0.2220 -0.7234
 3897SOL    HW123150   0.994   2.238   5.156 -1.7214  0.5647 -1.1835
 3897SOL    HW223151   1.065   2.340   5.215  2.5037 -2.6212  0.2917
 3898SOL     OW23152   3.185   0.217   9.991  0.2053  0.2231  0.0249
 3898SOL    HW123153   3.138   0.208  10.074  0.5496 -1.4671  0.0335
 3898SOL    HW223154   3.269   0.174  10.007 -0.1936 -1.0522 -1.4017
 3899SOL     OW23155   4.118   2.643   4.079  0.5498  0.5199 -0.3992
 3899SOL    HW123156   4.199   2.621   4.125  2.8048  1.0317 -4.1864
 3899SOL    HW223157   4.073   2.573   4.127 -0.7736  1.6666  0.0479
 3900SOL     OW23158   3.973   4.276   8.562 -0.5105 -0.3453  0.0245
 3900SOL    HW123159   3.913   4.275   8.636 -1.5930  0.0322 -0.8426
 3900SOL    HW223160   3.956   4.187   8.531  1.8363 -1.5147  2.1719
 3901SOL     OW23161   3.939   2.763   3.898  0.0974  0.1708  0.4147
 3901SOL    HW123162   3.997   2.745   3.972 -0.9584  0.4624  1.3218
 3901SOL    HW223163   3.858   2.796   3.938 -0.2998  0.9788 -1.0430
 3902SOL     OW23164   4.339   3.005   3.658  0.3601  0.3215 -0.4995
 3902SOL    HW123165   4.383   2.952   3.725  0.8166 -1.0389 -1.8821
 3902SOL    HW223166   4.266   2.950   3.630 -0.7735  0.7832  1.5587
 3903SOL     OW23167   3.048   2.526  11.978 -0.0082  0.1203 -0.1425
 3903SOL    HW123168   2.997   2.583  11.921  0.5382  0.5447 -0.2032
 3903SOL    HW223169   3.054   2.449  11.921 -1.9537 -0.3092  0.2262
 3904SOL     OW23170   3.768   2.175   7.379 -0.1550  0.2754  0.3276
 3904SOL    HW123171   3.699   2.120   7.415  0.1785 -0.8598 -0.7367
 3904SOL    HW223172   3.767   2.243   7.446 -0.3434  1.1935 -0.6050
 3905SOL     OW23173   0.971   4.223   3.710  0.2279 -0.6655 -1.1039
 3905SOL    HW123174   0.880   4.253   3.721  0.4015 -0.9660  1.1409
 3905SOL    HW223175   0.949   4.134   3.736 -0.5097  0.1189  0.9579
 3906SOL     OW23176   2.255   3.093   4.862  0.6174 -0.0362 -0.3352
 3906SOL    HW123177   2.292   3.140   4.787  0.0818 -1.3239 -1.3979
 3906SOL    HW223178   2.257   3.004   4.829 -0.7484  0.5996 -2.1337
 3907SOL     OW23179   3.079   1.074   7.302 -0.3367 -0.3356 -0.0432
 3907SOL    HW123180   3.085   1.087   7.396 -0.7955 -0.7994  0.0488
 3907SOL    HW223181   3.011   1.008   7.288 -2.0836  1.3454  0.3822
 3908SOL     OW23182   1.206   0.359   2.633  0.1013 -0.2184  0.3429
 3908SOL    HW123183   1.227   0.267   2.618  3.4412 -0.0462  3.9877
 3908SOL    HW223184   1.289   0.403   2.616 -0.2451 -0.3038 -1.5720
 3909SOL     OW23185   1.906   4.533   9.709 -0.5055  0.1033 -0.2955
 3909SOL    HW123186   1.957   4.470   9.658 -2.2530 -2.1679  0.7761
 3909SOL    HW223187   1.914   4.614   9.659  1.2716 -0.3206 -0.7226
 3910SOL     OW23188   3.834   1.027   8.349  0.4944 -0.4892  0.6722
 3910SOL    HW123189   3.900   0.969   8.386  1.6438 -0.1580 -0.8797
 3910SOL    HW223190   3.824   1.091   8.419 -0.3698  1.0970 -0.9074
 3911SOL     OW23191   3.043   0.114   5.169  0.1760  0.1007  0.1295
 3911SOL    HW123192   3.127   0.094   5.209 -0.2724 -0.5923  0.7220
 3911SOL    HW223193   3.061   0.094   5.078  0.6582  2.0410 -0.2155
 3912SOL     OW23194   0.699   3.066   7.699  0.3820 -0.0426 -0.0984
 3912SOL    HW123195   0.781   3.026   7.672  0.4066  0.1680 -0.3362
 3912SOL    HW223196   0.632   3.018   7.650 -0.4141 -0.8233  1.7451
 3913SOL     OW23197   2.073   1.627   2.301  0.0773  0.4822  0.7407
 3913SOL    HW123198   2.066   1.710   2.348 -0.7830 -0.6042  2.5318
 3913SOL    HW223199   2.047   1.567   2.371 -1.7077 -0.5267 -0.7956
 3914SOL     OW23200   1.080   0.725   4.230 -0.0336 -0.5579 -0.8305
 3914SOL    HW123201   1.168   0.761   4.227 -0.3747  0.2526 -1.0241
 3914SOL    HW223202   1.032   0.801   4.262 -0.7268  0.0387 -3.2651
 3915SOL     OW23203   1.817   4.078   8.943  0.0804  0.1315  0.0357
 3915SOL    HW123204   1.741   4.021   8.934  0.4402 -0.4386  0.6042
 3915SOL    HW223205   1.788   4.118   9.025  1.8105  0.0327  0.6915
 3916SOL     OW23206   1.967   1.106   0.449 -0.3713 -0.5789  0.5128
 3916SOL    HW123207   1.978   1.015   0.420  0.1093 -0.3652  0.0247
 3916SOL    HW223208   2.014   1.110   0.532  1.1418  1.3849 -0.4283
 3917SOL     OW23209   2.069   2.318  13.709 -0.1770 -0.2026  0.1058
 3917SOL    HW123210   2.062   2.288  13.799 -2.1203  1.6162  0.5545
 3917SOL    HW223211   2.162   2.305  13.688 -1.0252 -3.4129 -1.6976
 3918SOL     OW23212   1.380   1.511  17.643 -0.2690  1.0700  0.3042
 3918SOL    HW123213   1.291   1.545  17.653  0.7637  3.6491  0.6770
 3918SOL    HW223214   1.430   1.578  17.597 -1.5961  1.9682  0.1800
 3919SOL     OW23215   4.379   4.390   9.707 -0.0718 -0.3487 -0.3681
 3919SOL    HW123216   4.415   4.441   9.634  2.2766 -0.3776  0.7754
 3919SOL    HW223217   4.392   4.302   9.673 -1.0703 -0.5298 -0.2992
 3920SOL     OW23218   3.000   0.969   5.874 -0.2428 -0.4495 -0.1256
 3920SOL    HW123219   2.980   0.915   5.798  2.2235 -0.3450 -0.8329
 3920SOL    HW223220   3.085   0.937   5.901 -0.9481 -0.8228  1.6584
 3921SOL     OW23221   3.733   1.580   5.709  0.1792 -0.6015  0.4947
 3921SOL    HW123222   3.677   1.524   5.655 -1.2210 -0.6983  2.0609
 3921SOL    HW223223   3.816   1.568   5.663  0.7645 -3.2497  2.1858
 3922SOL     OW23224   4.211   0.299  16.870  0.0541 -0.5985  0.2691
 3922SOL    HW123225   4.134   0.356  16.873 -0.0752 -0.6760 -1.3438
 3922SOL    HW223226   4.188   0.235  16.937  0.0634 -0.8178  0.0638
 3923SOL     OW23227   4.280   2.890  16.908  0.2164 -0.0345  0.0918
 3923SOL    HW123228   4.322   2.831  16.846  2.0387 -0.0798  1.3660
 3923SOL    HW223229   4.189   2.864  16.897  0.3252 -1.8915  3.4135
 3924SOL     OW23230   3.177   1.552   9.715 -0.3282  0.1192  0.0650
 3924SOL    HW123231   3.213   1.535   9.802  1.3441 -2.3832 -1.1575
 3924SOL    HW223232   3.154   1.466   9.680  2.1765 -0.0876 -1.0646
 3925SOL     OW23233   3.078   1.095   3.757  0.3529 -0.1680  0.2353
 3925SOL    HW123234   3.131   1.025   3.795  0.7935 -0.4581 -0.8943
 3925SOL    HW223235   3.150   1.147   3.721 -0.5774  1.9822  1.4646
 3926SOL     OW23236   2.746   1.207   1.874 -0.3076 -0.2018  0.2889
 3926SOL    HW123237   2.690   1.187   1.800 -2.2812  2.7298  0.9717
 3926SOL    HW223238   2.692   1.273   1.919 -2.6107 -0.7097 -1.7687
 3927SOL     OW23239   3.623   0.761  15.909  0.5684  0.3896  0.1839
 3927SOL    HW123240   3.594   0.778  15.819 -0.9485 -2.5462  0.1129
 3927SOL    HW223241   3.714   0.789  15.906  0.5059  1.0474  3.8862
 3928SOL     OW23242   4.483   2.330   5.200 -0.2428 -0.3622  0.2157
 3928SOL    HW123243   4.528   2.402   5.156 -1.9997  0.9650  0.6280
 3928SOL    HW223244   4.421   2.309   5.131  0.9543  0.3464 -1.0792
 3929SOL     OW23245   3.336   1.278   6.856 -1.2913  0.0870  0.2056
 3929SOL    HW123246   3.394   1.256   6.929 -0.3650  3.1681  0.3999
 3929SOL    HW223247   3.371   1.219   6.789  0.4440  1.1622  0.1566
 3930SOL     OW23248   0.622   0.931   0.940 -0.1505 -0.6263  0.0388
 3930SOL    HW123249   0.636   0.963   0.850 -0.3570 -1.4170 -0.2733
 3930SOL    HW223250   0.528   0.919   0.946 -0.3067 -0.4010 -1.8126
 3931SOL     OW23251   2.424   0.146   3.525 -0.1455 -1.0473 -0.3164
 3931SOL    HW123252   2.458   0.192   3.448 -0.3623 -2.4792 -1.2552
 3931SOL    HW223253   2.334   0.169   3.505  0.3604 -0.2847 -1.7508
 3932SOL     OW23254   4.574   3.134   2.465 -0.3746 -0.1521 -0.2175
 3932SOL    HW123255   4.641   3.090   2.412 -1.1187 -1.2402 -0.2572
 3932SOL    HW223256   4.547   3.212   2.417 -1.1149  0.4701  1.2118
 3933SOL     OW23257   0.316   1.089   4.003  0.3093  0.7428 -0.3042
 3933SOL    HW123258   0.263   1.092   4.083  0.6838  0.4661 -0.0506
 3933SOL    HW223259   0.290   1.176   3.973 -0.5879  1.3406  2.1465
 3934SOL     OW23260   1.185   4.200   8.800  0.0112 -0.4756 -0.1122
 3934SOL    HW123261   1.138   4.118   8.811 -0.0344 -0.1830  1.8600
 3934SOL    HW223262   1.142   4.240   8.724 -1.2657 -0.6169  0.5431
 3935SOL     OW23263   0.309   4.700   1.955 -0.1529 -0.0498  0.5300
 3935SOL    HW123264   0.236   4.697   1.893  0.9433  0.4022 -0.7868
 3935SOL    HW223265   0.347   0.055   1.917 -1.0296  0.0156 -0.1960
 3936SOL     OW23266   3.066   2.801   2.429 -0.1696 -0.3400  0.7769
 3936SOL    HW123267   2.991   2.761   2.386 -1.3971  2.3707  0.3765
 3936SOL    HW223268   3.127   2.803   2.355 -1.4468  1.2359 -0.2335
 3937SOL     OW23269   0.757   4.276   2.666 -0.2679 -0.0852 -0.9161
 3937SOL    HW123270   0.736   4.369   2.669  0.1874 -0.0297  0.7060
 3937SOL    HW223271   0.685   4.236   2.716  3.1380 -3.4171  1.2720
 3938SOL     OW23272   4.062   2.425  15.221  0.4721 -0.1774  0.6047
 3938SOL    HW123273   4.141   2.379  15.250  0.3917 -1.3026 -0.9702
 3938SOL    HW223274   4.075   2.516  15.248 -0.2870  0.5205 -1.4106
 3939SOL     OW23275   2.188   0.933   8.475 -0.4914 -0.0812 -0.1931
 3939SOL    HW123276   2.193   0.903   8.385  1.7149  0.9711 -0.4190
 3939SOL    HW223277   2.149   0.858   8.520  0.1508 -1.6786 -2.3283
 3940SOL     OW23278   0.578   0.550   8.445  0.2646  0.0746 -0.2377
 3940SOL    HW123279   0.643   0.482   8.461  1.5636  1.4181  0.1209
 3940SOL    HW223280   0.511   0.493   8.407  1.4563 -0.4071 -1.6218
 3941SOL     OW23281   2.184   0.190   3.445  0.3363 -0.7730  0.0795
 3941SOL    HW123282   2.103   0.169   3.491 -0.6476  0.2540 -1.1985
 3941SOL    HW223283   2.163   0.168   3.354  0.4864  0.1836 -0.1872
 3942SOL     OW23284   0.453   4.671   9.544  0.0799 -0.3961  0.0126
 3942SOL    HW123285   0.367   4.639   9.573 -0.6782  2.5121  0.9147
 3942SOL    HW223286   0.444   0.039   9.569 -1.1843 -1.0757  2.1063
 3943SOL     OW23287   1.635   3.712   5.630 -0.2203  0.4367 -0.4897
 3943SOL    HW123288   1.691   3.663   5.690  0.5015  1.4645 -0.3185
 3943SOL    HW223289   1.580   3.643   5.593 -0.7846  0.7834 -0.2889
 3944SOL     OW23290   4.589   2.072  10.951 -0.2486  0.4168  0.0613
 3944SOL    HW123291   4.677   2.034  10.955 -0.1322  0.4939 -2.2141
 3944SOL    HW223292   4.607   2.138  10.885  2.4152 -0.5493 -0.1754
 3945SOL     OW23293   2.114   2.049   6.474  0.2897 -0.3281  0.1047
 3945SOL    HW123294   2.086   2.044   6.566  0.6717  0.6273  0.2655
 3945SOL    HW223295   2.159   1.964   6.469 -0.7112 -0.9117  1.1092
 3946SOL     OW23296   3.215   1.430   3.595  0.1488  0.0823 -0.4652
 3946SOL    HW123297   3.244   1.413   3.506  1.5633 -1.1183  0.2247
 3946SOL    HW223298   3.254   1.349   3.628  0.6841  1.7582  3.1142
 3947SOL     OW23299   1.885   3.884  12.809  0.2439  0.7974 -0.3729
 3947SOL    HW123300   1.803   3.917  12.844 -0.3366 -1.8941  0.8014
 3947SOL    HW223301   1.848   3.851  12.727  0.1046  1.0970 -0.4288
 3948SOL     OW23302   2.569   1.440  17.618 -0.2493  0.4359  0.3220
 3948SOL    HW123303   2.490   1.494  17.614  1.0499  2.2678 -0.4357
 3948SOL    HW223304   2.638   1.502  17.593  0.8547 -0.4841  1.1096
 3949SOL     OW23305   3.061   2.001  11.990 -0.2387  0.0021 -0.3431
 3949SOL    HW123306   3.137   1.953  11.959 -0.7089 -0.3163 -0.9940
 3949SOL    HW223307   2.996   1.933  11.973 -0.7336  1.0005 -2.4826
 3950SOL     OW23308   0.161   1.836  11.939 -0.1527 -1.2050  0.4578
 3950SOL    HW123309   0.155   1.911  11.998  2.7842 -1.0563  0.5689
 3950SOL    HW223310   0.232   1.788  11.981 -0.2290 -1.2577  0.5266
 3951SOL     OW23311   0.394   4.413   4.307 -0.4423 -0.4741 -0.0936
 3951SOL    HW123312   0.354   4.326   4.312 -1.4289  0.0431  1.1431
 3951SOL    HW223313   0.466   4.402   4.369 -1.2462 -0.1962  0.8984
 3952SOL     OW23314   2.825   1.956   0.697  0.6829  0.1665 -0.6087
 3952SOL    HW123315   2.883   2.025   0.667  1.9646 -0.2268  0.9944
 3952SOL    HW223316   2.749   1.973   0.642  1.6495 -1.8866 -2.5999
 3953SOL     OW23317   3.763   1.671  16.007 -0.0926 -0.1239 -0.0896
 3953SOL    HW123318   3.767   1.597  16.067  2.0934 -0.0512 -0.1376
 3953SOL    HW223319   3.852   1.668  15.972  0.7097 -0.6283  1.9794
 3954SOL     OW23320   2.666   1.137   7.400 -0.2294 -0.1193  0.3452
 3954SOL    HW123321   2.640   1.219   7.443  0.2531  0.7010 -0.9258
 3954SOL    HW223322   2.760   1.148   7.410  0.5203 -3.2808 -3.1824
 3955SOL     OW23323   2.386   2.919   7.424  0.1749 -0.0326  0.2740
 3955SOL    HW123324   2.451   2.895   7.358  0.4094  0.6167  0.2628
 3955SOL    HW223325   2.356   2.998   7.378 -0.4668 -0.7710 -0.5871
 3956SOL     OW23326   0.398   0.373   6.360  0.5100  0.3943  0.5642
 3956SOL    HW123327   0.468   0.382   6.295  0.4589  1.1378  0.6188
 3956SOL    HW223328   0.436   0.338   6.441  0.0393 -1.1157  0.1476
 3957SOL     OW23329   2.737   0.874   6.535 -0.1666 -0.3487  0.2906
 3957SOL    HW123330   2.807   0.826   6.491 -0.3885 -1.2301  0.9090
 3957SOL    HW223331   2.687   0.910   6.461 -1.1348 -0.2538  0.9888
 3958SOL     OW23332   2.855   0.582   2.273 -0.0167  0.2476  0.4964
 3958SOL    HW123333   2.879   0.612   2.185  3.0101  1.4372  1.7361
 3958SOL    HW223334   2.768   0.543   2.263 -0.2725  0.9827 -0.1568
 3959SOL     OW23335   1.270   1.619   4.975 -0.3551 -0.1637 -0.1523
 3959SOL    HW123336   1.219   1.609   5.055  0.6115 -0.4686  0.4272
 3959SOL    HW223337   1.216   1.576   4.908 -0.5034  0.3664 -0.3746
 3960SOL     OW23338   4.096   3.338   6.543  0.4324  0.3454  0.1017
 3960SOL    HW123339   4.046   3.275   6.594 -0.4815  0.9069 -0.1027
 3960SOL    HW223340   4.055   3.423   6.561  2.7643  2.0894 -2.8086
 3961SOL     OW23341   3.358   1.129   5.413  0.0537 -0.6039  0.3793
 3961SOL    HW123342   3.363   1.215   5.372 -0.2528 -0.0195  1.5422
 3961SOL    HW223343   3.286   1.094   5.360 -1.5148 -0.7794  2.6118
 3962SOL     OW23344   4.062   0.852   8.409  0.2631 -0.2448 -0.3904
 3962SOL    HW123345   4.148   0.893   8.423 -1.3483  3.1185 -0.3665
 3962SOL    HW223346   4.063   0.795   8.485  1.0441  2.3124  1.5220
 3963SOL     OW23347   4.198   3.876   5.591  0.3436 -0.3208 -0.4558
 3963SOL    HW123348   4.238   3.877   5.504 -1.0406  0.5878 -1.0835
 3963SOL    HW223349   4.233   3.791   5.617  1.8143 -0.1626 -1.9151
 3964SOL     OW23350   2.808   1.384  15.092  0.3547 -1.0990 -0.0934
 3964SOL    HW123351   2.772   1.466  15.058 -1.9099 -1.9668  0.2363
 3964SOL    HW223352   2.841   1.342  15.012 -0.5383 -0.5685 -0.7353
 3965SOL     OW23353   1.384   4.120   3.092  0.6275 -0.2517 -0.5498
 3965SOL    HW123354   1.391   4.190   3.156 -0.4257 -1.6608  1.1292
 3965SOL    HW223355   1.291   4.121   3.067  0.7843 -1.5150 -1.1875
 3966SOL     OW23356   1.658   3.546   2.763 -0.1754  0.4705 -0.3453
 3966SOL    HW123357   1.674   3.492   2.841 -0.7114  2.4188  1.1190
 3966SOL    HW223358   1.700   3.629   2.789  0.9877 -0.5221  0.9570
 3967SOL     OW23359   1.628   3.958   5.534 -0.6849  0.5023  0.1793
 3967SOL    HW123360   1.719   3.940   5.510 -0.2347  2.5420  0.3398
 3967SOL    HW223361   1.623   3.889   5.600 -0.3954  0.6666  0.3716
 3968SOL     OW23362   1.442   0.413   7.417  0.8099  0.0652 -0.4304
 3968SOL    HW123363   1.404   0.491   7.379 -1.3169 -0.2965  0.9190
 3968SOL    HW223364   1.524   0.407   7.369  0.0475 -2.0525 -1.4995
 3969SOL     OW23365   4.405   1.153   2.619  0.3049 -0.0245  0.9483
 3969SOL    HW123366   4.426   1.119   2.706  2.1583 -0.6056  0.2767
 3969SOL    HW223367   4.328   1.104   2.591  0.3454 -0.4515  1.5779
 3970SOL     OW23368   3.763   0.158   6.750 -0.0522  0.2391  0.0123
 3970SOL    HW123369   3.717   0.180   6.831  1.6140 -0.6278  1.1923
 3970SOL    HW223370   3.831   0.096   6.779 -1.0837  0.2906  2.5168
 3971SOL     OW23371   3.053   0.708   6.673  0.3456 -0.0113 -0.2891
 3971SOL    HW123372   3.119   0.685   6.739 -2.3248 -2.9332  1.3289
 3971SOL    HW223373   3.015   0.622   6.660 -2.6842  1.3263 -0.2046
 3972SOL     OW23374   2.926   3.927  11.635  0.2747 -0.5357 -0.7071
 3972SOL    HW123375   3.021   3.925  11.625  0.4946  0.2837  1.2659
 3972SOL    HW223376   2.904   3.999  11.575 -0.2880  0.8820  1.2025
 3973SOL     OW23377   4.514   1.098   5.376  0.0681 -0.2625  0.4227
 3973SOL    HW123378   4.419   1.088   5.384 -0.1095  0.3420 -0.9401
 3973SOL    HW223379   4.541   1.022   5.325 -0.8784  0.1006 -0.6240
 3974SOL     OW23380   0.016   4.153   7.671  0.3346 -0.1286 -0.0069
 3974SOL    HW123381   0.010   4.234   7.620 -0.7706 -0.0927  0.1797
 3974SOL    HW223382   4.649   4.145   7.701  0.1798  0.2880 -0.3663
 3975SOL     OW23383   4.487   3.039   4.231  0.0506  0.0328  0.1367
 3975SOL    HW123384   4.394   3.023   4.216  0.2735 -0.5162 -0.6287
 3975SOL    HW223385   4.493   3.125   4.273 -1.1463 -1.0546  2.5257
 3976SOL     OW23386   3.110   4.256   7.051 -0.2024  0.0714  0.1319
 3976SOL    HW123387   3.191   4.304   7.035  0.0262 -0.2546  0.3111
 3976SOL    HW223388   3.149   4.176   7.086 -1.7816 -0.1020  1.4710
 3977SOL     OW23389   1.009   4.366   7.584  0.0877 -0.3049  0.2582
 3977SOL    HW123390   0.956   4.302   7.633  1.4578 -2.0360 -0.5388
 3977SOL    HW223391   1.067   4.322   7.522 -0.0560 -0.8362  0.4980
 3978SOL     OW23392   0.102   3.911   4.620 -0.1038 -0.3867 -0.1698
 3978SOL    HW123393   0.139   3.885   4.535  0.0191 -1.2584  0.1515
 3978SOL    HW223394   0.032   3.849   4.642 -0.0861 -0.6236 -0.7687
 3979SOL     OW23395   3.910   4.299   1.640  0.2394 -0.2306 -0.0746
 3979SOL    HW123396   3.872   4.376   1.683  3.0497  1.2824 -0.2986
 3979SOL    HW223397   3.997   4.298   1.680  0.8221 -0.3111 -1.3504
 3980SOL     OW23398   1.071   3.769   7.106  0.0384 -0.0971 -0.4548
 3980SOL    HW123399   1.116   3.732   7.030 -2.7717 -1.5537 -1.4276
 3980SOL    HW223400   0.989   3.797   7.065  0.4327 -0.8929 -1.7796
 3981SOL     OW23401   4.282   2.589   8.563 -1.0030  0.2839  0.0674
 3981SOL    HW123402   4.358   2.600   8.621 -0.9387 -2.4348  0.4665
 3981SOL    HW223403   4.315   2.615   8.477  0.2982 -0.2621  0.4063
 3982SOL     OW23404   2.810   2.009   4.971 -0.4750  0.1817 -0.0896
 3982SOL    HW123405   2.905   1.998   4.982 -0.2276 -0.2335 -2.6054
 3982SOL    HW223406   2.779   1.991   5.059  0.6539 -0.4299  0.1859
 3983SOL     OW23407   0.637   4.029   6.773  0.3599  0.3420 -0.1348
 3983SOL    HW123408   0.654   4.123   6.766 -2.0797  0.7141 -0.8243
 3983SOL    HW223409   0.706   4.007   6.836  0.3046  1.0746  0.1896
 3984SOL     OW23410   2.832   4.187  15.947 -0.2185 -0.1868 -0.1403
 3984SOL    HW123411   2.826   4.191  15.851  1.0835 -0.8020 -0.2564
 3984SOL    HW223412   2.925   4.168  15.959 -0.0644  1.2692  0.9389
 3985SOL     OW23413   0.164   0.718  15.172 -0.4131  0.4595 -0.5116
 3985SOL    HW123414   0.102   0.766  15.117 -0.2247  0.6558 -0.5527
 3985SOL    HW223415   0.236   0.756  15.121  0.2592 -0.1788 -0.0517
 3986SOL     OW23416   4.066   3.506   2.741 -0.2276  0.0176  0.6964
 3986SOL    HW123417   4.075   3.412   2.723  1.0195  0.5632 -1.5580
 3986SOL    HW223418   4.153   3.525   2.773 -0.1073  0.6487 -0.0046
 3987SOL     OW23419   0.970   2.335   8.215  0.1888  0.2241 -0.0298
 3987SOL    HW123420   1.006   2.326   8.127  1.4629  3.8498  0.1163
 3987SOL    HW223421   0.940   2.426   8.221 -0.7894  0.0112 -1.6438
 3988SOL     OW23422   2.968   1.211  16.298  0.6437  0.1617 -0.1133
 3988SOL    HW123423   2.888   1.176  16.337 -0.7727 -0.7725 -3.9385
 3988SOL    HW223424   2.987   1.275  16.367  1.3137 -1.3880  1.1525
 3989SOL     OW23425   2.292   4.257   2.533  0.0133 -0.0191  0.1554
 3989SOL    HW123426   2.228   4.261   2.604 -0.9894  1.4565 -0.8259
 3989SOL    HW223427   2.379   4.251   2.572  0.9559  2.2801 -1.5369
 3990SOL     OW23428   4.457   0.222  16.787 -0.3851 -0.1650 -0.0994
 3990SOL    HW123429   4.506   0.286  16.735 -1.0201 -1.7207 -2.6006
 3990SOL    HW223430   4.388   0.275  16.827  1.4591  1.0450  1.4510
 3991SOL     OW23431   4.066   2.721   5.525  0.9507 -0.6751 -0.4460
 3991SOL    HW123432   3.983   2.770   5.518 -0.4669 -3.2484 -1.5128
 3991SOL    HW223433   4.040   2.653   5.587  0.4953 -0.9995 -0.9948
 3992SOL     OW23434   4.569   2.071   4.467 -0.3315  0.5482 -0.0088
 3992SOL    HW123435   4.576   2.061   4.373 -0.7498 -2.7293  0.3165
 3992SOL    HW223436   4.478   2.043   4.479  0.2075  0.2222  3.4541
 3993SOL     OW23437   2.469   2.272   3.951 -0.4922  0.1940 -0.1905
 3993SOL    HW123438   2.440   2.346   3.897 -0.0837  1.2854  1.0716
 3993SOL    HW223439   2.397   2.210   3.944 -0.4213  0.2410 -1.4822
 3994SOL     OW23440   3.639   1.174   5.570 -0.3636  0.0811  0.2932
 3994SOL    HW123441   3.614   1.266   5.559  1.4500  0.5687  0.1575
 3994SOL    HW223442   3.552   1.137   5.583 -0.0645 -0.6852  0.1092
 3995SOL     OW23443   4.164   0.866   2.887  0.4371  0.1236 -0.0442
 3995SOL    HW123444   4.111   0.863   2.966  0.4654 -1.1583 -0.0754
 3995SOL    HW223445   4.171   0.962   2.884  1.4016  0.0774  1.1618
 3996SOL     OW23446   2.893   4.299   1.972  0.2009 -0.3730  0.6552
 3996SOL    HW123447   2.907   4.394   1.980  1.0800 -0.3741 -0.9290
 3996SOL    HW223448   2.981   4.262   1.972  0.0607 -0.7081  0.3062
 3997SOL     OW23449   3.347   2.385   4.447  0.6363 -0.4429  0.2127
 3997SOL    HW123450   3.366   2.379   4.541 -1.5553  0.4201  0.7068
 3997SOL    HW223451   3.426   2.348   4.408 -0.0876 -2.6927  0.9020
 3998SOL     OW23452   3.693   4.455   2.379  0.4544 -0.3894  0.0095
 3998SOL    HW123453   3.750   4.386   2.413 -0.9930 -0.3488  2.5568
 3998SOL    HW223454   3.659   4.410   2.302 -2.3832  2.8194 -0.6013
 3999SOL     OW23455   2.142   1.470   5.356  0.1936 -0.1657 -0.2863
 3999SOL    HW123456   2.226   1.513   5.377 -0.3503  0.7687 -0.0204
 3999SOL    HW223457   2.102   1.457   5.442  0.3519  1.8580  0.1137
 4000SOL     OW23458   2.732   2.532  11.442 -0.0757  0.2029 -0.3359
 4000SOL    HW123459   2.762   2.454  11.489 -0.8649  0.2254  0.2146
 4000SOL    HW223460   2.697   2.585  11.514 -1.4714  1.8480 -2.2173
 4001SOL     OW23461   4.270   3.455   1.667  0.0032  0.5546  0.4289
 4001SOL    HW123462   4.251   3.453   1.574  0.0395  1.0217  0.4107
 4001SOL    HW223463   4.284   3.362   1.686 -0.5166  0.1019 -1.4328
 4002SOL     OW23464   3.416   2.325   4.689 -0.6746  0.1755 -0.0110
 4002SOL    HW123465   3.462   2.245   4.664 -1.3198  0.4879 -2.1574
 4002SOL    HW223466   3.437   2.329   4.783 -1.9512 -0.7031  0.3176
 4003SOL     OW23467   3.229   0.481   5.913 -0.1220  0.3053 -0.4560
 4003SOL    HW123468   3.181   0.555   5.950  2.2319  2.3935 -1.5717
 4003SOL    HW223469   3.161   0.414   5.915  0.0922  0.2002  3.5851
 4004SOL     OW23470   3.419   3.738  15.321  0.5063 -0.2995  0.3556
 4004SOL    HW123471   3.422   3.802  15.250 -2.5817  1.0283  1.4225
 4004SOL    HW223472   3.461   3.664  15.276 -0.6769 -1.1611  0.6963
 4005SOL     OW23473   0.652   1.382  13.282  0.1235 -0.1039  0.2645
 4005SOL    HW123474   0.596   1.431  13.343 -0.4972 -0.0129 -0.3852
 4005SOL    HW223475   0.725   1.443  13.267 -0.8075  0.9160 -0.1106
 4006SOL     OW23476   3.230   0.822   8.474  0.2878  0.7680 -0.1897
 4006SOL    HW123477   3.313   0.828   8.426  1.1498 -1.4066  1.0042
 4006SOL    HW223478   3.249   0.749   8.533  0.0795  0.4409 -0.5287
 4007SOL     OW23479   3.480   4.618   9.532 -0.2381 -0.1212  0.4365
 4007SOL    HW123480   3.560   4.608   9.481  1.5228  0.2522  3.1280
 4007SOL    HW223481   3.506   4.598   9.622  2.9881  0.5737 -0.3412
 4008SOL     OW23482   0.913   4.571   4.653 -0.0091  0.4341 -0.2173
 4008SOL    HW123483   0.881   4.610   4.572 -0.4598  0.7489  0.1112
 4008SOL    HW223484   0.972   4.642   4.677  0.4479  0.1699 -0.5730
 4009SOL     OW23485   1.106   1.793  13.011 -0.3908 -0.4951 -0.3373
 4009SOL    HW123486   1.043   1.741  12.961 -2.5779  1.3731  0.4656
 4009SOL    HW223487   1.098   1.878  12.966  1.6803 -1.5782 -2.7525
 4010SOL     OW23488   3.400   0.747  15.272 -0.2758 -0.1189  0.0103
 4010SOL    HW123489   3.473   0.702  15.316 -0.4739 -0.9699 -0.5382
 4010SOL    HW223490   3.326   0.687  15.282 -0.5225  0.6370  3.0226
 4011SOL     OW23491   0.735   2.817   3.863 -0.4773  0.0069 -0.0784
 4011SOL    HW123492   0.771   2.899   3.896 -0.2444 -0.3735  0.6079
 4011SOL    HW223493   0.653   2.846   3.821 -0.5072  0.4837  0.3212
 4012SOL     OW23494   2.656   1.350  11.963  0.0583  0.1565  0.1996
 4012SOL    HW123495   2.720   1.328  12.030  2.2582  0.4116 -1.8382
 4012SOL    HW223496   2.571   1.328  12.002 -0.4542  3.4287  0.9087
 4013SOL     OW23497   2.616   4.634   2.076 -0.2897 -0.3082 -0.0228
 4013SOL    HW123498   2.627   4.659   2.167 -0.2825  2.4801 -0.8028
 4013SOL    HW223499   2.704   4.606   2.050  0.4048  1.3755  0.5119
 4014SOL     OW23500   4.540   3.575   5.987  0.1995 -0.1305  0.2957
 4014SOL    HW123501   4.572   3.500   5.937  0.8197  0.1645  0.2518
 4014SOL    HW223502   4.449   3.575   5.957  0.1596  0.3506  0.4165
 4015SOL     OW23503   3.789   1.203   3.745  0.6731  0.2324 -0.0379
 4015SOL    HW123504   3.818   1.287   3.780 -1.1427  1.3131 -1.1277
 4015SOL    HW223505   3.790   1.211   3.650  1.2140  0.4763 -0.0101
 4016SOL     OW23506   1.676   0.074  14.453 -0.3332  0.1535  0.0246
 4016SOL    HW123507   1.650   0.160  14.485 -1.8798  0.2618 -1.5259
 4016SOL    HW223508   1.745   0.100  14.391 -0.7323 -0.8679 -0.8471
 4017SOL     OW23509   0.964   0.330   3.969  0.2302 -0.6882  0.0371
 4017SOL    HW123510   1.015   0.261   4.010  1.5740 -0.7803 -1.7837
 4017SOL    HW223511   0.998   0.409   4.011  0.0449 -0.9544  0.6855
 4018SOL     OW23512   2.173   1.579   3.436 -0.0448 -0.2637  0.4277
 4018SOL    HW123513   2.091   1.618   3.407  0.6712  1.0713  0.2335
 4018SOL    HW223514   2.178   1.623   3.521  1.7887  0.9335 -0.2964
 4019SOL     OW23515   2.206   3.145   5.128  0.0027 -0.1387  0.1052
 4019SOL    HW123516   2.200   3.126   5.034 -2.3811 -1.8861  0.6201
 4019SOL    HW223517   2.287   3.104   5.156 -0.3979 -0.7562  0.3652
 4020SOL     OW23518   0.877   2.779   9.263  0.0016 -0.1210  0.0910
 4020SOL    HW123519   0.919   2.708   9.311 -1.7918  0.4881  2.5682
 4020SOL    HW223520   0.796   2.792   9.312  0.5218  0.6629  0.7303
 4021SOL     OW23521   2.159   3.507   8.570 -0.1525 -0.3607 -0.6341
 4021SOL    HW123522   2.162   3.578   8.506  0.4517 -0.8948 -1.2076
 4021SOL    HW223523   2.222   3.531   8.638 -1.3367  1.2528 -0.1116
 4022SOL     OW23524   0.275   1.193   2.034  0.4232 -0.0131 -0.2667
 4022SOL    HW123525   0.265   1.283   2.062  0.9286 -0.1685  0.4122
 4022SOL    HW223526   0.260   1.140   2.112 -1.6814  0.5402 -0.2985
 4023SOL     OW23527   2.760   2.748   8.945  0.2174 -0.0511  0.3826
 4023SOL    HW123528   2.806   2.814   8.997  2.5565 -1.5875  0.2428
 4023SOL    HW223529   2.806   2.670   8.974  0.0826 -0.7979 -1.4316
 4024SOL     OW23530   1.156   1.806   7.122 -0.3122  0.2148 -0.1864
 4024SOL    HW123531   1.190   1.768   7.203  0.9486 -0.7164 -1.1476
 4024SOL    HW223532   1.191   1.745   7.057 -1.6187 -0.2438 -0.4561
 4025SOL     OW23533   0.521   0.358   9.880 -0.4547  0.4213 -0.4800
 4025SOL    HW123534   0.502   0.264   9.880  0.5027  0.2345  0.0425
 4025SOL    HW223535   0.439   0.388   9.840 -0.6940  0.1608 -0.1892
 4026SOL     OW23536   0.774   4.080   9.215  0.5784 -0.5699  0.2166
 4026SOL    HW123537   0.732   4.086   9.130 -0.5288 -0.4792  0.7681
 4026SOL    HW223538   0.733   3.997   9.238  0.2439 -1.1716 -2.5331
 4027SOL     OW23539   1.306   4.641   2.959 -0.0186  0.3482  0.3861
 4027SOL    HW123540   1.384   4.624   2.907 -1.0303 -1.9713 -0.3653
 4027SOL    HW223541   1.277   4.551   2.971 -0.4817  0.6364  1.4854
 4028SOL     OW23542   2.237   0.547  10.468  0.2529  0.3290 -0.2348
 4028SOL    HW123543   2.145   0.563  10.448 -0.6848 -2.9101  1.5506
 4028SOL    HW223544   2.264   0.635  10.495  0.8884  0.0030  0.1966
 4029SOL     OW23545   0.077   3.748   7.279 -0.0454 -0.2915 -0.4431
 4029SOL    HW123546   0.063   3.773   7.188  1.9812 -0.4992 -0.8170
 4029SOL    HW223547   0.023   3.816   7.319 -0.3885 -0.1088 -1.2186
 4030SOL     OW23548   3.502   4.125  16.686  0.4818 -0.4684  0.6259
 4030SOL    HW123549   3.579   4.117  16.742  1.2364 -3.3552 -0.8324
 4030SOL    HW223550   3.468   4.207  16.723 -1.5572 -1.1370  0.2658
 4031SOL     OW23551   3.056   3.550   5.344 -0.0513 -0.4563  0.7457
 4031SOL    HW123552   3.064   3.584   5.255 -3.0849  1.1813  1.0908
 4031SOL    HW223553   2.989   3.608   5.379 -1.4114 -1.5820  0.0151
 4032SOL     OW23554   0.788   3.969  13.721  0.0872 -0.4186 -0.4552
 4032SOL    HW123555   0.850   4.039  13.702  0.4612 -0.3469  1.1110
 4032SOL    HW223556   0.833   3.886  13.702  1.9565  0.7320 -1.0258
 4033SOL     OW23557   2.068   4.621  12.422 -0.3516  0.1745  0.7913
 4033SOL    HW123558   2.015   4.563  12.477 -0.9211 -0.3790 -0.3515
 4033SOL    HW223559   2.073   4.695  12.482 -1.1871 -0.9352  2.2519
 4034SOL     OW23560   1.545   2.022   8.358  0.0954  0.2440 -0.5451
 4034SOL    HW123561   1.458   2.048   8.327  0.0869 -0.1535 -0.8501
 4034SOL    HW223562   1.599   2.087   8.314 -1.6791 -0.7751 -4.2469
 4035SOL     OW23563   3.401   0.458  10.090  0.5162 -0.3336  0.0864
 4035SOL    HW123564   3.356   0.532  10.048  1.5259  0.2322 -0.0025
 4035SOL    HW223565   3.469   0.436  10.026 -1.0331  1.2178 -2.0865
 4036SOL     OW23566   3.049   3.485   1.979  0.8850 -0.0076 -0.5454
 4036SOL    HW123567   3.060   3.534   1.897 -1.5587  1.3751 -0.0292
 4036SOL    HW223568   2.965   3.442   1.964  1.3400 -1.0829  0.0514
 4037SOL     OW23569   3.914   1.449   3.547  0.6873 -0.1899 -0.5701
 4037SOL    HW123570   3.951   1.375   3.500  1.7732  0.9018 -1.4562
 4037SOL    HW223571   3.871   1.488   3.470  0.3529 -0.3047 -0.4392
 4038SOL     OW23572   2.219   1.150   2.466  0.7350 -0.0615  0.1986
 4038SOL    HW123573   2.222   1.238   2.506  1.4182 -0.1923  0.4362
 4038SOL    HW223574   2.307   1.114   2.470  0.8820  0.0540 -1.8544
 4039SOL     OW23575   0.295   0.514   9.810  0.2684  0.2107 -0.4168
 4039SOL    HW123576   0.244   0.590   9.840 -0.2414 -0.4566  0.4033
 4039SOL    HW223577   0.222   0.465   9.773  0.7436 -1.0546  0.3187
 4040SOL     OW23578   2.441   0.262   6.236  0.2991 -0.2943  0.2891
 4040SOL    HW123579   2.525   0.272   6.192  0.9898  0.4038  1.7493
 4040SOL    HW223580   2.386   0.257   6.158  1.7122  1.0090 -0.7716
 4041SOL     OW23581   0.053   2.407   6.158 -0.0933  0.4592  0.4691
 4041SOL    HW123582   0.009   2.355   6.225  0.8034 -3.0663 -1.6530
 4041SOL    HW223583   0.145   2.401   6.182  0.3077  1.0827 -0.8771
 4042SOL     OW23584   3.689   1.373  10.237 -0.1601  0.3265 -0.1495
 4042SOL    HW123585   3.782   1.389  10.226 -0.2803  0.4019 -1.1085
 4042SOL    HW223586   3.651   1.395  10.151 -1.2671  0.1552  0.2873
 4043SOL     OW23587   0.172   3.001  15.013  0.0247 -0.3771 -0.0429
 4043SOL    HW123588   0.139   3.091  15.016 -1.1614 -0.7959 -0.4626
 4043SOL    HW223589   0.149   2.973  15.102  0.3135  0.8535  0.4207
 4044SOL     OW23590   3.903   0.151   0.361  0.2382  0.6513 -0.2127
 4044SOL    HW123591   3.988   0.184   0.389  0.3641  1.5784 -1.6655
 4044SOL    HW223592   3.873   0.100   0.436  1.7343 -1.1992 -0.8688
 4045SOL     OW23593   2.767   4.408   6.681 -0.1763 -0.4078  0.4243
 4045SOL    HW123594   2.838   4.363   6.636  1.2127  1.5717  0.6447
 4045SOL    HW223595   2.782   4.393   6.775 -0.2917 -1.1613  0.3188
 4046SOL     OW23596   4.641   1.909   6.769 -0.1158  0.7208  0.2707
 4046SOL    HW123597   4.546   1.895   6.769 -0.1716  1.0999 -1.5273
 4046SOL    HW223598   4.678   1.829   6.732 -1.7218  0.6507 -1.1840
 4047SOL     OW23599   0.807   0.329   8.036  0.3600 -0.2719  0.1960
 4047SOL    HW123600   0.753   0.377   7.974  0.1449 -0.7411  0.0184
 4047SOL    HW223601   0.892   0.323   7.992  1.4146  0.1902  2.1840
 4048SOL     OW23602   0.675   0.563  13.636 -0.2184 -0.0083 -0.1951
 4048SOL    HW123603   0.672   0.641  13.691 -0.6634 -0.4329  0.3923
 4048SOL    HW223604   0.631   0.498  13.692 -0.1181  0.8954  0.9332
 4049SOL     OW23605   2.766   2.335  10.711 -0.1386  0.3935  0.6126
 4049SOL    HW123606   2.701   2.385  10.663  1.3283  0.3187 -1.4576
 4049SOL    HW223607   2.722   2.331  10.796  3.1921  3.5975  2.5148
 4050SOL     OW23608   0.830   0.478   8.284 -0.1127 -0.6317 -0.2097
 4050SOL    HW123609   0.804   0.410   8.347 -1.5634  0.7013  0.6310
 4050SOL    HW223610   0.823   0.426   8.204 -1.3480 -1.5809  0.5105
 4051SOL     OW23611   1.665   2.858   1.748 -0.0042 -0.3810 -0.0389
 4051SOL    HW123612   1.751   2.818   1.758  0.7708  1.1475 -0.6168
 4051SOL    HW223613   1.687   2.933   1.693 -0.6149 -0.7750 -0.8034
 4052SOL     OW23614   2.678   2.163   0.140  0.0185 -0.0132 -0.2106
 4052SOL    HW123615   2.625   2.088   0.167 -0.7875  0.9423  0.8662
 4052SOL    HW223616   2.714   2.136   0.056  0.9496 -2.5389  0.9942
 4053SOL     OW23617   3.275   1.925   6.183  0.1983 -0.1739  0.2252
 4053SOL    HW123618   3.190   1.968   6.177 -0.4437 -1.5365 -0.2752
 4053SOL    HW223619   3.291   1.955   6.273 -0.3378 -2.8950  1.2085
 4054SOL     OW23620   3.058   1.404   6.706  0.1339  0.2784 -0.1199
 4054SOL    HW123621   2.975   1.442   6.680 -0.3244 -0.3148  0.4672
 4054SOL    HW223622   3.030   1.326   6.755  1.1271 -0.4717 -0.7432
 4055SOL     OW23623   2.830   1.419   9.104  0.1740  0.0049 -0.2506
 4055SOL    HW123624   2.775   1.421   9.026  1.7187  0.3730 -1.3147
 4055SOL    HW223625   2.800   1.492   9.159  0.5729 -0.4225  0.5325
 4056SOL     OW23626   1.750   1.354   1.884  0.3376 -0.4844 -0.1776
 4056SOL    HW123627   1.682   1.412   1.851  2.1660  1.7941  0.0381
 4056SOL    HW223628   1.710   1.354   1.971 -2.4570 -2.5258 -1.4602
 4057SOL     OW23629   0.190   2.554   8.270  0.3853 -0.3063 -0.4461
 4057SOL    HW123630   0.168   2.508   8.351  0.0180  0.0595 -0.3396
 4057SOL    HW223631   0.285   2.552   8.277  0.3616 -0.3128 -0.1401
 4058SOL     OW23632   1.854   3.710  16.633 -0.5853 -0.2154  0.0163
 4058SOL    HW123633   1.796   3.785  16.621 -1.2196 -0.4872  1.3690
 4058SOL    HW223634   1.795   3.640  16.661  0.5860 -1.3069 -0.2713
 4059SOL     OW23635   2.802   3.341  15.736 -0.0391 -0.3624  0.0053
 4059SOL    HW123636   2.757   3.423  15.757  0.2457  0.7715 -3.8876
 4059SOL    HW223637   2.881   3.376  15.695 -0.3828 -1.0516 -1.2350
 4060SOL     OW23638   1.130   3.856  10.650  0.1282  0.0037  0.6911
 4060SOL    HW123639   1.132   3.952  10.660  1.3817 -0.0658  1.1212
 4060SOL    HW223640   1.213   3.849  10.603 -1.1145 -0.2330 -1.4344
 4061SOL     OW23641   0.280   1.100   2.320  0.3367 -0.0533 -0.7878
 4061SOL    HW123642   0.264   1.031   2.384 -1.3906  2.4802  1.5118
 4061SOL    HW223643   0.375   1.088   2.313  0.3871 -1.1085  1.7432
 4062SOL     OW23644   1.520   0.845   5.711 -0.5331 -0.2333  0.0022
 4062SOL    HW123645   1.505   0.750   5.709 -1.8528 -0.0301  0.1604
 4062SOL    HW223646   1.453   0.865   5.777 -1.1522 -1.9998 -0.0739
 4063SOL     OW23647   0.173   1.223   4.221 -0.3129 -0.4448 -0.0279
 4063SOL    HW123648   0.121   1.160   4.270  0.3982 -1.7602 -0.9554
 4063SOL    HW223649   0.220   1.259   4.296 -2.9158  0.4947  1.1527
 4064SOL     OW23650   3.014   0.485   1.809  0.4081 -0.2180 -0.0184
 4064SOL    HW123651   3.072   0.457   1.880  0.6501  0.2891 -0.0180
 4064SOL    HW223652   2.956   0.410   1.796 -0.1320  0.3397 -0.7793
 4065SOL     OW23653   4.068   4.019  16.383 -0.1559  0.4069 -0.2179
 4065SOL    HW123654   4.010   3.970  16.324  0.4682 -1.1573  0.4544
 4065SOL    HW223655   4.003   4.042  16.450 -2.6700 -1.7275 -1.8915
 4066SOL     OW23656   3.051   1.073   9.485 -0.6391  0.5615  0.0573
 4066SOL    HW123657   3.102   1.130   9.543 -0.9827  0.6679  0.2540
 4066SOL    HW223658   3.088   0.992   9.519 -1.1596  0.9706  1.6004
 4067SOL     OW23659   1.602   3.646   1.734 -0.4128 -0.3502 -0.9248
 4067SOL    HW123660   1.554   3.713   1.686  2.2466  2.3417  0.1697
 4067SOL    HW223661   1.658   3.705   1.783  0.0483 -0.5955 -1.1543
 4068SOL     OW23662   0.169   2.715   6.752 -0.3907 -0.0584 -0.5613
 4068SOL    HW123663   0.236   2.647   6.741 -1.0671 -0.9686  1.0110
 4068SOL    HW223664   0.193   2.777   6.684  2.4058  0.7571  1.1888
 4069SOL     OW23665   0.177   4.048   7.354 -0.0218  0.1637 -0.5010
 4069SOL    HW123666   0.092   4.018   7.386 -0.1557  1.0148 -0.0429
 4069SOL    HW223667   0.214   4.091   7.431 -0.8011 -0.9075  0.4730
 4070SOL     OW23668   2.392   3.559   0.894 -0.5813 -0.6314  0.6090
 4070SOL    HW123669   2.334   3.490   0.864 -0.9582  0.0506 -0.2334
 4070SOL    HW223670   2.347   3.590   0.972  3.2896  0.0654  2.5847
 4071SOL     OW23671   3.915   2.783  15.024 -0.3688  0.2812  0.0830
 4071SOL    HW123672   3.886   2.696  14.998  1.3842 -0.5709  0.9725
 4071SOL    HW223673   3.830   2.823  15.041 -0.0657  1.3018 -0.8052
 4072SOL     OW23674   0.869   3.655   6.168  0.0572  0.6904  0.2834
 4072SOL    HW123675   0.910   3.570   6.153 -0.8061  0.2161  0.6016
 4072SOL    HW223676   0.917   3.705   6.103  1.5523  0.8778  1.5411
 4073SOL     OW23677   0.175   1.642   1.882  0.4024 -0.1460  0.6952
 4073SOL    HW123678   0.223   1.667   1.960  0.8705  0.9468  0.0603
 4073SOL    HW223679   0.222   1.562   1.857 -0.8061 -0.5646 -0.2578
 4074SOL     OW23680   1.782   3.886   2.041  0.4218  0.6815  0.5492
 4074SOL    HW123681   1.795   3.873   1.947  0.8761  1.5513  0.4920
 4074SOL    HW223682   1.791   3.981   2.046 -3.1860  1.2493 -4.2558
 4075SOL     OW23683   1.533   2.551  13.077  0.3080  0.0596 -0.4785
 4075SOL    HW123684   1.584   2.502  13.142  2.4786 -1.9810 -3.7134
 4075SOL    HW223685   1.485   2.617  13.129 -0.8058 -0.6275 -0.6431
 4076SOL     OW23686   4.127   1.720   5.616 -0.5298  0.2334 -0.2825
 4076SOL    HW123687   4.053   1.754   5.567 -1.2415 -2.2691 -0.9496
 4076SOL    HW223688   4.143   1.803   5.660  1.5041 -1.2374  1.7487
 4077SOL     OW23689   0.185   3.559  13.657 -0.5103  0.2251  0.1334
 4077SOL    HW123690   0.170   3.651  13.636 -0.6434 -0.8034 -4.3341
 4077SOL    HW223691   0.268   3.529  13.620 -0.9463 -1.6730  0.6593
 4078SOL     OW23692   1.223   1.744  17.045  0.3949  0.0147 -0.1426
 4078SOL    HW123693   1.202   1.834  17.072 -0.9921 -0.5777  0.7534
 4078SOL    HW223694   1.135   1.706  17.044 -0.1836  1.3948 -1.8778
 4079SOL     OW23695   0.113   0.960   3.303  0.0198 -0.2884  0.4738
 4079SOL    HW123696   0.205   0.960   3.330 -0.1187  0.7248  0.9654
 4079SOL    HW223697   0.072   1.016   3.368 -0.7114  1.8947 -1.8842
 4080SOL     OW23698   4.581   1.759   3.500 -0.3441  0.3116 -0.1362
 4080SOL    HW123699   4.528   1.689   3.539 -0.3208  0.5038  0.2402
 4080SOL    HW223700   4.517   1.830   3.494  0.7671  1.4869  1.7759
 4081SOL     OW23701   0.166   3.820  14.878 -0.2094 -0.5789 -0.4669
 4081SOL    HW123702   0.215   3.816  14.796  2.6422 -3.1584  1.3872
 4081SOL    HW223703   0.095   3.876  14.847 -2.2122 -1.3485  2.7759
 4082SOL     OW23704   1.738   1.737  11.814 -0.2367  0.0193  0.0907
 4082SOL    HW123705   1.793   1.788  11.873  0.3075 -0.2406 -0.1897
 4082SOL    HW223706   1.653   1.781  11.813 -0.3188 -0.1357  0.1848
 4083SOL     OW23707   4.722   3.369   1.724  0.2864  0.7101  0.0471
 4083SOL    HW123708   0.034   3.417   1.649  0.8823  0.4231  0.1435
 4083SOL    HW223709   0.015   3.277   1.706 -0.2570  0.6516 -0.1735
 4084SOL     OW23710   2.607   2.880   1.660 -0.2946 -0.2036  0.1717
 4084SOL    HW123711   2.548   2.815   1.699 -0.3617  0.7317  1.6357
 4084SOL    HW223712   2.584   2.952   1.720 -1.1402  0.2582 -0.6963
 4085SOL     OW23713   0.139   3.023  17.232  0.3079  0.0517 -0.1003
 4085SOL    HW123714   0.065   3.079  17.256 -0.8392 -1.3007 -0.4432
 4085SOL    HW223715   0.193   3.037  17.310  1.7349 -2.1529 -0.6818
 4086SOL     OW23716   1.581   1.118   3.573  0.0029 -0.0715 -0.3096
 4086SOL    HW123717   1.510   1.135   3.511 -1.8354  1.3644  2.1668
 4086SOL    HW223718   1.641   1.072   3.516  2.5480  1.6744  0.9797
 4087SOL     OW23719   3.774   0.575   1.230 -0.3244 -0.7009  0.3984
 4087SOL    HW123720   3.861   0.580   1.271 -0.1998  0.8135 -0.0391
 4087SOL    HW223721   3.793   0.544   1.142  1.3146 -2.0661  1.2440
 4088SOL     OW23722   1.751   1.907   4.567  0.2687 -0.2582 -0.3326
 4088SOL    HW123723   1.690   1.902   4.641  0.0532  0.0995 -0.4863
 4088SOL    HW223724   1.688   1.892   4.497  0.3751  0.1939 -0.5288
 4089SOL     OW23725   4.086   2.469   8.833 -0.3292  0.3319  0.8487
 4089SOL    HW123726   4.182   2.468   8.833 -0.3354  0.1554 -0.3738
 4089SOL    HW223727   4.080   2.445   8.926  0.4533 -0.5282  0.6742
 4090SOL     OW23728   2.817   4.417  11.704  0.5611  0.0234 -0.3065
 4090SOL    HW123729   2.886   4.481  11.722  0.1771  0.1241  0.7629
 4090SOL    HW223730   2.783   4.446  11.619  0.5145  0.3488 -0.1773
 4091SOL     OW23731   2.201   4.323  13.528 -0.2372 -0.3489  0.3007
 4091SOL    HW123732   2.115   4.333  13.487 -0.4109 -0.1094  0.7202
 4091SOL    HW223733   2.170   4.344  13.616  0.7607  1.4404  0.2376
 4092SOL     OW23734   0.292   1.520  15.549  0.3551  0.2686 -0.4474
 4092SOL    HW123735   0.384   1.535  15.572 -0.0275  1.5943  0.2129
 4092SOL    HW223736   0.275   1.470  15.629 -0.2391 -1.0607 -1.4018
 4093SOL     OW23737   3.931   3.534   0.377 -0.0942 -0.5138  0.5917
 4093SOL    HW123738   3.887   3.579   0.448 -0.5521  1.3674 -0.8865
 4093SOL    HW223739   4.015   3.580   0.377 -1.4546  1.9333  1.1444
 4094SOL     OW23740   2.314   1.337   3.751 -0.3753 -0.1657 -0.1678
 4094SOL    HW123741   2.250   1.265   3.755 -0.5083 -0.0373 -0.0021
 4094SOL    HW223742   2.348   1.338   3.840  0.6751 -2.4896 -0.5425
 4095SOL     OW23743   1.241   1.290   8.625 -0.0769 -0.1165  0.7011
 4095SOL    HW123744   1.297   1.288   8.703  0.8500  3.2680  0.1069
 4095SOL    HW223745   1.308   1.323   8.566 -0.2243  1.2232  1.2750
 4096SOL     OW23746   1.519   0.597   9.978 -0.2523 -0.1368  0.7510
 4096SOL    HW123747   1.540   0.687  10.004  1.2922 -0.2773 -0.0194
 4096SOL    HW223748   1.607   0.561   9.974  1.8639  4.9464  0.9469
 4097SOL     OW23749   0.887   1.084   7.100 -0.1141 -0.1376 -0.7535
 4097SOL    HW123750   0.934   1.166   7.119 -0.8751  0.4767 -1.5275
 4097SOL    HW223751   0.816   1.083   7.164 -2.3058  1.5039 -3.1762
 4098SOL     OW23752   0.644   3.198   3.325 -0.3407 -0.3992  0.5261
 4098SOL    HW123753   0.607   3.146   3.254 -0.1712  0.2115 -0.0126
 4098SOL    HW223754   0.722   3.143   3.322  0.9339  1.3557  1.0338
 4099SOL     OW23755   0.063   1.172  17.036  0.1872  0.1514  0.2818
 4099SOL    HW123756   0.093   1.207  16.952  0.2737  1.2058  0.7468
 4099SOL    HW223757   0.036   1.253  17.079  0.1864 -0.5796  1.6430
 4100SOL     OW23758   1.381   1.473   0.225 -0.8270 -0.0121  0.4685
 4100SOL    HW123759   1.408   1.432   0.143  2.2284  1.0155  0.9377
 4100SOL    HW223760   1.405   1.402   0.285  0.6748 -0.4565 -0.6370
 4101SOL     OW23761   3.999   1.903   2.240 -0.6100 -0.3146  0.1056
 4101SOL    HW123762   3.933   1.967   2.213  0.6231  1.2647  0.8821
 4101SOL    HW223763   3.964   1.816   2.219 -1.7154 -0.5056  2.8115
 4102SOL     OW23764   2.485   3.761  10.674 -0.3901 -0.3849 -0.3355
 4102SOL    HW123765   2.476   3.803  10.760  0.6500  0.7843 -0.8100
 4102SOL    HW223766   2.465   3.828  10.608 -0.8212  0.7567  0.9420
 4103SOL     OW23767   3.507   4.334   2.213  0.3765 -0.4055  0.1821
 4103SOL    HW123768   3.528   4.303   2.125 -1.1153  0.5574 -0.5149
 4103SOL    HW223769   3.505   4.254   2.265 -0.0914 -0.6048 -0.1428
 4104SOL     OW23770   3.352   1.231   5.694  0.2439 -0.0011 -0.0838
 4104SOL    HW123771   3.260   1.217   5.716 -0.1208  3.3026  0.5997
 4104SOL    HW223772   3.340   1.215   5.601  1.3148 -0.4668 -0.1359
 4105SOL     OW23773   0.659   0.546   9.310 -0.5007 -0.1961 -0.4589
 4105SOL    HW123774   0.567   0.529   9.326 -0.3921  0.2251  0.5896
 4105SOL    HW223775   0.694   0.522   9.396  0.0011 -0.7847 -0.8208
 4106SOL     OW23776   0.596   2.145  11.535  0.3396 -0.0759 -0.0236
 4106SOL    HW123777   0.534   2.078  11.508 -0.0920  0.2506  0.1604
 4106SOL    HW223778   0.667   2.104  11.585  1.5116  1.7579 -0.1618
 4107SOL     OW23779   1.613   0.285   2.630 -0.1185 -0.1360 -0.3348
 4107SOL    HW123780   1.677   0.254   2.566 -2.0932 -1.2241 -1.7615
 4107SOL    HW223781   1.664   0.252   2.705 -0.8394 -1.0130 -0.2249
 4108SOL     OW23782   4.080   3.893   2.280  0.0597  0.2175  0.1685
 4108SOL    HW123783   4.089   3.805   2.243 -0.3668  0.6681 -1.0011
 4108SOL    HW223784   4.052   3.867   2.368  0.2315 -0.2794  0.0755
 4109SOL     OW23785   4.507   4.628  15.550 -0.3225 -0.4076 -0.5291
 4109SOL    HW123786   4.486   4.692  15.483 -1.8517 -1.7076 -1.2989
 4109SOL    HW223787   4.455   4.549  15.535 -3.6752  1.9278 -1.2580
 4110SOL     OW23788   4.663   1.225   3.309 -0.3000  0.1132  0.4598
 4110SOL    HW123789   0.021   1.259   3.347 -0.0986 -2.0765  1.9835
 4110SOL    HW223790   4.628   1.305   3.270 -0.8702 -0.0837  0.5755
 4111SOL     OW23791   3.727   3.284   3.902 -0.1732  0.5766  0.3411
 4111SOL    HW123792   3.757   3.267   3.992  1.7094  0.0827 -0.3741
 4111SOL    HW223793   3.736   3.379   3.897  0.6690  0.4971  0.2908
 4112SOL     OW23794   1.399   1.547   8.452 -0.0398 -0.1933 -0.2913
 4112SOL    HW123795   1.357   1.562   8.367 -1.0161  0.0178  0.2274
 4112SOL    HW223796   1.485   1.578   8.424 -0.1991 -0.7427 -1.4201
 4113SOL     OW23797   2.143   1.108   2.791 -0.0038  0.5470  0.2326
 4113SOL    HW123798   2.151   1.143   2.703 -0.9461 -1.9000 -0.8123
 4113SOL    HW223799   2.105   1.023   2.769  1.0400  0.2411 -0.3387
 4114SOL     OW23800   3.400   3.499  16.384 -0.2905 -0.0898  0.3079
 4114SOL    HW123801   3.371   3.569  16.443  1.2869 -1.0874  2.3036
 4114SOL    HW223802   3.316   3.478  16.345  0.7515 -0.6445 -1.6514
 4115SOL     OW23803   2.242   2.629   6.518  0.1005 -0.1026  0.8582
 4115SOL    HW123804   2.324   2.677   6.529  0.5928 -0.8050  0.1281
 4115SOL    HW223805   2.245   2.583   6.602  0.8019 -0.3058  0.7214
 4116SOL     OW23806   3.109   1.456  16.938 -0.4030  0.7340  0.1274
 4116SOL    HW123807   3.106   1.360  16.938  1.4869  0.6737 -1.8218
 4116SOL    HW223808   3.198   1.472  16.907  0.4005 -0.8413  1.5892
 4117SOL     OW23809   4.551   2.239  15.639 -0.2429  1.1281  0.3829
 4117SOL    HW123810   4.506   2.253  15.556 -0.1712  0.5240  0.2411
 4117SOL    HW223811   4.626   2.187  15.610 -0.2872  0.2489  1.8266
 4118SOL     OW23812   0.640   0.176  14.680 -0.0579 -0.5638  0.3797
 4118SOL    HW123813   0.655   0.257  14.729 -3.0092 -2.1129  3.8548
 4118SOL    HW223814   0.635   0.121  14.758 -0.8153 -0.5932  0.3061
 4119SOL     OW23815   3.452   3.358   1.138 -0.2654  0.4855  0.1329
 4119SOL    HW123816   3.478   3.298   1.208  2.4680  0.0628 -1.2614
 4119SOL    HW223817   3.489   3.306   1.066 -1.4841 -1.0030  0.5896
 4120SOL     OW23818   1.786   2.123  15.613 -0.0481 -0.1094 -0.4829
 4120SOL    HW123819   1.705   2.136  15.663 -0.6974  1.1019 -1.8606
 4120SOL    HW223820   1.808   2.030  15.618  0.8662  0.1081 -0.5092
 4121SOL     OW23821   0.960   1.883   3.251  0.3958  0.0897  0.8840
 4121SOL    HW123822   1.015   1.806   3.238  0.1900  0.1008  0.0007
 4121SOL    HW223823   0.948   1.919   3.163 -0.0184 -0.8803  0.5442
 4122SOL     OW23824   1.699   3.971   8.321 -0.1156 -0.4994  0.2172
 4122SOL    HW123825   1.662   3.894   8.277 -0.7533 -0.4009  0.5775
 4122SOL    HW223826   1.729   3.926   8.400 -1.1145 -1.3175  0.1404
 4123SOL     OW23827   4.100   0.817   6.309  0.2323 -0.8916  0.3238
 4123SOL    HW123828   4.156   0.859   6.374  0.5475  0.5304 -0.8678
 4123SOL    HW223829   4.096   0.727   6.343 -1.7217 -1.0066 -0.2042
 4124SOL     OW23830   4.093   1.667   4.822  0.3039  0.0842  0.2869
 4124SOL    HW123831   4.172   1.641   4.870 -0.7494 -0.8912  1.5139
 4124SOL    HW223832   4.102   1.757   4.791 -0.7793 -0.6662 -2.1794
 4125SOL     OW23833   0.208   3.291   6.871 -0.6844 -0.2757 -0.0430
 4125SOL    HW123834   0.271   3.238   6.822 -1.4836 -0.0663 -1.2915
 4125SOL    HW223835   0.192   3.358   6.804  0.8587  1.9506  1.8053
 4126SOL     OW23836   1.054   4.455   9.338  0.1737  0.2756  0.4504
 4126SOL    HW123837   0.970   4.414   9.317  2.1211 -2.6192 -1.7642
 4126SOL    HW223838   1.037   4.460   9.432 -1.0725  2.6280  0.0846
 4127SOL     OW23839   0.194   1.721   5.319 -0.0633  0.1032  0.8529
 4127SOL    HW123840   0.130   1.680   5.260  1.3745  0.3179 -0.8723
 4127SOL    HW223841   0.135   1.776   5.370 -0.3734  1.5493 -1.0383
 4128SOL     OW23842   4.238   4.158   7.127 -0.1471  1.4470 -0.3410
 4128SOL    HW123843   4.258   4.207   7.206 -0.8416  0.2356  0.5953
 4128SOL    HW223844   4.326   4.126   7.108 -0.6129  0.6470 -1.1848
 4129SOL     OW23845   4.396   0.065   5.132 -0.2119 -0.0025 -0.0059
 4129SOL    HW123846   4.467   0.014   5.170 -0.0625 -1.6408 -2.4578
 4129SOL    HW223847   4.447   0.074   5.051 -0.9845  1.0901 -0.3776
 4130SOL     OW23848   1.469   3.808   1.585 -0.0305 -0.4729 -0.5162
 4130SOL    HW123849   1.420   3.887   1.609  0.8705  0.3418 -1.3933
 4130SOL    HW223850   1.477   3.822   1.491 -0.4594 -2.9863 -0.9464
 4131SOL     OW23851   4.208   2.055   1.703 -0.0305 -0.1668  0.6525
 4131SOL    HW123852   4.172   2.006   1.777  1.5344  0.4946  1.8423
 4131SOL    HW223853   4.149   2.021   1.636  0.7185 -0.2095  0.0121
 4132SOL     OW23854   3.863   2.143  16.216 -0.4402 -0.8316  0.5825
 4132SOL    HW123855   3.795   2.076  16.220 -1.7608  0.2600 -3.0037
 4132SOL    HW223856   3.829   2.216  16.268  1.2145 -0.4691  1.1732
 4133SOL     OW23857   2.803   2.270   7.170  0.1907 -0.4484 -0.0276
 4133SOL    HW123858   2.808   2.242   7.261  1.6508  1.4241  0.4598
 4133SOL    HW223859   2.894   2.286   7.146 -0.0960 -1.1333 -1.5714
 4134SOL     OW23860   3.069   0.553   7.302  0.1920 -0.5117  0.4366
 4134SOL    HW123861   3.113   0.473   7.273  0.8095  0.1870 -0.5566
 4134SOL    HW223862   3.034   0.518   7.384 -2.6795 -1.0142 -1.0279
 4135SOL     OW23863   0.685   3.881   3.970  0.6081 -0.1789  0.6524
 4135SOL    HW123864   0.741   3.904   3.896  2.9528 -2.5330  1.7005
 4135SOL    HW223865   0.759   3.862   4.028  0.7558  0.8198  0.8004
 4136SOL     OW23866   0.956   1.019   0.228  0.1844  0.8504  0.4479
 4136SOL    HW123867   0.943   1.001   0.321  1.3269 -0.9465  0.2502
 4136SOL    HW223868   1.031   1.078   0.223  1.8841 -1.3320  0.5382
 4137SOL     OW23869   4.223   3.073   8.538  0.2386 -0.5453  0.3352
 4137SOL    HW123870   4.250   3.082   8.446 -1.1385 -1.0433 -0.1175
 4137SOL    HW223871   4.174   2.993   8.523 -0.4342  0.0061 -0.4257
 4138SOL     OW23872   1.239   2.025  17.051  0.0620 -0.3199 -0.4496
 4138SOL    HW123873   1.162   2.041  16.996 -0.3646 -1.7237 -0.2564
 4138SOL    HW223874   1.279   2.112  17.047 -2.5688  0.9627  0.6540
 4139SOL     OW23875   1.582   3.317   1.891  0.0597  0.8961  0.4045
 4139SOL    HW123876   1.652   3.263   1.925  1.2022  1.6777 -0.7112
 4139SOL    HW223877   1.520   3.260   1.845 -0.3068  0.0235  1.9933
 4140SOL     OW23878   2.663   0.620  16.987 -0.0172 -0.4459 -0.1067
 4140SOL    HW123879   2.650   0.526  16.980  3.3299 -0.8797 -0.5117
 4140SOL    HW223880   2.582   0.644  16.943 -0.7349 -2.2591  0.2621
 4141SOL     OW23881   4.590   2.009   4.856  0.6574  0.6649 -0.3977
 4141SOL    HW123882   4.537   2.080   4.819  1.6527  1.4477 -0.3319
 4141SOL    HW223883   4.602   2.043   4.944 -2.3281  0.1446  0.1912
 4142SOL     OW23884   3.971   4.168   3.113 -0.4018 -0.1218 -0.2950
 4142SOL    HW123885   4.062   4.156   3.088  0.2339  0.5980  1.7098
 4142SOL    HW223886   3.957   4.260   3.092  1.1718 -0.2593 -1.9151
 4143SOL     OW23887   1.799   1.885   6.360  0.0777  0.7476 -0.4810
 4143SOL    HW123888   1.748   1.934   6.295 -3.2208 -1.9449  0.0226
 4143SOL    HW223889   1.824   1.950   6.425  1.9339 -0.5511  0.1106
 4144SOL     OW23890   0.783   2.430   4.290 -0.0573  0.0363 -0.1273
 4144SOL    HW123891   0.718   2.364   4.265 -0.2605  0.0595  0.3378
 4144SOL    HW223892   0.758   2.498   4.228  1.0314  0.5024 -0.0520
 4145SOL     OW23893   0.632   4.014   2.937  0.6849 -0.1086  0.0368
 4145SOL    HW123894   0.633   3.945   2.871 -3.9101  0.7696 -0.9548
 4145SOL    HW223895   0.539   4.032   2.922  0.5774 -0.7210 -0.0351
 4146SOL     OW23896   0.241   4.079  12.573 -0.5357  0.1822  0.7941
 4146SOL    HW123897   0.232   4.168  12.540  1.2230  0.6424  1.5322
 4146SOL    HW223898   0.194   4.024  12.511 -0.4070  1.1397 -0.1388
 4147SOL     OW23899   1.169   0.250  13.692  0.0994 -0.1993 -0.0560
 4147SOL    HW123900   1.135   0.219  13.609 -0.6696 -1.2672  0.6652
 4147SOL    HW223901   1.122   0.204  13.761  2.1979  0.2725  1.6871
 4148SOL     OW23902   3.891   3.724   7.952 -0.7755  0.2080 -0.4473
 4148SOL    HW123903   3.905   3.631   7.931  1.6102  0.1686  1.3047
 4148SOL    HW223904   3.836   3.727   8.031 -0.9501  0.0439 -0.5625
 4149SOL     OW23905   4.533   4.087   7.970  0.0580 -0.8214 -0.5341
 4149SOL    HW123906   4.550   4.010   7.916  2.1343 -0.3621 -0.5688
 4149SOL    HW223907   4.440   4.103   7.960  0.1978  0.1727 -0.2981
 4150SOL     OW23908   4.447   4.548  13.723 -0.3532 -0.4574  0.3918
 4150SOL    HW123909   4.500   4.597  13.786  1.3754 -0.8412 -0.7570
 4150SOL    HW223910   4.379   4.608  13.693  0.5053  0.0521 -0.5543
 4151SOL     OW23911   1.655   1.224  17.187  0.6987 -0.4506 -0.3335
 4151SOL    HW123912   1.690   1.178  17.263  0.3858 -0.1176  0.0144
 4151SOL    HW223913   1.628   1.298  17.242 -0.9933 -1.8808  0.7856
 4152SOL     OW23914   1.026   4.484   3.884  0.1681 -0.1825 -0.1267
 4152SOL    HW123915   1.001   4.541   3.811 -1.2101 -1.3876 -0.5963
 4152SOL    HW223916   1.035   4.403   3.832 -0.9907  1.2286 -2.5464
 4153SOL     OW23917   3.564   4.133   2.369  0.5757  0.2977  0.3968
 4153SOL    HW123918   3.564   4.051   2.320  3.5394  1.3683 -1.3821
 4153SOL    HW223919   3.635   4.105   2.427  0.6246  0.4911  0.4320
 4154SOL     OW23920   4.397   1.107   7.441 -0.8167  0.0400 -0.3881
 4154SOL    HW123921   4.320   1.052   7.450 -0.4702 -0.8243 -2.7399
 4154SOL    HW223922   4.363   1.195   7.425 -0.8150  0.0469 -0.3541
 4155SOL     OW23923   3.615   0.164   9.723 -0.4396 -0.4583  0.4656
 4155SOL    HW123924   3.576   0.126   9.644 -1.9606 -0.8814  1.4251
 4155SOL    HW223925   3.670   0.094   9.758  0.8640  0.3599  0.0417
 4156SOL     OW23926   3.438   4.264  12.263  0.2435 -0.1093  0.1419
 4156SOL    HW123927   3.348   4.285  12.291 -0.2503 -2.0324 -0.0135
 4156SOL    HW223928   3.425   4.211  12.185  1.4157  1.0979 -0.8685
 4157SOL     OW23929   3.560   1.801   6.880 -0.3838 -0.1016  0.5209
 4157SOL    HW123930   3.570   1.707   6.866 -1.4686 -0.1944  0.3353
 4157SOL    HW223931   3.643   1.828   6.839 -1.1724  1.0814 -0.2979
 4158SOL     OW23932   1.714   4.325   4.741 -0.3813 -0.6549 -0.5434
 4158SOL    HW123933   1.770   4.309   4.665 -1.3337 -3.7082 -0.5696
 4158SOL    HW223934   1.784   4.346   4.803 -1.5461 -0.0213  0.5768
 4159SOL     OW23935   4.063   4.143   7.562  0.3197  0.6676  0.0276
 4159SOL    HW123936   4.009   4.169   7.636  0.1645  0.8799 -0.1627
 4159SOL    HW223937   4.001   4.146   7.489 -0.8871 -2.5704  0.8841
 4160SOL     OW23938   3.378   3.316   1.475  0.6118  0.5083  0.6035
 4160SOL    HW123939   3.463   3.274   1.461  0.3815  0.4736 -0.6832
 4160SOL    HW223940   3.408   3.406   1.469  0.6215  0.6355  2.6797
 4161SOL     OW23941   0.245   3.290   8.508  0.1923  0.1927 -0.2669
 4161SOL    HW123942   0.255   3.355   8.578  2.6992 -2.2491  1.6278
 4161SOL    HW223943   0.324   3.242   8.531  0.5765  0.3188 -1.3472
 4162SOL     OW23944   4.595   1.071   6.424  0.0544  0.5768  0.4413
 4162SOL    HW123945   4.677   1.117   6.445  0.3493 -0.1880  0.9309
 4162SOL    HW223946   4.631   0.983   6.419 -1.3804  0.0189 -0.0650
 4163SOL     OW23947   3.144   3.983   3.480 -0.0393 -0.1197 -0.3533
 4163SOL    HW123948   3.159   3.892   3.505  0.8357 -0.3018 -1.5580
 4163SOL    HW223949   3.106   4.012   3.562  1.8971  1.2245  0.0646
 4164SOL     OW23950   1.845   0.514  11.409  0.6335 -0.2821 -0.2619
 4164SOL    HW123951   1.817   0.506  11.500  0.9371  0.8218 -0.0767
 4164SOL    HW223952   1.874   0.605  11.412 -0.9798  0.2545 -0.7514
 4165SOL     OW23953   3.585   4.530   2.899 -0.0076 -0.2692  0.0920
 4165SOL    HW123954   3.497   4.511   2.929  0.3272 -2.2636 -0.1801
 4165SOL    HW223955   3.583   4.478   2.819  2.4421 -2.1177  1.1946
 4166SOL     OW23956   1.296   0.609   6.457  0.3513 -0.2273  0.0757
 4166SOL    HW123957   1.326   0.687   6.410  2.1426 -1.0799 -0.2133
 4166SOL    HW223958   1.282   0.652   6.541 -1.0919  1.5566 -1.0892
 4167SOL     OW23959   3.477   2.038  11.581  0.3428  0.6600  0.1008
 4167SOL    HW123960   3.476   2.038  11.676 -1.5609 -0.3839  0.0667
 4167SOL    HW223961   3.434   1.955  11.562  0.8502  0.1710  1.0961
 4168SOL     OW23962   4.239   0.098  16.605 -0.2757  0.1634  0.4931
 4168SOL    HW123963   4.210   0.148  16.682 -0.2461 -2.2664  2.0841
 4168SOL    HW223964   4.280   0.022  16.646  1.8249  1.4025  0.7203
 4169SOL     OW23965   3.964   3.175   8.718 -0.4170 -0.0402 -0.5307
 4169SOL    HW123966   3.980   3.085   8.747 -0.8185  0.7531  2.1690
 4169SOL    HW223967   3.980   3.218   8.802 -2.8597 -0.9084  0.3912
 4170SOL     OW23968   3.499   4.090   3.143  0.0165  0.2823 -0.1372
 4170SOL    HW123969   3.536   4.005   3.117  0.7258  0.3012  0.8470
 4170SOL    HW223970   3.466   4.078   3.232  1.8236  0.8475  0.5972
 4171SOL     OW23971   3.912   2.178   0.393 -0.3878 -0.0248 -0.0207
 4171SOL    HW123972   3.964   2.200   0.316  0.5301  1.4499  1.0210
 4171SOL    HW223973   3.949   2.240   0.455 -1.1951 -1.5968  2.0247
 4172SOL     OW23974   2.567   3.676   7.487  0.1918  0.5748 -1.0681
 4172SOL    HW123975   2.477   3.679   7.519  0.5271 -2.6680  0.1018
 4172SOL    HW223976   2.549   3.672   7.394 -0.4438 -2.4125 -0.7900
 4173SOL     OW23977   4.233   3.794   3.918  0.1809 -0.3301  0.0529
 4173SOL    HW123978   4.156   3.750   3.883 -0.7211  1.8206 -0.6604
 4173SOL    HW223979   4.249   3.857   3.848 -0.6744  1.0108  1.0677
 4174SOL     OW23980   4.070   2.828   1.683 -0.3121 -0.2680 -0.1392
 4174SOL    HW123981   4.050   2.920   1.704 -0.2488 -0.1067 -0.7976
 4174SOL    HW223982   3.983   2.787   1.687  0.1760 -1.3269 -0.4222
 4175SOL     OW23983   3.074   0.479   3.179  0.2537  0.3592  0.4864
 4175SOL    HW123984   3.079   0.406   3.239 -1.3859 -0.5241 -0.4343
 4175SOL    HW223985   2.985   0.475   3.143  0.6079 -2.3906 -0.0272
 4176SOL     OW23986   3.268   0.585  13.945  0.3426  0.4422 -0.0374
 4176SOL    HW123987   3.181   0.570  13.982 -0.6965  0.2875 -2.5468
 4176SOL    HW223988   3.316   0.504  13.961  3.0210  2.2945  1.3416
 4177SOL     OW23989   4.053   0.211   3.748  0.0147  0.1929 -0.1570
 4177SOL    HW123990   4.075   0.230   3.839 -0.3007 -0.3098  0.0250
 4177SOL    HW223991   4.068   0.293   3.701  1.9648 -0.9678 -1.5908
 4178SOL     OW23992   1.075   2.389   1.829  0.3345 -0.0538 -0.3076
 4178SOL    HW123993   1.129   2.375   1.907  1.0321  0.9607 -0.5986
 4178SOL    HW223994   1.135   2.360   1.760 -1.0340 -1.4114 -0.8987
 4179SOL     OW23995   1.877   2.548   6.718  0.3684  0.5178  0.1604
 4179SOL    HW123996   1.825   2.468   6.726  2.7392 -1.1812 -1.4035
 4179SOL    HW223997   1.964   2.511   6.737  1.2142  1.0415 -2.6303
 4180SOL     OW23998   1.036   0.728   4.654 -0.1891  0.0666 -0.1924
 4180SOL    HW123999   1.003   0.681   4.730 -1.1989  1.3539  0.1628
 4180SOL    HW224000   1.007   0.674   4.581  0.8482 -1.8397  0.8104
 4181SOL     OW24001   3.344   1.821   3.507 -0.3476 -0.0440 -0.3760
 4181SOL    HW124002   3.308   1.870   3.580 -0.3260  1.2117 -1.2023
 4181SOL    HW224003   3.323   1.894   3.448  4.0759  1.3924 -0.1649
 4182SOL     OW24004   2.476   3.800  16.614  0.1235 -0.2232  0.2044
 4182SOL    HW124005   2.571   3.800  16.608  0.1681 -0.3336  0.8460
 4182SOL    HW224006   2.471   3.828  16.706  0.0536 -2.0001  0.7417
 4183SOL     OW24007   1.879   1.168   0.823  0.1724  0.3668  0.1171
 4183SOL    HW124008   1.907   1.240   0.767 -0.5463  0.4506 -0.1355
 4183SOL    HW224009   1.947   1.166   0.891  1.1425 -0.4277 -0.8974
 4184SOL     OW24010   4.576   1.694  13.645 -0.9068  0.4073 -0.2150
 4184SOL    HW124011   4.653   1.649  13.610  1.4464  1.6287  3.4026
 4184SOL    HW224012   4.603   1.785  13.629 -2.7424  0.8258 -0.9176
 4185SOL     OW24013   2.033   4.323   8.291 -0.3518  0.0370  0.5200
 4185SOL    HW124014   2.077   4.398   8.331  1.5779  0.3656 -2.2138
 4185SOL    HW224015   2.094   4.262   8.331  0.2889  0.5603  0.3427
 4186SOL     OW24016   0.080   1.986  10.556  0.4811  0.3444  0.2849
 4186SOL    HW124017   0.164   2.002  10.600 -0.7999  0.3268  2.7067
 4186SOL    HW224018   0.061   1.892  10.566 -2.0671  0.8936  0.4341
 4187SOL     OW24019   2.927   0.850   6.326  0.3371 -0.5491  0.0392
 4187SOL    HW124020   2.903   0.923   6.269  1.5265  0.2867  0.6104
 4187SOL    HW224021   3.022   0.866   6.326 -0.2708  2.9029  1.1166
 4188SOL     OW24022   3.118   3.158   5.298  0.5335 -0.4057 -0.4537
 4188SOL    HW124023   3.093   3.174   5.207 -1.3951  1.7281  0.4496
 4188SOL    HW224024   3.028   3.159   5.331  0.1385  0.4371 -1.5375
 4189SOL     OW24025   3.547   1.385  14.466  0.7045  0.1716 -0.0395
 4189SOL    HW124026   3.641   1.378  14.480  0.8387 -0.8014 -1.4103
 4189SOL    HW224027   3.547   1.421  14.377  2.1028  0.6823  0.1725
 4190SOL     OW24028   3.536   0.924   6.720  0.2788  0.0264  0.5409
 4190SOL    HW124029   3.533   1.019   6.730 -0.2779  0.1262 -0.5878
 4190SOL    HW224030   3.622   0.905   6.757  0.9031  1.4915 -0.1690
 4191SOL     OW24031   0.677   2.754   8.253 -0.7732 -0.2643 -0.2281
 4191SOL    HW124032   0.659   2.765   8.346 -1.5385 -0.6674 -0.3279
 4191SOL    HW224033   0.706   2.840   8.223  0.3145 -1.2017 -1.8900
 4192SOL     OW24034   2.130   0.186   5.536  0.2632 -0.0144 -0.5411
 4192SOL    HW124035   2.156   0.097   5.560  1.8286  0.9046  1.1612
 4192SOL    HW224036   2.056   0.196   5.596 -1.0855 -1.8687 -1.8800
 4193SOL     OW24037   4.052   3.414  15.953  0.0897 -0.5608  0.3156
 4193SOL    HW124038   4.101   3.418  16.035  1.0354 -1.0023 -0.2366
 4193SOL    HW224039   4.091   3.343  15.902 -1.1914  0.0897 -1.5821
 4194SOL     OW24040   1.185   3.300  16.576  0.0965 -0.3847  0.1283
 4194SOL    HW124041   1.206   3.346  16.494 -2.5983  0.6041 -0.0190
 4194SOL    HW224042   1.216   3.213  16.550 -3.4980 -1.2741 -1.2292
 4195SOL     OW24043   0.321   4.325  15.565  0.2501 -1.2128 -0.4131
 4195SOL    HW124044   0.321   4.378  15.485 -1.6480 -1.8682 -0.8418
 4195SOL    HW224045   0.412   4.325  15.594  0.5380 -0.2867 -1.3064
 4196SOL     OW24046   3.758   0.390   3.632  0.1306  0.1044 -0.3833
 4196SOL    HW124047   3.784   0.435   3.712  0.9061 -0.4687 -0.3086
 4196SOL    HW224048   3.765   0.297   3.655  0.6301  0.1368 -0.4204
 4197SOL     OW24049   1.419   3.012   6.264  0.8558 -0.5841  0.0222
 4197SOL    HW124050   1.412   3.014   6.359  1.3922  0.9193  0.0338
 4197SOL    HW224051   1.361   2.939   6.244  1.3420 -0.3984 -2.1562
 4198SOL     OW24052   4.693   3.549   2.311 -0.2907  0.8850 -0.1387
 4198SOL    HW124053   4.650   3.581   2.391  0.6697 -0.4972  0.9281
 4198SOL    HW224054   4.624   3.498   2.270 -0.3446  0.2654  0.7218
 4199SOL     OW24055   2.772   3.311   3.357 -0.4985  0.2835 -0.0793
 4199SOL    HW124056   2.682   3.311   3.324 -0.4592 -0.1514 -0.1810
 4199SOL    HW224057   2.821   3.299   3.276  0.9312  2.0503  0.5021
 4200SOL     OW24058   0.885   3.649  13.307 -0.3109  0.2906 -0.5561
 4200SOL    HW124059   0.832   3.728  13.302  0.0156  0.4374 -1.7411
 4200SOL    HW224060   0.928   3.667  13.223 -2.2105  0.0322 -1.5731
 4201SOL     OW24061   3.165   1.690   1.609 -0.1515 -0.1852 -0.3661
 4201SOL    HW124062   3.201   1.616   1.560  0.8129 -0.5309  0.8724
 4201SOL    HW224063   3.118   1.638   1.674  1.2574  1.1949  1.7497
 4202SOL     OW24064   3.501   2.063  16.979 -0.2176 -0.0146 -0.4550
 4202SOL    HW124065   3.566   1.993  16.977  0.9621  1.0697 -0.0907
 4202SOL    HW224066   3.549   2.133  17.023  2.1474 -1.6774 -0.4006
 4203SOL     OW24067   1.220   2.918  15.843 -0.1702  0.1480  0.4182
 4203SOL    HW124068   1.285   2.890  15.779  1.1615 -1.6141  2.5529
 4203SOL    HW224069   1.269   2.941  15.922  2.1863 -0.5784 -0.8242
 4204SOL     OW24070   3.880   4.073   4.608 -0.7213 -0.3613  0.3403
 4204SOL    HW124071   3.909   4.101   4.521 -0.2530  1.7941  1.2046
 4204SOL    HW224072   3.786   4.069   4.594 -0.6701 -1.4680  0.3051
 4205SOL     OW24073   4.707   2.704   5.528 -0.2381  0.2228  0.1787
 4205SOL    HW124074   0.027   2.669   5.451  0.8725 -1.0460  1.3920
 4205SOL    HW224075   0.050   2.672   5.590 -0.2443  1.7567  0.9872
 4206SOL     OW24076   4.044   3.286   3.651  0.0441  0.1530 -0.2343
 4206SOL    HW124077   4.098   3.253   3.579  1.0309  1.3988 -0.0511
 4206SOL    HW224078   4.103   3.346   3.696  0.3908 -0.1090 -0.3379
 4207SOL     OW24079   3.905   1.651   7.087  0.3823 -0.4658 -0.0855
 4207SOL    HW124080   3.921   1.565   7.126 -1.0207 -0.0033  1.5189
 4207SOL    HW224081   3.816   1.647   7.050  0.6194  0.7012 -0.7628
 4208SOL     OW24082   2.587   0.481   3.511  0.7760  0.3477 -0.3362
 4208SOL    HW124083   2.526   0.553   3.494 -0.1368  0.0128  1.5256
 4208SOL    HW224084   2.584   0.426   3.433 -0.3967 -1.6233  1.0924
 4209SOL     OW24085   2.053   4.224   7.587  0.0692 -0.5453 -0.9366
 4209SOL    HW124086   1.995   4.295   7.557 -0.4690 -0.9925 -0.9632
 4209SOL    HW224087   2.115   4.258   7.651 -0.1642 -1.6252 -0.1392
 4210SOL     OW24088   0.445   1.687   3.285  0.4081 -0.3033  0.3669
 4210SOL    HW124089   0.408   1.685   3.197 -1.0799 -0.5432  1.0044
 4210SOL    HW224090   0.397   1.610   3.314 -0.4066  0.2261  0.4060
 4211SOL     OW24091   3.886   3.905   7.742  0.6377 -0.1403 -0.1826
 4211SOL    HW124092   3.888   3.846   7.818 -0.3793  0.7035  0.4837
 4211SOL    HW224093   3.980   3.910   7.724  0.5653 -1.9085 -1.0764
 4212SOL     OW24094   4.717   1.700  10.550  0.4776  0.8339  0.0776
 4212SOL    HW124095   0.065   1.708  10.614  1.5577  1.4160 -1.2161
 4212SOL    HW224096   4.701   1.608  10.531 -1.2427  0.8669  1.3256
 4213SOL     OW24097   2.511   2.565   2.698  0.1329 -0.8578  0.1822
 4213SOL    HW124098   2.587   2.540   2.645 -0.5889 -0.6409 -0.9530
 4213SOL    HW224099   2.509   2.661   2.702 -0.4854 -0.8292 -0.7958
 4214SOL     OW24100   4.414   0.010   2.811  1.0576  0.0341  0.1963
 4214SOL    HW124101   4.471   4.691   2.747 -0.7119 -1.4528 -0.3825
 4214SOL    HW224102   4.416   0.105   2.795 -0.0465 -0.3965 -2.3834
 4215SOL     OW24103   2.667   4.219   9.964  0.3162  0.2373  0.7536
 4215SOL    HW124104   2.659   4.201  10.058  0.7592  0.2701  0.7978
 4215SOL    HW224105   2.714   4.142   9.934  0.9991  0.4073  1.3584
 4216SOL     OW24106   2.064   3.824   3.275 -0.4301 -0.3376  0.0410
 4216SOL    HW124107   2.022   3.793   3.195 -2.8173 -0.6545  1.4033
 4216SOL    HW224108   2.155   3.833   3.247 -1.0514  0.7701 -1.6277
 4217SOL     OW24109   0.186   2.105  12.098 -0.0590 -0.2789  0.2395
 4217SOL    HW124110   0.245   2.053  12.154 -1.1045 -1.3022  0.3818
 4217SOL    HW224111   0.252   2.158  12.053  0.3568 -1.0473 -0.0502
 4218SOL     OW24112   1.270   4.000   4.099 -0.2019  0.2926  0.2765
 4218SOL    HW124113   1.261   3.952   4.181  1.6984 -2.2833 -1.0294
 4218SOL    HW224114   1.176   4.012   4.083  0.2193  1.8479 -1.0386
 4219SOL     OW24115   3.227   2.582  13.766  0.0354 -0.0648  0.5161
 4219SOL    HW124116   3.297   2.518  13.777  1.4392  1.8157  2.4459
 4219SOL    HW224117   3.242   2.654  13.827 -2.2252  1.1039 -0.2996
 4220SOL     OW24118   3.590   1.117  16.190  0.3830 -0.0923 -0.8070
 4220SOL    HW124119   3.499   1.130  16.215  1.4751  1.5690  2.3410
 4220SOL    HW224120   3.597   1.154  16.102 -0.6538  1.8458 -0.0714
 4221SOL     OW24121   0.807   3.649  10.962  0.0055 -0.2593 -0.6289
 4221SOL    HW124122   0.781   3.579  10.902  1.2118  0.6752 -2.2840
 4221SOL    HW224123   0.899   3.653  10.934  0.2851 -1.4372  0.1329
 4222SOL     OW24124   0.761   2.879   2.209 -0.1606  0.2078  0.1400
 4222SOL    HW124125   0.769   2.861   2.116 -1.9983  1.7632 -0.3191
 4222SOL    HW224126   0.834   2.939   2.222 -1.4324  2.4947 -3.2198
 4223SOL     OW24127   2.267   2.566   0.486  0.8858 -0.4580  0.1691
 4223SOL    HW124128   2.214   2.542   0.410 -1.0977 -0.2637  1.5015
 4223SOL    HW224129   2.342   2.597   0.435 -0.0167  2.2470  0.4611
 4224SOL     OW24130   0.537   0.947   3.992 -0.5000 -0.4265 -0.2134
 4224SOL    HW124131   0.569   0.981   3.908  0.0226  0.6997  0.4340
 4224SOL    HW224132   0.453   0.986   4.014 -1.5621 -2.0424 -1.4233
 4225SOL     OW24133   2.722   2.678   1.984 -0.4770 -0.0050 -1.0446
 4225SOL    HW124134   2.787   2.609   1.969  0.2897 -0.0909  2.6988
 4225SOL    HW224135   2.650   2.620   2.009  1.3476 -1.3933  0.9225
 4226SOL     OW24136   2.432   1.980   8.121 -0.4390 -0.4144 -0.4191
 4226SOL    HW124137   2.468   1.921   8.054  1.6762  1.3043 -0.8065
 4226SOL    HW224138   2.495   2.052   8.109 -1.0856  0.8412  3.7039
 4227SOL     OW24139   2.505   3.396   1.770 -0.5264 -0.1249 -0.4121
 4227SOL    HW124140   2.501   3.409   1.675  0.8692  0.9380 -0.3137
 4227SOL    HW224141   2.459   3.472   1.808 -0.0035 -0.6156  1.2145
 4228SOL     OW24142   3.120   1.158   7.969 -0.3362  0.5183  0.8239
 4228SOL    HW124143   3.152   1.085   7.916  0.5237 -0.5847  2.8517
 4228SOL    HW224144   3.051   1.117   8.021  0.7647  1.1867  2.8296
 4229SOL     OW24145   1.136   1.596  17.612 -0.4024  0.4568  0.0881
 4229SOL    HW124146   1.086   1.672  17.641  0.5893 -0.7560  5.0420
 4229SOL    HW224147   1.174   1.625  17.529  1.2013 -0.3568  0.5359
 4230SOL     OW24148   0.282   0.363  11.186  0.6636  0.5259 -0.5313
 4230SOL    HW124149   0.333   0.403  11.116  1.1308 -0.7703 -0.9174
 4230SOL    HW224150   0.317   0.403  11.266  0.8280  0.3638 -0.5237
 4231SOL     OW24151   3.498   2.798   5.193  0.1982  0.4643 -0.8894
 4231SOL    HW124152   3.413   2.787   5.150 -0.7262  0.6188  0.9103
 4231SOL    HW224153   3.531   2.878   5.153 -0.3633  0.4412 -1.3998
 4232SOL     OW24154   1.186   2.850   2.619 -0.2143 -0.1466  0.2242
 4232SOL    HW124155   1.274   2.818   2.605 -0.4284 -0.5487 -0.1913
 4232SOL    HW224156   1.139   2.787   2.565  1.1583 -2.1731  1.3953
 4233SOL     OW24157   2.500   0.053   3.867  1.0212 -0.5391  0.1162
 4233SOL    HW124158   2.475   0.065   3.959  0.0551  0.4142 -0.2698
 4233SOL    HW224159   2.417   0.020   3.833  0.6637  0.0880  0.3774
 4234SOL     OW24160   0.019   4.071  13.812  0.2514 -0.2310 -0.2434
 4234SOL    HW124161   0.094   4.112  13.770 -0.9988  2.4987  0.1715
 4234SOL    HW224162   0.066   4.001  13.857  0.2889  0.7760  1.2956
 4235SOL     OW24163   1.328   3.175   4.039  0.3042  0.0209  0.5013
 4235SOL    HW124164   1.370   3.173   3.953 -2.1004  0.2919 -0.6696
 4235SOL    HW224165   1.239   3.146   4.018  1.0934 -0.0495 -2.7465
 4236SOL     OW24166   1.843   0.090  12.360  0.3665  0.1838  0.2367
 4236SOL    HW124167   1.890   0.057  12.437 -0.3571  0.2181  0.6947
 4236SOL    HW224168   1.848   0.009  12.310  0.1609  0.4648 -0.2380
 4237SOL     OW24169   0.372   1.697   5.547  0.3860  0.0362  0.0830
 4237SOL    HW124170   0.322   1.680   5.468 -0.3187  0.6297  0.4083
 4237SOL    HW224171   0.427   1.767   5.510  1.4060 -1.5780 -1.4858
 4238SOL     OW24172   4.019   4.153   6.336 -0.4639 -0.8235  0.2806
 4238SOL    HW124173   4.033   4.114   6.250  0.0492  1.6894 -0.7676
 4238SOL    HW224174   4.038   4.244   6.311 -1.3972 -0.8344 -0.4735
 4239SOL     OW24175   4.031   2.003   7.664  0.4362  0.0817 -0.0223
 4239SOL    HW124176   4.060   1.914   7.647  0.3445 -0.1939  1.2809
 4239SOL    HW224177   3.944   1.987   7.701  0.2876 -1.5632 -1.0840
 4240SOL     OW24178   2.715   4.183  14.265 -0.5102 -0.0790 -0.1192
 4240SOL    HW124179   2.691   4.152  14.178  0.2856 -0.9259 -0.0284
 4240SOL    HW224180   2.800   4.219  14.240 -0.4288  0.3600  0.7907
 4241SOL     OW24181   4.686   2.580   9.979  0.1018 -0.4057  0.8433
 4241SOL    HW124182   0.055   2.569   9.999  0.2571 -2.5756 -1.0731
 4241SOL    HW224183   4.663   2.662  10.022 -0.7405 -2.0751  3.5688
 4242SOL     OW24184   3.455   0.120   3.148 -0.2098 -0.8958  0.0634
 4242SOL    HW124185   3.384   0.152   3.092  2.2310 -1.4005 -3.3186
 4242SOL    HW224186   3.525   0.168   3.103 -2.0161  0.9616 -0.7855
 4243SOL     OW24187   3.522   3.461   7.025 -0.0631  0.3150 -0.4296
 4243SOL    HW124188   3.516   3.544   7.072  2.2109  0.7399 -0.9192
 4243SOL    HW224189   3.466   3.406   7.080 -1.1588  2.0478  0.1972
 4244SOL     OW24190   2.144   4.604  12.179  0.4087  0.6342  0.5504
 4244SOL    HW124191   2.112   4.614  12.269 -2.2934 -2.5756 -0.0892
 4244SOL    HW224192   2.229   4.648  12.189  1.0152 -0.8382  1.8756
 4245SOL     OW24193   4.680   1.628   6.685 -0.2132  0.3734 -0.1725
 4245SOL    HW124194   0.019   1.561   6.657  0.7568  1.5401 -0.8252
 4245SOL    HW224195   4.613   1.615   6.618 -0.1214 -0.3910 -0.1190
 4246SOL     OW24196   1.373   2.230   1.990  0.0231 -0.3140 -0.2938
 4246SOL    HW124197   1.317   2.304   2.013  1.3505  0.6817 -0.2372
 4246SOL    HW224198   1.346   2.161   2.050  1.2418 -0.3817  0.1666
 4247SOL     OW24199   2.277   0.574   5.552  0.4222  0.0580 -0.2705
 4247SOL    HW124200   2.197   0.625   5.567  0.3074 -0.5141  1.0310
 4247SOL    HW224201   2.298   0.620   5.470 -0.7065  1.7012  0.3637
 4248SOL     OW24202   2.587   1.463  10.195  0.0036 -0.4159 -0.0153
 4248SOL    HW124203   2.604   1.416  10.276  1.1605  1.9273  1.0821
 4248SOL    HW224204   2.610   1.552  10.220 -1.0370 -0.4327  0.9792
 4249SOL     OW24205   1.096   3.057  13.801 -0.4890  0.6070  0.7301
 4249SOL    HW124206   1.085   3.010  13.884 -1.7859 -1.1354 -0.4145
 4249SOL    HW224207   1.039   3.133  13.814 -0.9258  0.5755 -0.9650
 4250SOL     OW24208   3.479   0.636   8.999  0.0267 -0.0136  0.0347
 4250SOL    HW124209   3.522   0.721   9.007  0.0676 -0.1405  1.2197
 4250SOL    HW224210   3.524   0.602   8.922  0.9983  0.6208  0.3282
 4251SOL     OW24211   0.835   3.156   0.798 -0.0390  0.1410  0.0622
 4251SOL    HW124212   0.891   3.207   0.856 -0.7034 -0.3783  1.1707
 4251SOL    HW224213   0.877   3.168   0.714 -1.6577  0.5483 -0.6865
 4252SOL     OW24214   2.978   4.380   7.486 -0.1020 -0.1362  0.1021
 4252SOL    HW124215   2.914   4.324   7.441 -0.2223 -1.3977  1.8366
 4252SOL    HW224216   3.030   4.411   7.412  0.5840 -0.4433  0.4565
 4253SOL     OW24217   4.293   1.455   2.451  0.0469 -0.3151 -0.1088
 4253SOL    HW124218   4.241   1.520   2.498  0.9494  0.9021 -0.7856
 4253SOL    HW224219   4.294   1.372   2.498 -0.0315 -0.5941 -0.5998
 4254SOL     OW24220   1.060   3.269   1.602 -0.5439  0.6553 -0.3530
 4254SOL    HW124221   0.967   3.249   1.615  0.2307 -1.6191  1.8358
 4254SOL    HW224222   1.069   3.326   1.526 -1.5200 -1.4292 -2.0444
 4255SOL     OW24223   2.665   0.834   3.367  0.0027 -0.0993  0.5139
 4255SOL    HW124224   2.714   0.903   3.410  0.0926 -0.2618  0.6736
 4255SOL    HW224225   2.606   0.802   3.435 -1.6315  0.7919 -0.4984
 4256SOL     OW24226   2.381   1.293   4.813  0.0550  0.3875  0.2513
 4256SOL    HW124227   2.393   1.306   4.719  0.8670  0.7975  0.4080
 4256SOL    HW224228   2.435   1.369   4.839 -0.6727  0.0878  2.6291
 4257SOL     OW24229   2.851   3.671   5.957 -0.2322  0.0991 -0.1646
 4257SOL    HW124230   2.787   3.740   5.940  0.8188  1.1209 -0.0520
 4257SOL    HW224231   2.796   3.594   5.965 -0.5423  0.3835  0.4850
 4258SOL     OW24232   1.637   1.409  17.397 -0.5134  0.3118 -0.2063
 4258SOL    HW124233   1.636   1.364  17.481 -1.5274  1.2818  0.2922
 4258SOL    HW224234   1.547   1.440  17.385  0.0324  1.7156 -0.7576
 4259SOL     OW24235   1.886   3.113   7.499  0.4330 -0.2953  0.9997
 4259SOL    HW124236   1.857   3.142   7.412  1.5506 -1.9275  0.0758
 4259SOL    HW224237   1.908   3.201   7.529  0.4250  0.3682 -0.9231
 4260SOL     OW24238   3.370   1.006  17.386 -0.1357 -0.4043  0.3466
 4260SOL    HW124239   3.463   0.985  17.397 -0.1391  0.8733  2.7925
 4260SOL    HW224240   3.355   1.066  17.460 -1.6509  0.6671 -0.8450
 4261SOL     OW24241   2.152   3.525   6.441  0.5088  0.2526 -0.1516
 4261SOL    HW124242   2.060   3.550   6.431 -0.0551 -1.3609  0.9215
 4261SOL    HW224243   2.190   3.583   6.375 -0.5546  1.1723  0.0573
 4262SOL     OW24244   4.662   3.501  13.975 -0.3954  0.2077  0.3709
 4262SOL    HW124245   4.722   3.431  14.000  1.7442  2.0378  0.3538
 4262SOL    HW224246   4.664   3.488  13.880  1.3507 -2.7123  0.7944
 4263SOL     OW24247   4.021   0.417   8.864  0.0470  0.5053  0.1138
 4263SOL    HW124248   3.956   0.435   8.932  0.3249 -0.9630  0.7762
 4263SOL    HW224249   4.088   0.478   8.895  0.2281 -0.0521  0.8203
 4264SOL     OW24250   0.374   0.737  11.529 -0.2566 -0.5993  0.2274
 4264SOL    HW124251   0.365   0.788  11.449 -0.1860  2.7165  2.3203
 4264SOL    HW224252   0.348   0.797  11.599 -0.7380 -0.2493 -0.2563
 4265SOL     OW24253   1.843   1.171   8.029  0.3144  0.0692 -0.2170
 4265SOL    HW124254   1.877   1.260   8.024 -0.0990  0.1621 -1.5354
 4265SOL    HW224255   1.829   1.167   8.123 -3.5093 -0.9298 -0.8238
 4266SOL     OW24256   4.340   0.495   8.253  0.5270 -0.7008 -0.1007
 4266SOL    HW124257   4.316   0.587   8.248  2.2824 -0.2357 -0.1426
 4266SOL    HW224258   4.409   0.501   8.186  0.7992 -1.3916  0.1148
 4267SOL     OW24259   1.694   4.097  11.812  0.6826  0.4033  0.1313
 4267SOL    HW124260   1.685   4.130  11.902 -0.3214 -1.7882  0.8374
 4267SOL    HW224261   1.695   4.002  11.824 -0.7347  0.4137  0.3817
 4268SOL     OW24262   3.159   1.649   7.518  0.6414 -0.5987 -0.4729
 4268SOL    HW124263   3.238   1.695   7.548  1.6641 -1.9669 -1.0697
 4268SOL    HW224264   3.170   1.639   7.424  1.0412 -1.5349 -0.3261
 4269SOL     OW24265   1.035   1.543   4.813 -0.6728 -0.0666 -0.1039
 4269SOL    HW124266   1.100   1.585   4.758 -0.3781 -0.8676 -0.3674
 4269SOL    HW224267   0.970   1.612   4.822 -0.7759 -0.3767  1.5439
 4270SOL     OW24268   3.050   4.672   1.755  0.0009  0.3524 -0.2176
 4270SOL    HW124269   2.972   4.625   1.726  1.4985 -3.6699  2.3792
 4270SOL    HW224270   3.115   4.602   1.748 -1.2487 -0.8362  0.1041
 4271SOL     OW24271   2.753   2.287  10.294 -0.0108  0.1783  0.7243
 4271SOL    HW124272   2.710   2.332  10.367 -0.9345 -0.2937  0.4664
 4271SOL    HW224273   2.757   2.197  10.327 -0.8781 -0.1418 -0.0373
 4272SOL     OW24274   1.391   1.141   9.040  0.6876 -0.7962  0.6278
 4272SOL    HW124275   1.433   1.201   9.101  0.8564  0.1095 -0.3963
 4272SOL    HW224276   1.398   1.192   8.960 -0.4914 -0.9139  0.4542
 4273SOL     OW24277   4.329   0.082   9.336  0.1093 -0.5838 -0.9638
 4273SOL    HW124278   4.418   0.082   9.371  0.1209  2.8031 -1.0384
 4273SOL    HW224279   4.350   0.095   9.243  0.8517 -1.2241 -0.8804
 4274SOL     OW24280   4.337   1.094  14.316 -0.4218  0.0365  0.5853
 4274SOL    HW124281   4.349   1.093  14.221 -2.5786 -0.3976  0.3237
 4274SOL    HW224282   4.303   1.005  14.329  1.8749 -0.7572  1.1776
 4275SOL     OW24283   4.314   0.715  16.842 -0.0127  0.4963 -0.1373
 4275SOL    HW124284   4.327   0.705  16.747  1.0910 -0.3944  0.1017
 4275SOL    HW224285   4.219   0.713  16.843 -0.0250  0.4284 -1.6994
 4276SOL     OW24286   3.299   2.618   7.315 -0.1238 -0.0337 -0.2035
 4276SOL    HW124287   3.346   2.640   7.235 -0.8077  0.4819 -0.4599
 4276SOL    HW224288   3.332   2.529   7.331 -0.7145 -0.4792 -1.4987
 4277SOL     OW24289   0.276   3.450   8.725  0.5272 -1.1586 -0.1026
 4277SOL    HW124290   0.300   3.396   8.801  0.4243 -1.6509 -0.4199
 4277SOL    HW224291   0.291   3.537   8.763 -0.5464 -1.7578  1.7018
 4278SOL     OW24292   1.814   3.161   0.156  0.5615 -0.2058 -0.0477
 4278SOL    HW124293   1.880   3.092   0.165  1.2444  0.3511 -0.7954
 4278SOL    HW224294   1.842   3.223   0.088  0.1169 -0.1126 -0.1472
 4279SOL     OW24295   4.657   4.377  15.838 -0.1149 -0.1486 -0.5198
 4279SOL    HW124296   4.628   4.467  15.824  1.3984  0.4179  0.0175
 4279SOL    HW224297   0.023   4.386  15.807  0.3531  0.4104  0.9793
 4280SOL     OW24298   1.337   2.980   4.550  0.2904 -0.3261  0.3301
 4280SOL    HW124299   1.260   2.964   4.496 -1.6626  2.7188  2.2060
 4280SOL    HW224300   1.301   3.048   4.608  1.6813 -0.1004  0.9400
 4281SOL     OW24301   2.990   1.185  12.482 -0.5166 -0.0522  0.1236
 4281SOL    HW124302   2.911   1.236  12.467 -0.4542 -0.0078 -0.0616
 4281SOL    HW224303   3.059   1.247  12.458 -1.8373  1.2633 -0.2612
 4282SOL     OW24304   2.263   2.574   6.133 -0.2445 -0.0652 -0.4947
 4282SOL    HW124305   2.310   2.511   6.188  0.5112  1.7957  0.9844
 4282SOL    HW224306   2.335   2.624   6.095 -0.3459 -0.4172 -1.1620
 4283SOL     OW24307   4.270   3.236  16.218  0.5125 -0.2554  0.3850
 4283SOL    HW124308   4.203   3.181  16.258  1.5263 -1.2508  0.7075
 4283SOL    HW224309   4.311   3.279  16.294 -0.6981  0.0456  0.8764
 4284SOL     OW24310   3.354   0.381  15.023 -0.0140  0.1197 -0.1275
 4284SOL    HW124311   3.347   0.412  15.114 -3.9325 -1.4138  0.0787
 4284SOL    HW224312   3.272   0.332  15.024 -0.6912  1.2287 -0.1392
 4285SOL     OW24313   1.975   2.685   4.096  0.1285 -0.5429 -0.1896
 4285SOL    HW124314   1.883   2.670   4.075 -0.2042 -0.7000  1.3812
 4285SOL    HW224315   1.970   2.679   4.192  1.7061  3.8093  0.1788
 4286SOL     OW24316   0.631   0.537   6.796  0.0941 -0.3970 -0.1158
 4286SOL    HW124317   0.619   0.583   6.879  1.6439 -0.5167  0.1731
 4286SOL    HW224318   0.707   0.578   6.755 -0.2478  0.8958  0.5381
 4287SOL     OW24319   3.783   0.220  13.700 -0.2044 -0.2564 -0.5041
 4287SOL    HW124320   3.871   0.251  13.719 -1.7891  2.8506  1.7208
 4287SOL    HW224321   3.782   0.124  13.700  1.6016 -0.2748 -2.7591
 4288SOL     OW24322   1.940   4.328  11.449  0.2096  0.0757  0.2468
 4288SOL    HW124323   1.893   4.330  11.365  0.8610  1.8073 -0.0835
 4288SOL    HW224324   1.979   4.415  11.442 -3.7135  1.9209  1.2072
 4289SOL     OW24325   4.140   4.653   3.659 -0.2681  0.1988 -0.3920
 4289SOL    HW124326   4.168   4.692   3.576 -1.8319 -3.3006 -2.5246
 4289SOL    HW224327   4.115   0.010   3.706  0.2490 -0.5884  1.2237
 4290SOL     OW24328   4.392   0.163  10.441 -0.1836  0.0059 -0.0808
 4290SOL    HW124329   4.485   0.158  10.463  0.2819  1.6065 -1.6854
 4290SOL    HW224330   4.381   0.081  10.393  0.0248 -0.1869  0.1963
 4291SOL     OW24331   2.493   0.055   5.930  0.6402 -0.1792  0.1744
 4291SOL    HW124332   2.494   4.711   5.998  0.4875  0.9423  1.2827
 4291SOL    HW224333   2.423   0.111   5.963  0.9693  1.3184 -1.6520
 4292SOL     OW24334   1.922   4.610  14.444  0.3878 -0.7443 -0.0036
 4292SOL    HW124335   1.962   4.649  14.367 -0.6419 -2.6735 -1.5247
 4292SOL    HW224336   1.999   4.608  14.501 -0.3414  1.2058  1.0260
 4293SOL     OW24337   1.384   4.219   2.703  0.4497  0.2588  0.2411
 4293SOL    HW124338   1.445   4.223   2.777 -0.2693  0.3546  0.8278
 4293SOL    HW224339   1.321   4.155   2.737  0.7928 -1.0417 -1.5361
 4294SOL     OW24340   2.204   2.910   4.619  0.1708 -0.3242  0.2597
 4294SOL    HW124341   2.219   2.818   4.599  2.2181 -0.0800  0.7226
 4294SOL    HW224342   2.164   2.944   4.539 -1.2830  0.6567  1.4020
 4295SOL     OW24343   3.363   1.367   4.508 -0.0360 -1.0012  0.6635
 4295SOL    HW124344   3.367   1.336   4.417  0.9078  1.3149 -0.0800
 4295SOL    HW224345   3.283   1.329   4.544 -1.2142  0.5751 -0.3032
 4296SOL     OW24346   3.500   4.382   1.251  0.4509  0.2446 -0.3775
 4296SOL    HW124347   3.569   4.315   1.259 -0.6016 -0.9192 -1.1027
 4296SOL    HW224348   3.522   4.399   1.160  0.6730  1.0130 -0.1781
 4297SOL     OW24349   2.449   0.728   5.785 -0.2472  0.8432 -0.6588
 4297SOL    HW124350   2.452   0.747   5.879 -1.7145  0.6503 -0.5612
 4297SOL    HW224351   2.360   0.702   5.762 -0.5918  1.9212 -0.5500
 4298SOL     OW24352   4.276   1.081   3.946 -0.0619  0.0885 -0.6915
 4298SOL    HW124353   4.343   1.114   4.006  0.4566 -3.8313  0.9403
 4298SOL    HW224354   4.217   1.030   4.002 -1.0093  2.1104  0.1465
 4299SOL     OW24355   1.692   1.823   8.502  0.1012 -0.2612 -0.7560
 4299SOL    HW124356   1.647   1.905   8.481  1.2108 -0.0753 -2.4740
 4299SOL    HW224357   1.675   1.812   8.595  1.0163  1.1425 -0.4316
 4300SOL     OW24358   4.119   3.814   9.501  0.7847 -0.5629  0.1193
 4300SOL    HW124359   4.152   3.843   9.586 -0.9271 -0.7416  0.8552
 4300SOL    HW224360   4.031   3.850   9.509  0.1490 -1.4081 -3.0380
 4301SOL     OW24361   3.612   3.693   5.257  0.0638  0.5282 -0.5713
 4301SOL    HW124362   3.520   3.703   5.232 -0.4903 -0.0643  1.1622
 4301SOL    HW224363   3.616   3.597   5.254 -0.3639  0.4626  0.6418
 4302SOL     OW24364   4.515   3.537   1.832 -0.3532  0.1130 -0.0254
 4302SOL    HW124365   4.433   3.548   1.784 -1.5724 -0.5017  1.9381
 4302SOL    HW224366   4.571   3.483   1.775  0.0559  2.3778 -1.8089
 4303SOL     OW24367   2.128   1.554   8.480 -0.0608  0.3082 -0.4001
 4303SOL    HW124368   2.169   1.640   8.483  1.7070 -0.7012  2.9691
 4303SOL    HW224369   2.189   1.499   8.529 -2.7463 -0.3270  2.2230
 4304SOL     OW24370   4.593   3.410   7.793  0.6482 -0.0840  0.3887
 4304SOL    HW124371   4.593   3.504   7.775  0.4541  0.1163  1.4127
 4304SOL    HW224372   4.642   3.409   7.875  2.3038 -1.4074 -0.6170
 4305SOL     OW24373   2.395   0.406   7.911 -0.0983  0.7917  0.0999
 4305SOL    HW124374   2.480   0.388   7.950 -0.0830 -1.4473 -0.9550
 4305SOL    HW224375   2.334   0.379   7.979 -0.2722  1.2091  0.1098
 4306SOL     OW24376   4.700   3.411   8.038  0.0474  0.0231  0.2942
 4306SOL    HW124377   0.050   3.391   8.097  0.8998  0.1728 -0.7164
 4306SOL    HW224378   4.657   3.478   8.090 -2.9231 -1.0059 -0.8309
 4307SOL     OW24379   1.480   3.203  14.516  1.0326 -0.1135 -0.1669
 4307SOL    HW124380   1.393   3.225  14.483  1.4402 -1.5027 -2.1552
 4307SOL    HW224381   1.463   3.116  14.553 -0.1601 -0.0154 -0.4669
 4308SOL     OW24382   0.565   1.558   2.858 -0.0079 -0.7478  0.8293
 4308SOL    HW124383   0.535   1.609   2.933 -0.2527 -0.3139  0.4371
 4308SOL    HW224384   0.488   1.505   2.838 -1.2044  1.2731 -0.0090
 4309SOL     OW24385   1.768   3.775   6.538 -0.2201  0.2093  0.3848
 4309SOL    HW124386   1.838   3.807   6.480 -1.2891  2.7795  0.5349
 4309SOL    HW224387   1.715   3.850   6.564  0.9535  1.0880  0.2251
 4310SOL     OW24388   3.925   2.663  15.948  0.0704 -0.0643 -0.3338
 4310SOL    HW124389   3.916   2.757  15.965 -1.7341 -0.4227  0.6377
 4310SOL    HW224390   3.832   2.642  15.945  0.1951 -1.0841  3.0020
 4311SOL     OW24391   3.770   0.982   2.854  0.0449 -0.2362 -0.4310
 4311SOL    HW124392   3.841   0.941   2.902 -0.3903 -2.0813 -1.3540
 4311SOL    HW224393   3.691   0.934   2.882  0.7260  0.4072  2.5945
 4312SOL     OW24394   4.226   0.618   3.788  0.3463 -0.2722 -0.4517
 4312SOL    HW124395   4.314   0.627   3.751  1.5591  1.7924  2.9452
 4312SOL    HW224396   4.253   0.629   3.879  2.2647 -0.4325 -0.9879
 4313SOL     OW24397   2.724   0.212   3.954 -0.5674 -0.5436 -0.1373
 4313SOL    HW124398   2.758   0.259   3.878 -0.1613 -2.4968 -1.1827
 4313SOL    HW224399   2.666   0.153   3.904  2.3496 -1.9712 -1.8848
 4314SOL     OW24400   3.974   0.655   2.249  0.0912 -0.6339  0.0690
 4314SOL    HW124401   3.917   0.648   2.326 -1.4305  2.6091 -0.7571
 4314SOL    HW224402   4.052   0.690   2.293 -0.2955 -0.5899  0.7288
 4315SOL     OW24403   4.508   4.203  13.908  0.2690  0.2918  0.3572
 4315SOL    HW124404   4.479   4.126  13.957  1.5981 -1.4912 -1.6520
 4315SOL    HW224405   4.599   4.177  13.891  0.5896  1.0993  0.8292
 4316SOL     OW24406   1.409   2.834   5.794 -0.1961  0.2874 -0.3847
 4316SOL    HW124407   1.472   2.890   5.839 -1.3509  0.7459  0.6557
 4316SOL    HW224408   1.404   2.757   5.851  0.7575  0.7605  0.3360
 4317SOL     OW24409   0.915   2.064   8.716 -0.4725  0.5072  0.2415
 4317SOL    HW124410   0.944   2.124   8.648  1.2350 -0.2428  0.3169
 4317SOL    HW224411   0.922   2.113   8.798 -1.0542 -0.6488  0.9826
 4318SOL     OW24412   2.416   1.399   1.733 -0.2432 -0.3401  0.2097
 4318SOL    HW124413   2.362   1.348   1.673  1.1167  1.8235 -2.8118
 4318SOL    HW224414   2.386   1.489   1.728  1.1450  0.3349  4.1007
 4319SOL     OW24415   2.522   0.667  17.228 -0.4984  0.2466 -0.1374
 4319SOL    HW124416   2.584   0.638  17.161  0.2680 -0.9691  1.0953
 4319SOL    HW224417   2.557   0.752  17.257  0.9365 -0.1786 -0.6326
 4320SOL     OW24418   4.564   4.123   1.523  0.4427  0.6874 -0.0534
 4320SOL    HW124419   4.528   4.044   1.564 -1.4848  2.7421  2.1794
 4320SOL    HW224420   4.653   4.120   1.557  0.3364  1.5398  0.2877
 4321SOL     OW24421   0.817   4.106   6.259 -0.5955  0.0305 -0.0500
 4321SOL    HW124422   0.765   4.054   6.198  1.4322  0.5614 -2.1916
 4321SOL    HW224423   0.893   4.049   6.252 -1.6484 -1.4852  0.9354
 4322SOL     OW24424   4.420   2.606   8.286  0.2282 -0.4257  0.0348
 4322SOL    HW124425   4.455   2.528   8.330  0.0050 -1.1097 -1.0051
 4322SOL    HW224426   4.426   2.578   8.195 -0.5725 -0.4960  0.0070
 4323SOL     OW24427   3.782   2.293  16.452 -0.3522 -0.2620 -0.0008
 4323SOL    HW124428   3.823   2.355  16.511 -0.8547 -0.0822  0.1627
 4323SOL    HW224429   3.699   2.277  16.498 -1.3302  1.1730 -1.2480
 4324SOL     OW24430   0.617   2.855   4.828  0.3374  0.7446 -0.0940
 4324SOL    HW124431   0.701   2.848   4.873 -0.8508 -1.2627  1.8425
 4324SOL    HW224432   0.635   2.851   4.734  1.3255 -0.2774  0.1459
 4325SOL     OW24433   2.904   2.579  16.385  0.1036  0.8852 -0.5170
 4325SOL    HW124434   2.905   2.511  16.318  1.3904 -0.8787  1.2912
 4325SOL    HW224435   2.893   2.661  16.337 -1.8893 -0.6354 -2.6058
 4326SOL     OW24436   0.026   2.295   5.078  0.5479  0.5615 -0.1099
 4326SOL    HW124437   0.008   2.241   5.155 -1.5808 -0.1306 -1.0900
 4326SOL    HW224438   0.097   2.244   5.039 -0.5903 -0.0074 -1.4495
 4327SOL     OW24439   0.935   3.367  15.172  0.1593 -0.0152 -0.6552
 4327SOL    HW124440   0.959   3.279  15.144 -2.8924 -0.6691 -1.2925
 4327SOL    HW224441   0.850   3.381  15.130 -0.1318  2.2678  0.7457
 4328SOL     OW24442   4.700   1.555   8.644 -0.4195 -0.3294 -0.3123
 4328SOL    HW124443   4.662   1.476   8.606 -2.8266  2.2905 -3.3602
 4328SOL    HW224444   4.624   1.590   8.691 -0.6496 -2.2040  0.7318
 4329SOL     OW24445   0.485   1.150   3.669  0.4090 -0.1463 -0.0195
 4329SOL    HW124446   0.538   1.133   3.591 -0.5043 -0.1033 -0.6530
 4329SOL    HW224447   0.556   1.162   3.732  1.4347  1.9099 -1.5314
 4330SOL     OW24448   2.011   3.146   3.107  0.1398  0.2183  0.0603
 4330SOL    HW124449   2.053   3.222   3.068 -0.9347  0.4284 -0.6821
 4330SOL    HW224450   2.030   3.078   3.042  1.5984  0.7570 -0.0790
 4331SOL     OW24451   2.374   4.429  15.320 -0.3669 -0.4255 -0.6167
 4331SOL    HW124452   2.456   4.385  15.299  0.1450  0.9403 -1.5123
 4331SOL    HW224453   2.325   4.349  15.298  0.9985 -0.7476 -2.4881
 4332SOL     OW24454   3.595   1.746  14.391 -0.1937 -0.2869 -0.0788
 4332SOL    HW124455   3.576   1.672  14.333 -0.8057  0.3533 -0.6905
 4332SOL    HW224456   3.523   1.738  14.453 -0.0551  0.6946  0.2091
 4333SOL     OW24457   1.878   0.216  14.674 -0.4811 -0.2059  0.1060
 4333SOL    HW124458   1.941   0.227  14.603 -0.7006 -0.0310 -0.0585
 4333SOL    HW224459   1.800   0.256  14.637  1.6335  1.8439 -2.1099
 4334SOL     OW24460   4.076   1.457   8.616  0.1617  0.2546  0.1030
 4334SOL    HW124461   4.109   1.395   8.551  1.8498  0.3589  0.8570
 4334SOL    HW224462   4.112   1.418   8.696 -0.7172  0.6167  0.6663
 4335SOL     OW24463   1.290   4.391   6.694 -0.3042 -0.1152 -0.2007
 4335SOL    HW124464   1.286   4.486   6.683  0.7934 -0.2356 -1.6247
 4335SOL    HW224465   1.197   4.373   6.709 -0.7304  1.6775 -0.6247
 4336SOL     OW24466   0.306   0.358  12.735  0.0771 -0.0075  0.1342
 4336SOL    HW124467   0.222   0.394  12.709  0.6514  0.9307 -0.4011
 4336SOL    HW224468   0.355   0.377  12.655  0.2763  1.8720  0.7142
 4337SOL     OW24469   1.652   2.882   9.694 -0.1448 -0.4298 -0.3658
 4337SOL    HW124470   1.699   2.951   9.645 -0.2123  0.1040  0.3272
 4337SOL    HW224471   1.688   2.803   9.654  1.5265 -0.1248  0.5123
 4338SOL     OW24472   0.941   2.027   8.420 -0.3649 -0.1675 -0.1740
 4338SOL    HW124473   0.966   1.972   8.346 -0.3702  1.8219 -1.6561
 4338SOL    HW224474   0.875   1.980   8.472  0.2461  1.8382  2.4108
 4339SOL     OW24475   4.473   1.802   3.822 -0.2076 -0.1025 -0.2949
 4339SOL    HW124476   4.378   1.814   3.821 -0.0851  0.9258  0.5741
 4339SOL    HW224477   4.483   1.804   3.917 -2.5899 -0.8120 -0.0295
 4340SOL     OW24478   2.563   2.556   4.967 -0.2941 -0.7113  0.0640
 4340SOL    HW124479   2.616   2.628   5.002  0.8018 -0.7500 -1.4946
 4340SOL    HW224480   2.584   2.484   5.025  1.5640 -1.4778 -1.5775
 4341SOL     OW24481   3.275   1.914  11.869  0.8043 -0.1370 -0.0887
 4341SOL    HW124482   3.332   1.844  11.901 -0.8601 -1.8389 -0.7664
 4341SOL    HW224483   3.244   1.864  11.794  0.2184  0.0134  0.0525
 4342SOL     OW24484   4.015   1.516   6.420 -0.5849 -0.1493 -0.3778
 4342SOL    HW124485   3.931   1.556   6.442 -0.1133  1.5752 -1.6616
 4342SOL    HW224486   4.016   1.538   6.327 -2.5024  1.2762 -0.0525
 4343SOL     OW24487   2.456   4.517   9.029 -0.3233  0.2531  0.2195
 4343SOL    HW124488   2.369   4.502   8.991 -0.0265  2.6925 -1.4670
 4343SOL    HW224489   2.499   4.434   9.007  1.6224  1.5756 -0.9910
 4344SOL     OW24490   1.942   0.372   7.181  0.3476 -0.2943  0.8091
 4344SOL    HW124491   1.959   0.320   7.260 -1.3076 -2.6957 -0.4111
 4344SOL    HW224492   1.983   0.455   7.204 -0.6057 -0.2041  2.1758
 4345SOL     OW24493   0.564   1.481   8.690  0.1965 -0.3511 -0.2955
 4345SOL    HW124494   0.588   1.389   8.682  1.4025  0.0371 -1.1921
 4345SOL    HW224495   0.649   1.495   8.732 -0.2364 -0.5053  0.6159
 4346SOL     OW24496   1.444   1.393  14.596 -0.2639  0.5248  0.6981
 4346SOL    HW124497   1.463   1.468  14.540 -0.9270  1.2670  1.4642
 4346SOL    HW224498   1.432   1.436  14.681 -2.0824  0.6631  0.3655
 4347SOL     OW24499   2.306   3.542  16.682 -0.4263  0.3331  0.4272
 4347SOL    HW124500   2.245   3.557  16.755 -2.1678  1.9542 -1.3349
 4347SOL    HW224501   2.385   3.533  16.735 -0.8022 -0.5637  0.8432
 4348SOL     OW24502   4.157   0.714   8.659 -0.5826 -0.0535 -0.0524
 4348SOL    HW124503   4.232   0.773   8.652 -1.2850  0.7278 -1.1130
 4348SOL    HW224504   4.191   0.646   8.717  0.9514 -0.5632 -1.5454
 4349SOL     OW24505   3.967   0.363   9.579  0.5919 -0.3541  0.3538
 4349SOL    HW124506   4.043   0.307   9.561 -0.1702 -0.5626 -2.2103
 4349SOL    HW224507   3.969   0.422   9.503  0.5686  0.9670  1.3943
 4350SOL     OW24508   4.478   2.824   7.151 -0.1826 -0.3285 -0.0576
 4350SOL    HW124509   4.384   2.838   7.139 -0.2308 -0.2485  0.4115
 4350SOL    HW224510   4.495   2.748   7.094 -0.6842 -0.1317 -0.4644
 4351SOL     OW24511   2.165   0.750   5.844 -0.1013 -0.7172  0.0704
 4351SOL    HW124512   2.122   0.703   5.917 -0.5522  0.4498  0.5581
 4351SOL    HW224513   2.106   0.719   5.775 -1.3586 -0.0374  0.8366
 4352SOL     OW24514   1.681   0.420   4.547  0.0208  0.1837  0.1625
 4352SOL    HW124515   1.673   0.355   4.477 -0.2879  0.4682 -0.0688
 4352SOL    HW224516   1.670   0.367   4.625 -0.2809  2.2853  1.5542
 4353SOL     OW24517   3.842   4.224   5.876 -0.5742  0.5732 -0.0229
 4353SOL    HW124518   3.862   4.180   5.958  0.5027 -0.8703 -1.0670
 4353SOL    HW224519   3.882   4.311   5.882 -1.0173  0.8628 -1.2560
 4354SOL     OW24520   3.049   1.851   2.395 -0.6730  0.4455 -0.3199
 4354SOL    HW124521   3.096   1.818   2.318  0.0615 -1.0927  0.7911
 4354SOL    HW224522   3.123   1.895   2.436 -1.1483 -1.1314  2.1934
 4355SOL     OW24523   2.836   2.199   0.348  0.1409  0.3584 -0.2401
 4355SOL    HW124524   2.786   2.190   0.266 -0.3480 -0.1790  0.1183
 4355SOL    HW224525   2.770   2.196   0.417 -0.2732 -1.5344 -0.7111
 4356SOL     OW24526   1.656   4.322   2.399 -0.2711 -0.2888  0.3724
 4356SOL    HW124527   1.683   4.230   2.409 -2.3999 -0.7817  1.7276
 4356SOL    HW224528   1.564   4.327   2.424 -0.9666 -0.5656 -2.1686
 4357SOL     OW24529   4.467   3.610  11.767 -0.0391  1.7622  0.3404
 4357SOL    HW124530   4.520   3.530  11.771 -0.1922  1.7027  1.1167
 4357SOL    HW224531   4.492   3.652  11.849 -0.7551 -1.2308  2.0889
 4358SOL     OW24532   1.643   4.110  16.429 -0.0292  0.4596  0.0628
 4358SOL    HW124533   1.673   4.040  16.488  2.0822  1.8602  0.6373
 4358SOL    HW224534   1.619   4.173  16.496  2.4516  0.7994  0.6251
 4359SOL     OW24535   3.084   1.222   5.814  0.1173 -0.4383  0.2536
 4359SOL    HW124536   3.072   1.272   5.894  1.5333 -1.4140  1.0720
 4359SOL    HW224537   3.028   1.148   5.838 -0.1651 -0.1731  0.4064
 4360SOL     OW24538   2.996   1.630   2.976 -0.2893  0.1196 -0.7891
 4360SOL    HW124539   3.008   1.574   3.053 -0.4217  2.0549  0.6432
 4360SOL    HW224540   2.917   1.676   3.002 -0.4646 -1.4523  1.3988
 4361SOL     OW24541   0.792   2.350   3.846 -0.7639 -0.1816  0.0972
 4361SOL    HW124542   0.811   2.370   3.937 -1.1649  2.7155 -0.4428
 4361SOL    HW224543   0.850   2.276   3.829 -0.0611  0.0147  1.6744
 4362SOL     OW24544   1.910   3.790   7.550  0.4760 -0.6252  0.0307
 4362SOL    HW124545   1.960   3.786   7.468 -0.4595 -0.7602 -0.5306
 4362SOL    HW224546   1.952   3.718   7.597  0.1558 -0.0922  1.1386
 4363SOL     OW24547   3.988   2.004   1.243 -0.7209  0.2928  0.9405
 4363SOL    HW124548   4.029   1.918   1.253 -1.6947 -0.2281  0.4994
 4363SOL    HW224549   4.039   2.055   1.180  1.9143  0.6004  3.3739
 4364SOL     OW24550   2.433   2.316  15.922 -0.6906  0.6466 -0.1849
 4364SOL    HW124551   2.339   2.322  15.903 -0.6846  1.3993  0.0036
 4364SOL    HW224552   2.484   2.344  15.845  0.4977 -0.1849  0.3110
 4365SOL     OW24553   4.223   2.803  11.043 -0.1425 -0.0082 -0.0713
 4365SOL    HW124554   4.233   2.898  11.041 -1.5308  0.0780 -2.9055
 4365SOL    HW224555   4.251   2.788  11.134  0.2801 -4.1351 -0.8801
 4366SOL     OW24556   3.981   2.924  17.205  0.2839 -0.7141 -0.2084
 4366SOL    HW124557   3.913   2.863  17.177  0.9395 -1.7428  0.4511
 4366SOL    HW224558   3.922   2.999  17.218 -0.0252 -0.9076 -0.4974
 4367SOL     OW24559   3.195   3.196   9.769  0.1909 -0.5391 -0.0183
 4367SOL    HW124560   3.275   3.245   9.749  0.0688 -0.3159  0.0375
 4367SOL    HW224561   3.134   3.269   9.768 -1.3830 -1.8796 -0.2479
 4368SOL     OW24562   2.164   1.942   0.005  0.5202 -0.0239  0.3877
 4368SOL    HW124563   2.092   1.899   0.051  0.9731 -1.6362 -0.4311
 4368SOL    HW224564   2.150   1.900  17.616 -1.6083 -0.7987  1.1213
 4369SOL     OW24565   3.843   2.806   6.828 -0.0227  0.3277  0.0447
 4369SOL    HW124566   3.909   2.805   6.758 -0.7480  0.4562 -0.6338
 4369SOL    HW224567   3.851   2.894   6.865  2.0024 -0.3070  1.1569
 4370SOL     OW24568   3.501   1.666   7.336  1.4467 -0.0440  0.2564
 4370SOL    HW124569   3.579   1.719   7.320 -0.6355  2.4536 -1.4472
 4370SOL    HW224570   3.448   1.702   7.265  1.0493 -2.3570 -0.6061
 4371SOL     OW24571   1.977   1.090   9.105 -0.0016  0.2851 -0.0505
 4371SOL    HW124572   1.977   1.135   9.189  1.8763 -1.0978  0.6947
 4371SOL    HW224573   2.043   1.130   9.048 -1.7983 -0.5377 -2.7333
 4372SOL     OW24574   0.367   3.723  16.412  0.0373  0.1247 -0.0231
 4372SOL    HW124575   0.273   3.704  16.418 -0.1473  1.2247  0.7112
 4372SOL    HW224576   0.410   3.655  16.462 -1.8328 -2.3564 -1.7702
 4373SOL     OW24577   3.765   2.275   4.768 -0.2155  0.1343  0.0484
 4373SOL    HW124578   3.750   2.243   4.857 -0.7801  0.7874  0.1900
 4373SOL    HW224579   3.715   2.214   4.713  0.0731  1.3503 -1.5314
 4374SOL     OW24580   0.163   4.106  15.622 -0.0743  0.0735  0.2539
 4374SOL    HW124581   0.229   4.053  15.666  1.2410  0.3416 -1.3752
 4374SOL    HW224582   0.217   4.174  15.581  0.6524 -0.1658  0.8160
 4375SOL     OW24583   3.789   2.038   1.568 -0.9057 -0.0960  0.1335
 4375SOL    HW124584   3.779   2.124   1.609  0.7126 -0.5885  1.5999
 4375SOL    HW224585   3.715   1.995   1.611  1.0578 -1.4503  2.1283
 4376SOL     OW24586   3.926   0.169   5.606  0.8113 -0.1689  0.6506
 4376SOL    HW124587   3.929   0.252   5.654  1.9290  0.4659 -0.5193
 4376SOL    HW224588   3.917   0.108   5.680 -1.3226  1.0321  1.3727
 4377SOL     OW24589   1.987   2.589   6.195 -0.4534 -0.3330 -0.6769
 4377SOL    HW124590   2.006   2.528   6.266  1.3752 -0.0699 -0.9387
 4377SOL    HW224591   2.079   2.594   6.169 -0.2757 -0.1509  0.0022
 4378SOL     OW24592   0.462   3.366   7.014  0.6076  0.3550 -0.4580
 4378SOL    HW124593   0.538   3.380   6.956  2.1043 -0.1210  1.4098
 4378SOL    HW224594   0.389   3.353   6.953  0.7451  2.7609 -1.1323
 4379SOL     OW24595   3.138   3.913   6.320  0.1201 -0.0827  0.2679
 4379SOL    HW124596   3.080   3.840   6.342  0.5965 -0.1782  1.2263
 4379SOL    HW224597   3.132   3.977   6.392 -0.3210 -0.7963  0.8683
 4380SOL     OW24598   1.579   3.790   8.142  0.3486  0.3686 -0.2333
 4380SOL    HW124599   1.631   3.710   8.133 -0.9001 -0.4779  0.0479
 4380SOL    HW224600   1.497   3.741   8.152  0.7694 -0.3790 -0.4225
 4381SOL     OW24601   3.229   1.020   1.053  0.0243  0.0529  0.3027
 4381SOL    HW124602   3.267   1.096   1.009  1.8959 -0.3350  1.2184
 4381SOL    HW224603   3.234   0.958   0.980  1.4939  1.4156 -0.7478
 4382SOL     OW24604   3.473   4.515   4.433  0.1457 -0.0927  0.0407
 4382SOL    HW124605   3.551   4.461   4.444  0.1167 -0.0597  0.4382
 4382SOL    HW224606   3.433   4.467   4.361 -0.6431  0.6142 -0.0005
 4383SOL     OW24607   2.611   4.636   2.787 -0.3544  0.6016 -0.3493
 4383SOL    HW124608   2.556   4.655   2.711  1.0900  0.4523 -1.4304
 4383SOL    HW224609   2.650   4.553   2.760  0.8953  0.0064  3.2600
 4384SOL     OW24610   3.807   3.810   1.420 -0.0130  0.4631  0.1897
 4384SOL    HW124611   3.845   3.833   1.335  0.5103 -1.2966 -0.0565
 4384SOL    HW224612   3.777   3.720   1.405 -3.3903  0.9074  4.1796
 4385SOL     OW24613   1.233   1.157   2.710 -0.5757 -0.3163  0.4240
 4385SOL    HW124614   1.282   1.098   2.766 -2.0824 -0.1218  1.9389
 4385SOL    HW224615   1.194   1.093   2.650 -2.3257 -0.5918  1.8612
 4386SOL     OW24616   3.876   4.495  10.361  0.3472 -0.4244  0.0629
 4386SOL    HW124617   3.882   4.579  10.405  0.5649  0.2856 -1.3119
 4386SOL    HW224618   3.967   4.465  10.360  1.1416  1.9584  0.4918
 4387SOL     OW24619   3.445   2.528   3.528  0.4591 -0.1362 -0.6588
 4387SOL    HW124620   3.428   2.447   3.574 -0.8301  1.0694  0.9749
 4387SOL    HW224621   3.503   2.566   3.594  1.9764  1.5784 -2.9437
 4388SOL     OW24622   1.961   3.089   5.989  0.0322 -0.3598 -1.0759
 4388SOL    HW124623   2.032   3.146   6.019  1.3478 -2.5774  0.0073
 4388SOL    HW224624   1.963   3.121   5.898  0.1526  0.6977 -0.7026
 4389SOL     OW24625   4.104   4.380  10.386 -0.5378 -0.3848  0.0433
 4389SOL    HW124626   4.196   4.359  10.372 -1.2863 -1.8588 -2.6226
 4389SOL    HW224627   4.079   4.330  10.463 -0.7528  0.4870  0.5383
 4390SOL     OW24628   1.616   4.355   6.178  0.0940  0.0060 -0.3471
 4390SOL    HW124629   1.629   4.333   6.270  0.5627  0.4967 -0.2997
 4390SOL    HW224630   1.702   4.361   6.137 -0.0515  1.2315 -0.4553
 4391SOL     OW24631   4.640   4.281   9.558  0.1778 -0.2160 -0.4380
 4391SOL    HW124632   4.663   4.370   9.530 -0.6304 -0.2088 -1.0777
 4391SOL    HW224633   4.720   4.239   9.528 -0.6916 -0.2672 -2.6428
 4392SOL     OW24634   4.638   3.840   6.334 -0.2386  0.2066 -0.1130
 4392SOL    HW124635   4.619   3.748   6.352  0.2018  0.2525  0.5842
 4392SOL    HW224636   4.591   3.888   6.403 -0.9353 -0.1310 -0.3450
 4393SOL     OW24637   2.119   0.483   2.011 -0.7987  0.7689  0.4524
 4393SOL    HW124638   2.113   0.566   2.058 -4.0515 -0.6271  2.5100
 4393SOL    HW224639   2.049   0.491   1.946  0.8755 -0.5441 -1.4833
 4394SOL     OW24640   3.028   1.190  13.069 -0.3518  0.1004 -0.0688
 4394SOL    HW124641   3.024   1.285  13.060 -1.2504  0.0696  0.0967
 4394SOL    HW224642   2.968   1.163  13.000  0.6450  0.6102 -1.1604
 4395SOL     OW24643   3.586   0.593   9.659 -0.2513 -0.0616  0.2772
 4395SOL    HW124644   3.574   0.545   9.577 -0.5431  1.8686 -0.8077
 4395SOL    HW224645   3.675   0.575   9.691 -0.3883 -0.3202  0.5028
 4396SOL     OW24646   0.849   2.928  16.882 -0.5852  0.3542  0.4440
 4396SOL    HW124647   0.801   3.010  16.867 -2.1741 -1.0594 -2.0748
 4396SOL    HW224648   0.925   2.943  16.826 -0.4122  0.3688  0.6849
 4397SOL     OW24649   1.404   2.952   6.523  0.0913 -0.0889 -0.1463
 4397SOL    HW124650   1.424   3.041   6.554 -0.0746 -0.3522  0.7193
 4397SOL    HW224651   1.468   2.900   6.571 -0.3422  1.6144  2.3073
 4398SOL     OW24652   0.589   1.592  10.477 -0.4291  1.0951  0.2577
 4398SOL    HW124653   0.662   1.628  10.528  0.4657 -3.3199  2.0744
 4398SOL    HW224654   0.637   1.515  10.447  0.2745  1.3473  0.7263
 4399SOL     OW24655   2.034   1.605  12.582  0.2071  0.3632 -0.3927
 4399SOL    HW124656   1.950   1.645  12.562  0.4842  0.8824 -0.5247
 4399SOL    HW224657   2.070   1.659  12.652 -1.2009  1.3087 -0.4148
 4400SOL     OW24658   0.444   2.510   2.866  0.5380 -0.2754 -0.0578
 4400SOL    HW124659   0.482   2.593   2.894  0.7560 -0.4470  0.1504
 4400SOL    HW224660   0.482   2.453   2.933 -1.4679 -1.7270 -0.1281
 4401SOL     OW24661   3.913   0.294   6.519  0.3920  0.3340  0.1916
 4401SOL    HW124662   3.946   0.221   6.467  0.7949  0.5860  0.0884
 4401SOL    HW224663   3.953   0.274   6.603 -0.6690  2.4642  1.2049
 4402SOL     OW24664   2.895   4.674   7.337 -0.3635 -0.5146  0.4701
 4402SOL    HW124665   2.908   4.610   7.268  3.8292  2.4325 -1.5350
 4402SOL    HW224666   2.816   0.001   7.319 -0.0181 -0.2673 -0.3739
 4403SOL     OW24667   4.205   4.515   6.507 -0.4133  0.4286  0.4087
 4403SOL    HW124668   4.297   4.531   6.526 -0.6717  3.0763 -0.4687
 4403SOL    HW224669   4.159   4.587   6.550 -2.8343 -0.5991 -0.4624
 4404SOL     OW24670   0.556   1.499   0.926  0.7143  0.0059 -0.2011
 4404SOL    HW124671   0.509   1.580   0.907  2.3056  0.0971 -3.6609
 4404SOL    HW224672   0.619   1.495   0.854  0.2288 -2.8066 -0.5008
 4405SOL     OW24673   1.338   0.334   7.942 -0.4099 -0.2466  0.3698
 4405SOL    HW124674   1.418   0.327   7.994 -0.0275  0.0717 -0.1645
 4405SOL    HW224675   1.369   0.320   7.852 -1.0657  0.4618  0.0376
 4406SOL     OW24676   4.484   3.673   5.341 -0.3537 -0.4293 -0.1514
 4406SOL    HW124677   4.568   3.701   5.378 -0.9817  0.7127  0.4135
 4406SOL    HW224678   4.444   3.755   5.314  0.3393 -0.4008 -1.0878
 4407SOL     OW24679   4.239   1.434   5.937  0.1249  0.2627 -0.1968
 4407SOL    HW124680   4.182   1.403   5.867 -0.9415  0.4931  0.5673
 4407SOL    HW224681   4.290   1.502   5.893  0.9517  0.6538  1.3854
 4408SOL     OW24682   0.970   1.422   9.916 -0.0432  0.0290  0.3227
 4408SOL    HW124683   0.999   1.433   9.825  1.4032  1.0126  0.9159
 4408SOL    HW224684   1.028   1.478   9.965  2.0980 -0.1799 -1.9711
 4409SOL     OW24685   4.034   0.491   7.496  0.0599  1.0816  0.1520
 4409SOL    HW124686   3.989   0.411   7.523  1.1553  0.2293 -0.5273
 4409SOL    HW224687   4.024   0.488   7.400  0.8085  2.2914  0.0386
 4410SOL     OW24688   2.737   1.262  16.451  0.1855  0.1261 -0.4231
 4410SOL    HW124689   2.690   1.345  16.452  0.1283  0.1056 -1.3102
 4410SOL    HW224690   2.664   1.204  16.428  0.1874 -1.2335  3.0228
 4411SOL     OW24691   1.859   3.019  15.823 -0.7009 -0.3763  0.5512
 4411SOL    HW124692   1.778   3.028  15.874  0.8785 -0.8840  3.1878
 4411SOL    HW224693   1.934   3.029  15.883  0.6196 -2.4116 -0.7578
 4412SOL     OW24694   2.108   3.879   2.194 -0.0172  0.4344  0.4713
 4412SOL    HW124695   2.187   3.833   2.225  0.1361 -0.6088 -1.4426
 4412SOL    HW224696   2.085   3.817   2.125  1.6767 -0.6599  0.8663
 4413SOL     OW24697   0.478   0.126   2.420  0.0125 -0.1787 -0.5024
 4413SOL    HW124698   0.525   0.188   2.364  1.6987 -1.8559 -0.9623
 4413SOL    HW224699   0.528   0.048   2.394  0.5360  0.3546 -1.0780
 4414SOL     OW24700   3.962   0.653   3.247 -0.2266 -0.7004  0.3086
 4414SOL    HW124701   3.973   0.715   3.319  3.4549 -0.4401 -0.4486
 4414SOL    HW224702   3.983   0.574   3.297  0.3168  0.1263  1.3873
 4415SOL     OW24703   3.253   1.741  15.955  0.5468 -0.2746 -0.2905
 4415SOL    HW124704   3.209   1.665  15.917 -1.0204  0.2621  0.4302
 4415SOL    HW224705   3.299   1.783  15.882 -0.6961 -0.2045 -1.0472
 4416SOL     OW24706   0.786   3.553   5.172 -0.1750  0.3845  0.1378
 4416SOL    HW124707   0.746   3.541   5.086  2.0268  0.0313 -0.8444
 4416SOL    HW224708   0.743   3.481   5.218 -0.4412  0.0964 -0.5595
 4417SOL     OW24709   2.192   3.270   1.973 -0.1194  0.3170  0.1265
 4417SOL    HW124710   2.271   3.317   2.000 -1.5476  2.2062  1.0021
 4417SOL    HW224711   2.185   3.211   2.048  2.0059  0.1440  0.1897
 4418SOL     OW24712   2.254   2.347  17.140 -0.0793  0.2623  0.3435
 4418SOL    HW124713   2.220   2.361  17.228  1.5919  1.0108  0.8650
 4418SOL    HW224714   2.224   2.257  17.130 -1.0158  0.8053 -1.8552
 4419SOL     OW24715   2.663   3.857   1.872 -0.4023  0.3216  0.0963
 4419SOL    HW124716   2.709   3.922   1.925  0.9110 -0.8841  0.4539
 4419SOL    HW224717   2.719   3.860   1.795  0.8067 -1.5964  0.8980
 4420SOL     OW24718   4.548   2.119   9.995 -0.8440 -1.2152 -0.0367
 4420SOL    HW124719   4.611   2.078   9.936  0.3692  0.2722  0.2251
 4420SOL    HW224720   4.480   2.051   9.990 -0.5510 -1.4730 -0.5213
 4421SOL     OW24721   2.454   1.504  12.115 -0.3750 -0.8046  0.3308
 4421SOL    HW124722   2.409   1.433  12.069  0.6629 -0.4882 -1.1881
 4421SOL    HW224723   2.533   1.515  12.063 -0.6147 -1.3006 -0.1364
 4422SOL     OW24724   2.154   1.244   1.386 -0.3499  0.4927 -0.0047
 4422SOL    HW124725   2.098   1.319   1.405 -0.5683  0.3780 -0.1897
 4422SOL    HW224726   2.098   1.187   1.332 -0.5757  0.8006 -0.0955
 4423SOL     OW24727   1.893   2.831  15.624 -0.3764 -0.7046 -0.2781
 4423SOL    HW124728   1.875   2.897  15.691 -2.4634 -2.5100  0.9419
 4423SOL    HW224729   1.819   2.773  15.640 -1.4344  0.2816 -1.6394
 4424SOL     OW24730   2.287   3.599   7.569  0.5952 -0.3723  0.7011
 4424SOL    HW124731   2.262   3.544   7.643 -2.2266  1.5430  1.1306
 4424SOL    HW224732   2.271   3.687   7.601 -1.4014 -0.8559  0.9768
 4425SOL     OW24733   4.280   1.901  15.145 -0.6278 -0.1187 -0.3090
 4425SOL    HW124734   4.185   1.895  15.158 -0.4846  1.3609  1.4479
 4425SOL    HW224735   4.299   1.844  15.071  0.0143 -0.9466  0.4869
 4426SOL     OW24736   1.977   2.085  14.896  0.2131 -0.2960  0.2787
 4426SOL    HW124737   1.914   2.125  14.837  0.4633 -0.9560 -0.4406
 4426SOL    HW224738   1.991   2.151  14.964 -1.3914  1.4908 -1.1171
 4427SOL     OW24739   0.018   3.313   3.792 -0.1047  0.1213 -0.1580
 4427SOL    HW124740   4.702   3.399   3.803  0.0584 -0.2445  3.3239
 4427SOL    HW224741   0.075   3.306   3.869  1.3482  1.0723 -1.1277
 4428SOL     OW24742   0.014   2.420   8.052  0.4466 -0.0553 -0.3263
 4428SOL    HW124743   0.085   2.432   8.114 -0.3452  2.0606  0.1776
 4428SOL    HW224744   0.007   2.325   8.045  1.4245 -0.0750 -1.0636
 4429SOL     OW24745   4.679   1.101  10.818  0.3587  0.2142  0.4425
 4429SOL    HW124746   4.639   1.165  10.876 -0.9494  1.3047 -1.6890
 4429SOL    HW224747   4.635   1.118  10.735  1.1170 -1.2594 -0.2712
 4430SOL     OW24748   0.294   4.354   9.407  0.2757 -1.1232  0.1272
 4430SOL    HW124749   0.372   4.301   9.423  0.9259 -0.7487 -1.8301
 4430SOL    HW224750   0.231   4.319   9.471  0.6742 -1.5005  0.3130
 4431SOL     OW24751   1.646   4.432   9.590 -0.3058  0.0991  0.0657
 4431SOL    HW124752   1.723   4.389   9.626 -1.2131 -1.1942  0.4588
 4431SOL    HW224753   1.665   4.524   9.570 -1.1486 -0.1383 -1.8051
 4432SOL     OW24754   3.595   0.668   4.018  0.6826 -0.1769  0.3908
 4432SOL    HW124755   3.573   0.714   3.936  0.7328 -0.6407  0.1185
 4432SOL    HW224756   3.567   0.579   3.996  2.7384 -0.8332  0.4306
 4433SOL     OW24757   3.775   1.601  15.624 -0.1980 -0.3409  0.6453
 4433SOL    HW124758   3.700   1.649  15.660 -0.2013  0.4862 -0.4663
 4433SOL    HW224759   3.792   1.531  15.687 -1.7114  0.3073  1.7539
 4434SOL     OW24760   1.075   4.148   3.396 -0.1454  0.4599 -0.2406
 4434SOL    HW124761   1.149   4.147   3.457 -1.2005  2.0152  1.0727
 4434SOL    HW224762   1.014   4.099   3.451 -0.9484 -0.5570 -2.0263
 4435SOL     OW24763   3.216   4.583   4.169  0.5760  0.2524 -0.3305
 4435SOL    HW124764   3.230   4.503   4.119  0.1194  0.4267 -0.7421
 4435SOL    HW224765   3.300   4.623   4.146  1.1456 -0.4261  0.6057
 4436SOL     OW24766   2.495   3.554  16.873  0.1344 -0.1396 -0.3526
 4436SOL    HW124767   2.557   3.627  16.872 -1.1938  1.0272  1.8005
 4436SOL    HW224768   2.513   3.530  16.963  1.1853 -0.4199 -0.6381
 4437SOL     OW24769   3.381   1.348   4.228 -0.7607 -0.7386 -0.1053
 4437SOL    HW124770   3.356   1.309   4.144  3.8899  0.1035 -1.9036
 4437SOL    HW224771   3.477   1.340   4.225 -0.7548 -0.3183 -1.3169
 4438SOL     OW24772   4.374   2.235   3.005 -0.0103  0.2235  0.4448
 4438SOL    HW124773   4.410   2.323   2.995 -2.7420  1.5202  1.8580
 4438SOL    HW224774   4.355   2.209   2.915  1.5506  3.9260 -0.9486
 4439SOL     OW24775   4.709   1.639  15.364  0.1763 -0.4136  0.2351
 4439SOL    HW124776   4.707   1.619  15.270 -0.4460 -0.5769  0.2870
 4439SOL    HW224777   0.066   1.688  15.380  0.9973 -1.3082 -1.0981
 4440SOL     OW24778   2.273   0.916   6.856 -0.3299 -0.1412  0.3834
 4440SOL    HW124779   2.356   0.960   6.837 -0.1688  0.6478  2.8776
 4440SOL    HW224780   2.306   0.850   6.918  1.0227 -0.8959 -1.1531
 4441SOL     OW24781   2.090   0.112   3.789 -0.4540  0.0508  0.0447
 4441SOL    HW124782   2.158   0.164   3.746  1.1420 -3.3817 -1.6019
 4441SOL    HW224783   2.039   0.089   3.711  1.3493  0.0321 -1.1352
 4442SOL     OW24784   1.193   3.442   6.021  0.4492  0.0396  0.2565
 4442SOL    HW124785   1.178   3.511   5.956 -0.3926  0.6115  1.0718
 4442SOL    HW224786   1.268   3.479   6.067  1.7857  0.2636 -2.1152
 4443SOL     OW24787   0.909   2.862   6.945 -0.2499 -0.2429  0.5035
 4443SOL    HW124788   0.932   2.847   7.037 -1.6935 -0.4352  0.8306
 4443SOL    HW224789   0.833   2.917   6.964  0.0795  0.1267  0.7589
 4444SOL     OW24790   2.441   2.807   3.272  0.0371 -0.3025  0.5302
 4444SOL    HW124791   2.432   2.750   3.348  2.6486  0.0615  1.1258
 4444SOL    HW224792   2.354   2.799   3.233 -0.4696 -1.6005  1.9335
 4445SOL     OW24793   1.075   2.693   9.052 -0.3661 -0.2085 -0.1530
 4445SOL    HW124794   1.115   2.608   9.073 -0.6495 -0.2301  0.3040
 4445SOL    HW224795   1.028   2.699   9.135 -0.6270  0.6721 -0.3639
 4446SOL     OW24796   1.030   3.254   7.990 -0.4127 -1.2368 -0.1327
 4446SOL    HW124797   1.073   3.168   7.991  0.5864 -0.7414 -0.5431
 4446SOL    HW224798   1.100   3.316   7.970  0.0589 -2.3591 -2.0251
 4447SOL     OW24799   3.600   2.803   1.459  0.0867  0.1610 -0.0735
 4447SOL    HW124800   3.543   2.858   1.513  0.9423  2.6696 -1.7359
 4447SOL    HW224801   3.551   2.771   1.383 -2.1929 -1.3462  2.0109
 4448SOL     OW24802   0.868   3.609   9.266 -0.0103  0.9330  0.5625
 4448SOL    HW124803   0.805   3.538   9.256  0.0497  0.9855 -0.2016
 4448SOL    HW224804   0.809   3.674   9.304 -0.0261  1.3919 -0.2474
 4449SOL     OW24805   0.514   0.341   3.965 -0.7711  0.1693  0.6081
 4449SOL    HW124806   0.489   0.400   3.894 -1.7280  0.2625  1.0169
 4449SOL    HW224807   0.452   0.375   4.029 -1.5797  0.1278 -0.1607
 4450SOL     OW24808   1.630   0.564  15.092 -0.0935 -0.5634  0.6354
 4450SOL    HW124809   1.549   0.524  15.061  0.3260 -0.4155 -0.6401
 4450SOL    HW224810   1.705   0.518  15.053  0.7330  2.3765 -1.2426
 4451SOL     OW24811   1.406   0.600   9.737  0.6359 -0.1023  0.5947
 4451SOL    HW124812   1.453   0.586   9.819  0.3701 -0.3857  0.6966
 4451SOL    HW224813   1.316   0.578   9.759  0.6912 -0.2881  0.6362
 4452SOL     OW24814   4.342   0.410   5.141  0.0739  0.3356  0.8766
 4452SOL    HW124815   4.371   0.482   5.197 -0.3430  0.4282  0.9779
 4452SOL    HW224816   4.393   0.340   5.181 -1.1982  0.2292  2.3223
 4453SOL     OW24817   1.727   1.791   8.789 -0.3292 -0.4486  0.0637
 4453SOL    HW124818   1.711   1.879   8.821 -0.1056 -0.5960  0.5865
 4453SOL    HW224819   1.675   1.736   8.848 -0.1373  1.1271  1.7065
 4454SOL     OW24820   1.417   0.541   8.638  0.4394 -0.4276  0.6821
 4454SOL    HW124821   1.394   0.633   8.638 -1.3516 -0.8674 -0.6903
 4454SOL    HW224822   1.340   0.514   8.689 -0.8779  0.4240 -0.8550
 4455SOL     OW24823   4.682   0.996  11.702  0.2466  0.0498 -0.4243
 4455SOL    HW124824   4.630   1.067  11.739  1.9423 -0.5213  2.9647
 4455SOL    HW224825   4.626   0.978  11.626  0.1601  0.1828 -0.3924
 4456SOL     OW24826   0.636   0.085  15.556 -0.3097 -0.3442  0.3433
 4456SOL    HW124827   0.611   0.174  15.532  1.5900  0.3337  0.8024
 4456SOL    HW224828   0.565   0.041  15.510  1.9160 -1.3788 -2.1108
 4457SOL     OW24829   3.124   1.209   3.368  0.2552 -0.3668  0.1499
 4457SOL    HW124830   3.073   1.238   3.444  0.1272  0.6643 -0.3374
 4457SOL    HW224831   3.057   1.209   3.300 -0.3754 -0.5193  0.7707
 4458SOL     OW24832   3.187   4.466   3.396  0.2256  0.2949  0.0172
 4458SOL    HW124833   3.103   4.510   3.410  0.9969  2.1304 -1.2056
 4458SOL    HW224834   3.162   4.423   3.314 -2.9336 -0.0347  1.1313
 4459SOL     OW24835   1.163   0.423  12.778 -0.6631 -0.0724  0.4951
 4459SOL    HW124836   1.145   0.338  12.817 -1.3197 -1.2421 -2.3385
 4459SOL    HW224837   1.156   0.479  12.855  1.3848  0.1489  0.5277
 4460SOL     OW24838   1.289   0.568   3.413 -0.5828 -0.1442 -0.1395
 4460SOL    HW124839   1.284   0.609   3.327 -1.4339  0.2405  0.0979
 4460SOL    HW224840   1.233   0.630   3.459 -0.0137  0.3500 -0.1110
 4461SOL     OW24841   3.981   4.542   7.475 -0.0158  0.4724  0.3726
 4461SOL    HW124842   3.892   4.576   7.463 -0.4339 -0.6055  0.4439
 4461SOL    HW224843   3.990   4.557   7.569 -0.9639 -0.8522  0.6635
 4462SOL     OW24844   1.399   4.375   6.959  0.0575 -0.1263  0.0720
 4462SOL    HW124845   1.361   4.410   6.878  0.7591  2.5861  0.9036
 4462SOL    HW224846   1.320   4.354   7.009  0.7410  0.1329  1.2729
 4463SOL     OW24847   4.593   1.758  16.118  0.4517 -0.3427 -0.5780
 4463SOL    HW124848   4.529   1.798  16.059 -3.5672 -2.6660  2.2007
 4463SOL    HW224849   4.574   1.796  16.204 -0.8187 -2.0036 -0.1126
 4464SOL     OW24850   3.722   2.373   0.963 -0.3567 -0.1273  0.1408
 4464SOL    HW124851   3.780   2.316   1.014 -0.6251 -0.2723  0.2829
 4464SOL    HW224852   3.704   2.320   0.886  0.6437 -1.2234  0.6583
 4465SOL     OW24853   3.006   3.117   2.820  0.8374  0.0893 -0.6844
 4465SOL    HW124854   2.996   3.022   2.827  0.2488  0.0846 -1.6412
 4465SOL    HW224855   2.993   3.130   2.726  0.5091 -0.4138 -0.7053
 4466SOL     OW24856   3.664   3.212   8.135  0.0118 -0.6199 -0.3042
 4466SOL    HW124857   3.716   3.265   8.195  1.5790 -1.7388 -0.6970
 4466SOL    HW224858   3.599   3.171   8.192 -1.3705  1.4100 -0.4089
 4467SOL     OW24859   4.455   2.402   3.744  0.3064 -0.2147 -0.2484
 4467SOL    HW124860   4.513   2.431   3.673 -0.8100 -0.0725 -1.0895
 4467SOL    HW224861   4.385   2.467   3.743  0.5155  0.0144 -0.1219
 4468SOL     OW24862   3.592   0.325  17.202  0.1254  0.5518 -0.3872
 4468SOL    HW124863   3.554   0.374  17.275  1.7948 -0.6919  1.2982
 4468SOL    HW224864   3.520   0.335  17.139  1.5312  1.6629 -1.8418
 4469SOL     OW24865   0.731   0.323   6.183 -0.0300  0.4105  0.4769
 4469SOL    HW124866   0.782   0.257   6.137 -0.4629  1.1459 -1.0309
 4469SOL    HW224867   0.657   0.333   6.124  2.0193 -3.7792 -2.7267
 4470SOL     OW24868   2.397   3.406   2.055  0.1379  0.4125 -0.7292
 4470SOL    HW124869   2.446   3.484   2.029 -0.4070  0.8445 -0.4653
 4470SOL    HW224870   2.476   3.361   2.084 -0.0122  0.3396 -0.4306
 4471SOL     OW24871   1.057   1.325   4.455  0.3622 -0.5424  0.1063
 4471SOL    HW124872   1.107   1.378   4.518  0.3160 -1.2907  0.7788
 4471SOL    HW224873   1.043   1.387   4.384  1.1129  0.2125  0.6094
 4472SOL     OW24874   4.143   2.835   2.450 -0.6918  0.4387  0.3468
 4472SOL    HW124875   4.146   2.772   2.377 -2.5711 -1.6544  2.0798
 4472SOL    HW224876   4.148   2.917   2.401  0.5378  0.5249  0.6210
 4473SOL     OW24877   1.434   3.048   3.504 -0.3514  0.1452 -0.6020
 4473SOL    HW124878   1.527   3.042   3.526 -1.0980 -0.7290  2.2713
 4473SOL    HW224879   1.417   2.980   3.439  1.1787 -1.2863  0.5064
 4474SOL     OW24880   3.545   0.233   8.452  0.1980  0.3888  0.1628
 4474SOL    HW124881   3.501   0.315   8.474  0.3685  0.6324 -0.4010
 4474SOL    HW224882   3.631   0.244   8.493 -0.0670  0.0799  0.7973
 4475SOL     OW24883   1.547   4.716   8.772 -0.3934 -0.3439 -1.2751
 4475SOL    HW124884   1.520   4.641   8.826  0.3475 -0.7462 -1.4707
 4475SOL    HW224885   1.481   4.716   8.703 -1.2860 -0.2298 -0.4224
 4476SOL     OW24886   3.086   2.248  17.075  0.1501 -0.0101 -0.5662
 4476SOL    HW124887   3.117   2.327  17.119  1.0507 -0.4120 -0.4854
 4476SOL    HW224888   3.072   2.279  16.985 -1.7595 -0.8073 -0.5390
 4477SOL     OW24889   2.530   1.475   5.461  0.2483 -0.2970 -0.0818
 4477SOL    HW124890   2.617   1.507   5.484  0.5045 -0.5886 -0.6625
 4477SOL    HW224891   2.479   1.526   5.523  0.1931  0.4763 -0.7734
 4478SOL     OW24892   2.115   0.115   7.931 -0.1481  0.0311  0.2822
 4478SOL    HW124893   2.117   0.089   8.024  1.6027  1.2163  0.5745
 4478SOL    HW224894   2.076   0.042   7.883  0.1248  0.4236 -0.5363
 4479SOL     OW24895   1.583   3.988   6.650  0.8237 -0.1333 -0.3164
 4479SOL    HW124896   1.516   4.053   6.631 -0.7823 -1.8610 -0.5326
 4479SOL    HW224897   1.574   3.989   6.746 -0.7606  0.2082 -0.4742
 4480SOL     OW24898   4.009   1.955   1.891  0.0088 -0.3087 -0.2642
 4480SOL    HW124899   3.944   1.884   1.890 -0.1851 -0.1393  0.1874
 4480SOL    HW224900   3.959   2.035   1.906  1.8316  0.6366  0.6788
 4481SOL     OW24901   1.908   4.420   4.100  0.4791  0.0781 -0.3922
 4481SOL    HW124902   1.911   4.354   4.031 -3.2452  0.2010 -0.7189
 4481SOL    HW224903   1.814   4.411   4.117  0.6368  0.2678  0.5842
 4482SOL     OW24904   4.181   3.960   0.502  0.4090  0.1450  0.3278
 4482SOL    HW124905   4.176   3.866   0.485  1.2380  0.2874 -0.7065
 4482SOL    HW224906   4.272   3.989   0.497  0.3800  0.4036  1.3841
 4483SOL     OW24907   0.942   2.769   4.604 -0.0227 -0.0965 -0.2416
 4483SOL    HW124908   0.875   2.713   4.565  0.4901 -0.1859 -1.0016
 4483SOL    HW224909   1.021   2.718   4.586  1.1251  2.6614 -3.0179
 4484SOL     OW24910   0.411   3.366   5.986  0.0209 -0.2023 -0.3484
 4484SOL    HW124911   0.506   3.354   5.983  0.3556  2.5802 -0.2863
 4484SOL    HW224912   0.380   3.275   5.984  1.5360 -0.7304  0.8985
 4485SOL     OW24913   2.083   3.496   9.953 -0.0097 -0.5200 -0.0235
 4485SOL    HW124914   2.161   3.512   9.900 -0.6109  2.9090  0.0679
 4485SOL    HW224915   2.126   3.446  10.022 -0.6564 -1.4321 -0.2836
 4486SOL     OW24916   4.492   1.971   8.428 -0.3596 -0.2070  0.3088
 4486SOL    HW124917   4.413   1.919   8.412 -0.2784 -0.0705 -0.5561
 4486SOL    HW224918   4.540   1.919   8.492 -0.6838  0.4064  1.0574
 4487SOL     OW24919   3.541   1.852   5.818 -0.0101  0.0630  0.2639
 4487SOL    HW124920   3.451   1.820   5.830  1.2950 -3.4168  0.7884
 4487SOL    HW224921   3.571   1.815   5.901 -1.3643  0.3611  0.8865
 4488SOL     OW24922   4.082   3.287  13.558 -0.0795 -0.5065 -0.5322
 4488SOL    HW124923   4.050   3.202  13.588  1.4757 -1.0293 -0.3569
 4488SOL    HW224924   4.168   3.274  13.518  0.7617  2.6800  0.2477
 4489SOL     OW24925   0.467   2.356  12.635  0.3577 -0.1019  0.3390
 4489SOL    HW124926   0.452   2.308  12.716 -0.0126  1.0774  0.9654
 4489SOL    HW224927   0.383   2.348  12.590  1.6051  1.8395 -2.4049
 4490SOL     OW24928   1.528   0.546   7.644 -0.0100  0.0252  0.5664
 4490SOL    HW124929   1.607   0.496   7.663 -0.2791 -0.7260 -0.2762
 4490SOL    HW224930   1.536   0.626   7.696  0.5279  1.9148 -2.3759
 4491SOL     OW24931   3.140   4.297   7.678 -0.7707  0.0111 -0.4891
 4491SOL    HW124932   3.087   4.309   7.600  1.6893  1.6579 -1.9145
 4491SOL    HW224933   3.158   4.203   7.687 -1.0403  0.1701  1.8454
 4492SOL     OW24934   2.982   3.412   2.770  0.2534 -0.3343 -0.3255
 4492SOL    HW124935   2.982   3.319   2.791 -0.8107  0.1692  1.9378
 4492SOL    HW224936   3.058   3.412   2.713  0.0005 -0.0446 -0.6627
 4493SOL     OW24937   3.395   2.193   9.829  0.0581  0.2292 -0.0163
 4493SOL    HW124938   3.321   2.167   9.884  0.4132 -2.1105 -0.6305
 4493SOL    HW224939   3.368   2.161   9.743 -1.4992  2.7218 -0.4847
 4494SOL     OW24940   1.992   1.465   5.137 -0.0873 -0.2008 -0.2116
 4494SOL    HW124941   1.896   1.461   5.131  0.0263  2.0272 -3.0606
 4494SOL    HW224942   2.014   1.457   5.230 -2.5353 -0.0981  0.3904
 4495SOL     OW24943   0.701   0.935   7.968  0.2088  0.2557  0.1605
 4495SOL    HW124944   0.696   0.892   8.053  2.1070 -2.3781 -1.0843
 4495SOL    HW224945   0.722   1.026   7.987 -2.7933  1.1139 -0.6456
 4496SOL     OW24946   1.756   0.033   6.316  0.1236  0.4674  0.4058
 4496SOL    HW124947   1.705   0.010   6.238  2.7265 -1.6017 -0.6959
 4496SOL    HW224948   1.729   0.124   6.317 -0.4542  0.2748  2.8209
 4497SOL     OW24949   0.006   4.487   4.453  0.6156 -0.3172 -0.1209
 4497SOL    HW124950   0.071   4.509   4.519  0.2333  0.3113  0.0479
 4497SOL    HW224951   0.028   4.398   4.426  1.4277 -0.2790  0.4256
 4498SOL     OW24952   3.833   4.528   9.966 -0.1165  0.0071 -0.2091
 4498SOL    HW124953   3.811   4.476  10.043  1.6250  0.7320  0.7678
 4498SOL    HW224954   3.894   4.463   9.931 -0.4796  0.7662 -2.2261
 4499SOL     OW24955   1.617   1.286  11.641 -0.0656 -0.1855  0.1499
 4499SOL    HW124956   1.651   1.236  11.567  0.8311 -0.3725  0.6937
 4499SOL    HW224957   1.689   1.345  11.664 -0.2266  0.3044 -0.5988
 4500SOL     OW24958   0.697   3.286   9.961  0.4555  0.2712 -0.0683
 4500SOL    HW124959   0.644   3.354   9.920  1.7398  1.8412  0.8798
 4500SOL    HW224960   0.718   3.330  10.044  0.2840 -0.8592  0.5804
 4501SOL     OW24961   0.571   2.860   3.510 -0.0702  0.2777 -0.4286
 4501SOL    HW124962   0.529   2.886   3.428 -0.2197  0.4350 -0.3027
 4501SOL    HW224963   0.622   2.939   3.528 -0.5454 -0.0238  2.2550
 4502SOL     OW24964   3.522   3.480   0.551  0.1294 -0.1879 -0.4459
 4502SOL    HW124965   3.453   3.539   0.521  0.0640 -0.0249  0.0368
 4502SOL    HW224966   3.537   3.418   0.479 -0.3274 -0.2157 -0.5160
 4503SOL     OW24967   4.009   2.300  15.572 -0.1210 -0.1089 -0.7895
 4503SOL    HW124968   3.965   2.384  15.559 -2.6023 -1.2844 -0.0618
 4503SOL    HW224969   4.098   2.328  15.554  0.1605 -0.4648  0.0240
 4504SOL     OW24970   2.383   0.126   3.083  0.6328 -0.1754 -0.2502
 4504SOL    HW124971   2.357   0.154   2.995  1.4458  0.2602 -0.3538
 4504SOL    HW224972   2.306   0.142   3.136  0.2364 -0.2354 -0.8117
 4505SOL     OW24973   3.436   1.795   8.587 -0.2520 -0.3966 -0.0931
 4505SOL    HW124974   3.463   1.856   8.656  2.3671 -0.0569 -1.4146
 4505SOL    HW224975   3.372   1.742   8.635  1.0336  0.0237  2.1028
 4506SOL     OW24976   3.105   3.026   0.093  0.0415 -0.1466  0.5841
 4506SOL    HW124977   3.167   3.092   0.061 -1.4203  0.7475 -0.4224
 4506SOL    HW224978   3.133   3.013   0.184  1.9808  2.6031  0.3698
 4507SOL     OW24979   4.386   2.284   8.455 -0.2390  0.4017  0.0341
 4507SOL    HW124980   4.441   2.261   8.530 -0.1743 -2.1023 -0.7912
 4507SOL    HW224981   4.363   2.376   8.472 -2.4271 -0.2565  0.7017
 4508SOL     OW24982   4.571   2.455  14.202  0.6069  0.0507  0.5561
 4508SOL    HW124983   4.613   2.419  14.280  1.4621  1.8663  0.9251
 4508SOL    HW224984   4.632   2.423  14.135 -0.5563  1.1361 -1.0149
 4509SOL     OW24985   4.520   3.995   1.804  0.4199 -0.3364  0.2079
 4509SOL    HW124986   4.589   4.048   1.845  1.4166 -2.4338  1.2265
 4509SOL    HW224987   4.530   3.909   1.844  0.6822 -0.5171 -0.2569
 4510SOL     OW24988   1.155   1.500  12.124  0.3749  0.2821 -0.0413
 4510SOL    HW124989   1.244   1.466  12.116  0.6752  0.8044  1.0867
 4510SOL    HW224990   1.172   1.546  12.207  0.5397 -0.1462  0.1583
 4511SOL     OW24991   3.766   1.326   4.421 -0.8509  0.6804 -0.2095
 4511SOL    HW124992   3.785   1.414   4.388 -0.3248 -0.2428 -2.3800
 4511SOL    HW224993   3.742   1.348   4.511 -0.1868 -0.7868  0.3159
 4512SOL     OW24994   0.901   0.493   9.879  0.3046 -0.1446 -0.0231
 4512SOL    HW124995   0.812   0.523   9.900  1.0285  1.4844  0.7051
 4512SOL    HW224996   0.941   0.483   9.965  0.6339 -2.6334 -0.4798
 4513SOL     OW24997   3.131   4.063   6.068 -0.0553  0.2327 -0.3977
 4513SOL    HW124998   3.150   4.031   6.156  0.7065  0.6206 -0.4138
 4513SOL    HW224999   3.041   4.096   6.072 -0.2560 -0.1699 -1.6458
 4514SOL     OW25000   3.696   0.303   4.881 -0.0533  0.1361 -0.0501
 4514SOL    HW125001   3.669   0.243   4.812 -0.7877 -1.3763  1.5461
 4514SOL    HW225002   3.784   0.317   4.847  0.2069 -0.0771  0.5267
 4515SOL     OW25003   3.668   4.131   7.856  0.2304  0.1038 -0.5245
 4515SOL    HW125004   3.645   4.082   7.778  1.9568 -1.5500  0.0024
 4515SOL    HW225005   3.760   4.152   7.837  0.7043 -1.2297  0.3126
 4516SOL     OW25006   3.645   0.404  13.890 -0.3771  0.3366  0.3709
 4516SOL    HW125007   3.700   0.331  13.861  0.9992  0.8821  1.6601
 4516SOL    HW225008   3.713   0.471  13.890 -1.6547  1.6556 -2.0284
 4517SOL     OW25009   3.600   1.934   2.569  0.3953 -0.7099  0.9276
 4517SOL    HW125010   3.636   1.868   2.508  2.3817  0.2837  1.0187
 4517SOL    HW225011   3.677   1.957   2.621 -0.9814  0.7524  2.3193
 4518SOL     OW25012   0.475   0.107   2.968  0.4554 -0.1078 -0.2674
 4518SOL    HW125013   0.438   0.045   2.905  0.2321  1.1398 -1.3505
 4518SOL    HW225014   0.480   0.181   2.908  1.4792  0.5634  0.6379
 4519SOL     OW25015   4.139   2.889   7.761  0.6012  0.6912 -0.5221
 4519SOL    HW125016   4.133   2.983   7.783 -1.6599  0.9095 -2.1148
 4519SOL    HW225017   4.123   2.837   7.840  1.2732  1.9123  0.4373
 4520SOL     OW25018   1.277   4.159  11.540  0.2504  0.3014  0.3208
 4520SOL    HW125019   1.309   4.089  11.483 -0.1669  0.3441  0.0340
 4520SOL    HW225020   1.317   4.242  11.513 -1.3874  0.7193 -0.8580
 4521SOL     OW25021   1.281   4.259   6.315 -0.6147 -0.0756  0.0890
 4521SOL    HW125022   1.198   4.290   6.349 -1.5798 -1.7888 -0.7238
 4521SOL    HW225023   1.306   4.299   6.232 -2.2647 -1.6117 -1.1271
 4522SOL     OW25024   3.574   1.155   4.813 -0.7013 -0.4585 -0.2151
 4522SOL    HW125025   3.504   1.212   4.843  0.4561  1.2032 -0.7176
 4522SOL    HW225026   3.527   1.082   4.772 -0.7826 -1.1521  1.1248
 4523SOL     OW25027   1.735   1.794   5.467 -0.6529 -0.7200  0.2165
 4523SOL    HW125028   1.746   1.701   5.444  0.9917 -0.5591  0.3519
 4523SOL    HW225029   1.738   1.834   5.380  0.6310 -0.5260  0.3400
 4524SOL     OW25030   3.176   1.619   4.557  0.3796 -0.1349  0.8585
 4524SOL    HW125031   3.223   1.600   4.477  1.0778 -0.2081  1.2904
 4524SOL    HW225032   3.102   1.672   4.525 -1.3479 -3.2072 -0.2632
 4525SOL     OW25033   0.059   1.463  13.333 -0.7445  0.2842 -0.2203
 4525SOL    HW125034   0.074   1.534  13.270  2.0191 -1.3940 -1.4451
 4525SOL    HW225035   0.030   1.392  13.276  0.9999  0.0957 -0.8741
 4526SOL     OW25036   4.047   3.279  12.781 -0.2409  1.0015 -0.6657
 4526SOL    HW125037   4.102   3.351  12.810  0.6976 -0.5187  1.3202
 4526SOL    HW225038   4.109   3.207  12.767  2.5096  3.1113  0.9464
 4527SOL     OW25039   2.555   3.809  10.105  0.1117 -0.0744 -0.1195
 4527SOL    HW125040   2.558   3.715  10.091  1.2605 -0.1006  0.3237
 4527SOL    HW225041   2.626   3.843  10.049  1.6774 -0.6730  1.5120
 4528SOL     OW25042   4.039   4.506   0.994  0.1705  0.8511  0.2495
 4528SOL    HW125043   4.132   4.482   1.000  0.1656  1.0713  1.1671
 4528SOL    HW225044   4.049   4.601   1.003 -0.0151  0.8308  0.6669
 4529SOL     OW25045   3.267   4.534   7.739 -0.6955  0.2691  0.0598
 4529SOL    HW125046   3.188   4.584   7.722 -1.3830 -0.3854  1.3138
 4529SOL    HW225047   3.237   4.444   7.721  0.5639 -0.0734 -0.3238
 4530SOL     OW25048   4.689   0.988   1.818 -0.2592  0.1552  0.0745
 4530SOL    HW125049   4.624   0.998   1.888  1.2568  0.1725  1.4803
 4530SOL    HW225050   4.717   0.896   1.818 -0.7583  0.0023  1.1152
 4531SOL     OW25051   3.074   0.415   4.977 -0.1578  0.5294 -0.1388
 4531SOL    HW125052   3.067   0.322   4.954  0.7275 -0.3702  3.3423
 4531SOL    HW225053   3.169   0.415   4.976 -0.1540  0.5165  0.3523
 4532SOL     OW25054   4.660   0.916   0.307  0.7338  0.4990 -0.1480
 4532SOL    HW125055   4.682   1.003   0.343  0.4814 -0.5983  2.6809
 4532SOL    HW225056   4.584   0.933   0.251 -0.8460  2.4192  2.5736
 4533SOL     OW25057   0.422   3.319   2.717  0.0253 -0.5709  0.2550
 4533SOL    HW125058   0.473   3.346   2.640 -0.7282 -0.0804 -0.0791
 4533SOL    HW225059   0.463   3.235   2.737  2.1050 -0.3211 -2.8762
 4534SOL     OW25060   0.524   0.453  12.859 -0.5865  0.7374 -0.0449
 4534SOL    HW125061   0.561   0.366  12.876 -2.7039 -0.0448  0.5555
 4534SOL    HW225062   0.436   0.428  12.831 -1.2771  1.1453  1.7686
 4535SOL     OW25063   3.267   3.788  11.201 -0.1571  0.3035  0.7737
 4535SOL    HW125064   3.350   3.835  11.212  0.3411  0.2004 -2.5513
 4535SOL    HW225065   3.292   3.699  11.178 -2.4539  0.6676 -3.2527
 4536SOL     OW25066   1.330   4.153   7.817 -0.5384 -0.1335  0.1480
 4536SOL    HW125067   1.277   4.222   7.856 -1.3177 -1.5708  1.6573
 4536SOL    HW225068   1.354   4.114   7.901  3.7316 -1.0388 -1.4883
 4537SOL     OW25069   0.449   0.840   2.700 -0.3158  0.4216 -0.5337
 4537SOL    HW125070   0.406   0.810   2.780 -0.0196  2.8995  0.5798
 4537SOL    HW225071   0.508   0.902   2.743  1.6271 -0.9160 -1.3120
 4538SOL     OW25072   4.184   2.872  16.604 -0.5512  0.3097 -0.4194
 4538SOL    HW125073   4.128   2.804  16.567 -1.0646  0.7053 -0.3832
 4538SOL    HW225074   4.138   2.884  16.687  1.3734  0.4809  0.6218
 4539SOL     OW25075   3.866   2.275   6.877 -0.0404 -0.5114 -0.0306
 4539SOL    HW125076   3.885   2.272   6.783  0.0832  0.8034 -0.0477
 4539SOL    HW225077   3.925   2.205   6.906  1.3648  1.1774  1.2370
 4540SOL     OW25078   2.350   2.858   1.733 -0.2485  0.0453 -0.8573
 4540SOL    HW125079   2.285   2.907   1.783  0.4732  0.4358 -0.2996
 4540SOL    HW225080   2.296   2.802   1.677 -1.0218 -2.6194  2.5215
 4541SOL     OW25081   1.849   0.930  15.035 -0.5391 -0.2626  0.4259
 4541SOL    HW125082   1.768   0.895  15.073 -0.3922 -1.4959 -0.4048
 4541SOL    HW225083   1.895   0.848  15.017  2.0594  0.8416  2.0396
 4542SOL     OW25084   0.570   2.325   2.418 -0.4068 -0.2801 -0.4303
 4542SOL    HW125085   0.542   2.237   2.394  1.3117 -1.5376  2.2197
 4542SOL    HW225086   0.526   2.327   2.503  1.7989 -0.6072  0.6961
 4543SOL     OW25087   0.309   2.501   4.018  0.1533  0.1752 -0.1154
 4543SOL    HW125088   0.253   2.424   4.008  0.9591 -0.3961 -0.2875
 4543SOL    HW225089   0.348   2.471   4.100 -0.1443 -0.5722 -0.2446
 4544SOL     OW25090   0.738   1.586  17.462  0.2066  0.2101  0.1731
 4544SOL    HW125091   0.764   1.678  17.465  1.6786 -0.1824 -0.5611
 4544SOL    HW225092   0.728   1.565  17.555  0.3417  0.0737  0.1559
 4545SOL     OW25093   2.051   2.028   6.191 -0.0241  0.6720 -0.1917
 4545SOL    HW125094   1.969   1.977   6.191 -0.2357  1.0411 -2.5834
 4545SOL    HW225095   2.053   2.042   6.286  0.1213  4.9581 -0.8393
 4546SOL     OW25096   0.347   3.150   3.711 -0.6318  0.1147  0.3432
 4546SOL    HW125097   0.257   3.171   3.738 -0.5496  2.0510 -0.8728
 4546SOL    HW225098   0.334   3.162   3.617 -0.2288  1.4877  0.4656
 4547SOL     OW25099   1.366   0.091   4.178 -0.0560 -0.0973  0.1086
 4547SOL    HW125100   1.457   0.120   4.184 -0.8153  2.8992 -2.8294
 4547SOL    HW225101   1.372   4.723   4.151 -2.0188 -0.3246  0.4457
 4548SOL     OW25102   4.472   0.420  13.963 -0.1919 -0.3820 -0.2024
 4548SOL    HW125103   4.480   0.419  14.058  1.3817  1.9784 -0.3019
 4548SOL    HW225104   4.406   0.353  13.949  0.7575 -1.1997 -0.7312
 4549SOL     OW25105   2.970   0.652   4.908  0.1920 -0.0331 -0.0539
 4549SOL    HW125106   2.978   0.652   4.812  0.6524 -1.9171 -0.0172
 4549SOL    HW225107   2.999   0.565   4.935 -1.1894 -1.2034 -2.3345
 4550SOL     OW25108   3.762   3.082   0.637 -0.4107  0.0328 -0.0724
 4550SOL    HW125109   3.811   3.154   0.596  1.0111 -1.5032 -1.0373
 4550SOL    HW225110   3.697   3.054   0.572 -0.8981  2.0157 -0.4489
 4551SOL     OW25111   3.229   3.500   7.609 -0.2399 -0.0357 -0.0890
 4551SOL    HW125112   3.200   3.588   7.632 -0.4027 -0.1886  0.3054
 4551SOL    HW225113   3.236   3.459   7.696 -0.1779  0.7181  0.2553
 4552SOL     OW25114   1.302   1.949   7.800 -0.5086 -0.3857  0.3699
 4552SOL    HW125115   1.231   1.966   7.737 -1.3061 -1.4231  0.9774
 4552SOL    HW225116   1.294   1.855   7.816 -1.2054 -0.7508 -2.0968
 4553SOL     OW25117   1.830   0.414   8.027  0.4653 -0.3140 -0.6489
 4553SOL    HW125118   1.740   0.412   8.058  1.2611 -0.7358  1.6474
 4553SOL    HW225119   1.881   0.386   8.103 -0.9135 -0.9919  0.0143
 4554SOL     OW25120   2.806   0.932  15.461 -0.8597  0.5259  0.3030
 4554SOL    HW125121   2.782   1.000  15.398 -2.5598  0.7700  1.2128
 4554SOL    HW225122   2.845   0.870  15.399  1.6775  0.8360  1.5976
 4555SOL     OW25123   2.168   4.661   9.099 -0.5640 -0.0623  0.0942
 4555SOL    HW125124   2.203   0.018   9.136 -2.2186  2.0067 -2.8196
 4555SOL    HW225125   2.156   4.609   9.178 -0.7789 -0.9673 -0.5286
 4556SOL     OW25126   3.044   2.321  16.513  0.4097 -0.4063  0.3044
 4556SOL    HW125127   3.021   2.414  16.510 -0.6220 -0.6728  0.1273
 4556SOL    HW225128   2.969   2.289  16.562 -0.5405  0.8153 -0.3540
 4557SOL     OW25129   0.242   1.420   5.747  0.0593 -0.0110  0.6294
 4557SOL    HW125130   0.213   1.340   5.704 -0.9818  1.3067 -1.0934
 4557SOL    HW225131   0.171   1.481   5.726  0.0381 -1.1759 -2.6066
 4558SOL     OW25132   0.915   1.965   9.490 -0.2057 -0.1855 -0.1456
 4558SOL    HW125133   0.842   1.930   9.438  0.4634  0.0032 -1.2076
 4558SOL    HW225134   0.933   1.881   9.531 -0.3137 -0.3734 -0.4781
 4559SOL     OW25135   2.026   0.218   0.861  0.1014 -0.3608  0.2798
 4559SOL    HW125136   1.933   0.224   0.885  0.9688  1.0500  3.3264
 4559SOL    HW225137   2.037   0.301   0.816 -0.6487  0.6887  1.9968
 4560SOL     OW25138   2.066   1.394  11.330  0.1711  0.6003 -0.5511
 4560SOL    HW125139   2.065   1.330  11.400  2.3151 -0.6630 -1.6746
 4560SOL    HW225140   2.008   1.354  11.265 -0.3886 -1.7973  1.4735
 4561SOL     OW25141   3.925   1.258   5.256  0.5602 -0.7531  0.0753
 4561SOL    HW125142   3.992   1.271   5.324  0.8883 -2.0974  0.0095
 4561SOL    HW225143   3.977   1.226   5.183 -2.1359 -0.0603 -2.1199
 4562SOL     OW25144   3.027   3.490   0.178 -0.0031  0.1599  0.2260
 4562SOL    HW125145   3.100   3.437   0.146 -1.1870 -0.4683 -1.4675
 4562SOL    HW225146   2.950   3.442   0.148  0.8503 -1.5175  0.6803
 4563SOL     OW25147   0.718   3.423  10.186  0.0488 -0.3355 -0.3825
 4563SOL    HW125148   0.788   3.362  10.210  0.5069 -0.0342 -0.9888
 4563SOL    HW225149   0.749   3.511  10.207 -2.0565  0.3961 -0.3954
 4564SOL     OW25150   0.087   4.466  10.271 -0.6097  0.1735 -0.1409
 4564SOL    HW125151   0.172   4.425  10.282 -1.6763 -2.3034 -1.1598
 4564SOL    HW225152   0.043   4.437  10.351  1.0558 -2.5817 -0.2670
 4565SOL     OW25153   0.687   0.741   8.216 -0.2964 -0.2801 -0.3646
 4565SOL    HW125154   0.701   0.675   8.284  2.5345 -0.2881 -0.9442
 4565SOL    HW225155   0.767   0.737   8.165 -1.8028 -0.8020 -2.6731
 4566SOL     OW25156   3.315   2.882   4.528  0.4172  0.3846 -0.1478
 4566SOL    HW125157   3.222   2.905   4.524  0.7930  1.6186 -1.8234
 4566SOL    HW225158   3.300   2.796   4.566 -0.9408  0.2661 -0.9382
 4567SOL     OW25159   4.385   1.389   8.074 -0.5388  0.1117  0.7364
 4567SOL    HW125160   4.383   1.485   8.073  3.4715  0.1785 -0.8041
 4567SOL    HW225161   4.432   1.364   8.154 -0.3018  0.5668  0.7384
 4568SOL     OW25162   1.712   4.441   0.551 -0.5952 -0.4371  0.4613
 4568SOL    HW125163   1.687   4.386   0.625 -0.1610 -2.9906 -1.2895
 4568SOL    HW225164   1.728   4.521   0.602 -2.5735  0.6666 -0.6454
 4569SOL     OW25165   0.052   3.618   4.447  0.4817 -0.0255  0.2473
 4569SOL    HW125166   0.088   3.700   4.414  0.9277 -0.9971 -1.6701
 4569SOL    HW225167   0.050   3.565   4.367 -0.5109 -1.0687  0.9574
 4570SOL     OW25168   2.265   2.842  15.162 -0.9207 -0.2445 -0.0066
 4570SOL    HW125169   2.266   2.754  15.199 -0.2115 -0.4723 -0.5564
 4570SOL    HW225170   2.340   2.888  15.199  0.6651 -2.7668 -0.0607
 4571SOL     OW25171   4.465   2.170   7.421 -0.1740  0.0292 -0.5980
 4571SOL    HW125172   4.508   2.178   7.506 -3.1099  0.9930  0.7826
 4571SOL    HW225173   4.415   2.251   7.414 -1.8004 -0.7823  1.6242
 4572SOL     OW25174   1.408   3.334  12.907 -0.3976  1.0628  0.1900
 4572SOL    HW125175   1.468   3.348  12.980 -0.2773  1.7995 -0.0571
 4572SOL    HW225176   1.324   3.363  12.942 -1.5746 -1.0519 -0.8701
 4573SOL     OW25177   3.070   2.564   5.907 -0.4906 -0.0067  0.8743
 4573SOL    HW125178   3.028   2.511   5.839 -2.2297  0.1731  1.7917
 4573SOL    HW225179   2.998   2.612   5.949  0.1273  0.0992  1.8157
 4574SOL     OW25180   4.037   2.561   9.298 -0.1228 -0.0702  0.5411
 4574SOL    HW125181   4.071   2.486   9.347 -0.4391 -1.0403 -0.7490
 4574SOL    HW225182   4.036   2.637   9.356  0.1188  1.0468 -0.9385
 4575SOL     OW25183   4.663   2.504   4.497  0.2529 -0.6172  0.0572
 4575SOL    HW125184   4.608   2.525   4.572  0.7849  0.6070  0.1116
 4575SOL    HW225185   4.612   2.527   4.419 -0.5830 -0.1007  0.7605
 4576SOL     OW25186   4.258   2.175   3.772  0.1788 -0.4183  0.4052
 4576SOL    HW125187   4.208   2.220   3.704  0.9248 -0.2726 -0.0410
 4576SOL    HW225188   4.343   2.213   3.749  0.9831 -2.3870  0.1023
 4577SOL     OW25189   3.552   2.090  14.951  0.2554 -0.0690 -0.0833
 4577SOL    HW125190   3.468   2.102  14.996  0.8814 -0.7960  1.2649
 4577SOL    HW225191   3.509   2.056  14.873 -1.0069  0.4509  0.3684
 4578SOL     OW25192   3.027   4.303   2.577  0.5148 -0.2706  0.0787
 4578SOL    HW125193   3.087   4.350   2.634 -1.0967  1.2045  0.5593
 4578SOL    HW225194   3.057   4.321   2.488  0.2728 -2.9304 -0.5417
 4579SOL     OW25195   3.161   0.267   8.377  0.2323  0.0949 -0.4054
 4579SOL    HW125196   3.223   0.336   8.399 -1.6496  1.4740  0.5774
 4579SOL    HW225197   3.182   0.207   8.449 -0.7480 -1.1269 -1.1301
 4580SOL     OW25198   1.011   1.459   8.186 -0.0231  0.1233 -0.1662
 4580SOL    HW125199   1.082   1.523   8.196 -1.6165  1.7916  0.3895
 4580SOL    HW225200   1.014   1.400   8.262  0.5411 -0.4165 -0.6121
 4581SOL     OW25201   1.101   0.617   9.233  0.4215  0.1118  0.2256
 4581SOL    HW125202   1.020   0.569   9.216  0.0925  1.3742 -1.7218
 4581SOL    HW225203   1.165   0.578   9.174  0.4664 -0.8680  0.9059
 4582SOL     OW25204   1.808   3.969  14.303 -0.4207 -0.7093 -0.3386
 4582SOL    HW125205   1.876   3.962  14.370 -1.1423  1.1712  0.5857
 4582SOL    HW225206   1.768   3.883  14.318 -0.5539 -0.1641  2.3859
 4583SOL     OW25207   2.330   1.323   8.934 -0.3703 -0.6365 -0.2226
 4583SOL    HW125208   2.238   1.304   8.948 -0.1670  0.2230  2.3521
 4583SOL    HW225209   2.373   1.281   9.008  1.6999  0.4639 -0.7890
 4584SOL     OW25210   2.208   2.270  14.389  0.1324 -0.3227  0.3385
 4584SOL    HW125211   2.292   2.300  14.423 -0.5655  3.1850 -1.0744
 4584SOL    HW225212   2.230   2.295  14.299 -2.9832  2.1893  0.2623
 4585SOL     OW25213   2.237   3.667  17.173 -0.3586 -0.4183  0.2384
 4585SOL    HW125214   2.186   3.747  17.159  0.2485  0.0578  0.7523
 4585SOL    HW225215   2.328   3.697  17.179  0.3719 -2.2854 -1.4498
 4586SOL     OW25216   4.715   0.148   3.465 -0.7847  0.0054 -0.1369
 4586SOL    HW125217   4.703   0.122   3.556  0.9790  0.7021  0.2878
 4586SOL    HW225218   0.058   0.216   3.473 -0.4818 -0.0297 -2.3645
 4587SOL     OW25219   1.876   0.637   6.964  0.0165 -0.4755  0.1137
 4587SOL    HW125220   1.906   0.689   7.038 -1.4432  0.8907 -0.2670
 4587SOL    HW225221   1.892   0.549   7.001 -2.4693  0.3811  3.2389
 4588SOL     OW25222   2.543   2.152   9.672  0.6130 -0.0895  0.2610
 4588SOL    HW125223   2.519   2.202   9.594 -0.1493 -1.1007 -0.1651
 4588SOL    HW225224   2.523   2.215   9.741 -0.1870 -0.0846  0.0264
 4589SOL     OW25225   3.826   3.036   3.348 -0.4142 -0.9935  0.2507
 4589SOL    HW125226   3.818   3.100   3.278  1.5879  0.2935  1.2030
 4589SOL    HW225227   3.914   3.006   3.325 -0.5089 -0.0012 -1.3669
 4590SOL     OW25228   3.530   3.643   5.806 -0.1474 -0.3939  0.1407
 4590SOL    HW125229   3.463   3.712   5.800  0.1585 -0.3945 -3.7109
 4590SOL    HW225230   3.586   3.660   5.730 -1.4267 -3.1961 -1.4490
 4591SOL     OW25231   1.564   4.302  16.641 -0.2728  0.1438  0.0288
 4591SOL    HW125232   1.642   4.310  16.696  0.3232 -0.1445 -0.7675
 4591SOL    HW225233   1.559   4.390  16.604 -0.5578  1.8484  4.1529
 4592SOL     OW25234   3.369   0.717   5.089  0.0886 -0.4888  0.0862
 4592SOL    HW125235   3.436   0.667   5.135  0.7937  1.0450  0.7288
 4592SOL    HW225236   3.376   0.697   4.996 -0.5726  0.0682 -0.0907
 4593SOL     OW25237   3.122   2.610   3.151  0.0143 -0.2844 -0.1631
 4593SOL    HW125238   3.122   2.586   3.243  0.4273 -2.0833 -0.6286
 4593SOL    HW225239   3.181   2.684   3.164 -0.5628  0.2629 -0.6625
 4594SOL     OW25240   3.833   4.097   6.521  0.5488 -0.2885  0.2462
 4594SOL    HW125241   3.898   4.114   6.452  1.2541 -0.6928  0.8112
 4594SOL    HW225242   3.755   4.140   6.484  0.4282  0.5544  1.4708
 4595SOL     OW25243   4.470   1.116   6.903 -0.2112 -0.1433  0.2521
 4595SOL    HW125244   4.422   1.173   6.962  0.9972  0.6303  0.4708
 4595SOL    HW225245   4.421   1.139   6.824  0.7069 -0.6916 -0.4766
 4596SOL     OW25246   0.301   3.774   7.957 -0.0042  0.1270  0.1689
 4596SOL    HW125247   0.263   3.733   8.035 -1.0156  1.2759  0.2888
 4596SOL    HW225248   0.324   3.862   7.986 -0.3244  0.4506 -0.5849
 4597SOL     OW25249   3.001   3.940   7.317  0.1346  0.3876  0.2922
 4597SOL    HW125250   2.960   3.947   7.403  1.1994 -0.9023  0.9062
 4597SOL    HW225251   2.926   3.898   7.275 -0.5206 -0.7468  2.5972
 4598SOL     OW25252   3.714   1.100   5.320  0.3296 -0.3315  0.1407
 4598SOL    HW125253   3.690   1.131   5.407 -1.8794  2.7066 -1.5493
 4598SOL    HW225254   3.771   1.173   5.293 -3.5110  1.6663 -2.5693
 4599SOL     OW25255   2.902   4.612   6.007  0.7425 -0.3662  0.2174
 4599SOL    HW125256   2.955   4.543   5.969  0.2714 -0.0194 -1.0557
 4599SOL    HW225257   2.977   4.669   6.024 -0.0997  0.5296  0.9568
 4600SOL     OW25258   1.162   2.243   4.507 -0.4297 -0.0436 -0.2098
 4600SOL    HW125259   1.139   2.153   4.482 -0.5595  0.0700 -0.5011
 4600SOL    HW225260   1.076   2.272   4.537 -0.5900  0.2541 -0.9587
 4601SOL     OW25261   1.240   3.763   8.088 -0.9013  0.3750  0.2568
 4601SOL    HW125262   1.287   3.764   8.005 -2.5014  1.8204 -0.6356
 4601SOL    HW225263   1.152   3.799   8.073 -1.1223  0.2807  1.3628
 4602SOL     OW25264   0.999   0.348   9.387  0.2040 -0.2140  0.3843
 4602SOL    HW125265   1.019   0.261   9.423  2.2497  0.2765  0.4479
 4602SOL    HW225266   0.921   0.369   9.439 -0.0777 -0.1887 -0.0547
 4603SOL     OW25267   0.924   4.478   9.027  0.3608 -0.0866  0.3612
 4603SOL    HW125268   1.009   4.444   9.054  0.5906  0.1850 -0.0188
 4603SOL    HW225269   0.886   4.496   9.113  0.2037 -2.0757  0.6915
 4604SOL     OW25270   2.966   1.106  16.629 -0.0733 -0.9779 -0.2678
 4604SOL    HW125271   2.894   1.149  16.582  0.2430 -0.8361 -0.6235
 4604SOL    HW225272   3.036   1.155  16.586  0.5569  0.6901  2.6102
 4605SOL     OW25273   2.024   4.576   5.097  0.2624 -0.1533 -0.2965
 4605SOL    HW125274   2.087   4.647   5.101 -0.4660  0.3494  1.9849
 4605SOL    HW225275   1.985   4.556   5.182 -1.5904  0.8206 -0.9206
 4606SOL     OW25276   0.711   3.996   5.118 -0.0943 -0.3946  0.3649
 4606SOL    HW125277   0.806   3.991   5.105 -0.2028 -0.3266 -0.4360
 4606SOL    HW225278   0.702   4.041   5.203 -0.1644  2.4592 -1.1456
 4607SOL     OW25279   0.258   1.426   4.719 -0.1679 -0.0154 -0.4186
 4607SOL    HW125280   0.283   1.509   4.760 -1.0927 -1.1093  2.3625
 4607SOL    HW225281   0.195   1.456   4.654 -0.7020 -3.1429 -1.3084
 4608SOL     OW25282   0.509   2.480  11.141 -0.2550  0.2178 -0.0573
 4608SOL    HW125283   0.494   2.432  11.223  1.6036 -1.4276 -0.6735
 4608SOL    HW225284   0.509   2.570  11.172  1.3543 -0.4703  1.9635
 4609SOL     OW25285   1.893   2.425   4.855  0.2527  0.3607  0.7054
 4609SOL    HW125286   1.823   2.418   4.920 -0.7666  1.9398 -0.2236
 4609SOL    HW225287   1.953   2.359   4.891 -2.7077 -2.1440  1.0392
 4610SOL     OW25288   4.499   1.520   6.088  0.3260  0.2258 -0.3716
 4610SOL    HW125289   4.509   1.480   6.002  2.0823  0.3232 -0.2140
 4610SOL    HW225290   4.481   1.441   6.138  0.7376  0.7071  0.5385
 4611SOL     OW25291   1.245   1.253  11.809 -0.1671  0.4807  0.5782
 4611SOL    HW125292   1.291   1.212  11.736 -0.5514  0.9405  0.0714
 4611SOL    HW225293   1.304   1.221  11.877  0.2748 -0.5646 -0.2994
 4612SOL     OW25294   1.086   4.650   5.050 -0.3220  0.2439 -0.0590
 4612SOL    HW125295   1.025   4.583   5.020 -0.5596  0.0906  0.7665
 4612SOL    HW225296   1.165   4.623   5.002  0.9235  0.1257  2.0805
 4613SOL     OW25297   3.683   0.301  10.921 -0.3487  0.3143  0.1868
 4613SOL    HW125298   3.631   0.234  10.965 -0.8033  0.3015 -0.3709
 4613SOL    HW225299   3.653   0.382  10.963 -1.6649  0.0103 -0.1801
 4614SOL     OW25300   2.331   1.380  10.981  0.0948 -0.0016 -0.5925
 4614SOL    HW125301   2.308   1.459  10.930  0.1044  0.4848  0.1568
 4614SOL    HW225302   2.390   1.427  11.039 -0.0182  0.7495 -1.0734
 4615SOL     OW25303   2.152   2.117   7.722  0.2998 -0.1622 -0.4017
 4615SOL    HW125304   2.245   2.131   7.741 -0.0433 -1.1749  2.0218
 4615SOL    HW225305   2.125   2.208   7.707 -1.3599 -0.5054  0.5606
 4616SOL     OW25306   2.873   3.532  16.468 -0.2322  0.2563 -0.2228
 4616SOL    HW125307   2.964   3.506  16.453  0.0095  0.8746  0.1663
 4616SOL    HW225308   2.840   3.509  16.381  1.3641 -1.9658 -0.2437
 4617SOL     OW25309   1.679   3.973  11.231 -0.1604 -0.6930  0.3127
 4617SOL    HW125310   1.684   3.886  11.271  0.4757 -0.9862 -0.4159
 4617SOL    HW225311   1.623   4.020  11.293 -1.5528 -0.3911 -1.1920
 4618SOL     OW25312   4.015   2.445   8.404 -0.0900  0.3369  0.0996
 4618SOL    HW125313   3.949   2.509   8.379 -1.9728 -1.1455  1.3237
 4618SOL    HW225314   4.072   2.438   8.327  0.5198  2.1611  0.3725
 4619SOL     OW25315   2.439   1.978   2.498 -0.1185 -0.4569 -0.3766
 4619SOL    HW125316   2.384   2.023   2.563  2.0517 -0.5286  1.5260
 4619SOL    HW225317   2.510   2.040   2.482 -0.7871  0.9156  1.8766
 4620SOL     OW25318   1.772   0.153   3.293 -0.0037 -0.3333 -0.3207
 4620SOL    HW125319   1.679   0.156   3.316  0.8480 -0.8508  3.1619
 4620SOL    HW225320   1.784   0.215   3.221  1.3068 -2.1822 -1.6930
 4621SOL     OW25321   3.976   3.846   0.239 -0.3190 -0.2176  0.1780
 4621SOL    HW125322   3.965   3.892   0.322 -0.7840  1.4631 -0.8267
 4621SOL    HW225323   3.896   3.868   0.193  0.8214 -1.7408 -2.5423
 4622SOL     OW25324   0.983   1.338  17.548  0.0704 -1.0469 -0.7535
 4622SOL    HW125325   1.072   1.371  17.557 -0.3971 -0.3463  1.2488
 4622SOL    HW225326   0.964   1.313  17.638  0.1569 -1.7861 -0.9395
 4623SOL     OW25327   2.521   4.236   6.720  0.0990 -0.5553 -0.1088
 4623SOL    HW125328   2.591   4.299   6.705 -1.3366  1.2534  0.8065
 4623SOL    HW225329   2.446   4.295   6.713 -0.4122 -1.3162 -1.0714
 4624SOL     OW25330   0.962   4.314   1.818  0.0307  0.5545 -0.0634
 4624SOL    HW125331   0.899   4.385   1.810 -0.0752  0.3512 -0.9807
 4624SOL    HW225332   0.949   4.263   1.898 -1.3637  0.9284 -0.0569
 4625SOL     OW25333   2.903   0.433   7.539 -0.2970  0.0288 -0.3363
 4625SOL    HW125334   2.891   0.338   7.539 -0.1410  0.0004 -1.3926
 4625SOL    HW225335   2.850   0.464   7.612 -0.7775  0.3968 -0.8444
 4626SOL     OW25336   4.030   3.106   0.070 -0.4561 -0.8037 -0.0481
 4626SOL    HW125337   3.988   3.115  17.680  0.8861 -1.6734 -0.7861
 4626SOL    HW225338   4.104   3.053   0.042 -0.7752 -1.2047 -0.1285
 4627SOL     OW25339   2.405   3.973  10.525  0.3639  0.3417 -0.1828
 4627SOL    HW125340   2.319   3.985  10.484  0.5797  0.3771 -0.6281
 4627SOL    HW225341   2.377   4.014  10.607  1.4945 -0.9017  0.8105
 4628SOL     OW25342   0.578   2.665  11.508  0.1924  0.0241 -0.8681
 4628SOL    HW125343   0.530   2.651  11.427 -1.4695 -1.1694  0.3004
 4628SOL    HW225344   0.589   2.579  11.549  2.8428  1.2031  0.9145
 4629SOL     OW25345   4.339   1.923   8.012 -0.0634  0.3903  0.5521
 4629SOL    HW125346   4.390   1.981   8.069  0.2208 -1.6827  2.4076
 4629SOL    HW225347   4.356   1.985   7.941 -2.7247 -0.1765 -0.5862
 4630SOL     OW25348   3.975   2.426   4.202  0.3221 -0.0971  0.4240
 4630SOL    HW125349   3.887   2.460   4.188  0.9424  0.3075 -2.5578
 4630SOL    HW225350   3.962   2.338   4.166 -1.6887  0.2742  0.2550
 4631SOL     OW25351   4.635   2.626  10.705  0.0582 -0.6080 -0.7088
 4631SOL    HW125352   4.601   2.681  10.635 -0.8831 -0.7704 -0.3876
 4631SOL    HW225353   4.714   2.584  10.671  0.7214  0.7760 -0.8589
 4632SOL     OW25354   2.913   4.124  10.976 -0.8579  0.1216  0.6134
 4632SOL    HW125355   2.869   4.158  11.054  1.9367  0.5935  1.9746
 4632SOL    HW225356   2.891   4.190  10.911  1.2494 -0.7594 -0.9836
 4633SOL     OW25357   0.979   0.421   6.738 -0.2908  0.3033 -0.3706
 4633SOL    HW125358   1.074   0.425   6.746  0.1052 -1.3361 -4.3386
 4633SOL    HW225359   0.957   0.498   6.686  1.4415  0.3988 -0.9502
 4634SOL     OW25360   4.244   2.287  17.392 -0.7061  0.1730 -0.0087
 4634SOL    HW125361   4.289   2.215  17.349 -1.8110 -0.4425 -0.1364
 4634SOL    HW225362   4.294   2.363  17.362 -1.0567  0.7243  0.7906
 4635SOL     OW25363   2.292   0.794   6.585  0.7945 -0.1348  0.3018
 4635SOL    HW125364   2.263   0.845   6.661 -1.8030  0.5186 -1.1134
 4635SOL    HW225365   2.298   0.711   6.631  1.9847 -0.9685 -1.3773
 4636SOL     OW25366   0.765   4.223  16.791 -0.6713  0.1644 -0.2092
 4636SOL    HW125367   0.755   4.268  16.707 -1.2794 -1.6345 -1.0927
 4636SOL    HW225368   0.847   4.179  16.770  0.2030  0.6846  2.0537
 4637SOL     OW25369   3.970   3.202   4.967 -0.2392 -0.5027 -0.5968
 4637SOL    HW125370   4.054   3.204   5.012 -1.4029 -1.7927  1.6106
 4637SOL    HW225371   3.926   3.261   5.028  0.6309 -0.5126  0.0450
 4638SOL     OW25372   1.419   1.517   5.620 -0.1292  0.6995 -0.2573
 4638SOL    HW125373   1.475   1.566   5.681  2.7229  0.5256 -2.7322
 4638SOL    HW225374   1.396   1.442   5.674  3.3896 -0.1788  0.0306
 4639SOL     OW25375   3.391   3.178   0.401 -0.2344 -0.5690  0.3261
 4639SOL    HW125376   3.317   3.125   0.370  1.2632 -1.8631 -1.0171
 4639SOL    HW225377   3.467   3.120   0.401 -0.6233 -1.0953 -0.8335
 4640SOL     OW25378   1.904   2.494   8.921  0.2081 -0.1634 -0.2469
 4640SOL    HW125379   1.922   2.552   8.847  1.1694 -1.3699 -0.9657
 4640SOL    HW225380   1.954   2.539   8.989  0.6154  5.1632 -4.1810
 4641SOL     OW25381   0.903   2.475   4.805 -0.3999 -0.2123 -0.8736
 4641SOL    HW125382   0.851   2.540   4.853  0.0026  1.4390 -2.6544
 4641SOL    HW225383   0.992   2.497   4.834 -0.9305 -0.2851  0.8211
 4642SOL     OW25384   4.269   2.981   6.661  0.6840  0.2547 -0.1301
 4642SOL    HW125385   4.275   3.056   6.602 -0.4750 -0.6268 -1.3514
 4642SOL    HW225386   4.291   3.019   6.746  0.5773 -0.3339  0.1547
 4643SOL     OW25387   0.332   4.341  17.337 -0.2838 -0.1921  0.2020
 4643SOL    HW125388   0.329   4.368  17.245  0.6786 -3.7576 -0.9089
 4643SOL    HW225389   0.391   4.409  17.370 -1.4991  1.1596 -0.3997
 4644SOL     OW25390   4.002   1.146   3.192 -0.3201  0.4066 -0.4149
 4644SOL    HW125391   4.066   1.164   3.261  1.7391  0.9793 -2.4624
 4644SOL    HW225392   4.031   1.215   3.133  3.4550 -0.1816  0.7569
 4645SOL     OW25393   4.302   0.344   5.940  0.1677  0.1080  0.0325
 4645SOL    HW125394   4.371   0.339   5.874  2.5710 -0.6522  2.5992
 4645SOL    HW225395   4.269   0.431   5.920  0.5445  0.0712 -0.7451
 4646SOL     OW25396   2.140   1.483   2.013 -0.2355  0.2154 -0.3297
 4646SOL    HW125397   2.156   1.418   1.944 -1.7959  1.0660 -1.4890
 4646SOL    HW225398   2.159   1.423   2.085  3.1713  2.1620  0.4168
 4647SOL     OW25399   2.910   1.477  12.540 -0.3447 -0.0648 -0.0665
 4647SOL    HW125400   2.854   1.493  12.464  0.0739  0.2761 -0.3012
 4647SOL    HW225401   2.991   1.451  12.496 -0.4394  1.5096 -1.1595
 4648SOL     OW25402   0.644   3.090   8.559 -0.0076 -0.1456  0.2400
 4648SOL    HW125403   0.628   3.178   8.593  1.9981  0.1880  0.3461
 4648SOL    HW225404   0.573   3.071   8.498 -0.8359 -0.6506  1.3547
 4649SOL     OW25405   0.173   4.122  16.551  0.0838 -0.3771 -0.5224
 4649SOL    HW125406   0.100   4.183  16.548  0.0621 -0.3762  0.0934
 4649SOL    HW225407   0.244   4.160  16.499 -1.3576 -0.1715 -2.3377
 4650SOL     OW25408   0.820   0.774   8.642  0.6725 -0.3390  1.0476
 4650SOL    HW125409   0.840   0.866   8.656  0.0533 -0.1467  0.6351
 4650SOL    HW225410   0.912   0.749   8.647  0.0272 -2.6785  1.2581
 4651SOL     OW25411   0.961   1.887   6.963  0.1252  0.7454 -0.5013
 4651SOL    HW125412   1.027   1.881   7.032 -1.2353 -1.0927  0.6527
 4651SOL    HW225413   0.948   1.792   6.957  0.0970  0.7290 -0.1940
 4652SOL     OW25414   3.985   1.756   9.696  0.0660  0.5638 -0.4107
 4652SOL    HW125415   4.007   1.696   9.625  1.4444 -0.7834  1.1453
 4652SOL    HW225416   3.967   1.700   9.771  1.2423 -0.1983 -0.6932
 4653SOL     OW25417   1.258   1.037  16.963 -0.6601  0.0622  0.6381
 4653SOL    HW125418   1.175   0.996  16.988  0.8103 -1.6160  2.7528
 4653SOL    HW225419   1.316   0.964  16.942 -0.7895 -0.6689  2.8052
 4654SOL     OW25420   2.308   3.356   9.525 -0.3632  0.0751  0.2890
 4654SOL    HW125421   2.387   3.307   9.546 -1.1364 -1.3347 -0.1199
 4654SOL    HW225422   2.327   3.449   9.537  1.1880 -0.6182  3.1285
 4655SOL     OW25423   1.880   2.581   7.968 -0.2363  0.1945  0.1749
 4655SOL    HW125424   1.939   2.583   8.044  1.1003  0.1597 -0.8594
 4655SOL    HW225425   1.913   2.653   7.914 -1.4966  1.7126  1.4263
 4656SOL     OW25426   1.852   0.859   2.425 -0.1560  0.0243 -0.4297
 4656SOL    HW125427   1.798   0.936   2.443  0.5415  0.0250  1.6527
 4656SOL    HW225428   1.928   0.900   2.383 -1.9284  1.6991 -2.0058
 4657SOL     OW25429   2.668   1.109  16.140  0.6804  0.3396 -0.0551
 4657SOL    HW125430   2.686   1.201  16.120 -0.4931  0.6700  0.3881
 4657SOL    HW225431   2.595   1.114  16.201  0.3077  0.8569 -0.5351
 4658SOL     OW25432   1.248   1.764   7.402  0.2745  0.0899 -0.1508
 4658SOL    HW125433   1.226   1.852   7.432 -0.8419 -0.7042  1.3893
 4658SOL    HW225434   1.245   1.714   7.484 -0.1190 -1.4948 -1.1314
 4659SOL     OW25435   3.495   0.577   7.567  0.0659  0.2082 -0.5284
 4659SOL    HW125436   3.449   0.633   7.505 -1.5567  0.1528  0.6097
 4659SOL    HW225437   3.548   0.645   7.610  0.9614 -0.9794  0.2568
 4660SOL     OW25438   4.539   1.334   5.246 -0.4680  0.6718  0.3802
 4660SOL    HW125439   4.558   1.307   5.156  1.3152  0.0338  0.9373
 4660SOL    HW225440   4.534   1.249   5.291 -1.8306  0.3939 -0.3068
 4661SOL     OW25441   3.394   2.106   3.025  0.0710  0.0041  0.6176
 4661SOL    HW125442   3.360   2.173   3.085  1.0459 -0.5513  1.7833
 4661SOL    HW225443   3.313   2.057   3.013  0.1396  0.5379 -1.9909
 4662SOL     OW25444   2.419   3.503  12.007 -0.4288 -0.0471 -0.1487
 4662SOL    HW125445   2.443   3.564  11.937  1.3499 -1.4144 -0.7271
 4662SOL    HW225446   2.497   3.516  12.061 -1.0094 -1.0685  0.9468
 4663SOL     OW25447   4.061   1.876   8.221 -0.0740  0.0321 -0.4089
 4663SOL    HW125448   4.121   1.886   8.146 -1.2720 -0.9564 -1.4967
 4663SOL    HW225449   4.092   1.950   8.273 -3.3923  1.5673 -0.6567
 4664SOL     OW25450   1.537   1.852   0.126  0.1533 -0.1071  0.0142
 4664SOL    HW125451   1.516   1.942   0.151 -0.7625 -0.5652  0.9139
 4664SOL    HW225452   1.497   1.804   0.199  0.6736  0.9885  1.0112
 4665SOL     OW25453   2.218   1.577  12.250  0.4586  0.1451 -0.2830
 4665SOL    HW125454   2.305   1.579  12.210  0.4951 -2.6703 -0.3937
 4665SOL    HW225455   2.197   1.485  12.233 -1.3600  0.6226 -0.5872
 4666SOL     OW25456   2.216   3.410  17.289  0.3579 -0.0325 -0.2593
 4666SOL    HW125457   2.228   3.501  17.260  2.9745 -0.7709 -1.5103
 4666SOL    HW225458   2.302   3.371  17.301  0.7768  0.4014 -1.8340
 4667SOL     OW25459   3.847   4.620   2.892 -0.7689 -0.7684  0.6596
 4667SOL    HW125460   3.752   4.625   2.901 -0.8589  1.5410 -1.3321
 4667SOL    HW225461   3.861   4.546   2.950 -0.1103 -1.2119 -0.0551
 4668SOL     OW25462   2.019   1.026   1.704 -0.1559  0.5887 -0.1252
 4668SOL    HW125463   1.989   1.111   1.673 -1.6402 -0.4184 -1.4585
 4668SOL    HW225464   2.114   1.038   1.693  0.0055 -1.5187 -0.9897
 4669SOL     OW25465   3.064   1.220   4.355  0.2044 -0.0848 -0.3880
 4669SOL    HW125466   3.091   1.128   4.358 -1.3843 -0.4918  0.8693
 4669SOL    HW225467   3.112   1.244   4.275 -0.5259  0.4986 -0.6525
 4670SOL     OW25468   3.709   2.057   3.409 -0.5298 -0.2102 -0.2457
 4670SOL    HW125469   3.771   2.127   3.392 -0.3350 -0.3124  0.0430
 4670SOL    HW225470   3.761   1.977   3.412  0.1434  0.1992 -1.2620
 4671SOL     OW25471   2.223   4.274   4.520 -0.3005  0.1959  0.1124
 4671SOL    HW125472   2.180   4.320   4.592 -0.9928 -1.8879  1.0404
 4671SOL    HW225473   2.288   4.333   4.482  0.9288 -0.7033  0.8083
 4672SOL     OW25474   3.158   3.410   8.139  0.3907  0.1698 -0.0029
 4672SOL    HW125475   3.069   3.375   8.135  0.4396 -0.2588  2.6537
 4672SOL    HW225476   3.213   3.339   8.174  2.1086  1.2260 -0.5288
 4673SOL     OW25477   2.574   2.559   4.381 -0.2194  0.3533  0.1797
 4673SOL    HW125478   2.550   2.615   4.455  1.9535  0.7211  0.6008
 4673SOL    HW225479   2.631   2.500   4.430  1.4256  3.4350  1.9317
 4674SOL     OW25480   4.480   1.484   3.272 -0.8711 -0.5844 -0.1644
 4674SOL    HW125481   4.389   1.488   3.245 -0.8512 -3.1394 -0.5697
 4674SOL    HW225482   4.474   1.469   3.367  1.3552  0.3318  0.1314
 4675SOL     OW25483   0.630   4.100   2.050  0.0758  0.2010 -0.0080
 4675SOL    HW125484   0.691   4.029   2.070 -1.4581 -1.6618 -1.9449
 4675SOL    HW225485   0.564   4.082   2.118 -1.0331 -0.6101 -1.3019
 4676SOL     OW25486   1.740   3.746   0.432  0.0546  0.0988  0.5266
 4676SOL    HW125487   1.684   3.717   0.360 -0.3579 -1.4425  1.4818
 4676SOL    HW225488   1.681   3.812   0.467 -0.5602  0.3908 -1.1008
 4677SOL     OW25489   0.273   0.597   6.777 -0.3500 -0.1624  0.3456
 4677SOL    HW125490   0.320   0.560   6.702  0.0451 -1.8439  1.4166
 4677SOL    HW225491   0.333   0.664   6.809 -1.5327  1.1071 -0.0829
 4678SOL     OW25492   2.544   0.375   7.669 -0.9924 -0.3580  0.1114
 4678SOL    HW125493   2.565   0.286   7.696  3.2381  0.0260 -1.8835
 4678SOL    HW225494   2.503   0.402   7.751  1.3228 -1.5437  1.6882
 4679SOL     OW25495   3.201   0.902   6.315 -0.4024  0.2355  0.1855
 4679SOL    HW125496   3.228   0.975   6.259  0.8236  0.3128  0.8795
 4679SOL    HW225497   3.278   0.900   6.371 -0.3402  2.6444  0.1979
 4680SOL     OW25498   0.473   2.027  12.501  0.3100  0.0804 -0.1824
 4680SOL    HW125499   0.522   2.103  12.471 -3.1190  2.3726  0.0238
 4680SOL    HW225500   0.505   2.019  12.591 -0.3239  1.3014  0.1467
 4681SOL     OW25501   0.048   3.534   7.508 -0.6158  0.0736 -0.4302
 4681SOL    HW125502   0.056   3.585   7.427 -0.8869 -0.1061 -0.5681
 4681SOL    HW225503   0.026   3.453   7.462  1.9076 -0.2635 -1.0873
 4682SOL     OW25504   2.107   3.840   3.539 -0.2257  0.0846  0.1499
 4682SOL    HW125505   2.050   3.810   3.609 -0.7297 -0.3478 -0.4422
 4682SOL    HW225506   2.052   3.834   3.460  1.7699  0.0075 -1.2263
 4683SOL     OW25507   0.709   3.609  10.636  0.6059 -0.1729  0.1727
 4683SOL    HW125508   0.790   3.592  10.587  0.8462  0.8523  0.2157
 4683SOL    HW225509   0.664   3.526  10.618 -1.4995  1.1976 -0.8369
 4684SOL     OW25510   0.194   4.601   3.694 -0.4579  0.1383  0.3911
 4684SOL    HW125511   0.244   4.554   3.761  1.4604  1.6995  0.0384
 4684SOL    HW225512   0.196   4.537   3.623 -3.3262  1.2889 -0.7198
 4685SOL     OW25513   4.173   0.951  16.391 -0.0483 -0.3861 -0.5426
 4685SOL    HW125514   4.213   0.885  16.335 -1.0158  0.1850 -1.9015
 4685SOL    HW225515   4.081   0.929  16.381 -0.1763  0.4959 -1.2495
 4686SOL     OW25516   2.744   4.457   4.685  0.6075  0.1776 -0.1084
 4686SOL    HW125517   2.788   4.484   4.604  1.7080 -0.6168  0.2221
 4686SOL    HW225518   2.694   4.383   4.652  1.0006  0.2837 -0.9498
 4687SOL     OW25519   1.398   1.321   6.510  0.6466 -0.1791 -0.6826
 4687SOL    HW125520   1.316   1.337   6.557 -0.0675 -2.5112 -1.1415
 4687SOL    HW225521   1.468   1.351   6.568  0.1330 -0.6296  0.1646
 4688SOL     OW25522   1.536   3.391   8.982 -0.2460 -0.1951 -0.3229
 4688SOL    HW125523   1.580   3.397   9.067  2.3822 -2.3289 -1.5340
 4688SOL    HW225524   1.493   3.306   8.983 -1.7897  0.5793 -0.3650
 4689SOL     OW25525   0.816   3.352   4.138  0.1296  0.0820  0.5019
 4689SOL    HW125526   0.802   3.447   4.142 -0.9832 -0.0620  0.1161
 4689SOL    HW225527   0.903   3.338   4.176  0.4809 -1.0670 -0.7435
 4690SOL     OW25528   1.051   2.406   9.873  0.3584  0.0228 -0.3705
 4690SOL    HW125529   0.969   2.359   9.858  1.7829 -1.3081 -3.9732
 4690SOL    HW225530   1.025   2.498   9.878  1.3483  0.4615 -3.5450
 4691SOL     OW25531   4.021   2.070   8.722  0.6558 -0.1363  0.0771
 4691SOL    HW125532   4.015   2.162   8.696  0.4030 -0.1587  0.0562
 4691SOL    HW225533   4.114   2.050   8.720  0.2075 -2.1007 -1.3384
 4692SOL     OW25534   2.429   3.006   2.141  0.1968 -0.0605 -0.0876
 4692SOL    HW125535   2.407   2.930   2.087  0.6623  0.2956 -0.7751
 4692SOL    HW225536   2.368   2.998   2.214 -1.4863 -0.9050 -1.5957
 4693SOL     OW25537   2.285   1.118   1.593 -0.4255  0.0947 -0.5291
 4693SOL    HW125538   2.321   1.061   1.524  0.3288  0.1353 -0.1740
 4693SOL    HW225539   2.225   1.163   1.533 -0.4084  0.4763 -0.2597
 4694SOL     OW25540   1.651   0.292  10.312 -0.2304  0.6240 -0.0953
 4694SOL    HW125541   1.675   0.341  10.391  0.2809  1.7257 -0.9402
 4694SOL    HW225542   1.715   0.313  10.244 -0.5053  3.7222  0.6229
 4695SOL     OW25543   2.509   3.894  10.943  0.7594 -0.2786 -0.4784
 4695SOL    HW125544   2.479   3.981  10.969  2.5003 -0.3996  1.9105
 4695SOL    HW225545   2.451   3.834  10.989 -0.4037  0.6726 -0.7092
 4696SOL     OW25546   3.625   3.954   1.563 -0.2302  0.3236  0.0814
 4696SOL    HW125547   3.695   3.920   1.507  0.6866  0.0614  1.3847
 4696SOL    HW225548   3.679   4.000   1.627 -2.0153  1.1061  1.0249
 4697SOL     OW25549   4.496   0.295   7.434  0.6942 -0.2902 -0.3232
 4697SOL    HW125550   4.526   0.315   7.346 -0.6047  2.0015 -0.2626
 4697SOL    HW225551   4.475   0.202   7.437  0.3106 -0.2139 -0.6826
 4698SOL     OW25552   2.602   3.085  16.022  0.5846 -0.1118  0.3137
 4698SOL    HW125553   2.626   3.012  16.078 -0.8512 -0.9073 -0.0970
 4698SOL    HW225554   2.585   3.043  15.938 -0.8165  0.0655  0.5045
 4699SOL     OW25555   0.352   1.442   8.266  0.3987 -0.0539  0.0771
 4699SOL    HW125556   0.337   1.437   8.361  0.7376  0.2693  0.1466
 4699SOL    HW225557   0.445   1.419   8.261  0.1532 -0.7043 -1.6514
 4700SOL     OW25558   1.246   2.759   9.575 -0.0380  0.2202 -0.3721
 4700SOL    HW125559   1.314   2.695   9.597 -1.7359 -0.2003  3.5077
 4700SOL    HW225560   1.253   2.748   9.480 -1.5473  1.0153 -0.5753
 4701SOL     OW25561   1.122   1.850  14.095  0.4737  0.4955 -0.2819
 4701SOL    HW125562   1.081   1.764  14.084  1.4706  0.0382 -0.3370
 4701SOL    HW225563   1.180   1.835  14.170  0.5253  1.8116 -0.0535
 4702SOL     OW25564   1.105   1.865   8.626 -0.2934  0.0705  0.2397
 4702SOL    HW125565   1.179   1.924   8.635  1.5092 -2.1743  0.0252
 4702SOL    HW225566   1.045   1.937   8.648 -0.0090  1.3352 -3.0074
 4703SOL     OW25567   4.351   2.965  13.161  0.3185  0.2820  0.1912
 4703SOL    HW125568   4.289   3.038  13.167  0.4758  0.4386 -0.1000
 4703SOL    HW225569   4.341   2.949  13.068 -0.6163 -0.2384  0.3790
 4704SOL     OW25570   0.195   3.647   2.577  0.3201  0.6356  0.2475
 4704SOL    HW125571   0.283   3.673   2.606 -0.2060  1.0250  1.4739
 4704SOL    HW225572   0.156   3.654   2.664 -1.6315 -1.9064 -0.4460
 4705SOL     OW25573   3.454   2.437  11.731  0.6011  0.0363 -0.5926
 4705SOL    HW125574   3.429   2.345  11.724  0.2010  0.0456  0.7365
 4705SOL    HW225575   3.408   2.451  11.814  1.3699 -0.8185 -0.0239
 4706SOL     OW25576   1.399   3.566   5.547  0.2308 -0.0489  0.1864
 4706SOL    HW125577   1.343   3.568   5.469 -1.3069 -1.4654  1.2456
 4706SOL    HW225578   1.336   3.573   5.619 -2.3936 -0.2746 -2.0893
 4707SOL     OW25579   4.722   4.262   8.712  0.4230 -0.7167  0.3721
 4707SOL    HW125580   0.056   4.261   8.635 -0.4106 -1.0016 -0.2362
 4707SOL    HW225581   4.674   4.343   8.695  0.5187 -1.0171 -1.3270
 4708SOL     OW25582   2.790   3.994   1.418 -0.9284 -0.3169 -0.3105
 4708SOL    HW125583   2.792   3.939   1.497 -1.1344 -1.3516 -1.0345
 4708SOL    HW225584   2.856   3.956   1.360  0.7893  1.2943  0.5890
 4709SOL     OW25585   1.278   1.947  11.783  0.1600  0.0535 -0.3957
 4709SOL    HW125586   1.238   2.034  11.775 -0.6766 -0.2101  0.8798
 4709SOL    HW225587   1.196   1.898  11.785 -0.9091  1.8333 -0.8986
 4710SOL     OW25588   2.404   2.357   6.258  0.6662  0.0523  0.6210
 4710SOL    HW125589   2.479   2.372   6.316  1.7553  0.3430 -0.8829
 4710SOL    HW225590   2.397   2.262   6.258  0.3140  0.0812 -1.7195
 4711SOL     OW25591   2.256   2.226   8.042 -0.5847 -0.0409 -0.0197
 4711SOL    HW125592   2.327   2.166   8.016 -0.0548 -0.0622  1.4798
 4711SOL    HW225593   2.182   2.199   7.988 -0.3260  0.6633 -0.7219
 4712SOL     OW25594   1.990   1.487   5.585 -0.2328  0.6240  0.1788
 4712SOL    HW125595   1.950   1.428   5.649  0.5562  0.8388  0.8661
 4712SOL    HW225596   1.907   1.520   5.548 -1.4738 -1.1018  1.4157
 4713SOL     OW25597   0.108   3.613   4.099 -0.3761  0.2520 -0.5086
 4713SOL    HW125598   0.187   3.608   4.152 -2.2024 -1.5406  2.0647
 4713SOL    HW225599   0.059   3.536   4.128 -2.9222  1.1039 -2.5607
 4714SOL     OW25600   4.471   0.382  14.209  0.4523  0.0815  0.0161
 4714SOL    HW125601   4.468   0.304  14.265  2.4881 -0.7705 -1.0239
 4714SOL    HW225602   4.447   0.443  14.279 -3.0949 -1.6498  0.2800
 4715SOL     OW25603   2.844   1.375   7.992  0.5083 -0.5713 -0.4442
 4715SOL    HW125604   2.911   1.342   8.051  2.1517  1.5643 -1.0894
 4715SOL    HW225605   2.765   1.362   8.045  0.3815 -0.4246 -0.5955
 4716SOL     OW25606   3.514   3.337   4.549 -0.5473 -0.2497  0.5438
 4716SOL    HW125607   3.518   3.429   4.574  1.0216 -0.2557  0.2921
 4716SOL    HW225608   3.503   3.297   4.636 -0.5650  0.4436  0.8639
 4717SOL     OW25609   3.263   3.125   6.242  0.4717  0.2790 -0.0280
 4717SOL    HW125610   3.235   3.105   6.332  0.6277  0.3020  0.0253
 4717SOL    HW225611   3.243   3.217   6.227  2.4758  1.1392  2.6089
 4718SOL     OW25612   2.844   1.962  12.915 -0.3623 -0.3185  0.3924
 4718SOL    HW125613   2.821   1.869  12.915 -0.9058 -0.1865  1.8796
 4718SOL    HW225614   2.902   1.956  12.839 -0.3115 -0.3883  0.4364
 4719SOL     OW25615   2.414   0.111   4.974  0.1893  0.1889  0.5709
 4719SOL    HW125616   2.435   0.188   4.922 -0.8309  0.0547 -0.0216
 4719SOL    HW225617   2.438   0.139   5.063  0.3824  1.6602  0.0507
 4720SOL     OW25618   4.169   0.162   5.220 -0.1953 -0.3422  0.2049
 4720SOL    HW125619   4.249   0.134   5.176  0.7833  1.6237  0.7391
 4720SOL    HW225620   4.199   0.183   5.308 -0.7512 -0.6850  0.4722
 4721SOL     OW25621   2.104   0.111  13.992 -0.4315 -0.8039 -0.2236
 4721SOL    HW125622   2.194   0.137  13.970 -0.4007 -0.9191 -0.2324
 4721SOL    HW225623   2.064   0.117  13.905 -1.0762 -0.3350  0.1045
 4722SOL     OW25624   0.035   2.550   8.945  0.0714  0.4663  0.4631
 4722SOL    HW125625   0.079   2.632   8.923  0.7429  0.0819  0.3663
 4722SOL    HW225626   0.097   2.514   9.008  1.2337  1.3360 -0.1999
 4723SOL     OW25627   3.717   4.007   8.308  0.3918 -0.1347  0.0878
 4723SOL    HW125628   3.683   4.061   8.236 -1.5165 -1.7109 -0.1747
 4723SOL    HW225629   3.670   3.926   8.292  1.5053 -0.8470  0.4445
 4724SOL     OW25630   1.195   1.665   7.643  1.1847  0.2735 -0.0099
 4724SOL    HW125631   1.180   1.687   7.735  0.3187  0.6454 -0.2388
 4724SOL    HW225632   1.181   1.570   7.647  1.0144  0.2669 -0.7947
 4725SOL     OW25633   0.726   2.508   6.302  0.1287 -0.2688 -0.7268
 4725SOL    HW125634   0.808   2.552   6.280  0.6161 -0.6436  0.3231
 4725SOL    HW225635   0.683   2.512   6.217 -0.4719  0.2194 -0.4017
 4726SOL     OW25636   1.474   1.921   8.052 -0.1347 -0.0388  0.2881
 4726SOL    HW125637   1.424   1.948   7.975  0.2630  0.9322  0.3753
 4726SOL    HW225638   1.404   1.931   8.116  0.0856 -0.5411  0.6083
 4727SOL     OW25639   3.950   1.338  11.539 -0.3111 -0.0258  0.1428
 4727SOL    HW125640   4.015   1.338  11.470  0.9054  1.5065  1.2786
 4727SOL    HW225641   3.927   1.245  11.545 -0.3635 -0.1748 -2.3088
 4728SOL     OW25642   1.344   0.782   8.742  0.3361  0.6052  0.3673
 4728SOL    HW125643   1.360   0.846   8.672 -0.5502  0.6999  0.2441
 4728SOL    HW225644   1.393   0.823   8.813 -0.3762 -0.9243  1.7361
 4729SOL     OW25645   0.233   2.998  16.358  0.1932  0.0314 -0.0313
 4729SOL    HW125646   0.264   3.088  16.370  1.0708 -0.4390  1.2340
 4729SOL    HW225647   0.143   3.011  16.329 -0.2951 -0.4894  1.2451
 4730SOL     OW25648   4.385   4.320  13.320  0.3216 -0.4392 -0.1238
 4730SOL    HW125649   4.389   4.401  13.269 -0.0203 -1.0025 -1.0366
 4730SOL    HW225650   4.450   4.335  13.390  0.2192  2.0509 -0.5473
 4731SOL     OW25651   1.933   3.084   3.726  0.3668 -0.1965  0.2848
 4731SOL    HW125652   1.936   2.991   3.747  0.8390 -0.3806 -0.6030
 4731SOL    HW225653   2.007   3.081   3.665  0.2052  1.1878  0.0220
 4732SOL     OW25654   2.364   2.198  16.656  0.1346  0.2408  0.0320
 4732SOL    HW125655   2.352   2.252  16.734 -0.3896  0.9343 -0.5292
 4732SOL    HW225656   2.459   2.206  16.641  0.3723 -2.5022  0.0833
 4733SOL     OW25657   3.325   0.926  16.474 -0.7445 -0.7242 -0.9000
 4733SOL    HW125658   3.276   0.855  16.514 -0.5311 -0.1996  0.2890
 4733SOL    HW225659   3.405   0.917  16.527 -1.4873 -0.6849  0.2178
 4734SOL     OW25660   4.176   0.100   6.556  0.1870 -0.4387  0.5723
 4734SOL    HW125661   4.269   0.122   6.549  0.3686 -0.5587  2.8019
 4734SOL    HW225662   4.148   0.076   6.467 -0.7719  2.5152  0.0798
 4735SOL     OW25663   4.648   4.643  15.777  0.2415  0.2590  0.1379
 4735SOL    HW125664   4.607   4.637  15.690 -1.8473 -0.0699  1.1589
 4735SOL    HW225665   4.682   0.009  15.780 -1.0992  0.7828 -0.3189
 4736SOL     OW25666   3.865   2.511   8.028  0.4809  0.5139 -0.5619
 4736SOL    HW125667   3.909   2.428   8.042  0.9413  0.9084  0.3165
 4736SOL    HW225668   3.834   2.526   8.117 -1.1211  0.4708 -1.1173
 4737SOL     OW25669   1.045   3.557   1.246  0.2414 -0.4258 -0.1128
 4737SOL    HW125670   1.130   3.580   1.208  0.4874 -1.0861  0.0343
 4737SOL    HW225671   1.039   3.609   1.326 -1.5307 -1.2646  0.3001
 4738SOL     OW25672   2.531   1.349   8.476 -0.8481  0.5148 -0.4451
 4738SOL    HW125673   2.555   1.441   8.474 -0.1225  0.3737  1.2003
 4738SOL    HW225674   2.477   1.334   8.399 -1.3393  0.5012 -0.1040
 4739SOL     OW25675   1.881   0.537   4.378  0.0884  0.0983 -0.2231
 4739SOL    HW125676   1.832   0.541   4.460 -0.3066 -2.4269 -0.3627
 4739SOL    HW225677   1.973   0.541   4.408  0.3020 -1.6702 -0.6987
 4740SOL     OW25678   0.893   2.656   9.852  0.2239  0.1399 -0.4315
 4740SOL    HW125679   0.856   2.657   9.764 -1.3385 -0.0738  0.2197
 4740SOL    HW225680   0.839   2.730   9.879  1.8692  1.0105  0.5293
 4741SOL     OW25681   0.520   3.733   2.430 -0.5989 -0.0721 -0.1889
 4741SOL    HW125682   0.525   3.652   2.380  0.2066  1.4969 -2.6813
 4741SOL    HW225683   0.502   3.700   2.518 -2.0208  1.3681  0.0786
 4742SOL     OW25684   4.330   4.031   8.733  0.3424  0.1263 -0.2724
 4742SOL    HW125685   4.312   3.951   8.682  3.0379  0.3837 -1.6054
 4742SOL    HW225686   4.407   4.001   8.781 -1.1563 -2.2037  0.7191
 4743SOL     OW25687   1.630   1.213   0.721  0.3513  0.7046  0.1388
 4743SOL    HW125688   1.603   1.296   0.762 -2.3008  0.6606 -1.5093
 4743SOL    HW225689   1.702   1.193   0.781 -1.1827 -2.4506  0.9243
 4744SOL     OW25690   4.367   4.555  13.182 -0.1610 -0.1898 -0.0959
 4744SOL    HW125691   4.437   4.617  13.161  0.3222 -1.4562 -2.2981
 4744SOL    HW225692   4.287   4.603  13.161  0.2479  0.8620  0.7930
 4745SOL     OW25693   0.539   0.894   2.101 -0.4400 -0.1959  0.5707
 4745SOL    HW125694   0.521   0.898   2.007  2.6254 -1.7381 -0.0729
 4745SOL    HW225695   0.610   0.830   2.109 -2.5712 -2.7707 -0.8650
 4746SOL     OW25696   1.709   4.715   5.305  0.0047 -0.0727  0.1082
 4746SOL    HW125697   1.696   4.662   5.226  1.6526  0.3499 -0.4621
 4746SOL    HW225698   1.702   0.077   5.263  0.1773 -0.5887 -0.9730
 4747SOL     OW25699   3.378   4.363   3.600  0.4569  0.0560  0.0907
 4747SOL    HW125700   3.313   4.370   3.530 -0.5889 -3.1857  0.7205
 4747SOL    HW225701   3.395   4.452   3.628  2.5622 -0.6448  1.0233
 4748SOL     OW25702   2.687   3.588   8.862  0.2735 -0.1571 -0.1434
 4748SOL    HW125703   2.710   3.680   8.877  1.3729 -0.1773 -1.6665
 4748SOL    HW225704   2.659   3.562   8.950  1.2594  0.3073  0.3148
 4749SOL     OW25705   0.003   4.503   6.990  0.2203 -0.4737  0.2417
 4749SOL    HW125706   0.074   4.442   6.970  0.6326  0.0461  0.1290
 4749SOL    HW225707   0.048   4.574   7.036  0.8042 -1.0966  0.6320
 4750SOL     OW25708   4.588   2.431  15.346 -0.0880  0.2223 -0.5167
 4750SOL    HW125709   4.674   2.446  15.385  0.1685 -0.5865 -0.7696
 4750SOL    HW225710   4.615   2.364  15.283  0.5840  1.0775 -1.1434
 4751SOL     OW25711   2.947   1.894   6.444  0.1501  0.1283  0.1608
 4751SOL    HW125712   2.921   1.914   6.534 -0.9756 -2.5670  0.4347
 4751SOL    HW225713   2.998   1.814   6.453  0.4485  0.2508 -0.4393
 4752SOL     OW25714   2.263   3.553   7.879  0.4156 -0.4466 -0.4220
 4752SOL    HW125715   2.197   3.552   7.949  0.0450 -0.6608 -0.7745
 4752SOL    HW225716   2.283   3.460   7.875 -0.9933 -0.7237 -0.8132
 4753SOL     OW25717   3.161   0.349   1.991  0.3561 -0.5506  0.7070
 4753SOL    HW125718   3.193   0.291   1.923  0.7877  0.4561  0.0621
 4753SOL    HW225719   3.159   0.294   2.069 -2.6529 -0.1052  0.9560
 4754SOL     OW25720   1.366   0.675   9.181 -0.1332 -0.0856 -0.1818
 4754SOL    HW125721   1.407   0.759   9.161 -0.7578  0.4675  0.8408
 4754SOL    HW225722   1.304   0.704   9.248 -0.5234  0.6877 -0.8780
 4755SOL     OW25723   1.779   2.717  12.955  0.6178 -0.1515  0.4820
 4755SOL    HW125724   1.807   2.651  13.018 -1.0361 -1.0939  0.2113
 4755SOL    HW225725   1.688   2.728  12.983  0.7398  0.3462  0.6900
 4756SOL     OW25726   3.095   2.239  13.122 -0.2068  0.5258  0.2754
 4756SOL    HW125727   3.148   2.274  13.194 -0.6535 -1.7688  1.7148
 4756SOL    HW225728   3.062   2.166  13.175 -1.2350 -0.3534 -1.5862
 4757SOL     OW25729   1.416   3.152   3.790  0.9334 -0.5621  0.1048
 4757SOL    HW125730   1.495   3.205   3.776  2.2617 -2.7530 -0.6882
 4757SOL    HW225731   1.413   3.103   3.708 -1.9747  0.7919 -0.6066
 4758SOL     OW25732   2.553   3.297  16.233  0.4318  0.0674  0.8204
 4758SOL    HW125733   2.483   3.283  16.297  0.0800  1.9829  0.8611
 4758SOL    HW225734   2.560   3.215  16.183  1.1889 -1.0528  2.7411
 4759SOL     OW25735   4.616   0.101   9.275 -0.2258  0.4152 -0.1720
 4759SOL    HW125736   4.646   0.023   9.320  1.4295  0.9092 -0.4204
 4759SOL    HW225737   4.600   0.069   9.186  2.9573 -2.0106  0.1539
 4760SOL     OW25738   3.657   1.763  10.012  0.5143 -0.5027  0.1602
 4760SOL    HW125739   3.653   1.787  10.104  0.9642  1.9209 -0.4621
 4760SOL    HW225740   3.588   1.814   9.970  1.8599  2.1483  1.1283
 4761SOL     OW25741   2.344   3.034   1.136 -0.0953 -0.5050 -0.1036
 4761SOL    HW125742   2.260   2.991   1.126  0.7955 -2.2517 -0.0410
 4761SOL    HW225743   2.319   3.093   1.207 -1.9091 -0.9366 -0.3985
 4762SOL     OW25744   3.211   2.138   5.910 -0.4065  0.2049 -0.3343
 4762SOL    HW125745   3.171   2.195   5.845  0.0761  0.9903  0.0609
 4762SOL    HW225746   3.242   2.201   5.975 -4.1417  0.4304  1.1888
 4763SOL     OW25747   1.789   0.561  14.746 -0.0938  0.3737  0.6886
 4763SOL    HW125748   1.869   0.527  14.705 -0.9977 -0.7282 -0.1456
 4763SOL    HW225749   1.795   0.653  14.719  0.1420 -0.4689 -2.0562
 4764SOL     OW25750   2.648   3.498  17.101 -0.0554  0.6527 -0.3344
 4764SOL    HW125751   2.637   3.411  17.062  0.5102 -0.5641  2.2021
 4764SOL    HW225752   2.743   3.506  17.086  0.1187  0.1656  0.5100
 4765SOL     OW25753   2.169   0.898   5.123 -0.1201  0.0428  0.3958
 4765SOL    HW125754   2.181   0.975   5.177 -0.3190  0.5051 -0.2134
 4765SOL    HW225755   2.258   0.872   5.099 -0.7687 -1.1225 -0.7720
 4766SOL     OW25756   2.341   0.543   8.640  0.1878  0.3244  0.1939
 4766SOL    HW125757   2.267   0.531   8.699 -2.0115  0.1361 -2.5936
 4766SOL    HW225758   2.324   0.487   8.565 -0.6543  2.2504 -1.0582
 4767SOL     OW25759   3.836   2.147   9.313 -0.0004 -0.2074 -0.7773
 4767SOL    HW125760   3.765   2.092   9.346  0.1045 -1.6689 -2.9777
 4767SOL    HW225761   3.779   2.192   9.251  2.2169  3.1292 -0.4145
 4768SOL     OW25762   0.116   3.750  15.355 -0.0207  0.1956  0.4304
 4768SOL    HW125763   0.198   3.787  15.388  0.1948 -0.9829  1.2249
 4768SOL    HW225764   0.076   3.823  15.307  1.1065  1.6669  1.7231
 4769SOL     OW25765   3.935   3.369   2.215 -0.0380  0.2372 -0.2698
 4769SOL    HW125766   3.966   3.288   2.256 -0.0016  0.8223  0.8552
 4769SOL    HW225767   3.887   3.342   2.136 -0.9624 -3.0587  1.4162
 4770SOL     OW25768   3.173   2.211  12.158 -0.5398 -0.0704  0.0450
 4770SOL    HW125769   3.115   2.154  12.108 -0.0352  0.2090 -0.8522
 4770SOL    HW225770   3.218   2.145  12.210  1.6623  0.5150 -1.1200
 4771SOL     OW25771   4.004   3.233   8.975  0.1787 -0.2172  0.0616
 4771SOL    HW125772   3.934   3.221   9.040 -0.0993 -0.9722 -0.3834
 4771SOL    HW225773   4.036   3.322   8.989  0.5470 -0.6865  2.3478
 4772SOL     OW25774   4.219   3.967   9.755 -0.5036 -0.6023  0.0071
 4772SOL    HW125775   4.276   4.027   9.707 -1.6252 -0.1750 -0.7924
 4772SOL    HW225776   4.220   3.993   9.847  0.4621 -1.4354  0.2321
 4773SOL     OW25777   0.460   1.981   1.323 -0.1480 -0.1507  0.7034
 4773SOL    HW125778   0.414   1.940   1.250  0.2136  0.0705  0.3498
 4773SOL    HW225779   0.529   1.917   1.338  1.9633  0.9800 -3.9821
 4774SOL     OW25780   1.223   4.174   5.222 -0.2315 -0.3446 -0.4169
 4774SOL    HW125781   1.260   4.216   5.299 -1.0142  1.3920 -0.9842
 4774SOL    HW225782   1.270   4.091   5.219  0.6612  0.1398 -0.1242
 4775SOL     OW25783   4.594   1.243  15.877  0.7895 -0.0849  0.3188
 4775SOL    HW125784   4.512   1.241  15.927  0.8642  1.0171  0.4925
 4775SOL    HW225785   4.644   1.309  15.926  0.1516  2.9143 -3.0922
 4776SOL     OW25786   0.646   0.188  12.056  0.3287 -0.4399  0.0798
 4776SOL    HW125787   0.623   0.151  12.142 -0.1287  0.0723  0.1810
 4776SOL    HW225788   0.607   0.129  11.992  1.5192 -1.6567  0.4812
 4777SOL     OW25789   0.084   0.474  12.624  0.4976 -0.0393 -0.2328
 4777SOL    HW125790   0.063   0.546  12.564 -0.8764 -0.9154 -0.8109
 4777SOL    HW225791   0.057   0.517  12.705 -0.5006 -0.0274 -0.5673
 4778SOL     OW25792   1.009   1.565   6.680 -0.3806 -0.2853  0.4220
 4778SOL    HW125793   1.063   1.632   6.638 -2.2298 -0.6493 -2.5870
 4778SOL    HW225794   0.921   1.579   6.647 -0.8352  1.8566  2.5718
 4779SOL     OW25795   2.603   2.059  13.069 -0.0251 -0.4596 -0.0112
 4779SOL    HW125796   2.689   2.060  13.027  0.2881 -0.8341  0.6213
 4779SOL    HW225797   2.572   1.979  13.026 -2.6891 -0.4981  2.0042
 4780SOL     OW25798   4.352   2.401   8.805  0.3237 -0.4927  0.7348
 4780SOL    HW125799   4.436   2.435   8.774 -0.0416  0.3752  0.6854
 4780SOL    HW225800   4.363   2.310   8.779 -2.7183 -0.4307 -0.6652
 4781SOL     OW25801   3.158   4.019  11.001  0.0926 -1.1999  0.7145
 4781SOL    HW125802   3.172   4.074  11.078 -1.2569  1.2964 -0.8271
 4781SOL    HW225803   3.078   4.054  10.963  1.0508 -0.4638 -0.6277
 4782SOL     OW25804   2.737   0.714   4.989  0.2612  0.1139 -0.0951
 4782SOL    HW125805   2.753   0.749   5.076  3.3912 -2.3547  0.3072
 4782SOL    HW225806   2.827   0.706   4.957 -0.1040 -2.8282 -0.4092
 4783SOL     OW25807   0.147   2.323   5.886  0.2176  0.1402 -0.1974
 4783SOL    HW125808   0.238   2.325   5.916  0.5882 -0.7236 -1.2593
 4783SOL    HW225809   0.099   2.366   5.957 -0.1438  2.1177 -1.6615
 4784SOL     OW25810   2.623   3.623  16.036  0.1569 -0.6092  0.4393
 4784SOL    HW125811   2.644   3.717  16.033  0.6253 -0.7388 -0.2891
 4784SOL    HW225812   2.637   3.594  15.946 -1.2333 -0.2873  0.1212
 4785SOL     OW25813   2.504   1.789  13.719  0.0707 -0.1529 -0.3900
 4785SOL    HW125814   2.417   1.829  13.717  1.1510  2.0979 -3.0260
 4785SOL    HW225815   2.520   1.841  13.798 -0.6414  0.5006 -0.6783
 4786SOL     OW25816   3.338   3.724   6.267 -0.5037  0.1842 -0.1329
 4786SOL    HW125817   3.293   3.801   6.301  1.4883  0.5832  1.5755
 4786SOL    HW225818   3.265   3.696   6.212 -0.0013 -1.3476 -0.0236
 4787SOL     OW25819   3.286   4.562  15.669 -0.0499  0.1773 -0.2525
 4787SOL    HW125820   3.283   4.634  15.733  1.5226  0.0894 -0.0807
 4787SOL    HW225821   3.305   4.622  15.597  1.7659  0.8536  0.7719
 4788SOL     OW25822   4.567   4.453   5.277  0.2293 -0.0913 -0.3216
 4788SOL    HW125823   4.483   4.414   5.303  1.4161 -2.6691 -0.3962
 4788SOL    HW225824   4.623   4.407   5.339  1.3536 -0.1311 -1.3630
 4789SOL     OW25825   3.655   0.066   3.899  0.3767 -0.3217  0.5583
 4789SOL    HW125826   3.671   0.090   3.808 -1.0668 -1.1392  0.0875
 4789SOL    HW225827   3.741   0.091   3.935  0.0982  0.9944  0.3240
 4790SOL     OW25828   2.201   0.533  13.888  0.6154  0.0183 -0.0428
 4790SOL    HW125829   2.219   0.508  13.978 -1.4654 -1.8278 -0.1425
 4790SOL    HW225830   2.143   0.609  13.896  0.9597  0.2962 -0.1903
 4791SOL     OW25831   4.132   3.029   2.955  0.3705 -0.1674  0.4465
 4791SOL    HW125832   4.145   3.007   3.047 -0.1665 -3.0867 -0.1686
 4791SOL    HW225833   4.204   2.979   2.918  1.1187  0.5337  0.9509
 4792SOL     OW25834   2.682   3.438   7.616 -0.1298  0.2691 -0.0369
 4792SOL    HW125835   2.763   3.484   7.638 -0.2430 -0.1620  1.3181
 4792SOL    HW225836   2.630   3.507   7.576  0.4931  0.5913 -0.2879
 4793SOL     OW25837   1.144   3.933   3.583  0.4111  0.4564  0.7192
 4793SOL    HW125838   1.202   3.942   3.508  0.6608  0.1051  0.8682
 4793SOL    HW225839   1.199   3.894   3.652  0.8555  0.1077  0.1737
 4794SOL     OW25840   2.638   0.726   8.270  0.0268 -0.4814  0.1328
 4794SOL    HW125841   2.552   0.690   8.247 -1.2854  1.9905  1.1714
 4794SOL    HW225842   2.700   0.696   8.204  1.1860 -0.0387  1.0070
 4795SOL     OW25843   1.167   3.032   5.672  0.0986 -0.2131 -0.6808
 4795SOL    HW125844   1.133   3.119   5.694 -1.1425 -0.6330 -0.9956
 4795SOL    HW225845   1.177   3.047   5.578 -1.3669  2.5701 -0.4074
 4796SOL     OW25846   4.120   4.516   7.221 -0.7867 -0.1113 -0.0843
 4796SOL    HW125847   4.213   4.497   7.232 -1.1438 -1.2638  0.8455
 4796SOL    HW225848   4.097   4.530   7.313 -1.9481 -1.2645 -0.1973
 4797SOL     OW25849   0.870   1.203   9.022  0.1522 -0.7551  0.0952
 4797SOL    HW125850   0.832   1.289   9.037  0.4474 -0.3545 -1.4643
 4797SOL    HW225851   0.937   1.224   8.957  1.6666 -2.7543  0.9981
 4798SOL     OW25852   1.905   1.376   2.413  0.7168 -0.3099 -0.8511
 4798SOL    HW125853   1.894   1.300   2.470 -0.3726  1.3892  1.2240
 4798SOL    HW225854   1.888   1.329   2.331 -0.0872 -1.9969  0.2839
 4799SOL     OW25855   2.742   3.027  15.616 -0.2053 -0.1855  0.1484
 4799SOL    HW125856   2.705   3.012  15.703  0.4151  0.7232  0.5594
 4799SOL    HW225857   2.790   3.108  15.634 -0.9280  1.0434 -3.4326
 4800SOL     OW25858   0.528   0.069   9.851 -0.0069 -0.1165  0.3300
 4800SOL    HW125859   0.439   0.042   9.833 -0.5767  0.8587  1.6556
 4800SOL    HW225860   0.554   4.709   9.890  4.5220  0.9824 -0.3281
 4801SOL     OW25861   2.537   0.552  17.526 -0.2020 -0.1461 -0.2068
 4801SOL    HW125862   2.503   0.579  17.441 -0.6675  0.4629  0.1670
 4801SOL    HW225863   2.632   0.548  17.511 -0.1925  1.6232 -0.7343
 4802SOL     OW25864   3.866   4.183  11.345 -0.0324 -0.4702 -0.3722
 4802SOL    HW125865   3.875   4.266  11.392 -2.0169 -0.4702  0.0303
 4802SOL    HW225866   3.893   4.212  11.258 -0.7378  0.0197 -0.4335
 4803SOL     OW25867   1.276   2.136   9.052 -0.3831 -0.1065 -0.0054
 4803SOL    HW125868   1.280   2.148   9.147 -0.8404 -1.4357  0.1778
 4803SOL    HW225869   1.359   2.092   9.035  0.1059  1.5087 -1.7982
 4804SOL     OW25870   1.263   1.743   3.885  0.5129 -0.0262  0.2437
 4804SOL    HW125871   1.332   1.754   3.819  0.2232 -0.1426 -0.0792
 4804SOL    HW225872   1.325   1.722   3.955  0.3304  1.4022  0.8196
 4805SOL     OW25873   2.264   1.746   6.907 -0.0010 -0.1137 -0.0681
 4805SOL    HW125874   2.297   1.698   6.983 -2.0173  0.0715  0.9105
 4805SOL    HW225875   2.254   1.669   6.850 -1.5976  0.6609 -0.8176
 4806SOL     OW25876   3.273   1.741   5.387 -0.9481  0.3929 -0.6597
 4806SOL    HW125877   3.356   1.757   5.432 -0.5319  0.9212 -1.6006
 4806SOL    HW225878   3.225   1.816   5.422  2.8190  1.2860  2.5873
 4807SOL     OW25879   3.894   1.144   6.747 -0.3808  0.4499 -0.3190
 4807SOL    HW125880   3.899   1.078   6.678 -3.8804  0.7562 -0.8645
 4807SOL    HW225881   3.936   1.099   6.820  0.0224  1.0005 -0.2089
 4808SOL     OW25882   2.994   0.442   6.596  0.5191  0.1842 -0.1193
 4808SOL    HW125883   2.904   0.448   6.567  0.5472  0.5349 -0.1276
 4808SOL    HW225884   2.998   0.386   6.674  0.9403  1.6368  0.9091
 4809SOL     OW25885   2.802   0.709   4.179  0.1077 -0.3662 -0.3660
 4809SOL    HW125886   2.843   0.623   4.167  2.6772  0.7349  0.4410
 4809SOL    HW225887   2.821   0.726   4.271  2.1999  0.3453 -0.9220
 4810SOL     OW25888   0.359   2.561   4.387 -0.2521  0.1533  0.2207
 4810SOL    HW125889   0.274   2.538   4.423 -0.0203  2.0440  1.9804
 4810SOL    HW225890   0.366   2.651   4.420 -3.5375  0.3743  0.3477
 4811SOL     OW25891   1.515   0.318   1.972 -0.6421  0.1814  0.1117
 4811SOL    HW125892   1.593   0.286   1.926  1.1933 -0.6776  3.8279
 4811SOL    HW225893   1.460   0.251   1.932 -1.4781  2.5532 -2.7151
 4812SOL     OW25894   4.576   3.612  16.442  0.2762 -0.0294 -0.6691
 4812SOL    HW125895   4.520   3.662  16.502  1.6297  0.8795 -0.1793
 4812SOL    HW225896   4.529   3.637  16.362 -3.4245  2.0308  2.1076
 4813SOL     OW25897   4.486   2.432  13.225  0.7244 -0.0949 -0.6580
 4813SOL    HW125898   4.538   2.497  13.273 -0.2318  1.0136 -1.1388
 4813SOL    HW225899   4.564   2.380  13.204  1.5033 -0.2857  2.5907
 4814SOL     OW25900   0.012   2.070   6.168  0.7332 -0.4416  0.5574
 4814SOL    HW125901   0.040   1.981   6.146 -0.7819 -0.5785 -0.8267
 4814SOL    HW225902   0.052   2.092   6.253 -1.2998 -0.3300  1.5016
 4815SOL     OW25903   4.190   1.983   2.091  0.0971  0.2966  0.5324
 4815SOL    HW125904   4.134   1.978   2.013  1.5489 -0.3229 -0.4660
 4815SOL    HW225905   4.132   1.937   2.152 -1.1014  0.6576 -0.3333
 4816SOL     OW25906   1.876   4.131   2.609  0.4903 -0.3241 -0.6401
 4816SOL    HW125907   1.797   4.093   2.649 -0.2757  1.4753 -0.3980
 4816SOL    HW225908   1.916   4.056   2.566  1.9250 -1.4395  2.6382
 4817SOL     OW25909   1.889   2.688   8.717  0.3801  0.3644  0.8422
 4817SOL    HW125910   1.965   2.648   8.676  1.4132  1.2223  1.9059
 4817SOL    HW225911   1.849   2.738   8.646 -1.0525 -2.7776 -0.5442
 4818SOL     OW25912   1.569   0.582   2.171  0.4862  0.4970  0.1212
 4818SOL    HW125913   1.660   0.596   2.197  0.9892  0.4445 -1.6297
 4818SOL    HW225914   1.583   0.521   2.099  0.2172  0.1252  0.3835
 4819SOL     OW25915   3.392   0.647   4.809  0.2469  0.4239  0.8006
 4819SOL    HW125916   3.333   0.647   4.733  3.2203  0.6239 -1.4993
 4819SOL    HW225917   3.367   0.564   4.850  1.2993 -2.1128 -3.6532
 4820SOL     OW25918   2.094   3.379  14.082  0.2631 -0.5095 -0.0253
 4820SOL    HW125919   2.055   3.403  14.166 -1.2099 -1.2308 -0.5128
 4820SOL    HW225920   2.162   3.446  14.072 -1.7261  1.2499 -1.7669
 4821SOL     OW25921   2.076   3.309   0.444 -0.0543 -0.1632 -0.3989
 4821SOL    HW125922   2.075   3.395   0.401 -1.7816 -0.2731 -0.5717
 4821SOL    HW225923   1.998   3.273   0.401 -1.3940  0.6079  1.3750
 4822SOL     OW25924   1.321   4.480  16.185  0.0323 -0.2836  0.1324
 4822SOL    HW125925   1.331   4.405  16.243  2.1304 -1.6580 -2.0157
 4822SOL    HW225926   1.235   4.510  16.214 -0.8657 -0.7895 -1.9757
 4823SOL     OW25927   4.343   1.952   2.343 -0.1363 -0.0090  0.5717
 4823SOL    HW125928   4.353   1.857   2.333 -0.6754  0.0224 -0.2472
 4823SOL    HW225929   4.294   1.968   2.263 -0.8058 -0.5568  0.8749
 4824SOL     OW25930   2.001   4.505   2.779 -0.4762 -0.0542 -0.0885
 4824SOL    HW125931   2.041   4.425   2.812 -1.2693  0.0620  1.1624
 4824SOL    HW225932   1.933   4.470   2.722 -0.2402 -0.2193 -0.2668
 4825SOL     OW25933   2.868   3.074   8.124 -0.0287 -0.1805 -0.0732
 4825SOL    HW125934   2.790   3.037   8.167  1.2753  0.0196  2.4964
 4825SOL    HW225935   2.890   3.001   8.066 -1.2484  0.3908 -1.2380
 4826SOL     OW25936   1.372   0.183   6.094 -0.0421  0.6338  0.2936
 4826SOL    HW125937   1.304   0.136   6.142 -0.4670  1.0389  0.0783
 4826SOL    HW225938   1.335   0.270   6.109  1.2690  0.9353  1.8179
 4827SOL     OW25939   1.397   2.549   0.403 -1.0208  0.6351 -0.1196
 4827SOL    HW125940   1.477   2.504   0.377 -1.7690  0.0345 -1.3818
 4827SOL    HW225941   1.402   2.529   0.497  0.1838  0.2978 -0.2577
 4828SOL     OW25942   4.165   4.219  14.100 -0.1203  0.6757 -0.7008
 4828SOL    HW125943   4.206   4.233  14.014  1.9228  2.2941  0.5499
 4828SOL    HW225944   4.142   4.310  14.118 -2.8821  0.7358 -4.5126
 4829SOL     OW25945   0.451   4.110  15.435 -0.0165  0.1025 -0.1038
 4829SOL    HW125946   0.427   4.202  15.438  1.1951  0.4278 -0.2606
 4829SOL    HW225947   0.546   4.120  15.445  0.0474  0.2734 -0.8670
 4830SOL     OW25948   1.600   4.467   8.123  0.3640  0.3618 -0.2241
 4830SOL    HW125949   1.539   4.536   8.150 -0.3069  0.5041 -2.0733
 4830SOL    HW225950   1.574   4.398   8.184 -1.0060  0.8696 -0.2300
 4831SOL     OW25951   1.754   0.625   2.482  0.7545  0.1089 -0.0649
 4831SOL    HW125952   1.758   0.571   2.403 -0.9538 -0.9243  0.5337
 4831SOL    HW225953   1.794   0.707   2.454 -0.0231  0.3632 -0.4169
 4832SOL     OW25954   2.467   0.289   4.749  0.1371 -0.4433  0.4306
 4832SOL    HW125955   2.380   0.304   4.714  0.2868 -0.5377  0.0240
 4832SOL    HW225956   2.517   0.365   4.719 -0.0802 -0.4810 -0.0257
 4833SOL     OW25957   1.950   1.209   2.010  0.0663 -0.1586  0.1283
 4833SOL    HW125958   2.044   1.201   1.991  0.2230  1.6611  0.1548
 4833SOL    HW225959   1.919   1.280   1.954  3.0446 -1.1205 -2.7948
 4834SOL     OW25960   2.402   1.096   6.608 -0.3979 -0.0178  0.0164
 4834SOL    HW125961   2.456   1.034   6.655 -1.0431 -0.6198 -0.0316
 4834SOL    HW225962   2.466   1.167   6.603 -0.5224  0.0921 -0.0168
 4835SOL     OW25963   2.233   2.044  14.550 -0.1568  0.3188  0.4198
 4835SOL    HW125964   2.327   2.046  14.534 -0.2389  0.5870 -0.0443
 4835SOL    HW225965   2.199   2.120  14.503 -0.8095 -1.8295 -2.5845
 4836SOL     OW25966   2.589   3.490  11.724  0.3958  0.0618  0.1531
 4836SOL    HW125967   2.542   3.572  11.707 -2.5987 -1.5385  0.6990
 4836SOL    HW225968   2.674   3.533  11.734 -0.2849  0.8585  2.3540
 4837SOL     OW25969   1.284   3.536   5.302  0.5427  0.3729  0.9066
 4837SOL    HW125970   1.323   3.584   5.229 -0.9486  4.3413  2.7418
 4837SOL    HW225971   1.207   3.497   5.261 -0.1423  1.8072  0.8249
 4838SOL     OW25972   1.586   3.277   5.070 -0.1348 -0.3072  0.1512
 4838SOL    HW125973   1.666   3.255   5.118  0.5860  1.7193 -0.1242
 4838SOL    HW225974   1.559   3.356   5.115 -3.4917 -0.3628 -1.8044
 4839SOL     OW25975   4.204   2.236   3.262  0.1328  0.3927  0.0802
 4839SOL    HW125976   4.287   2.261   3.221  0.7396 -0.3786  0.8375
 4839SOL    HW225977   4.222   2.149   3.296  0.1352  0.7193  0.9161
 4840SOL     OW25978   1.722   0.017   6.617  0.2375 -0.2911 -0.6464
 4840SOL    HW125979   1.758   0.016   6.528  0.9623 -0.3138 -0.3596
 4840SOL    HW225980   1.747   0.103   6.649  1.2902 -0.4309 -1.0966
 4841SOL     OW25981   3.024   3.293   3.184 -0.5079 -0.7656 -0.4142
 4841SOL    HW125982   3.103   3.333   3.221 -1.4676  0.6372  0.1460
 4841SOL    HW225983   3.036   3.201   3.208  0.1357 -0.5697  0.0333
 4842SOL     OW25984   4.446   1.391  17.135 -0.2861  0.0233  0.4667
 4842SOL    HW125985   4.513   1.325  17.153  0.7046 -0.0652 -3.3941
 4842SOL    HW225986   4.452   1.444  17.214  1.7871  3.3928 -1.9178
 4843SOL     OW25987   2.433   1.877   6.736 -0.6357 -0.0001  0.3394
 4843SOL    HW125988   2.524   1.870   6.765 -0.4853 -0.2508 -0.1987
 4843SOL    HW225989   2.381   1.855   6.813 -2.4269  2.2439 -0.2164
 4844SOL     OW25990   1.371   3.923   6.007 -0.1253  0.8533  0.0991
 4844SOL    HW125991   1.446   3.967   6.047  1.4933 -0.2189 -1.7550
 4844SOL    HW225992   1.339   3.999   5.959  0.3680  1.8785  1.3908
 4845SOL     OW25993   1.567   2.659   8.660  0.3722 -0.0415  0.1164
 4845SOL    HW125994   1.655   2.638   8.630  1.4217  2.7127  1.2206
 4845SOL    HW225995   1.524   2.574   8.647 -1.6367  0.7198  1.8112
 4846SOL     OW25996   0.983   2.481   3.148 -0.1559  0.4419  0.3277
 4846SOL    HW125997   0.954   2.389   3.150 -0.9644  0.6620 -1.1948
 4846SOL    HW225998   1.076   2.471   3.167  0.1012  0.4438 -0.9203
 4847SOL     OW25999   1.575   2.768   6.595  0.5456 -0.2771 -0.5023
 4847SOL    HW126000   1.534   2.682   6.602  1.2995 -0.6084 -0.2092
 4847SOL    HW226001   1.642   2.747   6.531  1.0168  1.6329 -0.6418
 4848SOL     OW26002   1.584   3.121   2.313  0.0832 -0.5048 -0.1616
 4848SOL    HW126003   1.515   3.177   2.349 -0.5464 -0.5952 -1.2195
 4848SOL    HW226004   1.647   3.115   2.385 -0.1196 -2.2790 -0.1355
 4849SOL     OW26005   4.254   2.187   8.244  0.5643 -0.2031 -0.6568
 4849SOL    HW126006   4.179   2.150   8.289  1.1339 -0.5564  0.0028
 4849SOL    HW226007   4.301   2.230   8.316 -0.8808 -1.5860  1.1063
 4850SOL     OW26008   2.415   2.581   2.409  0.0393 -0.1500  0.2119
 4850SOL    HW126009   2.429   2.511   2.345 -0.2540 -0.3258  0.3438
 4850SOL    HW226010   2.432   2.534   2.491  2.2204 -1.3346 -0.9175
 4851SOL     OW26011   1.150   3.659   6.852  0.6447 -0.3271 -0.1141
 4851SOL    HW126012   1.221   3.700   6.803  0.8191 -1.8703 -1.1637
 4851SOL    HW226013   1.074   3.685   6.799 -0.0959 -1.3964  0.4080
 4852SOL     OW26014   0.171   4.618   6.485 -0.1475 -0.3736 -0.0611
 4852SOL    HW126015   0.210   4.573   6.410  0.6736 -1.7423  1.1924
 4852SOL    HW226016   0.243   4.677   6.505  1.1883 -1.4210 -1.7554
 4853SOL     OW26017   2.338   1.283  17.016  0.0381 -0.0046 -0.5488
 4853SOL    HW126018   2.305   1.315  17.099  2.9627  1.6921 -0.0406
 4853SOL    HW226019   2.294   1.198  17.013  0.2944 -0.1824  1.0062
 4854SOL     OW26020   2.452   4.186  14.829  0.5731  0.2467  0.4626
 4854SOL    HW126021   2.494   4.106  14.799  0.3277 -0.1417  1.1547
 4854SOL    HW226022   2.525   4.223  14.879  0.3192 -0.5889  1.4480
 4855SOL     OW26023   0.710   4.101   4.845  0.1765  0.3966  0.5354
 4855SOL    HW126024   0.687   4.065   4.931 -1.7302 -1.2022 -0.6518
 4855SOL    HW226025   0.622   4.106   4.808 -0.5335 -2.1207  1.8744
 4856SOL     OW26026   2.559   1.161  17.520 -0.4830 -0.2918 -1.0233
 4856SOL    HW126027   2.484   1.132  17.571  0.5626 -0.5935  0.3526
 4856SOL    HW226028   2.554   1.256  17.532  1.3794 -0.4612  1.0806
 4857SOL     OW26029   0.590   0.805   8.506 -0.2082  0.0178 -0.6787
 4857SOL    HW126030   0.574   0.713   8.485 -1.1917 -0.2087  1.0583
 4857SOL    HW226031   0.679   0.795   8.541 -0.4325  0.2850 -0.0338
 4858SOL     OW26032   1.837   3.013  10.323  0.5534  0.1901  0.4688
 4858SOL    HW126033   1.930   2.994  10.312  0.4817 -0.7795  1.5182
 4858SOL    HW226034   1.814   2.934  10.371 -0.4313 -0.1972 -0.6479
 4859SOL     OW26035   3.021   4.566  13.119  0.3119 -0.1749 -0.4236
 4859SOL    HW126036   2.963   4.618  13.174  0.0160 -0.1616 -0.7514
 4859SOL    HW226037   2.999   4.480  13.153 -1.3109  0.0052 -1.0523
 4860SOL     OW26038   3.098   0.042   4.355 -0.0390 -0.2885  0.1759
 4860SOL    HW126039   3.024   0.052   4.296 -0.1340 -0.4980  0.2588
 4860SOL    HW226040   3.151   4.718   4.291 -0.2820  1.4143 -1.2830
 4861SOL     OW26041   2.218   1.032   5.890 -0.3265 -0.3967 -0.2126
 4861SOL    HW126042   2.185   0.942   5.892  1.7146 -1.1257  0.8689
 4861SOL    HW226043   2.288   1.022   5.826 -0.8621 -1.8064 -0.5849
 4862SOL     OW26044   1.956   2.124   0.749  0.5026 -0.0248  0.0354
 4862SOL    HW126045   1.916   2.041   0.725  0.1940  0.3061 -0.5824
 4862SOL    HW226046   1.923   2.137   0.838 -2.3333 -3.8894 -0.4720
 4863SOL     OW26047   4.107   1.713   3.291 -0.2360  0.0809  0.6000
 4863SOL    HW126048   4.164   1.639   3.267 -1.3380  0.0351 -1.8928
 4863SOL    HW226049   4.113   1.766   3.212  1.6371 -0.3293  0.4607
 4864SOL     OW26050   3.878   0.031   3.403 -0.1624 -0.2768  0.4003
 4864SOL    HW126051   3.942   0.006   3.337 -0.6135 -3.0416  0.9877
 4864SOL    HW226052   3.794   0.008   3.361  0.0368  1.8470 -1.1387
 4865SOL     OW26053   0.808   0.766   4.975 -0.6236  0.2756  0.5528
 4865SOL    HW126054   0.874   0.714   4.929 -0.2029  1.8592 -0.6202
 4865SOL    HW226055   0.867   0.839   4.990  0.2541 -0.4955  0.8697
 4866SOL     OW26056   3.658   3.391   7.928 -0.1271 -0.3271  0.0447
 4866SOL    HW126057   3.642   3.322   7.992  0.1094  0.7393  1.2427
 4866SOL    HW226058   3.749   3.373   7.906 -0.0380 -0.6234  0.6701
 4867SOL     OW26059   3.182   3.498   5.693  0.3017 -0.1062 -0.4040
 4867SOL    HW126060   3.258   3.505   5.635 -1.1245  3.0787 -1.8588
 4867SOL    HW226061   3.126   3.572   5.669  1.7404  1.1036 -0.0815
 4868SOL     OW26062   0.973   3.097  10.670  0.3039 -0.0317 -0.1690
 4868SOL    HW126063   0.881   3.097  10.643  0.7799 -1.1723 -1.7850
 4868SOL    HW226064   1.017   3.077  10.587  0.5908  1.6942 -0.4243
 4869SOL     OW26065   3.959   0.110  10.382  0.5429 -0.2496 -0.8027
 4869SOL    HW126066   3.903   0.187  10.377  0.6416 -0.1615 -0.5177
 4869SOL    HW226067   3.918   0.069  10.458  0.3070  0.9019 -0.3032
 4870SOL     OW26068   3.286   0.035   8.582  0.3954  0.1874 -0.2143
 4870SOL    HW126069   3.294   0.116   8.632  1.0934  0.0592 -0.1151
 4870SOL    HW226070   3.228   4.709   8.639  0.9316  0.3309  0.4651
 4871SOL     OW26071   3.656   1.265   5.933  0.1171 -0.3357  0.3100
 4871SOL    HW126072   3.692   1.306   6.012 -1.2147  0.6095  0.4399
 4871SOL    HW226073   3.737   1.270   5.883  0.5541 -0.4499  0.9956
 4872SOL     OW26074   0.389   3.671   0.509  0.6891 -0.6228 -0.1065
 4872SOL    HW126075   0.448   3.604   0.543  0.1248 -1.8322 -1.4953
 4872SOL    HW226076   0.313   3.619   0.484  0.8243 -0.6972 -0.3549
 4873SOL     OW26077   2.928   1.148  15.970  0.3702  0.2100 -0.3322
 4873SOL    HW126078   2.928   1.137  15.875 -0.1986 -3.1646  0.0675
 4873SOL    HW226079   2.836   1.156  15.992  1.1625  2.6203  2.1850
 4874SOL     OW26080   3.746   3.775  13.449  0.1632 -0.3716 -0.1722
 4874SOL    HW126081   3.745   3.849  13.388 -2.3092  2.3491  3.1308
 4874SOL    HW226082   3.753   3.811  13.538  1.4970 -0.1466 -0.3718
 4875SOL     OW26083   2.174   4.646   1.807  0.0210 -0.0042 -0.3968
 4875SOL    HW126084   2.145   4.619   1.894 -0.2193  0.1927 -0.4168
 4875SOL    HW226085   2.198   4.558   1.777  1.0449  0.2205 -0.2281
 4876SOL     OW26086   0.737   1.671   2.052 -0.1178  0.4604 -0.4615
 4876SOL    HW126087   0.682   1.685   2.129  1.1061  1.8807  0.1639
 4876SOL    HW226088   0.818   1.716   2.077  0.4505  1.2170 -3.7166
 4877SOL     OW26089   2.321   2.062   5.774  1.0108 -0.3564  0.2340
 4877SOL    HW126090   2.297   1.995   5.838 -1.1917 -0.0830 -0.3126
 4877SOL    HW226091   2.272   2.141   5.794 -0.2150 -0.8180 -0.9300
 4878SOL     OW26092   4.499   4.563   9.211 -0.2125 -0.4647 -0.0996
 4878SOL    HW126093   4.433   4.584   9.146 -1.5787  0.5030  1.6196
 4878SOL    HW226094   4.571   4.553   9.149 -0.7390 -2.0466 -0.4605
 4879SOL     OW26095   4.559   0.142  10.147 -0.1015 -0.3243  0.3325
 4879SOL    HW126096   4.523   0.103  10.067  0.8966  0.4714 -0.5056
 4879SOL    HW226097   4.600   0.067  10.189  0.1863 -1.4074 -1.8455
 4880SOL     OW26098   1.756   1.275   4.051  0.1211 -0.3696  0.1531
 4880SOL    HW126099   1.708   1.287   4.133 -1.8267 -3.9417 -0.4660
 4880SOL    HW226100   1.739   1.182   4.036  1.7856 -0.6501  0.0224
 4881SOL     OW26101   3.354   4.657   5.946  0.1842  0.2060 -0.4137
 4881SOL    HW126102   3.399   4.669   5.862  0.4004  2.1861 -0.0021
 4881SOL    HW226103   3.355   4.561   5.946 -0.0048  0.2411  3.3044
 4882SOL     OW26104   2.771   3.994   2.275 -0.0447 -0.0355  0.1848
 4882SOL    HW126105   2.684   4.026   2.300  0.6559  2.4939 -0.6337
 4882SOL    HW226106   2.835   4.020   2.342  2.2140 -1.0333 -1.5768
 4883SOL     OW26107   0.146   3.163   5.447  0.0137 -0.1592  0.1337
 4883SOL    HW126108   0.194   3.106   5.387  0.5361 -0.0308  0.4251
 4883SOL    HW226109   0.075   3.202   5.398  1.8327  1.5552 -1.1403
 4884SOL     OW26110   1.187   0.798   9.407  0.1608 -0.3077 -0.2841
 4884SOL    HW126111   1.152   0.732   9.347  4.1481 -1.2060 -1.5924
 4884SOL    HW226112   1.127   0.783   9.481  0.5475  1.1503  0.3295
 4885SOL     OW26113   1.184   3.797  12.928  0.0898  0.2612 -0.5406
 4885SOL    HW126114   1.192   3.802  12.833  2.2308  0.0780 -0.3743
 4885SOL    HW226115   1.238   3.873  12.949 -1.4595  0.8116  1.4689
 4886SOL     OW26116   3.218   0.278   8.683  0.9020 -0.0338  0.4398
 4886SOL    HW126117   3.128   0.306   8.665  1.1177 -0.3106 -1.1050
 4886SOL    HW226118   3.265   0.354   8.649  2.3237 -1.8602 -1.6680
 4887SOL     OW26119   2.442   0.901   2.233 -0.2092  1.1468  0.0876
 4887SOL    HW126120   2.512   0.918   2.170  0.8715 -1.7695  0.4977
 4887SOL    HW226121   2.431   0.807   2.226  1.0908  0.9803  0.2385
 4888SOL     OW26122   1.908   2.400   0.702  0.3080  0.1207 -0.3688
 4888SOL    HW126123   1.819   2.372   0.681  0.8678 -1.5644 -0.5356
 4888SOL    HW226124   1.944   2.315   0.727 -0.1646 -0.0616 -0.3030
 4889SOL     OW26125   2.305   3.545  14.163 -0.4448 -0.1024  0.2580
 4889SOL    HW126126   2.374   3.540  14.097 -1.0677 -0.0227 -0.4085
 4889SOL    HW226127   2.287   3.638  14.176  0.8939 -0.0964  1.9528
 4890SOL     OW26128   1.613   3.497   6.259 -0.4726 -0.5041  0.3617
 4890SOL    HW126129   1.655   3.475   6.176 -0.1273 -1.8943  0.8939
 4890SOL    HW226130   1.543   3.432   6.256 -1.8751  1.0461 -0.3963
 4891SOL     OW26131   0.958   3.259   3.534  0.1989 -0.1015 -0.0256
 4891SOL    HW126132   0.992   3.243   3.446  0.4429  0.7020 -0.0716
 4891SOL    HW226133   1.046   3.254   3.572 -1.3073  0.9204  3.6594
 4892SOL     OW26134   2.782   3.586  10.758 -0.0432 -0.1003  0.1755
 4892SOL    HW126135   2.710   3.645  10.778 -0.7564  0.0694 -2.8948
 4892SOL    HW226136   2.829   3.630  10.688  1.5105 -0.1089  1.2228
 4893SOL     OW26137   2.429   1.952   4.722  0.0277 -0.5766 -0.2938
 4893SOL    HW126138   2.455   2.045   4.726  1.1650 -1.1318  5.0044
 4893SOL    HW226139   2.402   1.950   4.813  1.8283  1.8275  0.3081
 4894SOL     OW26140   0.477   3.851   0.707  0.5360  0.5293  0.5273
 4894SOL    HW126141   0.442   3.814   0.789 -0.2531 -1.6910 -0.7972
 4894SOL    HW226142   0.438   3.789   0.645  0.3595 -0.4354  1.5998
 4895SOL     OW26143   1.132   0.877   7.570  0.1161 -0.4135  0.2883
 4895SOL    HW126144   1.085   0.912   7.645 -2.0677 -0.1499 -1.1950
 4895SOL    HW226145   1.222   0.890   7.600 -0.6894  1.1649  2.0372
 4896SOL     OW26146   4.677   0.171  15.294 -0.1301  0.0615  0.3065
 4896SOL    HW126147   4.648   0.217  15.215  2.1023  1.6938  0.4320
 4896SOL    HW226148   4.589   0.150  15.327  0.6137  1.3086  3.0357
 4897SOL     OW26149   4.425   1.426  13.019  0.0098 -0.0764  0.2109
 4897SOL    HW126150   4.453   1.386  12.937 -1.6253  0.6332 -0.6793
 4897SOL    HW226151   4.503   1.398  13.067  0.8356  1.9023  0.0140
 4898SOL     OW26152   2.398   3.648   3.948  0.9860  0.0078 -0.4141
 4898SOL    HW126153   2.357   3.735   3.950 -0.0895 -0.5771  2.8908
 4898SOL    HW226154   2.462   3.658   3.878  2.7309  1.7242  1.4261
 4899SOL     OW26155   3.558   0.757  10.872  0.3107  0.2125 -0.5579
 4899SOL    HW126156   3.542   0.789  10.784 -0.4557  0.5371 -0.2942
 4899SOL    HW226157   3.652   0.777  10.875  0.7820 -1.8274 -1.6924
 4900SOL     OW26158   0.968   3.508  16.897  0.1606  0.2274  0.1041
 4900SOL    HW126159   0.982   3.578  16.833  0.6712 -1.0834 -1.2193
 4900SOL    HW226160   0.949   3.547  16.982  3.0937  0.4983  0.6096
 4901SOL     OW26161   1.818   3.107   7.024 -0.3332 -0.1854  0.2404
 4901SOL    HW126162   1.905   3.147   7.023 -0.2045 -0.4463  0.6828
 4901SOL    HW226163   1.767   3.134   6.948  1.7048  1.6498 -0.4878
 4902SOL     OW26164   1.657   3.286   3.770  0.4645 -0.9488 -0.4582
 4902SOL    HW126165   1.635   3.366   3.721  1.1448  0.2960  1.2587
 4902SOL    HW226166   1.742   3.312   3.805  0.0322  0.1264 -0.1943
 4903SOL     OW26167   1.901   0.669   3.888  0.0636 -0.1983 -0.4248
 4903SOL    HW126168   1.984   0.652   3.931 -1.1148 -0.5071  1.7470
 4903SOL    HW226169   1.869   0.585   3.855 -1.0124 -0.4105  1.1157
 4904SOL     OW26170   4.710   2.621   1.599 -0.0266  0.2901 -0.6921
 4904SOL    HW126171   0.007   2.675   1.523  1.9210 -1.1142 -1.1720
 4904SOL    HW226172   4.625   2.583   1.577 -0.5772  0.7442  0.6471
 4905SOL     OW26173   1.480   0.672   6.860  0.0211  0.2699 -0.1335
 4905SOL    HW126174   1.499   0.704   6.949 -3.8423 -0.0586  0.8176
 4905SOL    HW226175   1.541   0.722   6.806  0.8275 -0.7416 -0.1481
 4906SOL     OW26176   2.441   3.485  10.629  0.3757  0.0693  0.1186
 4906SOL    HW126177   2.511   3.469  10.566  0.1065  0.3598 -0.2598
 4906SOL    HW226178   2.470   3.572  10.658 -0.9095  0.6833 -0.4317
 4907SOL     OW26179   2.349   3.984  11.528  0.1883 -0.3857 -0.4436
 4907SOL    HW126180   2.335   3.893  11.557 -2.1182  0.5091  1.2355
 4907SOL    HW226181   2.272   4.033  11.555  1.2934  0.3517  1.3433
 4908SOL     OW26182   4.607   1.645   2.290 -0.0244  0.1471 -0.4114
 4908SOL    HW126183   4.590   1.559   2.328 -3.1751  0.6879 -0.6109
 4908SOL    HW226184   4.698   1.659   2.314  0.0050 -0.4731 -0.1658
 4909SOL     OW26185   1.105   3.603   5.835 -0.2915  0.0032 -0.0081
 4909SOL    HW126186   1.102   3.588   5.740 -0.7892  1.6267 -0.2397
 4909SOL    HW226187   1.067   3.690   5.838  0.4990  0.4381 -2.1117
 4910SOL     OW26188   2.566   2.385  15.711  0.0954  0.1876 -0.3603
 4910SOL    HW126189   2.648   2.423  15.680  0.5517 -1.8080 -1.6397
 4910SOL    HW226190   2.557   2.316  15.645  2.0595  0.9625 -1.4231
 4911SOL     OW26191   0.702   0.697   4.397 -0.2267 -0.3281 -0.3060
 4911SOL    HW126192   0.626   0.687   4.454 -1.1197 -0.0159 -1.4511
 4911SOL    HW226193   0.650   0.701   4.317  0.0902 -1.8605 -0.6038
 4912SOL     OW26194   1.832   4.604   3.311 -0.4616 -0.3725  0.0347
 4912SOL    HW126195   1.740   4.583   3.323 -1.2670  3.2231  0.1631
 4912SOL    HW226196   1.839   4.696   3.285  2.7231 -0.7249 -0.3603
 4913SOL     OW26197   2.105   2.914  10.271  0.0577 -0.1872 -0.3027
 4913SOL    HW126198   2.190   2.955  10.288 -0.7236  1.9664 -1.6565
 4913SOL    HW226199   2.115   2.839  10.212  0.5005  0.6253 -1.2749
 4914SOL     OW26200   0.217   2.889   1.189 -0.2374  0.6774 -0.0496
 4914SOL    HW126201   0.273   2.960   1.156  2.3778 -1.1697  0.3975
 4914SOL    HW226202   0.291   2.830   1.204  0.3468  0.7998 -2.4192
 4915SOL     OW26203   1.980   3.910  11.985  0.0911  0.0063 -0.0437
 4915SOL    HW126204   1.999   3.817  11.994 -0.7305 -0.1346  0.2632
 4915SOL    HW226205   1.992   3.927  11.892 -0.5517  0.2139 -0.0908
 4916SOL     OW26206   4.139   2.649  10.062 -0.1844 -0.6267 -0.2418
 4916SOL    HW126207   4.209   2.693  10.014 -0.3341 -0.9702 -0.7766
 4916SOL    HW226208   4.084   2.721  10.094  2.1180 -0.0023  2.2735
 4917SOL     OW26209   4.445   3.218   3.849 -0.2247 -0.0769 -0.0775
 4917SOL    HW126210   4.507   3.211   3.922  2.0898  0.8240 -2.0023
 4917SOL    HW226211   4.352   3.201   3.869  0.2253 -0.0195  2.0636
 4918SOL     OW26212   4.469   2.504   4.044 -0.2276  0.0573  0.0397
 4918SOL    HW126213   4.398   2.502   3.980  0.1050 -1.6256 -0.2696
 4918SOL    HW226214   4.535   2.463   3.988  1.7049  0.0367  2.3660
 4919SOL     OW26215   1.356   2.412   4.168 -0.8882 -0.5084 -0.1360
 4919SOL    HW126216   1.271   2.386   4.133 -0.7903  1.0566 -1.4812
 4919SOL    HW226217   1.348   2.403   4.263 -2.5153  0.1461 -0.2115
 4920SOL     OW26218   3.735   4.309   8.982 -0.4347  0.1265  0.3676
 4920SOL    HW126219   3.805   4.339   8.924 -0.0680 -1.6958 -0.1189
 4920SOL    HW226220   3.771   4.233   9.028 -1.8030 -1.7976 -1.7074
 4921SOL     OW26221   4.638   1.131   8.139 -0.2245 -0.1125 -0.3971
 4921SOL    HW126222   4.559   1.114   8.089 -0.2441  0.4680 -0.5687
 4921SOL    HW226223   4.705   1.148   8.073  0.0196  0.9536  0.1138
 4922SOL     OW26224   3.588   2.360  14.820  0.1931  0.3414  0.4877
 4922SOL    HW126225   3.560   2.295  14.885 -2.3649  0.8353 -0.1548
 4922SOL    HW226226   3.513   2.349  14.762  0.9455  0.4813 -0.5272
 4923SOL     OW26227   1.102   0.051   3.441 -0.1907  0.2118 -0.3184
 4923SOL    HW126228   1.142   0.074   3.356 -3.0268  0.5484 -1.5641
 4923SOL    HW226229   1.102   4.680   3.426 -1.6332  0.0625  0.6912
 4924SOL     OW26230   3.657   1.063   7.131 -0.4856  0.3574  0.5193
 4924SOL    HW126231   3.660   0.974   7.096 -0.2987  0.5556  0.0346
 4924SOL    HW226232   3.596   1.055   7.204 -0.3111 -2.2225  0.3959
 4925SOL     OW26233   3.060   2.433   2.604 -0.3731 -0.0833  0.3457
 4925SOL    HW126234   3.112   2.356   2.626  0.0908  0.2358  0.3646
 4925SOL    HW226235   2.982   2.391   2.569 -0.5716  2.5887 -2.4690
 4926SOL     OW26236   2.447   1.738   0.285  0.1700 -0.1615 -0.8416
 4926SOL    HW126237   2.451   1.663   0.344  0.1807 -0.2170 -0.9130
 4926SOL    HW226238   2.361   1.733   0.242  0.4742  0.4051 -1.5254
 4927SOL     OW26239   0.558   1.045   0.341  0.6634  0.3942 -0.4594
 4927SOL    HW126240   0.562   1.004   0.427 -0.1021  1.4810  0.0807
 4927SOL    HW226241   0.578   0.972   0.282  0.5823 -1.2087  1.5078
 4928SOL     OW26242   0.281   3.874   5.854  0.1071 -0.6417  0.1302
 4928SOL    HW126243   0.190   3.845   5.850 -0.3040  1.1195 -3.3519
 4928SOL    HW226244   0.328   3.792   5.869  0.4586 -0.4294  0.1990
 4929SOL     OW26245   3.836   4.434  15.471 -0.2164  0.5391  0.2178
 4929SOL    HW126246   3.846   4.527  15.492 -0.0199  0.5733 -0.0245
 4929SOL    HW226247   3.772   4.426  15.400  1.3730 -2.7067 -0.8587
 4930SOL     OW26248   1.107   1.792   5.329 -0.1667 -0.0656  0.0686
 4930SOL    HW126249   1.149   1.877   5.344  0.8687 -0.6211  0.3826
 4930SOL    HW226250   1.074   1.772   5.417  0.7447 -1.9580 -0.0228
 4931SOL     OW26251   4.677   0.964  11.207  0.1805 -0.0749  0.1107
 4931SOL    HW126252   0.015   0.956  11.134  0.5367  2.0323  0.1877
 4931SOL    HW226253   4.623   1.040  11.184  0.0044  0.9628  3.8496
 4932SOL     OW26254   0.072   3.025  13.763 -0.1445  0.2897 -0.3447
 4932SOL    HW126255   0.091   2.957  13.698  0.0555 -0.8867  0.9490
 4932SOL    HW226256   0.070   3.105  13.709 -0.6397  1.6265  1.6675
 4933SOL     OW26257   1.226   3.842   4.848 -0.7005  0.0171  0.8465
 4933SOL    HW126258   1.191   3.756   4.869 -0.2049 -1.0819 -2.9425
 4933SOL    HW226259   1.158   3.885   4.797  0.4630  1.1644  0.2593
 4934SOL     OW26260   1.475   4.703   6.712 -0.0095  0.4643  0.7307
 4934SOL    HW126261   1.564   4.707   6.678 -0.0660  0.6784  0.6089
 4934SOL    HW226262   1.483   4.706   6.808 -0.2667  0.1078  0.7674
 4935SOL     OW26263   1.985   0.413   3.260  0.0039  0.2578  0.2786
 4935SOL    HW126264   1.962   0.477   3.192  0.3027  0.0972  0.0261
 4935SOL    HW226265   1.909   0.420   3.318 -1.2867  0.4818 -1.4136
 4936SOL     OW26266   0.202   4.473  15.773 -0.7840 -0.4778 -0.6617
 4936SOL    HW126267   0.246   4.437  15.697 -0.0573 -0.5268 -0.2217
 4936SOL    HW226268   0.218   4.567  15.764  2.0200 -0.8142  0.8302
 4937SOL     OW26269   3.600   0.915  17.431  0.1014  0.0312  0.4738
 4937SOL    HW126270   3.643   0.905  17.516  0.5850  1.4040  0.3911
 4937SOL    HW226271   3.654   0.857  17.377 -0.9062  0.0570 -0.5737
 4938SOL     OW26272   3.796   3.989  15.422  0.4388  0.7040 -0.1878
 4938SOL    HW126273   3.855   4.064  15.418 -0.2864  1.2094 -1.5120
 4938SOL    HW226274   3.816   3.945  15.339  1.3026 -0.2890  0.5484
 4939SOL     OW26275   3.233   4.565   8.758 -0.6780  0.0319  0.3766
 4939SOL    HW126276   3.251   4.481   8.715  2.2264 -0.1019  1.8277
 4939SOL    HW226277   3.279   4.564   8.842  0.9752  1.5117 -0.5193
 4940SOL     OW26278   2.894   3.609   5.689 -0.2408  0.1778  0.0714
 4940SOL    HW126279   2.933   3.688   5.652  0.8630  0.1826  1.2408
 4940SOL    HW226280   2.881   3.639   5.779  0.9749  0.3672  0.1910
 4941SOL     OW26281   4.231   1.575   6.622 -0.3461 -0.0846  0.0049
 4941SOL    HW126282   4.182   1.517   6.565 -2.0578  1.9730 -0.6206
 4941SOL    HW226283   4.166   1.642   6.644  1.3408  1.9124 -1.0112
 4942SOL     OW26284   2.090   4.042   4.546 -0.0122 -0.2789 -0.0068
 4942SOL    HW126285   2.147   4.117   4.529  0.1770 -0.3490  0.3235
 4942SOL    HW226286   2.099   4.011   4.455  3.7796  0.9784 -0.0465
 4943SOL     OW26287   4.628   4.445  14.787 -0.0649 -0.0163 -1.4092
 4943SOL    HW126288   4.552   4.503  14.786  0.5259  0.8071  0.9266
 4943SOL    HW226289   4.688   4.519  14.775  2.3129 -1.7194 -0.0972
 4944SOL     OW26290   1.924   4.190   5.046 -0.2826 -0.1352  0.0536
 4944SOL    HW126291   1.964   4.157   4.965 -0.8097  1.6847 -0.9599
 4944SOL    HW226292   1.886   4.104   5.065 -0.9695  0.2699  0.5246
 4945SOL     OW26293   3.329   3.686   0.508 -0.7374  0.1563 -0.7891
 4945SOL    HW126294   3.240   3.708   0.481  0.9995  2.5300 -4.4816
 4945SOL    HW226295   3.384   3.710   0.434  2.0401 -0.0674  1.1836
 4946SOL     OW26296   4.123   1.312   8.850  0.0890  0.3435 -0.0719
 4946SOL    HW126297   4.068   1.249   8.803  0.6790  0.3903 -0.8383
 4946SOL    HW226298   4.066   1.346   8.919 -0.8970 -3.6999  1.1217
 4947SOL     OW26299   3.811   4.006   2.118 -0.0442  0.2702 -0.1190
 4947SOL    HW126300   3.757   3.986   2.042 -2.2860 -0.6845  1.7303
 4947SOL    HW226301   3.786   3.938   2.180  1.4180 -0.6479 -0.5190
 4948SOL     OW26302   0.411   2.866   9.989 -0.2749 -0.1000  0.1557
 4948SOL    HW126303   0.467   2.911  10.053  3.5299 -2.4509 -1.5416
 4948SOL    HW226304   0.324   2.892  10.021  0.4410  1.2765  1.0272
 4949SOL     OW26305   3.505   2.833   3.825 -0.6125 -0.0375 -0.0449
 4949SOL    HW126306   3.435   2.845   3.761  1.8211 -0.6528 -2.8554
 4949SOL    HW226307   3.459   2.854   3.906 -0.1729 -4.0690  1.2794
 4950SOL     OW26308   1.505   3.407   3.333 -0.1648  0.8530 -0.2065
 4950SOL    HW126309   1.465   3.346   3.271 -0.6039 -0.4825  1.4110
 4950SOL    HW226310   1.538   3.471   3.269  2.5760 -0.0320  0.3210
 4951SOL     OW26311   3.457   4.651   8.398 -0.1891 -0.1243 -0.3900
 4951SOL    HW126312   3.421   4.699   8.472  1.8112  0.5295  0.1378
 4951SOL    HW226313   3.454   4.565   8.440  1.3756 -0.7249 -1.4816
 4952SOL     OW26314   2.378   1.268   5.790 -0.6115  0.3297  0.4658
 4952SOL    HW126315   2.458   1.251   5.841 -0.9269 -0.0889  0.8191
 4952SOL    HW226316   2.387   1.189   5.736 -2.9411  0.6974 -0.4536
 4953SOL     OW26317   0.319   4.428   5.838  0.4260  0.3561 -0.2869
 4953SOL    HW126318   0.252   4.495   5.829 -0.8288 -0.5216  2.4355
 4953SOL    HW226319   0.260   4.356   5.862 -0.6144  0.8805 -1.2544
 4954SOL     OW26320   3.660   4.470  10.713 -0.1873 -0.0077 -0.5234
 4954SOL    HW126321   3.702   4.532  10.774 -1.6798 -1.1226  1.6453
 4954SOL    HW226322   3.604   4.535  10.671 -1.3670 -1.6999 -1.5402
 4955SOL     OW26323   2.547   1.635   8.080  0.3538 -0.0870  0.1884
 4955SOL    HW126324   2.575   1.608   8.167  0.9540 -0.1613 -0.0286
 4955SOL    HW226325   2.597   1.715   8.067  0.4321 -0.2133 -0.3170
 4956SOL     OW26326   4.317   1.123  11.928 -0.4604  0.1448 -0.2976
 4956SOL    HW126327   4.338   1.033  11.952  1.0238  0.4964 -0.2329
 4956SOL    HW226328   4.357   1.144  11.843  1.2391 -0.9465  0.2201
 4957SOL     OW26329   3.446   0.893   4.285 -0.8060  0.1927  0.2357
 4957SOL    HW126330   3.383   0.957   4.252 -2.8756 -1.7512  0.4432
 4957SOL    HW226331   3.486   0.862   4.204  0.7518  0.3048  0.9462
 4958SOL     OW26332   3.240   1.422   6.474  0.5267  0.0492  0.3803
 4958SOL    HW126333   3.221   1.408   6.567 -0.0838 -1.0966  0.0754
 4958SOL    HW226334   3.198   1.348   6.431  0.9707  0.3761 -0.6200
 4959SOL     OW26335   1.680   2.821   0.054 -0.0307  0.2526  0.3948
 4959SOL    HW126336   1.727   2.858   0.129 -3.0117  0.5884  2.0831
 4959SOL    HW226337   1.589   2.822   0.083  0.2606  2.3064  1.2141
 4960SOL     OW26338   1.245   0.645  10.063  0.5242 -0.3813 -0.1001
 4960SOL    HW126339   1.327   0.601  10.043  1.2242  0.3664  1.0850
 4960SOL    HW226340   1.180   0.576  10.055  0.6695 -0.6218  0.8199
 4961SOL     OW26341   3.304   1.373   0.147 -0.2125 -0.2103 -0.3948
 4961SOL    HW126342   3.215   1.371   0.181 -0.8935 -1.8759 -2.2325
 4961SOL    HW226343   3.332   1.464   0.159  0.8782 -0.5911 -0.0612
 4962SOL     OW26344   1.959   0.655   0.539 -1.0452  0.4312 -0.3067
 4962SOL    HW126345   1.988   0.716   0.471  1.7281  0.1578  0.6232
 4962SOL    HW226346   1.897   0.602   0.489  0.6182 -1.5696 -0.2451
 4963SOL     OW26347   1.655   0.772  13.327  0.1607  0.5204 -0.4592
 4963SOL    HW126348   1.572   0.806  13.359  0.3828  0.5674  0.0839
 4963SOL    HW226349   1.631   0.680  13.334 -2.8254  1.2087 -1.7253
 4964SOL     OW26350   4.073   0.053   0.918 -0.2938 -0.2930  0.5311
 4964SOL    HW126351   4.138   0.111   0.957  0.8422 -0.8032 -0.5719
 4964SOL    HW226352   4.005   0.117   0.897 -0.1043 -0.6473 -1.1620
 4965SOL     OW26353   1.444   4.590   2.007 -0.1552  0.1137  0.2531
 4965SOL    HW126354   1.365   4.595   2.060 -1.2350 -1.3938 -1.2095
 4965SOL    HW226355   1.416   4.654   1.942 -0.4691  0.6971  0.9617
 4966SOL     OW26356   4.445   2.914  16.449  0.5133 -0.5665 -0.6235
 4966SOL    HW126357   4.407   2.957  16.526 -0.0892  1.2900 -1.9590
 4966SOL    HW226358   4.360   2.887  16.414  0.6266 -0.8454 -0.6830
 4967SOL     OW26359   3.934   4.284   7.233  0.0765  0.5892  0.5381
 4967SOL    HW126360   3.967   4.370   7.257  2.1459  0.2322 -1.0309
 4967SOL    HW226361   3.951   4.299   7.140  0.2612 -0.2644  0.4324
 4968SOL     OW26362   2.977   4.548   1.996  0.4606 -0.3102 -0.2218
 4968SOL    HW126363   2.972   4.642   1.977  0.2267  0.3348  2.9730
 4968SOL    HW226364   3.065   4.535   1.962  0.4545 -1.7910  0.3463
 4969SOL     OW26365   4.690   2.766   8.527  0.9397 -0.0244 -0.2364
 4969SOL    HW126366   0.002   2.838   8.579  1.3007  0.6201 -1.3696
 4969SOL    HW226367   4.657   2.818   8.454 -3.4910 -1.6758  0.5654
 4970SOL     OW26368   1.482   1.093   7.430 -0.1684 -0.2884  0.1020
 4970SOL    HW126369   1.560   1.142   7.403  0.8059 -1.9738 -0.1460
 4970SOL    HW226370   1.415   1.125   7.370  1.0700  1.3778 -0.3957
 4971SOL     OW26371   1.008   3.665  16.217  0.5265  0.2655 -0.4121
 4971SOL    HW126372   0.973   3.753  16.205 -1.6359 -0.7644 -1.6629
 4971SOL    HW226373   1.102   3.679  16.211  0.5813  0.5022  1.1499
 4972SOL     OW26374   4.242   4.434  14.970  0.3254  0.4309  0.0662
 4972SOL    HW126375   4.228   4.454  15.063  1.1191  0.5233  0.1727
 4972SOL    HW226376   4.310   4.366  14.972 -0.0517  0.0573 -0.0292
 4973SOL     OW26377   1.511   0.162  12.167 -0.4391 -0.0954  0.2893
 4973SOL    HW126378   1.557   0.116  12.237  0.2254 -1.4659 -1.0499
 4973SOL    HW226379   1.443   0.100  12.140  1.5908 -1.3982 -1.7955
 4974SOL     OW26380   3.156   1.452   5.476 -0.0440  0.0044 -0.2499
 4974SOL    HW126381   3.186   1.535   5.439  0.6118  0.1891  0.6977
 4974SOL    HW226382   3.117   1.471   5.562 -1.2242  2.6057 -1.3592
 4975SOL     OW26383   3.292   3.073   7.624  0.1001  0.1992 -0.0161
 4975SOL    HW126384   3.381   3.102   7.607  0.5267 -1.6497 -0.9938
 4975SOL    HW226385   3.259   3.147   7.673  1.2889  2.2409 -2.2998
 4976SOL     OW26386   2.672   2.495   7.473 -0.0640 -0.3378  0.4611
 4976SOL    HW126387   2.691   2.588   7.484  0.0535 -0.2791 -0.2257
 4976SOL    HW226388   2.760   2.457   7.474 -0.3550 -1.0326 -0.7303
 4977SOL     OW26389   1.621   1.745   2.554  0.7107  0.8057 -0.5400
 4977SOL    HW126390   1.591   1.660   2.585  0.9949 -0.2542 -3.1911
 4977SOL    HW226391   1.654   1.800   2.625 -0.3748 -1.0423  1.3589
 4978SOL     OW26392   3.520   3.147  14.730 -0.2976 -0.2163  0.0199
 4978SOL    HW126393   3.425   3.135  14.718 -0.2816 -0.6865  0.3706
 4978SOL    HW226394   3.540   3.154  14.637  0.2467 -2.2125 -0.0068
 4979SOL     OW26395   3.683   1.606   9.076 -0.0020 -0.6535 -0.0815
 4979SOL    HW126396   3.664   1.589   8.984 -3.0375 -1.0958  0.6420
 4979SOL    HW226397   3.767   1.563   9.089 -0.3430 -1.4949 -0.6977
 4980SOL     OW26398   4.450   3.954   7.513  0.8771 -0.1462 -0.6646
 4980SOL    HW126399   4.506   3.921   7.442  1.1136 -0.5858 -0.2744
 4980SOL    HW226400   4.368   3.959   7.464  2.8755 -0.2773 -4.0329
 4981SOL     OW26401   3.806   0.330   2.526 -0.4941  0.6361  0.2739
 4981SOL    HW126402   3.870   0.293   2.465 -0.5257  1.2015 -0.0984
 4981SOL    HW226403   3.867   0.359   2.594 -0.1575  1.3517 -0.3345
 4982SOL     OW26404   3.910   2.351  16.035  0.1091  0.2573  0.4208
 4982SOL    HW126405   3.830   2.404  16.037  0.0601  0.0790  2.7105
 4982SOL    HW226406   3.878   2.274  16.082  0.4536 -0.9173 -1.2345
 4983SOL     OW26407   1.392   3.106   4.986 -0.3079 -0.4273 -0.2189
 4983SOL    HW126408   1.305   3.125   5.021 -0.5458  0.0895 -1.0676
 4983SOL    HW226409   1.444   3.172   5.031 -0.4257 -1.0566  0.8254
 4984SOL     OW26410   4.071   2.167   2.354 -0.2042  0.0663 -0.1225
 4984SOL    HW126411   4.093   2.105   2.285  0.7530  0.1858  0.0705
 4984SOL    HW226412   4.056   2.116   2.433  0.6037  1.5296  0.9891
 4985SOL     OW26413   1.921   0.010   2.955  0.7393  0.4265  0.4000
 4985SOL    HW126414   1.943   4.660   2.897  0.8025  1.0487 -0.3786
 4985SOL    HW226415   1.888   4.698   3.037  0.0960 -0.7390 -0.3648
 4986SOL     OW26416   1.448   3.008  10.776 -0.1695  0.2593  0.4380
 4986SOL    HW126417   1.508   2.991  10.848 -0.8718  0.2083  1.0088
 4986SOL    HW226418   1.365   3.013  10.823 -0.8072 -2.4391 -0.3768
 4987SOL     OW26419   4.171   0.413   8.426  0.5580  0.1812 -0.1382
 4987SOL    HW126420   4.162   0.324   8.393  0.1631 -0.6784  2.3105
 4987SOL    HW226421   4.234   0.448   8.362  0.3476  0.4548 -0.1956
 4988SOL     OW26422   2.785   3.759  12.617 -0.2026 -0.5006  0.0213
 4988SOL    HW126423   2.771   3.667  12.596  0.1717 -0.2829 -1.2071
 4988SOL    HW226424   2.848   3.791  12.551 -0.7935  2.9001  1.0803
 4989SOL     OW26425   1.181   1.428  17.168 -0.1541  0.4506  0.2469
 4989SOL    HW126426   1.107   1.396  17.218 -0.6565 -1.2508 -1.6177
 4989SOL    HW226427   1.147   1.506  17.124 -0.1768 -0.3589 -1.1696
 4990SOL     OW26428   3.703   4.274   3.430 -0.1988  0.7805  0.2467
 4990SOL    HW126429   3.702   4.179   3.424  2.0890  0.7655 -0.0882
 4990SOL    HW226430   3.635   4.311   3.374 -0.0528 -2.5414 -2.0924
 4991SOL     OW26431   2.491   2.423  11.819  0.2589 -0.5645  0.3450
 4991SOL    HW126432   2.424   2.424  11.888 -0.4619 -1.0679 -0.3522
 4991SOL    HW226433   2.453   2.486  11.758  1.7254  0.2254  0.2484
 4992SOL     OW26434   3.531   3.227   4.164 -0.4859  0.0752  0.8311
 4992SOL    HW126435   3.505   3.303   4.112  0.8475 -1.5262 -2.1827
 4992SOL    HW226436   3.577   3.266   4.238  0.5061 -2.2735  1.4738
 4993SOL     OW26437   1.907   1.532   4.021  0.1984  0.1458  0.3258
 4993SOL    HW126438   1.879   1.582   3.944 -0.6883  0.2531  0.7212
 4993SOL    HW226439   1.826   1.483   4.032  1.0498 -0.7252  2.6941
 4994SOL     OW26440   1.020   0.525   8.902 -0.0247  0.6455  0.2626
 4994SOL    HW126441   0.970   0.531   8.983 -1.5958 -0.3200 -0.6250
 4994SOL    HW226442   1.078   0.451   8.918 -2.0461 -0.7050  1.4216
 4995SOL     OW26443   2.227   4.127  14.583  0.0107 -0.2326 -0.0821
 4995SOL    HW126444   2.269   4.042  14.587  0.6570  0.1117  0.5874
 4995SOL    HW226445   2.283   4.178  14.523 -1.0204  0.5065 -0.4138
 4996SOL     OW26446   3.955   0.465   8.599 -0.3787  0.1006 -0.1868
 4996SOL    HW126447   4.023   0.464   8.532  0.4158  1.2403  0.5921
 4996SOL    HW226448   3.995   0.463   8.686  0.1771 -1.7864 -0.5055
 4997SOL     OW26449   4.517   3.413  12.129 -0.2866  0.3533  0.5013
 4997SOL    HW126450   4.504   3.507  12.113 -2.6459 -0.1569 -0.6414
 4997SOL    HW226451   4.466   3.390  12.207 -0.5193 -0.2942  0.1590
 4998SOL     OW26452   2.863   0.804   5.241  0.9622  0.1480 -0.2215
 4998SOL    HW126453   2.805   0.850   5.301  1.0521  0.3659 -0.3019
 4998SOL    HW226454   2.903   0.876   5.193  1.5046 -0.8837 -1.3244
 4999SOL     OW26455   1.778   1.297   6.627  0.4156 -0.7516  0.5854
 4999SOL    HW126456   1.745   1.233   6.564 -0.7309  0.0816  0.3464
 4999SOL    HW226457   1.703   1.349   6.654  0.8990 -1.0661  2.5524
 5000SOL     OW26458   2.013   0.001   6.356 -0.0437 -0.0713 -0.8378
 5000SOL    HW126459   2.010   4.630   6.371 -0.1172  0.0615  0.0103
 5000SOL    HW226460   1.919   0.014   6.343  0.1572  2.5483  0.4538
 5001SOL     OW26461   0.702   3.174   4.461  0.3864  0.0438  0.7550
 5001SOL    HW126462   0.743   3.115   4.524 -0.4119 -1.1226  0.2033
 5001SOL    HW226463   0.737   3.153   4.374  2.1964  3.0204  0.7582
 5002SOL     OW26464   2.246   4.530   9.610 -0.0294  0.7151 -0.4562
 5002SOL    HW126465   2.340   4.533   9.597  0.3722  0.1708  2.3217
 5002SOL    HW226466   2.228   4.474   9.686  0.6412  1.2925  0.1134
 5003SOL     OW26467   0.294   2.632  11.920  0.2038 -0.1147 -0.2366
 5003SOL    HW126468   0.342   2.628  11.837 -1.5646  1.5333 -1.3480
 5003SOL    HW226469   0.355   2.621  11.993 -1.8557 -1.9111  1.2245
 5004SOL     OW26470   1.244   4.502   3.515 -0.4381  0.5536 -0.1669
 5004SOL    HW126471   1.171   4.440   3.523  0.9267 -1.1309 -0.7338
 5004SOL    HW226472   1.258   4.532   3.605 -2.4608  1.5756 -0.2012
 5005SOL     OW26473   3.915   2.263   5.257  0.3399  0.1257  0.4658
 5005SOL    HW126474   3.878   2.337   5.306  3.2006  2.6509 -1.1630
 5005SOL    HW226475   3.971   2.224   5.324  2.4671  1.5209 -0.4695
 5006SOL     OW26476   3.453   3.419   3.511  0.3089  0.0227 -0.1055
 5006SOL    HW126477   3.378   3.369   3.479 -0.9375  1.3020  0.8369
 5006SOL    HW226478   3.522   3.357   3.489  1.2336  0.1058  2.5687
 5007SOL     OW26479   1.073   2.392   4.098  0.8002 -0.0629  0.0588
 5007SOL    HW126480   1.072   2.445   4.018 -3.2714 -1.3133 -0.7327
 5007SOL    HW226481   1.006   2.434   4.151  0.1718  0.6284 -1.2905
 5008SOL     OW26482   3.883   1.998  14.399  0.1953  0.4102  0.0678
 5008SOL    HW126483   3.936   1.962  14.328  0.0868  0.9171 -0.2679
 5008SOL    HW226484   3.923   2.085  14.401 -1.0668  0.9796  0.4246
 5009SOL     OW26485   4.257   2.354  14.980 -0.4628 -0.0663 -0.5218
 5009SOL    HW126486   4.244   2.260  14.971  1.1199 -0.3257 -0.2294
 5009SOL    HW226487   4.306   2.365  15.062  0.4454 -1.1284 -0.9199
 5010SOL     OW26488   2.278   1.951  11.147 -0.1590 -0.1418 -0.6929
 5010SOL    HW126489   2.297   1.984  11.235  0.4541 -1.9666 -0.1247
 5010SOL    HW226490   2.188   1.918  11.154 -0.7126  1.4838 -0.2233
 5011SOL     OW26491   4.036   4.712   9.022  0.6760  0.0502 -0.6138
 5011SOL    HW126492   3.969   4.652   8.988  0.7025 -0.6347  0.5423
 5011SOL    HW226493   4.021   4.703   9.116  1.0020  1.4846 -0.4254
 5012SOL     OW26494   0.348   1.416  12.133 -0.5178 -0.0901 -0.7105
 5012SOL    HW126495   0.263   1.413  12.089 -0.7985 -0.7516 -0.1371
 5012SOL    HW226496   0.417   1.413  12.067 -1.2330 -0.0007 -1.4622
 5013SOL     OW26497   3.373   0.272   5.869 -0.0151 -0.0820 -0.0879
 5013SOL    HW126498   3.346   0.363   5.874 -0.3939 -0.1011 -1.6576
 5013SOL    HW226499   3.437   0.296   5.801  1.0540 -2.3462  0.1051
 5014SOL     OW26500   0.802   1.437   2.868 -0.4106  0.6988  0.3282
 5014SOL    HW126501   0.836   1.401   2.786 -1.0753  1.8042 -0.4159
 5014SOL    HW226502   0.720   1.473   2.834  0.7062  2.6606 -0.2966
 5015SOL     OW26503   2.349   0.099  17.617 -0.9171 -0.4411  0.0729
 5015SOL    HW126504   2.342   0.014  17.574 -1.7985  1.0160 -2.6717
 5015SOL    HW226505   2.303   0.084   0.003  0.5464 -0.5450  0.8769
 5016SOL     OW26506   3.605   0.524   3.466  0.2450 -0.1456  0.3300
 5016SOL    HW126507   3.603   0.459   3.397 -0.9617  0.5781 -0.3278
 5016SOL    HW226508   3.656   0.470   3.525  0.6321  0.8376  0.9052
 5017SOL     OW26509   2.554   0.153  10.138  0.1259 -0.3991  0.3921
 5017SOL    HW126510   2.639   0.129  10.102 -0.1732 -1.7253  0.5597
 5017SOL    HW226511   2.495   0.084  10.108  0.0554  0.0715 -0.5380
 5018SOL     OW26512   4.451   0.124  14.954 -0.0062  0.2492  0.3208
 5018SOL    HW126513   4.377   0.184  14.946  0.4919  0.5084 -2.5339
 5018SOL    HW226514   4.520   0.179  14.992  0.1315 -0.1745  0.6794
 5019SOL     OW26515   3.028   4.415   5.887 -0.2403 -0.0189  0.2863
 5019SOL    HW126516   3.114   4.375   5.900  1.0948  1.8186 -3.0434
 5019SOL    HW226517   3.028   4.410   5.792  0.5665  0.8959  0.2358
 5020SOL     OW26518   4.107   1.804  10.869 -0.2862  0.0256 -0.1842
 5020SOL    HW126519   4.055   1.783  10.946 -0.5219  0.5923 -0.1895
 5020SOL    HW226520   4.194   1.826  10.904 -0.6451 -1.2175  1.5000
 5021SOL     OW26521   2.666   0.261   5.844 -0.4324  0.4510  0.2784
 5021SOL    HW126522   2.616   0.182   5.860 -0.6198  0.7953  1.3998
 5021SOL    HW226523   2.630   0.283   5.758 -1.0419 -1.9663 -0.0885
 5022SOL     OW26524   3.873   0.017  13.960 -0.3421  0.1967  0.0470
 5022SOL    HW126525   3.825   0.002  13.879  3.1096  1.1790 -2.1739
 5022SOL    HW226526   3.800   0.057  14.007  1.0075  0.2608  2.1016
 5023SOL     OW26527   1.867   2.984   2.144  0.3574 -0.5503 -0.3356
 5023SOL    HW126528   1.875   3.080   2.144 -1.0591 -0.4421 -0.1914
 5023SOL    HW226529   1.782   2.974   2.186 -0.3225 -2.7032 -2.2080
 5024SOL     OW26530   1.658   2.353  13.193 -0.3004  0.1910  1.1199
 5024SOL    HW126531   1.750   2.365  13.168 -0.8328  0.6623 -0.6196
 5024SOL    HW226532   1.652   2.262  13.222  3.4989 -0.7682 -1.1142
 5025SOL     OW26533   0.163   2.630   7.738 -0.0254 -0.8513 -0.3594
 5025SOL    HW126534   0.083   2.600   7.693  0.0248  0.6809 -1.4908
 5025SOL    HW226535   0.166   2.566   7.808 -1.0271 -3.1619 -2.4096
 5026SOL     OW26536   0.903   0.925   4.340  0.4837  0.0487  0.0337
 5026SOL    HW126537   0.839   0.857   4.359  1.5372 -0.5136  1.5316
 5026SOL    HW226538   0.877   0.989   4.406 -2.0474  0.8390 -1.7554
 5027SOL     OW26539   3.113   0.970  16.146 -0.0576  0.3058  0.7714
 5027SOL    HW126540   3.161   0.887  16.146  2.1810  1.5924  0.5474
 5027SOL    HW226541   3.106   0.998  16.055  1.9395 -0.3953  0.3868
 5028SOL     OW26542   2.504   1.433  15.055  0.0390 -0.0868  0.4019
 5028SOL    HW126543   2.505   1.462  15.146  1.7401 -0.1684  0.4044
 5028SOL    HW226544   2.492   1.338  15.060  0.0120 -0.0225  1.6242
 5029SOL     OW26545   3.035   1.464   3.985  0.2732 -0.0793 -0.0335
 5029SOL    HW126546   3.062   1.373   4.001  0.6350 -0.4144 -2.5531
 5029SOL    HW226547   2.977   1.473   4.060  3.1868 -0.7229  2.2804
 5030SOL     OW26548   4.045   3.124   1.849 -0.3581  0.6880 -0.2025
 5030SOL    HW126549   4.103   3.128   1.925  1.6079  3.2557 -1.8656
 5030SOL    HW226550   3.978   3.061   1.876  1.8191 -0.4585  2.5673
 5031SOL     OW26551   1.248   4.185   9.469 -0.3764  0.1864 -0.6458
 5031SOL    HW126552   1.268   4.228   9.553 -0.2221 -1.5033  0.1928
 5031SOL    HW226553   1.154   4.177   9.486  0.0574  0.0728  1.7970
 5032SOL     OW26554   2.537   0.251  16.603 -0.1902  0.2686 -0.0736
 5032SOL    HW126555   2.615   0.209  16.641 -1.6179 -1.2336  1.2044
 5032SOL    HW226556   2.549   0.250  16.508  0.8132 -3.0630  0.0673
 5033SOL     OW26557   0.805   3.218   8.790  0.1477 -0.0747 -0.3982
 5033SOL    HW126558   0.713   3.221   8.817  0.9581  1.4760  2.2439
 5033SOL    HW226559   0.812   3.290   8.728 -3.0987  0.7450  0.1907
 5034SOL     OW26560   3.682   2.850   2.182 -0.4913  0.3666 -0.2440
 5034SOL    HW126561   3.621   2.858   2.109  1.6398 -1.8239 -2.2901
 5034SOL    HW226562   3.649   2.932   2.219 -1.1889  0.2338 -0.5703
 5035SOL     OW26563   0.832   0.050   6.427  0.0572  0.6504 -0.7276
 5035SOL    HW126564   0.751   0.019   6.388  1.4642 -2.1832 -1.4065
 5035SOL    HW226565   0.885   4.694   6.425 -1.6696 -0.5309  1.4064
 5036SOL     OW26566   4.278   3.764   8.620 -0.0544  0.3578 -0.0047
 5036SOL    HW126567   4.255   3.684   8.667 -0.4730  1.1220  1.0862
 5036SOL    HW226568   4.196   3.785   8.574 -0.1825 -0.5176 -0.1680
 5037SOL     OW26569   1.550   3.047   9.405  0.0632  0.5333  0.1478
 5037SOL    HW126570   1.638   3.022   9.432 -0.8820 -1.4638  1.3721
 5037SOL    HW226571   1.534   3.109   9.477 -1.3044  1.1679 -0.6957
 5038SOL     OW26572   3.492   0.379   6.782  0.1945 -0.5240 -0.1249
 5038SOL    HW126573   3.580   0.402   6.752 -0.3465  1.8727  0.0488
 5038SOL    HW226574   3.443   0.430   6.717  2.2744 -1.4290 -2.3902
 5039SOL     OW26575   0.152   2.631   7.066  0.0480  0.5133 -0.8691
 5039SOL    HW126576   0.203   2.612   6.987 -0.1909 -0.4572 -0.7879
 5039SOL    HW226577   0.160   2.726   7.073  3.3853  0.2946 -1.7644
 5040SOL     OW26578   2.046   1.388  15.161  0.0489 -0.1487 -0.4188
 5040SOL    HW126579   2.011   1.300  15.150 -2.7751  0.9206 -0.2114
 5040SOL    HW226580   2.117   1.379  15.099  0.4691  1.3694 -0.1730
 5041SOL     OW26581   2.869   0.546   1.081 -0.0310 -0.5119  0.0435
 5041SOL    HW126582   2.897   0.549   1.172 -1.1423 -1.6169  0.4266
 5041SOL    HW226583   2.950   0.572   1.037  0.2371 -0.0572  0.8072
 5042SOL     OW26584   1.376   1.162   3.369  0.1397 -0.4167  0.9049
 5042SOL    HW126585   1.420   1.115   3.298 -3.0592 -0.9567 -0.7039
 5042SOL    HW226586   1.293   1.115   3.378 -0.5193  0.4840 -0.3607
 5043SOL     OW26587   2.766   3.707  11.955  0.0009  0.1409  0.2046
 5043SOL    HW126588   2.749   3.639  12.020  2.8650  0.2533  1.0820
 5043SOL    HW226589   2.785   3.658  11.875 -1.5427 -0.0549 -0.0362
 5044SOL     OW26590   3.060   1.093   6.709  0.4563  0.2535 -0.1308
 5044SOL    HW126591   3.070   0.998   6.715  1.1071  0.2661 -0.9508
 5044SOL    HW226592   3.044   1.121   6.799 -1.6675  1.1573 -0.7793
 5045SOL     OW26593   4.238   3.575  15.082 -0.2766 -0.1002 -0.4405
 5045SOL    HW126594   4.317   3.542  15.038  0.6302 -3.7648  3.9018
 5045SOL    HW226595   4.274   3.649  15.132 -3.7100  1.3646 -0.1862
 5046SOL     OW26596   0.406   4.635   5.364  0.0933 -0.0460 -0.5741
 5046SOL    HW126597   0.341   4.699   5.335 -0.6133 -0.6739 -0.3701
 5046SOL    HW226598   0.488   4.685   5.370 -0.6314  1.2527 -1.3542
 5047SOL     OW26599   1.192   0.238   9.029  0.3539 -0.5839 -0.0420
 5047SOL    HW126600   1.162   0.235   9.120  1.2280  0.7886  0.2902
 5047SOL    HW226601   1.253   0.164   9.031  1.8425  0.5791 -2.7576
 5048SOL     OW26602   2.876   1.553  15.866  0.3184  0.0436  0.6057
 5048SOL    HW126603   2.829   1.636  15.857 -1.5153 -1.1712 -1.1083
 5048SOL    HW226604   2.957   1.580  15.822  0.1462 -0.4548 -0.0156
 5049SOL     OW26605   2.525   3.574   7.231 -0.4113 -0.0972  0.8232
 5049SOL    HW126606   2.542   3.482   7.251 -1.9857 -0.6903 -0.5673
 5049SOL    HW226607   2.434   3.572   7.202 -0.1300 -0.7527  0.0115
 5050SOL     OW26608   1.778   1.516  14.635 -0.7978  0.6154  0.2361
 5050SOL    HW126609   1.812   1.605  14.634  1.7419 -0.3252  1.0821
 5050SOL    HW226610   1.698   1.520  14.583  0.0834 -1.3441 -1.2769
 5051SOL     OW26611   0.822   2.372   2.301 -0.1171  0.1962 -0.2408
 5051SOL    HW126612   0.737   2.388   2.340  0.3307  2.0945 -0.0602
 5051SOL    HW226613   0.800   2.337   2.214 -1.2543  0.1391  0.0760
 5052SOL     OW26614   1.473   4.563   1.404 -0.2243 -0.4603  1.0623
 5052SOL    HW126615   1.559   4.570   1.361 -1.3318  0.0914 -1.0591
 5052SOL    HW226616   1.416   4.623   1.356  1.6894  0.6308  0.1429
 5053SOL     OW26617   3.977   1.072   6.429 -0.2112  0.7547 -0.4558
 5053SOL    HW126618   4.018   1.118   6.355  1.0798 -1.2735 -0.9993
 5053SOL    HW226619   4.030   0.994   6.412  1.1233  1.1148  2.0128
 5054SOL     OW26620   0.821   0.223   3.104 -0.4012 -0.0525 -0.4511
 5054SOL    HW126621   0.846   0.141   3.063  0.4877  0.0887 -0.1841
 5054SOL    HW226622   0.827   0.200   3.196 -0.8401  0.9467 -0.1697
 5055SOL     OW26623   1.828   0.408   8.475 -0.3554 -0.0302  0.4391
 5055SOL    HW126624   1.871   0.377   8.554 -1.1444  0.4642  1.0712
 5055SOL    HW226625   1.735   0.413   8.499  0.7835  3.1376  4.1619
 5056SOL     OW26626   2.074   2.271   5.154  0.4563 -1.0611 -0.4556
 5056SOL    HW126627   2.117   2.235   5.076 -0.1109  1.7344 -2.0832
 5056SOL    HW226628   2.100   2.363   5.151 -1.8895 -0.3971  0.3084
 5057SOL     OW26629   3.232   3.679   1.803 -0.2309 -0.8516  0.1897
 5057SOL    HW126630   3.302   3.731   1.763 -0.5320  0.0449  0.8274
 5057SOL    HW226631   3.277   3.649   1.882  0.1894  0.1962  0.3424
 5058SOL     OW26632   1.564   1.359   3.727  0.0558  0.4962 -0.9919
 5058SOL    HW126633   1.552   1.286   3.667  1.3224 -0.1265 -0.4842
 5058SOL    HW226634   1.533   1.314   3.806  1.1127 -0.5234 -1.1594
 5059SOL     OW26635   4.057   0.266   1.233  0.1454 -0.3746 -0.1883
 5059SOL    HW126636   4.092   0.205   1.299  0.2055 -0.1119  0.0225
 5059SOL    HW226637   4.131   0.298   1.182 -0.6023 -0.1376 -1.1105
 5060SOL     OW26638   4.722   0.958   5.799 -0.3060 -0.0487 -0.0563
 5060SOL    HW126639   0.016   1.000   5.883 -0.5043  1.8433 -0.9557
 5060SOL    HW226640   0.077   0.904   5.806 -1.8642 -2.2581  0.5032
 5061SOL     OW26641   2.054   3.716   4.079  0.0184  0.1469 -0.3424
 5061SOL    HW126642   2.140   3.712   4.119 -0.0523 -0.0320 -0.2066
 5061SOL    HW226643   2.045   3.808   4.054  1.2701  0.1416 -0.7938
 5062SOL     OW26644   1.832   4.033   7.631  0.0687  0.5537 -0.3488
 5062SOL    HW126645   1.847   3.943   7.603  2.5839  0.5084  1.0769
 5062SOL    HW226646   1.911   4.081   7.606  0.4465  0.0635 -0.1068
 5063SOL     OW26647   3.386   2.194  14.349 -0.4065  0.3819 -0.3047
 5063SOL    HW126648   3.443   2.137  14.296  0.2293 -0.3457  1.1685
 5063SOL    HW226649   3.299   2.163  14.324 -0.2265 -0.2047 -0.2058
 5064SOL     OW26650   1.291   4.581   9.258  0.2449 -0.2658 -0.1156
 5064SOL    HW126651   1.232   4.507   9.272 -0.9479  0.9111  1.1079
 5064SOL    HW226652   1.346   4.564   9.334  0.3039  2.0449  0.3636
 5065SOL     OW26653   1.049   2.942  12.915 -0.2550  0.3890 -0.1586
 5065SOL    HW126654   1.107   2.894  12.974  0.7173 -0.4834 -1.7924
 5065SOL    HW226655   1.115   3.005  12.886  1.4116 -1.9715 -1.5776
 5066SOL     OW26656   0.278   0.160   3.544 -0.7891 -0.0963 -0.0446
 5066SOL    HW126657   0.264   0.094   3.611 -2.0840 -0.1193 -0.3350
 5066SOL    HW226658   0.303   0.234   3.599  0.2668  1.4323 -2.5634
 5067SOL     OW26659   3.523   1.957  14.719  0.4214  0.3493  0.4854
 5067SOL    HW126660   3.489   1.869  14.703 -1.1990  0.7335  1.7544
 5067SOL    HW226661   3.616   1.944  14.702  0.6166  1.7119  0.5368
 5068SOL     OW26662   1.113   0.737  11.571  0.0541 -0.1230 -0.2489
 5068SOL    HW126663   1.060   0.719  11.494  0.8934 -3.0008 -0.1705
 5068SOL    HW226664   1.046   0.726  11.638 -0.5206 -1.4308 -1.0414
 5069SOL     OW26665   1.576   2.241   1.796  0.4764 -0.6434 -0.6431
 5069SOL    HW126666   1.656   2.200   1.831  0.6449  0.5959  0.3922
 5069SOL    HW226667   1.512   2.241   1.867  2.5835 -1.2468  1.2823
 5070SOL     OW26668   1.542   3.943   4.206  0.2599 -0.0835  0.0414
 5070SOL    HW126669   1.521   4.036   4.214  0.6994  0.0698 -0.6713
 5070SOL    HW226670   1.464   3.909   4.162 -0.6937 -0.7002  2.1960
 5071SOL     OW26671   0.615   1.625   3.933 -0.1236  0.0676 -0.0042
 5071SOL    HW126672   0.702   1.587   3.923  0.3101  1.0455  0.0707
 5071SOL    HW226673   0.604   1.677   3.854  0.9164  0.6421  0.2361
 5072SOL     OW26674   4.394   2.872   6.350 -0.3437 -0.2570 -0.7163
 5072SOL    HW126675   4.301   2.854   6.361  0.0441 -1.1344  1.0227
 5072SOL    HW226676   4.397   2.967   6.362 -0.8869 -0.7692  3.2011
 5073SOL     OW26677   2.711   3.182   1.037 -0.2262  0.2744 -0.1761
 5073SOL    HW126678   2.701   3.088   1.048  0.9171  0.0719 -0.9201
 5073SOL    HW226679   2.626   3.202   0.997 -0.5366 -3.0036 -1.1129
 5074SOL     OW26680   2.759   1.407   5.709 -0.1831 -0.2919  0.4310
 5074SOL    HW126681   2.694   1.459   5.756 -2.1599 -0.8822 -1.6674
 5074SOL    HW226682   2.718   1.322   5.726 -2.6290  0.4540 -1.7751
 5075SOL     OW26683   4.577   4.225   2.561 -0.3686 -0.1365 -0.2985
 5075SOL    HW126684   4.515   4.243   2.491  1.2629 -0.7751 -1.8944
 5075SOL    HW226685   4.516   4.199   2.631  0.0883 -1.6171 -0.4618
 5076SOL     OW26686   0.718   2.002   5.215 -0.2819 -0.5150 -0.1220
 5076SOL    HW126687   0.715   1.923   5.269 -1.7235  0.1790  0.8075
 5076SOL    HW226688   0.720   1.967   5.126  1.9652  1.8621 -1.0285
 5077SOL     OW26689   2.548   0.971   7.213 -0.1759 -0.3897  0.0687
 5077SOL    HW126690   2.483   1.040   7.197 -0.7620 -0.6420  1.3016
 5077SOL    HW226691   2.599   1.020   7.278 -0.4257  0.9351 -0.7255
 5078SOL     OW26692   1.887   1.953   3.883  0.3639  0.1631  0.3701
 5078SOL    HW126693   1.935   1.873   3.859 -0.3186 -0.5309  1.3232
 5078SOL    HW226694   1.952   1.989   3.943 -1.1832  2.4376  0.6408
 5079SOL     OW26695   2.590   1.294   6.590  0.4527 -0.2130 -0.3908
 5079SOL    HW126696   2.674   1.249   6.600  0.8134  0.7220  0.8635
 5079SOL    HW226697   2.580   1.325   6.680  3.7298 -0.8354  0.1993
 5080SOL     OW26698   4.496   3.246   6.918  1.1149 -0.2873 -0.1339
 5080SOL    HW126699   4.444   3.167   6.927  1.0670 -0.4362 -1.7355
 5080SOL    HW226700   4.469   3.274   6.830  1.0413 -1.3305 -0.4374
 5081SOL     OW26701   0.076   1.808   4.922 -0.2583 -0.1216 -0.8747
 5081SOL    HW126702   0.065   1.850   5.007  0.7794 -2.1201  0.2450
 5081SOL    HW226703   0.022   1.865   4.867 -1.9579  0.5530  1.5464
 5082SOL     OW26704   2.760   0.787  14.770  0.3642  0.2836  0.6588
 5082SOL    HW126705   2.753   0.878  14.799 -1.1456  0.3625  0.0566
 5082SOL    HW226706   2.667   0.770  14.758  0.6668 -1.5859  1.0310
 5083SOL     OW26707   2.995   1.820   7.254 -0.3876 -0.3301  0.1020
 5083SOL    HW126708   3.010   1.869   7.335  0.6148 -1.1224  0.4002
 5083SOL    HW226709   3.068   1.759   7.255  1.2093  1.5826 -0.3566
 5084SOL     OW26710   2.259   1.767  13.977  0.3612 -0.1912  0.0897
 5084SOL    HW126711   2.270   1.763  13.882 -1.7983  0.4662 -0.1789
 5084SOL    HW226712   2.171   1.730  13.985 -0.0715  1.0206  1.0015
 5085SOL     OW26713   2.295   0.236  10.403 -0.1418  0.1655  0.3724
 5085SOL    HW126714   2.290   0.261  10.495  2.2982  3.2275 -0.3093
 5085SOL    HW226715   2.379   0.189  10.404 -0.3350 -0.2002 -0.4718
 5086SOL     OW26716   2.200   1.612  11.120  0.2042  0.0659  0.0097
 5086SOL    HW126717   2.122   1.666  11.127  1.0994  0.8718  3.6908
 5086SOL    HW226718   2.231   1.640  11.034  0.6492  1.5468  0.6472
 5087SOL     OW26719   1.916   0.429  10.372 -0.2888  0.7438 -0.3533
 5087SOL    HW126720   1.953   0.450  10.457  2.0913 -2.0189 -0.6999
 5087SOL    HW226721   1.910   0.516  10.331 -2.2906  0.1619 -1.2860
 5088SOL     OW26722   1.832   3.575   4.155 -0.2262  0.2871  0.2327
 5088SOL    HW126723   1.914   3.605   4.116 -1.2561  0.9264 -1.4078
 5088SOL    HW226724   1.761   3.610   4.101 -0.4752  0.6682  0.8062
 5089SOL     OW26725   0.593   1.739   5.369  0.0836 -0.2386  0.2837
 5089SOL    HW126726   0.541   1.659   5.367  0.3180 -0.4191  1.3316
 5089SOL    HW226727   0.627   1.735   5.280 -1.2655 -1.8019 -0.1571
 5090SOL     OW26728   0.751   1.894   0.432  0.2971 -0.1291 -0.3424
 5090SOL    HW126729   0.735   1.869   0.523  0.2320  0.7595 -0.1117
 5090SOL    HW226730   0.675   1.866   0.382  0.9106  0.4029 -1.5879
 5091SOL     OW26731   2.560   1.592  14.824  0.3685  0.1257  0.3727
 5091SOL    HW126732   2.597   1.592  14.913  0.8328  1.3651  0.1836
 5091SOL    HW226733   2.471   1.627  14.835 -0.0465 -1.2554  1.3682
 5092SOL     OW26734   2.254   3.339   1.137  0.0692  0.1445 -0.2409
 5092SOL    HW126735   2.324   3.405   1.141  0.6935 -0.3982 -1.9365
 5092SOL    HW226736   2.282   3.290   1.215 -1.3662  2.9433  2.0394
 5093SOL     OW26737   1.633   1.368   2.118 -0.7555  0.8325  0.5726
 5093SOL    HW126738   1.538   1.368   2.127 -0.8109 -0.8773  0.0306
 5093SOL    HW226739   1.669   1.316   2.190 -0.8569  0.0291  0.0368
 5094SOL     OW26740   3.512   1.464   3.112 -0.0606 -0.1274 -0.2562
 5094SOL    HW126741   3.517   1.467   3.016 -0.1977  0.5300 -0.2408
 5094SOL    HW226742   3.512   1.556   3.136 -1.3679  0.6856 -3.2578
 5095SOL     OW26743   2.641   2.318   1.422 -0.5098 -0.0082  0.1761
 5095SOL    HW126744   2.554   2.349   1.395  0.6870  1.0939 -2.3878
 5095SOL    HW226745   2.640   2.223   1.409  0.7984 -0.3479  2.6218
 5096SOL     OW26746   0.123   4.443   3.951  0.4586 -0.0704 -0.0135
 5096SOL    HW126747   0.099   4.382   3.881  1.3650  0.4223 -0.7509
 5096SOL    HW226748   0.125   4.383   4.026  1.9606 -1.0325 -0.8307
 5097SOL     OW26749   2.448   0.756  16.886 -0.0060 -0.1063 -0.0008
 5097SOL    HW126750   2.441   0.705  16.806 -0.0193  2.1220 -1.4076
 5097SOL    HW226751   2.492   0.835  16.856 -1.9194  2.0586  2.8576
 5098SOL     OW26752   3.386   1.620  10.088  0.0605  0.0702  0.1551
 5098SOL    HW126753   3.462   1.578  10.048  0.4122 -0.3258  1.2492
 5098SOL    HW226754   3.399   1.605  10.181  2.4157 -2.3834 -0.5562
 5099SOL     OW26755   2.922   1.029   2.379  0.1940 -0.8428 -0.0480
 5099SOL    HW126756   2.973   0.959   2.339  0.6120 -0.4830 -0.1517
 5099SOL    HW226757   2.955   1.104   2.328 -0.8919 -0.0214  0.4723
 5100SOL     OW26758   4.028   4.492   3.982  0.8680  0.3746  0.4236
 5100SOL    HW126759   4.117   4.466   3.956  0.4400 -0.7813  0.1253
 5100SOL    HW226760   3.985   4.502   3.897  0.6172 -0.4635  0.4602
 5101SOL     OW26761   1.524   3.569   3.085  0.6622 -0.1507 -0.2488
 5101SOL    HW126762   1.434   3.544   3.063 -0.6159  1.2158  3.3741
 5101SOL    HW226763   1.510   3.657   3.120 -3.4216 -0.5260 -0.8879
 5102SOL     OW26764   3.439   0.795   6.966  0.4664 -0.3490  0.6637
 5102SOL    HW126765   3.443   0.869   6.906 -0.5436 -0.8468 -0.0261
 5102SOL    HW226766   3.481   0.820   7.049  0.7399 -0.0093  0.4194
 5103SOL     OW26767   2.034   4.343  13.747 -0.1079  0.5314  0.3475
 5103SOL    HW126768   2.057   4.431  13.777 -1.3969  0.8518  0.3648
 5103SOL    HW226769   1.962   4.314  13.803 -0.8840 -1.1397 -1.5252
 5104SOL     OW26770   2.679   3.067   7.286  0.7246  0.3367  0.0230
 5104SOL    HW126771   2.743   3.037   7.352  1.1604  2.9233  0.7555
 5104SOL    HW226772   2.671   2.984   7.238 -1.4354 -0.0589  1.0594
 5105SOL     OW26773   2.310   2.964   5.841  0.6052 -0.0147 -0.0044
 5105SOL    HW126774   2.367   3.036   5.870 -1.3839  1.8003 -0.5772
 5105SOL    HW226775   2.244   3.019   5.799  0.9480  0.3244 -0.1092
 5106SOL     OW26776   1.871   3.318   3.474 -0.1805  0.6947 -0.2936
 5106SOL    HW126777   1.825   3.391   3.432 -1.1767  0.7989  0.9924
 5106SOL    HW226778   1.844   3.244   3.420  0.7769  0.3428 -0.2736
 5107SOL     OW26779   0.878   0.495   5.680 -0.0415 -0.9177  0.5629
 5107SOL    HW126780   0.902   0.588   5.690 -0.3242 -1.0295  2.3721
 5107SOL    HW226781   0.798   0.492   5.732 -0.5866 -0.3808 -0.2462
 5108SOL     OW26782   2.204   4.088   2.922  0.2818  0.1900  0.2613
 5108SOL    HW126783   2.291   4.065   2.889  0.0480 -1.0853  0.5686
 5108SOL    HW226784   2.219   4.106   3.015  1.9629  0.5787 -0.0843
 5109SOL     OW26785   4.277   1.177   2.963  0.2963 -0.2639  0.1140
 5109SOL    HW126786   4.195   1.217   2.932  0.8926  3.1126  2.9612
 5109SOL    HW226787   4.332   1.252   2.985  1.1689 -1.7895  3.0538
 5110SOL     OW26788   1.721   2.656   2.218  0.5333  0.5671 -0.3312
 5110SOL    HW126789   1.706   2.744   2.184  0.2271  1.4579  2.1511
 5110SOL    HW226790   1.687   2.603   2.145 -2.5117 -0.6242  1.9236
 5111SOL     OW26791   4.611   2.615   1.027  0.2055 -0.0718 -0.2497
 5111SOL    HW126792   4.578   2.705   1.017 -1.2109 -0.8608 -2.6780
 5111SOL    HW226793   4.694   2.619   1.074 -0.1873  1.6033  0.3031
 5112SOL     OW26794   1.335   1.382   4.621 -0.3005  0.2010  0.3776
 5112SOL    HW126795   1.394   1.409   4.691 -1.5303 -2.3167  2.3943
 5112SOL    HW226796   1.302   1.303   4.665 -0.7146  1.0164  1.5202
 5113SOL     OW26797   1.110   0.132   7.378  0.2070 -0.1144 -0.9260
 5113SOL    HW126798   1.106   0.075   7.302  0.8697 -0.6498 -0.5618
 5113SOL    HW226799   1.083   0.064   7.440  3.9544  0.0953  0.9683
 5114SOL     OW26800   2.820   2.472   0.800 -0.0104  0.1614  0.1524
 5114SOL    HW126801   2.772   2.409   0.853 -1.0085  0.6251 -0.2006
 5114SOL    HW226802   2.770   2.473   0.718 -1.4152 -0.8890  1.0023
 5115SOL     OW26803   3.615   2.756   7.290 -0.0519 -0.1392 -0.6420
 5115SOL    HW126804   3.656   2.695   7.351  1.8510  0.1657 -1.6338
 5115SOL    HW226805   3.632   2.714   7.206  0.6396  1.4816 -1.3226
 5116SOL     OW26806   0.763   2.219   4.899  0.6932  0.5373 -0.1999
 5116SOL    HW126807   0.767   2.314   4.911  2.6627  0.4576 -0.3320
 5116SOL    HW226808   0.847   2.194   4.935 -0.2242 -1.7014  0.3562
 5117SOL     OW26809   0.282   4.577  11.858  0.8791 -0.5195 -0.0478
 5117SOL    HW126810   0.345   4.505  11.865  1.0043 -0.4471 -0.4421
 5117SOL    HW226811   0.218   4.550  11.924  1.1072  2.9974  1.6541
 5118SOL     OW26812   4.634   0.942   8.353 -0.3542 -0.7696 -0.3812
 5118SOL    HW126813   4.634   1.020   8.297  0.8032 -1.3182 -1.1446
 5118SOL    HW226814   4.712   0.893   8.330  0.0739 -0.1689 -0.2092
 5119SOL     OW26815   4.170   4.186   5.492  0.5483 -0.2123  0.2638
 5119SOL    HW126816   4.167   4.171   5.586  2.5950 -0.8063  0.2330
 5119SOL    HW226817   4.077   4.194   5.471  1.0664  1.7420 -1.3455
 5120SOL     OW26818   2.259   2.890   6.978 -0.3797 -0.4292  0.3287
 5120SOL    HW126819   2.210   2.965   7.009  1.9051  0.1210  2.6476
 5120SOL    HW226820   2.347   2.927   6.980 -0.9435  0.9273 -0.9132
 5121SOL     OW26821   4.428   2.878   3.897 -0.0248  0.0557  0.1719
 5121SOL    HW126822   4.399   2.873   3.988  1.7563 -1.0837  0.6708
 5121SOL    HW226823   4.474   2.797   3.875 -1.3930 -0.6441 -0.1774
 5122SOL     OW26824   0.937   2.622   7.220 -0.4542 -0.1666  0.2116
 5122SOL    HW126825   0.983   2.706   7.223 -1.3907  0.3469  0.4046
 5122SOL    HW226826   1.013   2.569   7.241 -1.3271 -1.5639 -0.1765
 5123SOL     OW26827   3.803   4.655  17.085 -0.2046  0.3051  0.5652
 5123SOL    HW126828   3.737   4.638  17.018  0.9596  1.1814 -0.8001
 5123SOL    HW226829   3.802   0.027  17.089 -2.4671  0.3285 -0.5730
 5124SOL     OW26830   3.522   2.737   9.331  0.0004 -0.0037  0.0305
 5124SOL    HW126831   3.462   2.663   9.343 -0.7601  0.9070  1.8463
 5124SOL    HW226832   3.602   2.693   9.302  0.1796  2.3084 -2.9187
 5125SOL     OW26833   4.531   1.458   7.747  0.6820  0.2722  0.5587
 5125SOL    HW126834   4.485   1.385   7.704  1.7382  0.9536 -1.7175
 5125SOL    HW226835   4.521   1.532   7.687  0.1723 -1.2898 -1.2687
 5126SOL     OW26836   0.750   0.841   6.472  0.9870  0.2653 -0.3430
 5126SOL    HW126837   0.735   0.912   6.409 -0.7950 -0.7481 -1.0583
 5126SOL    HW226838   0.784   0.770   6.417 -0.1291 -2.6273  2.7084
 5127SOL     OW26839   2.178   3.204  14.480  0.0244 -0.0235  0.3509
 5127SOL    HW126840   2.227   3.206  14.563 -0.0977 -0.1100  0.4247
 5127SOL    HW226841   2.189   3.297  14.458  1.5778 -0.4337 -0.6101
 5128SOL     OW26842   1.234   0.170   6.455 -0.2536 -0.0467  0.4465
 5128SOL    HW126843   1.193   0.216   6.382 -0.2997  1.9976  1.7660
 5128SOL    HW226844   1.293   0.109   6.410 -1.5985  0.6199 -2.2431
 5129SOL     OW26845   4.275   0.600  13.826  0.1181  0.2473  0.2365
 5129SOL    HW126846   4.279   0.694  13.810 -0.1256  0.7814  3.2580
 5129SOL    HW226847   4.363   0.585  13.861  1.0017  0.3844 -1.9584
 5130SOL     OW26848   0.963   4.181  13.647 -0.1637 -0.5669 -0.0533
 5130SOL    HW126849   1.017   4.153  13.721  2.5550 -0.5753 -2.0360
 5130SOL    HW226850   0.999   4.269  13.635 -2.2976  0.6052  2.0005
 5131SOL     OW26851   1.775   2.147   6.195  0.0215 -0.1972  0.0284
 5131SOL    HW126852   1.713   2.116   6.129 -0.5219 -0.1966  0.5375
 5131SOL    HW226853   1.826   2.210   6.145  0.4979  0.2072  1.0361
 5132SOL     OW26854   2.738   1.440  11.725  0.2028 -0.2541 -0.9116
 5132SOL    HW126855   2.827   1.473  11.736  0.2633 -0.3401 -1.1278
 5132SOL    HW226856   2.717   1.429  11.818  0.9997  0.0089 -0.7007
 5133SOL     OW26857   4.686   3.249   2.660  0.0477  0.2622  0.1094
 5133SOL    HW126858   4.640   3.213   2.736 -2.2792  1.2233 -0.8722
 5133SOL    HW226859   4.625   3.211   2.598  1.1977  0.2315 -1.0078
 5134SOL     OW26860   0.757   0.211   7.368  0.6342  0.3816  0.4432
 5134SOL    HW126861   0.709   0.129   7.380  1.1191 -0.1190 -1.0491
 5134SOL    HW226862   0.723   0.228   7.280  0.0263 -1.7395  0.2760
 5135SOL     OW26863   3.394   2.185   2.245  0.5386  0.0256 -0.4384
 5135SOL    HW126864   3.364   2.271   2.274  2.3298  0.6719 -0.5363
 5135SOL    HW226865   3.365   2.122   2.312  1.7505  1.4400  1.4298
 5136SOL     OW26866   0.955   0.982   8.269  0.1722  0.4698 -0.0375
 5136SOL    HW126867   1.031   0.942   8.312 -0.6543  0.6619  1.6182
 5136SOL    HW226868   0.895   0.998   8.342 -0.1268 -2.4410  0.3246
 5137SOL     OW26869   3.991   4.481   5.917  0.3892  0.1587 -0.6474
 5137SOL    HW126870   4.037   4.498   5.835 -1.5890 -0.4716 -1.9011
 5137SOL    HW226871   3.932   4.557   5.918 -0.5499 -0.5699 -0.5469
 5138SOL     OW26872   4.103   0.708   5.597 -0.1157 -0.1722 -0.4360
 5138SOL    HW126873   4.048   0.705   5.675  1.2932 -2.3695  0.4387
 5138SOL    HW226874   4.044   0.652   5.547  0.0338 -0.1943 -0.5877
 5139SOL     OW26875   3.070   2.193   3.708  0.4882 -0.3297  0.3869
 5139SOL    HW126876   3.043   2.239   3.787 -0.5115 -1.0212  0.4395
 5139SOL    HW226877   3.160   2.223   3.694  0.8727 -1.2740  0.8592
 5140SOL     OW26878   2.184   4.511   8.429  0.1812  0.3873 -0.0208
 5140SOL    HW126879   2.269   4.508   8.472  0.2958  0.6962 -0.2283
 5140SOL    HW226880   2.142   4.585   8.472  1.3306 -0.3399  2.3446
 5141SOL     OW26881   4.640   2.958   3.461  0.1335 -0.3219  0.0698
 5141SOL    HW126882   4.571   2.893   3.477  0.8364 -0.9052  0.7773
 5141SOL    HW226883   4.642   3.015   3.538 -0.6427  0.1731 -0.2798
 5142SOL     OW26884   1.437   2.081   0.218  0.2927  0.0092 -0.1485
 5142SOL    HW126885   1.473   2.165   0.246 -1.1909  1.0785 -1.5050
 5142SOL    HW226886   1.342   2.095   0.221  0.3031  0.7133 -3.5936
 5143SOL     OW26887   0.894   0.967   0.479 -0.0503 -0.4950  0.1783
 5143SOL    HW126888   0.806   0.929   0.480  0.6004 -1.9947  0.0830
 5143SOL    HW226889   0.948   0.902   0.525  1.8266  0.0044 -1.3495
 5144SOL     OW26890   4.559   2.454   5.483 -0.1966  0.0262  0.0641
 5144SOL    HW126891   4.634   2.396   5.473 -0.7299 -0.6886  0.1786
 5144SOL    HW226892   4.593   2.538   5.452 -1.8693  1.2698  1.5808
 5145SOL     OW26893   2.236   0.480   3.499 -0.3176 -0.1350 -0.1569
 5145SOL    HW126894   2.204   0.390   3.485  1.3218 -0.8229  0.5178
 5145SOL    HW226895   2.178   0.495   3.573  1.1021  0.9053  0.7328
 5146SOL     OW26896   3.550   2.872   0.832  0.3678 -0.0719 -0.1498
 5146SOL    HW126897   3.504   2.797   0.793 -1.2015 -0.0985  1.7219
 5146SOL    HW226898   3.488   2.939   0.804 -2.1127 -0.3404  4.6256
 5147SOL     OW26899   0.588   2.912   5.618 -0.1716  0.5083 -0.2880
 5147SOL    HW126900   0.683   2.900   5.607  0.3487  3.7242  0.7881
 5147SOL    HW226901   0.558   2.861   5.542  0.1464  0.4396 -0.3711
 5148SOL     OW26902   3.547   3.187   1.316  0.5047 -0.9178 -0.4139
 5148SOL    HW126903   3.486   3.114   1.314  1.1241 -1.4590  0.2252
 5148SOL    HW226904   3.619   3.136   1.353 -0.3901 -2.3850 -0.7006
 5149SOL     OW26905   0.867   0.831  14.277 -0.0718  0.0661  0.3490
 5149SOL    HW126906   0.801   0.898  14.265  0.1218  0.3905  1.0497
 5149SOL    HW226907   0.851   0.766  14.209 -1.4253  0.4215  0.3403
 5150SOL     OW26908   3.338   4.327   8.113 -0.0789 -0.0958  1.0152
 5150SOL    HW126909   3.275   4.395   8.138 -1.7351 -0.8100 -1.1854
 5150SOL    HW226910   3.375   4.366   8.034 -0.1623 -0.2090  0.9200
 5151SOL     OW26911   1.858   4.045   6.625  0.2210  0.0257 -0.4632
 5151SOL    HW126912   1.771   4.006   6.621  0.1369 -0.0567  2.1413
 5151SOL    HW226913   1.839   4.137   6.640  0.3980 -0.1376  0.7847
 5152SOL     OW26914   4.592   2.178   3.855 -0.0452  0.0043  0.2012
 5152SOL    HW126915   4.574   2.262   3.814  3.2222  0.5191 -0.2001
 5152SOL    HW226916   4.671   2.154   3.805 -0.4471  1.1555 -1.0000
 5153SOL     OW26917   0.076   4.042   3.626 -0.0931  0.2034  0.2105
 5153SOL    HW126918   0.065   3.978   3.696 -0.2020 -0.5744 -0.5030
 5153SOL    HW226919   0.169   4.023   3.611 -0.2505  0.7533 -1.5276
 5154SOL     OW26920   4.077   3.606  15.334 -0.5551 -0.2080  0.1297
 5154SOL    HW126921   4.169   3.620  15.311 -0.6020 -0.4565 -0.2207
 5154SOL    HW226922   4.032   3.683  15.299  0.3523 -0.7009 -2.1825
 5155SOL     OW26923   0.376   0.002  11.497  0.4522  0.3258  0.4099
 5155SOL    HW126924   0.354   0.093  11.481  0.8631  0.8212  2.6493
 5155SOL    HW226925   0.453   0.008  11.553 -1.3601  1.9517  2.7443
 5156SOL     OW26926   2.365   4.702  14.809  0.1494  0.0814  0.2353
 5156SOL    HW126927   2.387   4.620  14.853  1.4804  0.7088  0.7514
 5156SOL    HW226928   2.326   4.660  14.732  1.0042 -0.9406  0.3511
 5157SOL     OW26929   4.579   1.825  10.318  0.3684  0.6421 -0.5313
 5157SOL    HW126930   4.576   1.919  10.338  4.6859  1.1435 -2.2067
 5157SOL    HW226931   4.622   1.795  10.398 -1.3580 -0.3648  0.0109
 5158SOL     OW26932   2.730   1.476   0.604  0.1143  0.3505  0.3741
 5158SOL    HW126933   2.773   1.545   0.654 -1.4344 -0.7431  3.2082
 5158SOL    HW226934   2.805   1.435   0.562 -0.6412 -0.3877 -0.2506
 5159SOL     OW26935   1.509   0.704  16.507  0.1728 -0.4886 -0.6966
 5159SOL    HW126936   1.499   0.771  16.439 -1.2675 -0.7076 -0.6854
 5159SOL    HW226937   1.425   0.688  16.549  0.4265 -3.0701 -1.1671
 5160SOL     OW26938   3.809   1.519   2.862 -0.2374  0.1119  0.7665
 5160SOL    HW126939   3.851   1.448   2.813 -0.2495  1.3266 -0.9741
 5160SOL    HW226940   3.719   1.489   2.855 -0.3627  0.0359  2.6860
 5161SOL     OW26941   2.739   4.415   3.636 -0.4022  0.1509  0.3012
 5161SOL    HW126942   2.741   4.386   3.727  1.2570 -0.1434  0.1664
 5161SOL    HW226943   2.660   4.470   3.628 -1.9177 -2.2381 -1.0511
 5162SOL     OW26944   3.922   0.655   2.712  0.4463 -0.2714 -0.1854
 5162SOL    HW126945   3.969   0.572   2.702  2.0082  0.2020  3.0811
 5162SOL    HW226946   3.928   0.659   2.808 -0.8685 -0.3760 -0.0958
 5163SOL     OW26947   2.660   1.502   2.508 -0.1385 -0.2575 -0.1754
 5163SOL    HW126948   2.637   1.478   2.598  3.0260 -0.3796  0.6081
 5163SOL    HW226949   2.576   1.496   2.463  1.1985  1.2435 -2.8517
 5164SOL     OW26950   2.945   3.025  12.943 -0.5793 -0.1956  0.0731
 5164SOL    HW126951   2.977   2.946  12.987  1.5643  0.0469 -1.0493
 5164SOL    HW226952   2.876   3.048  13.005  0.6478  1.3196  0.8626
 5165SOL     OW26953   2.282   4.644   3.818 -0.6353 -0.1847  0.3429
 5165SOL    HW126954   2.202   4.694   3.805 -2.0450 -1.9563  2.1512
 5165SOL    HW226955   2.255   4.555   3.793 -0.6590 -0.2823  0.7060
 5166SOL     OW26956   1.270   1.589   1.828  0.3815 -0.4292  0.0334
 5166SOL    HW126957   1.221   1.573   1.909 -0.7858 -2.7117 -1.1551
 5166SOL    HW226958   1.267   1.683   1.812 -1.0885 -0.2234  1.4680
 5167SOL     OW26959   0.089   1.985  10.165  0.1623  0.2539  0.4281
 5167SOL    HW126960   0.003   1.971  10.204 -0.0406 -0.8867 -0.4220
 5167SOL    HW226961   0.141   1.911  10.194 -1.8791 -1.0159  0.8500
 5168SOL     OW26962   3.683   0.550   4.551 -0.1524  0.0622 -0.0118
 5168SOL    HW126963   3.711   0.474   4.500  2.6180  0.6472  0.6677
 5168SOL    HW226964   3.622   0.597   4.494 -0.7244 -0.7418 -0.0660
 5169SOL     OW26965   3.640   4.301   6.754 -0.2795 -0.3342 -0.5458
 5169SOL    HW126966   3.584   4.274   6.681 -1.0252  2.0921 -0.8660
 5169SOL    HW226967   3.601   4.382   6.783 -1.3446 -1.6533  1.6615
 5170SOL     OW26968   3.223   3.273   2.704  0.2087 -0.3750 -0.4447
 5170SOL    HW126969   3.285   3.295   2.635 -0.0019 -0.3798 -0.6347
 5170SOL    HW226970   3.279   3.251   2.778  1.3373 -0.2993 -1.2727
 5171SOL     OW26971   0.163   2.922   3.411 -0.1024 -0.9862  0.7966
 5171SOL    HW126972   0.067   2.929   3.412 -0.1516 -1.8125  2.1588
 5171SOL    HW226973   0.172   2.923   3.507  0.9964  0.2860  0.6741
 5172SOL     OW26974   0.471   4.103   8.385 -0.4824 -0.1108  0.1718
 5172SOL    HW126975   0.523   4.077   8.461 -2.0655  1.0541  1.6358
 5172SOL    HW226976   0.392   4.051   8.398 -1.0275  0.9204  0.9821
 5173SOL     OW26977   0.003   1.750   7.489 -0.4548  0.2064  0.2166
 5173SOL    HW126978   0.098   1.740   7.483 -0.4274  0.4321  0.2578
 5173SOL    HW226979   4.704   1.804   7.413 -2.4080 -1.1619 -0.1870
 5174SOL     OW26980   4.327   3.944   5.251 -0.3019  0.2449 -0.0177
 5174SOL    HW126981   4.270   4.015   5.279 -0.5368 -0.0674  0.2884
 5174SOL    HW226982   4.263   3.875   5.232 -0.5023  0.7816 -1.3104
 5175SOL     OW26983   1.519   2.070   5.830 -0.4983 -0.2327 -0.2605
 5175SOL    HW126984   1.563   2.153   5.848 -0.6423 -0.2385  0.1274
 5175SOL    HW226985   1.581   2.043   5.762 -1.1536 -0.8991 -0.5928
 5176SOL     OW26986   2.350   1.190  15.156 -0.3107  0.2025  0.1183
 5176SOL    HW126987   2.419   1.153  15.101  1.5433  0.9949  1.8946
 5176SOL    HW226988   2.277   1.205  15.097 -1.6725 -1.3879  1.3821
 5177SOL     OW26989   3.926   0.893   3.428 -0.1219  0.4689 -0.1328
 5177SOL    HW126990   3.952   0.892   3.520  1.1219 -1.4446 -0.5177
 5177SOL    HW226991   3.879   0.976   3.418 -1.4004 -0.0444  1.7030
 5178SOL     OW26992   2.705   3.765  16.451 -0.1017 -0.7758 -0.3138
 5178SOL    HW126993   2.772   3.697  16.463  0.0481 -0.8731 -1.7168
 5178SOL    HW226994   2.665   3.736  16.369 -1.0913  0.3216 -0.2235
 5179SOL     OW26995   0.604   3.479   7.840 -0.3191 -0.5564 -0.3841
 5179SOL    HW126996   0.568   3.431   7.766 -0.2471 -0.0683 -0.7311
 5179SOL    HW226997   0.660   3.408   7.872  0.1221 -0.8968 -1.9312
 5180SOL     OW26998   1.480   3.442   5.915 -0.4514  0.1533  0.2901
 5180SOL    HW126999   1.437   3.505   5.973 -0.5740 -0.6280  1.0478
 5180SOL    HW227000   1.571   3.471   5.920 -1.3185  3.0900 -1.1660
 5181SOL     OW27001   1.367   1.242  17.094 -0.1198  0.0827 -0.0833
 5181SOL    HW127002   1.293   1.304  17.094  2.1324  2.7601 -1.2664
 5181SOL    HW227003   1.334   1.169  17.042 -0.2755 -0.4415  0.7543
 5182SOL     OW27004   4.601   4.722   5.277  0.2698  0.1801  0.4768
 5182SOL    HW127005   4.620   4.629   5.278 -0.5674 -0.0026 -0.0807
 5182SOL    HW227006   4.669   0.031   5.218 -0.2236  0.3420 -0.0032
 5183SOL     OW27007   4.643   4.223   0.295  0.1678 -0.1335 -0.0760
 5183SOL    HW127008   4.626   4.216   0.201  2.1523 -1.4071 -0.3327
 5183SOL    HW227009   4.650   4.131   0.320 -0.7362 -0.2413 -0.2052
 5184SOL     OW27010   0.557   3.443   6.722  0.0449 -0.0294 -0.2333
 5184SOL    HW127011   0.523   3.527   6.690  0.1810 -0.0499 -0.4303
 5184SOL    HW227012   0.555   3.389   6.643 -0.2330  0.9408 -0.8906
 5185SOL     OW27013   0.427   4.108   1.006 -0.1301 -0.5723 -0.1747
 5185SOL    HW127014   0.462   4.089   1.093  0.1777  0.0431 -0.1673
 5185SOL    HW227015   0.460   4.198   1.000 -0.6976 -0.3627 -0.1940
 5186SOL     OW27016   1.539   2.821  11.573 -0.4810  0.1088 -0.4926
 5186SOL    HW127017   1.581   2.746  11.615 -0.8999  0.2714  0.2327
 5186SOL    HW227018   1.514   2.787  11.488 -0.2450 -0.0995 -0.4781
 5187SOL     OW27019   3.012   0.241   5.611 -0.0833 -0.2160  0.4808
 5187SOL    HW127020   3.002   0.185   5.534  1.4250 -0.2165  0.2899
 5187SOL    HW227021   3.071   0.188   5.664  1.2223  2.1967  1.4180
 5188SOL     OW27022   2.316   4.106   6.071  0.4592 -0.1496 -0.3397
 5188SOL    HW127023   2.371   4.156   6.131 -0.8643  0.2635  0.5200
 5188SOL    HW227024   2.382   4.097   6.002  1.6208  0.2474  0.7087
 5189SOL     OW27025   1.110   3.829   1.921 -0.0648  0.4495 -0.1793
 5189SOL    HW127026   1.098   3.917   1.958  0.1236  2.0134 -3.8698
 5189SOL    HW227027   1.035   3.776   1.949  0.2101 -0.0752 -0.4413
 5190SOL     OW27028   3.986   3.745   7.412  0.0387  0.0102  0.1600
 5190SOL    HW127029   4.003   3.682   7.482 -0.1773 -2.5598 -2.0982
 5190SOL    HW227030   4.051   3.727   7.344  1.3217  1.9451  0.8995
 5191SOL     OW27031   3.367   3.381   2.432  0.5919 -0.4581 -0.3290
 5191SOL    HW127032   3.455   3.397   2.466 -0.4902  1.7159  1.4371
 5191SOL    HW227033   3.388   3.310   2.371  3.1378  0.1034 -0.1224
 5192SOL     OW27034   4.367   4.057   0.971 -0.1484  0.2765 -0.1722
 5192SOL    HW127035   4.385   3.977   1.020 -0.6466  0.1245 -0.2376
 5192SOL    HW227036   4.399   4.124   1.032 -1.3115  1.9005 -1.3428
 5193SOL     OW27037   0.627   2.360   5.617 -0.2453 -0.2636  0.4867
 5193SOL    HW127038   0.675   2.279   5.600  3.1646  1.6557  0.8616
 5193SOL    HW227039   0.568   2.345   5.691  0.5189 -0.8033  1.0011
 5194SOL     OW27040   3.964   1.735  11.575 -0.3246 -0.1403  0.3427
 5194SOL    HW127041   3.966   1.793  11.652 -1.6278  0.9525 -0.4514
 5194SOL    HW227042   4.001   1.797  11.512 -0.3230 -0.9512 -0.4633
 5195SOL     OW27043   1.167   2.437  16.187 -0.2064 -0.0350  0.0180
 5195SOL    HW127044   1.160   2.466  16.096  0.0331  2.8134  0.8924
 5195SOL    HW227045   1.171   2.343  16.169 -0.2431 -0.2337  1.0356
 5196SOL     OW27046   3.339   2.970   6.020 -0.1976  0.2592  0.2108
 5196SOL    HW127047   3.313   2.914   6.093  1.0600 -2.1045 -1.1464
 5196SOL    HW227048   3.337   3.050   6.072 -0.9658  0.6382 -0.4009
 5197SOL     OW27049   0.480   3.189   9.791  0.7074  0.7497 -0.3355
 5197SOL    HW127050   0.555   3.202   9.850  0.3517  0.1771  0.2480
 5197SOL    HW227051   0.403   3.198   9.848 -1.4025  1.5950 -3.3319
 5198SOL     OW27052   0.502   3.059  10.146 -0.2995  0.2273  0.3225
 5198SOL    HW127053   0.526   3.002  10.219  2.6828  0.2548 -0.6239
 5198SOL    HW227054   0.509   3.144  10.188 -2.2911  1.4777 -1.9029
 5199SOL     OW27055   2.578   3.644   9.133  0.0468  0.3887  0.6038
 5199SOL    HW127056   2.559   3.641   9.227 -3.6484 -0.6405 -0.1644
 5199SOL    HW227057   2.620   3.730   9.133  2.4636 -0.8133 -0.1228
 5200SOL     OW27058   3.243   4.685   9.281 -0.2318  0.5620 -0.6231
 5200SOL    HW127059   3.212   4.598   9.307 -2.6048  1.4014 -0.6159
 5200SOL    HW227060   3.289   4.650   9.204  1.0161  0.1206  0.3254
 5201SOL     OW27061   1.265   3.568   6.344 -0.0461 -0.3283  0.1101
 5201SOL    HW127062   1.195   3.628   6.369  0.2797 -0.2413  0.8104
 5201SOL    HW227063   1.331   3.596   6.407 -3.0733  0.0729  3.0813
 5202SOL     OW27064   0.788   1.707   9.053 -0.1432 -0.2177 -0.2540
 5202SOL    HW127065   0.701   1.738   9.081 -1.2213 -2.2682 -1.3153
 5202SOL    HW227066   0.822   1.794   9.032  0.0719 -0.1218  0.5242
 5203SOL     OW27067   1.323   0.788   6.249 -0.4752  0.0242 -0.0944
 5203SOL    HW127068   1.330   0.874   6.289  2.7827 -1.4882  2.5156
 5203SOL    HW227069   1.250   0.803   6.187 -1.8482 -1.1650  1.2357
 5204SOL     OW27070   2.233   0.944   3.407  0.5392 -0.2490 -0.1725
 5204SOL    HW127071   2.274   0.897   3.479 -2.0196  0.9453  2.0810
 5204SOL    HW227072   2.164   0.883   3.381 -0.7330  0.8372  0.6011
 5205SOL     OW27073   3.211   3.183   4.025  0.0225 -0.0652 -0.0013
 5205SOL    HW127074   3.182   3.100   3.986  0.4889  0.8646 -2.3282
 5205SOL    HW227075   3.208   3.230   3.942  0.7271  1.7993  1.0419
 5206SOL     OW27076   2.497   1.291   6.262  0.6387 -0.3738  0.0956
 5206SOL    HW127077   2.476   1.283   6.355 -1.1980 -0.7129 -0.3569
 5206SOL    HW227078   2.420   1.252   6.221 -1.0373  2.5368  0.5149
 5207SOL     OW27079   0.924   0.374  17.542 -0.7908 -0.6486  0.2444
 5207SOL    HW127080   0.924   0.348  17.634 -1.1394 -0.5264  0.2794
 5207SOL    HW227081   0.854   0.437  17.556  0.5837  0.6253  1.2792
 5208SOL     OW27082   1.179   1.726   3.140  0.2811 -0.1887 -0.1314
 5208SOL    HW127083   1.242   1.702   3.072  3.1483  1.7185  1.8537
 5208SOL    HW227084   1.103   1.673   3.117  0.7544 -0.0558 -1.9382
 5209SOL     OW27085   1.930   1.353   4.297  0.3011  0.4779  0.2834
 5209SOL    HW127086   1.836   1.363   4.309 -0.2797 -1.3199 -2.4817
 5209SOL    HW227087   1.929   1.258   4.284 -0.0145  0.2988  1.6601
 5210SOL     OW27088   0.816   3.489   3.414  0.0463  0.3629  0.0031
 5210SOL    HW127089   0.733   3.458   3.451  0.3351 -1.6012 -0.9606
 5210SOL    HW227090   0.873   3.414   3.427  0.3764  0.5984 -0.1049
 5211SOL     OW27091   4.323   4.262   3.182  0.2186  0.1048 -0.2851
 5211SOL    HW127092   4.321   4.188   3.242 -2.7326  1.3745  1.1952
 5211SOL    HW227093   4.418   4.279   3.182  0.2620 -0.1478 -1.3877
 5212SOL     OW27094   0.463   4.000   5.423 -0.0063 -0.7047  0.2596
 5212SOL    HW127095   0.453   3.916   5.378 -1.9481 -0.1722 -0.2993
 5212SOL    HW227096   0.533   4.048   5.379  0.0232  0.0653  1.1438
 5213SOL     OW27097   3.434   2.060   5.400  0.4642  0.2494 -0.3300
 5213SOL    HW127098   3.445   1.965   5.407  1.4903  0.5090  1.5762
 5213SOL    HW227099   3.446   2.089   5.491  0.4800 -1.3641  0.1812
 5214SOL     OW27100   0.756   4.399  13.606  0.5846 -0.0191  0.0215
 5214SOL    HW127101   0.813   4.330  13.639  2.6300  1.1971 -0.9541
 5214SOL    HW227102   0.716   4.365  13.527  0.6741  2.2706 -1.0211
 5215SOL     OW27103   1.713   2.266   5.853 -0.1526 -0.0921 -0.0643
 5215SOL    HW127104   1.747   2.333   5.794 -0.1659  1.4209  1.6702
 5215SOL    HW227105   1.779   2.260   5.921 -0.6995 -1.0690  0.3946
 5216SOL     OW27106   0.204   4.417   2.772  0.3517  0.3132  0.7092
 5216SOL    HW127107   0.213   4.323   2.757  0.2685  0.5562 -0.7956
 5216SOL    HW227108   0.130   4.446   2.720 -1.4951  0.8593  3.6339
 5217SOL     OW27109   3.506   0.295   6.385 -0.0718 -0.1066  0.2772
 5217SOL    HW127110   3.443   0.292   6.313  0.7157 -3.3410 -0.2937
 5217SOL    HW227111   3.555   0.373   6.359 -0.1361 -0.5961 -1.3628
 5218SOL     OW27112   2.518   2.172  14.259 -0.5339  0.3086 -0.1375
 5218SOL    HW127113   2.585   2.236  14.234  1.6137 -2.3219 -1.1488
 5218SOL    HW227114   2.468   2.215  14.328 -0.8182 -1.9502  1.0680
 5219SOL     OW27115   1.847   2.414   4.380  1.0222  0.0535 -0.8032
 5219SOL    HW127116   1.805   2.382   4.460  0.6401 -1.0656 -1.4463
 5219SOL    HW227117   1.784   2.383   4.314 -0.5764  2.1194 -0.2428
 5220SOL     OW27118   3.346   0.477   4.177 -0.0460  0.0330  0.4471
 5220SOL    HW127119   3.268   0.424   4.162 -0.2155  0.4561 -0.2038
 5220SOL    HW227120   3.394   0.446   4.101 -1.7631 -0.2320 -0.5201
 5221SOL     OW27121   4.569   1.816   7.845 -0.3970  0.9875 -0.1426
 5221SOL    HW127122   4.516   1.756   7.898  1.9722 -2.3320 -1.5724
 5221SOL    HW227123   4.548   1.779   7.759 -3.4302  0.4910  0.7944
 5222SOL     OW27124   3.594   0.045   4.385  0.5687 -0.2393 -0.2708
 5222SOL    HW127125   3.566   4.678   4.398 -0.2993  0.1896  0.8374
 5222SOL    HW227126   3.521   0.080   4.334  0.2238  0.4290  0.6847
 5223SOL     OW27127   1.537   3.479   4.309  0.2087  0.1929 -0.4550
 5223SOL    HW127128   1.630   3.486   4.290  0.2109  0.3056 -0.4062
 5223SOL    HW227129   1.520   3.391   4.342 -0.0708  0.6666  0.7038
 5224SOL     OW27130   3.780   2.702   4.804 -0.5839 -0.3601  0.8593
 5224SOL    HW127131   3.859   2.726   4.851 -0.8185  0.6115  0.7576
 5224SOL    HW227132   3.754   2.789   4.773  3.7781  0.4037 -0.6670
 5225SOL     OW27133   3.108   4.649  13.630  0.1199  0.4365 -0.1705
 5225SOL    HW127134   3.176   4.583  13.625  0.9373  1.1667  1.4889
 5225SOL    HW227135   3.139   4.703  13.557 -0.7060 -1.5333 -1.9981
 5226SOL     OW27136   1.280   2.070   8.703 -0.2029  0.2219 -0.1083
 5226SOL    HW127137   1.256   2.162   8.705  0.0114  0.2771 -0.0930
 5226SOL    HW227138   1.373   2.081   8.681 -0.0807 -0.6343 -0.0323
 5227SOL     OW27139   2.015   4.330   9.522 -0.8351 -0.1784 -0.3695
 5227SOL    HW127140   2.101   4.346   9.561  0.2056 -2.1626 -1.8133
 5227SOL    HW227141   2.015   4.234   9.528 -2.4891 -0.1857 -0.5017
 5228SOL     OW27142   3.404   0.090  17.608  0.1455  0.0007  0.2049
 5228SOL    HW127143   3.403   0.168  17.664 -0.7339  0.3652 -0.3173
 5228SOL    HW227144   3.391   0.018  17.670 -1.5347  1.5624  1.6710
 5229SOL     OW27145   1.884   3.316   4.100 -0.0277  0.1900 -0.6129
 5229SOL    HW127146   1.793   3.290   4.115 -0.5794  1.8219 -1.0554
 5229SOL    HW227147   1.875   3.411   4.111  1.9720  0.1216  1.3227
 5230SOL     OW27148   4.015   2.482  14.959  0.1843  0.4552  0.5971
 5230SOL    HW127149   4.033   2.446  15.046  0.8326 -0.0965  0.2369
 5230SOL    HW227150   4.096   2.454  14.916  0.7547  1.3592  1.0770
 5231SOL     OW27151   2.688   3.227   4.440 -0.2421  0.0252 -0.1648
 5231SOL    HW127152   2.744   3.215   4.364  3.0582  1.9719  1.9473
 5231SOL    HW227153   2.602   3.193   4.416  0.1346 -2.1267  1.4793
 5232SOL     OW27154   1.805   4.690   4.219 -0.2076 -0.4808 -0.2837
 5232SOL    HW127155   1.840   4.640   4.293 -0.6431  0.8676  0.8346
 5232SOL    HW227156   1.866   0.035   4.195  0.4832 -0.2358  2.1247
 5233SOL     OW27157   2.471   2.474  14.725 -0.0049  0.3294  0.1323
 5233SOL    HW127158   2.552   2.460  14.774 -0.2091 -1.4304 -0.0486
 5233SOL    HW227159   2.419   2.523  14.788  0.0203 -0.3572  0.6778
 5234SOL     OW27160   1.481   2.954   7.486  0.4243 -0.2327  0.3182
 5234SOL    HW127161   1.457   2.926   7.574  0.5521 -1.7812 -0.1300
 5234SOL    HW227162   1.572   2.926   7.477  0.7739  0.2263  2.5136
 5235SOL     OW27163   0.157   2.270   9.866 -0.1165  0.4046  0.0456
 5235SOL    HW127164   0.094   2.248   9.797 -0.0085  0.2909 -0.0164
 5235SOL    HW227165   0.205   2.342   9.826  0.7819  0.0325  0.4521
 5236SOL     OW27166   2.536   4.288   6.124  0.3974  0.2365  0.4954
 5236SOL    HW127167   2.601   4.305   6.056 -1.8679  2.8221 -1.0376
 5236SOL    HW227168   2.584   4.304   6.205 -1.3143 -2.5490  2.0791
 5237SOL     OW27169   0.928   4.538   3.445 -0.5748 -0.4443 -0.0179
 5237SOL    HW127170   0.888   4.595   3.380 -0.9172 -0.1893  0.4123
 5237SOL    HW227171   0.861   4.471   3.460 -1.2217  0.1690 -0.1716
 5238SOL     OW27172   0.647   2.491   5.324 -0.4588 -0.0602 -0.3231
 5238SOL    HW127173   0.678   2.404   5.348  1.2525  0.8276  0.6523
 5238SOL    HW227174   0.585   2.504   5.396 -2.5942 -0.2967 -2.1116
 5239SOL     OW27175   1.541   2.918  10.242  0.2060  0.0811 -0.1334
 5239SOL    HW127176   1.601   2.852  10.275 -0.3841 -0.2506  0.2697
 5239SOL    HW227177   1.536   2.888  10.151  1.6603 -0.3526 -0.0612
 5240SOL     OW27178   4.066   4.401   4.338 -0.1907 -0.0118  0.5374
 5240SOL    HW127179   4.152   4.361   4.321 -0.1293  0.2990  0.1097
 5240SOL    HW227180   4.088   4.494   4.333 -2.1801  0.4749  1.0734
 5241SOL     OW27181   3.849   1.672   3.693  0.2276 -0.4704 -0.5219
 5241SOL    HW127182   3.920   1.709   3.641  0.7554  2.9761  2.6833
 5241SOL    HW227183   3.858   1.583   3.660  2.2139 -0.1084 -0.9798
 5242SOL     OW27184   1.752   2.326   4.619  0.0752 -0.0973  0.0145
 5242SOL    HW127185   1.847   2.332   4.631 -0.0166 -0.5823  1.0545
 5242SOL    HW227186   1.713   2.379   4.689 -2.2589 -2.0735  0.2197
 5243SOL     OW27187   0.045   2.932   4.700  0.5314 -0.0207 -0.1590
 5243SOL    HW127188   4.712   2.932   4.624 -1.4396 -0.3825  1.3027
 5243SOL    HW227189   0.113   2.868   4.681 -0.9894 -2.4933  2.8133
 5244SOL     OW27190   0.838   2.003   4.677  0.4684  0.3296 -0.0308
 5244SOL    HW127191   0.866   2.094   4.683  0.5418  0.1891  1.8637
 5244SOL    HW227192   0.750   2.017   4.640  0.7395  1.8987 -0.0453
 5245SOL     OW27193   2.033   1.290   6.218 -0.3332  0.4221 -0.1425
 5245SOL    HW127194   1.982   1.243   6.283 -0.9009  2.0587  0.6035
 5245SOL    HW227195   1.968   1.311   6.151  0.5198 -2.5580 -1.8782
 5246SOL     OW27196   2.943   1.300   5.073 -0.4809  0.0713 -0.0753
 5246SOL    HW127197   2.929   1.208   5.095  0.5268  0.2043  1.1460
 5246SOL    HW227198   2.901   1.300   4.987  1.2489  1.6812 -0.9203
 5247SOL     OW27199   0.014   2.240   3.176 -0.1081  0.3794 -0.5947
 5247SOL    HW127200   0.081   2.248   3.244  1.6558  2.3873 -2.5708
 5247SOL    HW227201   0.005   2.145   3.183  0.7118  0.4101  1.0302
 5248SOL     OW27202   2.707   2.835   3.210  0.0979 -0.7175 -0.0511
 5248SOL    HW127203   2.612   2.842   3.221 -0.0670 -2.1373 -0.6184
 5248SOL    HW227204   2.730   2.830   3.302 -2.5884  0.7018  0.7100
 5249SOL     OW27205   4.646   1.314   4.389  0.3887  0.1853  0.4537
 5249SOL    HW127206   4.644   1.236   4.445  1.3700  0.7520  1.2951
 5249SOL    HW227207   4.614   1.386   4.443 -3.2060 -0.8151 -0.3889
 5250SOL     OW27208   2.306   0.857  12.266  0.4471 -0.1925 -0.2786
 5250SOL    HW127209   2.349   0.875  12.349 -2.8688 -0.4952  1.4952
 5250SOL    HW227210   2.236   0.795  12.287  1.2918 -0.8405  0.6745
 5251SOL     OW27211   0.027   0.716   1.840  0.4425 -0.8529 -0.3955
 5251SOL    HW127212   0.108   0.671   1.863  0.6139 -0.3346  0.0048
 5251SOL    HW227213   4.718   0.660   1.770 -1.1523  0.9959 -1.1245
 5252SOL     OW27214   3.847   1.032   4.597  0.8202 -0.6056  0.0093
 5252SOL    HW127215   3.815   1.117   4.565 -0.2885 -0.6532  0.9795
 5252SOL    HW227216   3.780   0.967   4.577 -0.0851 -0.2602  1.8838
 5253SOL     OW27217   0.747   0.751   3.013  0.1486  0.4712  0.1047
 5253SOL    HW127218   0.724   0.659   3.028 -0.4278  0.2903 -1.8939
 5253SOL    HW227219   0.840   0.750   2.990 -0.1770 -3.8182 -0.9963
 5254SOL     OW27220   2.222   0.550   4.953 -0.0811  0.4970 -0.3720
 5254SOL    HW127221   2.216   0.627   4.897  1.9014 -0.4927 -1.9196
 5254SOL    HW227222   2.313   0.543   4.982  0.0104  1.1454 -0.5063
 5255SOL     OW27223   3.028   1.492   5.748  0.1771  0.5760 -0.5825
 5255SOL    HW127224   2.935   1.473   5.739  0.1517  0.1795  0.4578
 5255SOL    HW227225   3.064   1.406   5.770 -1.7006  0.0851  0.5884
 5256SOL     OW27226   1.225   2.229   3.839  0.3205 -0.7235 -0.3951
 5256SOL    HW127227   1.171   2.307   3.828  0.2635 -0.5547  0.9883
 5256SOL    HW227228   1.195   2.220   3.930  1.4481  1.6420  0.2076
 5257SOL     OW27229   2.486   4.023   7.855 -0.1599 -0.0887  0.0772
 5257SOL    HW127230   2.521   4.000   7.769  4.0977  1.7989  1.3308
 5257SOL    HW227231   2.457   3.936   7.885 -0.1115  0.6872  2.3569
 5258SOL     OW27232   2.716   4.707  11.903 -0.1114  0.7342 -0.0023
 5258SOL    HW127233   2.679   4.722  11.990 -0.1345  1.5593 -0.1566
 5258SOL    HW227234   2.806   4.681  11.921 -0.2212 -0.6406 -1.3901
 5259SOL     OW27235   3.604   4.181  10.023  0.1900  0.1143  0.0269
 5259SOL    HW127236   3.645   4.231  10.095 -1.9825  0.7234  0.8244
 5259SOL    HW227237   3.520   4.192  10.067  0.1754 -1.3842  0.3635
 5260SOL     OW27238   0.593   1.298  10.076  0.3913 -0.0486 -0.5434
 5260SOL    HW127239   0.636   1.268   9.996  0.4413 -0.8947 -0.1965
 5260SOL    HW227240   0.503   1.314  10.045  0.8885 -1.5458 -2.7562
 5261SOL     OW27241   2.427   0.353   4.196  0.4038  0.3022  0.0573
 5261SOL    HW127242   2.378   0.412   4.139  1.8930  1.5514  0.0941
 5261SOL    HW227243   2.415   0.406   4.275 -3.6338 -1.9224  0.9806
 5262SOL     OW27244   2.952   2.686   4.549  0.2608 -0.2554  0.0797
 5262SOL    HW127245   2.967   2.696   4.643 -0.4847  0.5000  0.1140
 5262SOL    HW227246   3.038   2.663   4.513  0.1980  0.6699 -0.6310
 5263SOL     OW27247   3.514   0.866  12.352 -0.4502 -0.3356 -0.0888
 5263SOL    HW127248   3.596   0.906  12.380 -1.3881  2.0474 -0.6890
 5263SOL    HW227249   3.510   0.782  12.398 -1.1227 -0.3273 -0.1241
 5264SOL     OW27250   2.158   1.109   5.277  0.1536  0.1966 -0.0535
 5264SOL    HW127251   2.182   1.150   5.194 -1.5744 -1.8042 -1.5372
 5264SOL    HW227252   2.109   1.180   5.318  1.7233  0.6690  0.9887
 5265SOL     OW27253   0.101   4.398   0.401 -0.1935 -0.0457 -0.2046
 5265SOL    HW127254   0.043   4.323   0.390  0.3751 -0.7417  1.5450
 5265SOL    HW227255   0.065   4.460   0.337  0.7477 -0.0087 -0.6948
 5266SOL     OW27256   0.818   4.037  10.081  0.1959  0.3289 -0.1612
 5266SOL    HW127257   0.743   4.091  10.104  0.9381  0.1914  2.5821
 5266SOL    HW227258   0.770   3.959  10.054 -0.1619  0.3398  0.4512
 5267SOL     OW27259   4.130   0.133   7.706  0.7065  0.7773 -0.2317
 5267SOL    HW127260   4.151   0.202   7.769  0.0626  0.3277  0.4755
 5267SOL    HW227261   4.112   0.052   7.754  0.6421  1.4779  0.9106
 5268SOL     OW27262   0.697   0.636   2.635 -0.0092  0.0915  0.1374
 5268SOL    HW127263   0.756   0.684   2.576 -0.6660  0.9274  0.1599
 5268SOL    HW227264   0.616   0.686   2.634 -0.1321 -0.1128 -1.0782
 5269SOL     OW27265   3.183   4.366   8.551  0.6590 -0.2792 -0.0569
 5269SOL    HW127266   3.183   4.282   8.505 -0.8840 -0.1842 -0.2373
 5269SOL    HW227267   3.268   4.399   8.523  1.0048 -0.6439  0.5527
 5270SOL     OW27268   1.082   0.283  10.455 -0.7750 -0.0346  0.9820
 5270SOL    HW127269   1.152   0.221  10.473  0.8977  1.5338 -0.0876
 5270SOL    HW227270   1.115   0.304  10.367  1.0039  0.7832  1.8557
 5271SOL     OW27271   1.453   1.401   7.444  0.6717  0.1393 -0.2563
 5271SOL    HW127272   1.368   1.357   7.448  0.3034  0.9677  1.2338
 5271SOL    HW227273   1.477   1.377   7.355 -2.4726 -0.3545 -0.9660
 5272SOL     OW27274   1.088   1.300  15.864 -0.9182 -0.2666  0.1371
 5272SOL    HW127275   1.001   1.259  15.858 -1.1691 -0.2026  2.9037
 5272SOL    HW227276   1.095   1.330  15.774 -1.5056 -0.8354 -0.1026
 5273SOL     OW27277   4.398   3.112  10.560  0.0841  0.5888  0.1891
 5273SOL    HW127278   4.363   3.190  10.515 -2.1115 -1.9840 -2.6167
 5273SOL    HW227279   4.489   3.135  10.576 -0.2925  1.4989  1.0454
 5274SOL     OW27280   1.645   1.671   3.182 -0.0162  0.1823 -0.6023
 5274SOL    HW127281   1.685   1.594   3.224 -0.9423  0.4556  0.8165
 5274SOL    HW227282   1.559   1.641   3.151 -0.4595 -0.2070  0.9815
 5275SOL     OW27283   0.079   0.408   5.284 -0.0837 -0.5711 -0.1676
 5275SOL    HW127284   0.167   0.402   5.323  1.0843  0.9358 -2.5625
 5275SOL    HW227285   0.077   0.499   5.254 -0.9535 -1.2830 -2.2612
 5276SOL     OW27286   4.435   2.623  10.889 -0.2297 -0.1795 -0.0245
 5276SOL    HW127287   4.443   2.706  10.936  2.7475 -1.9576  2.6716
 5276SOL    HW227288   4.499   2.626  10.818 -1.2647  0.4996 -0.9153
 5277SOL     OW27289   3.491   4.353   4.163 -0.5279  0.3432  0.2077
 5277SOL    HW127290   3.470   4.366   4.071  1.1449  3.1550  0.2317
 5277SOL    HW227291   3.584   4.376   4.161 -0.2995 -0.4795  1.1222
 5278SOL     OW27292   0.999   1.232   3.745 -0.5966 -0.0644 -0.1586
 5278SOL    HW127293   1.048   1.184   3.812 -0.7689 -0.8861 -0.6208
 5278SOL    HW227294   1.042   1.210   3.663  2.2712 -0.2675  1.4153
 5279SOL     OW27295   1.648   1.596   6.356 -0.3698 -0.7066 -0.4433
 5279SOL    HW127296   1.731   1.549   6.361  0.2791  0.2559 -2.2891
 5279SOL    HW227297   1.591   1.533   6.401 -1.7408  0.4558 -0.5635
 5280SOL     OW27298   3.757   0.679  17.386  0.0469 -0.0891  0.0739
 5280SOL    HW127299   3.844   0.717  17.383 -0.1111  0.2770  0.1391
 5280SOL    HW227300   3.741   0.685  17.481  0.3789  2.8020 -0.0533
 5281SOL     OW27301   0.316   3.116   6.411 -0.3107 -0.2297 -0.0461
 5281SOL    HW127302   0.309   3.034   6.461  1.7363 -1.5144 -1.8205
 5281SOL    HW227303   0.381   3.095   6.344 -0.5144 -0.3350 -0.2110
 5282SOL     OW27304   0.968   3.725   6.668 -0.4745 -0.1963  0.4736
 5282SOL    HW127305   0.917   3.804   6.645  1.0194  1.3146  2.3841
 5282SOL    HW227306   0.904   3.672   6.716 -0.8162  0.4151  0.6948
 5283SOL     OW27307   1.034   1.415  16.102 -0.4828 -0.8791 -0.0712
 5283SOL    HW127308   1.057   1.380  16.016  2.4654 -0.2045  0.4280
 5283SOL    HW227309   1.118   1.396  16.143 -1.2897 -1.4431  1.3127
 5284SOL     OW27310   2.884   4.165   6.092 -0.2176 -0.2293  0.3501
 5284SOL    HW127311   2.836   4.211   6.023  1.0508 -0.4913 -0.6924
 5284SOL    HW227312   2.837   4.084   6.113 -3.3078  1.7499  1.0424
 5285SOL     OW27313   4.017   0.429   2.102  0.2252 -0.5253  0.2334
 5285SOL    HW127314   4.007   0.510   2.152  0.9730  0.3275 -0.9685
 5285SOL    HW227315   3.989   0.464   2.017  2.7089  0.1281 -0.3310
 5286SOL     OW27316   4.057   0.687  16.804  0.3263 -0.2145  0.1966
 5286SOL    HW127317   4.029   0.779  16.804 -2.2306 -0.9776 -1.3454
 5286SOL    HW227318   4.025   0.658  16.718 -0.0472 -1.4569  0.7523
 5287SOL     OW27319   2.761   0.488  13.312 -0.7343  0.2324 -0.4500
 5287SOL    HW127320   2.768   0.565  13.368  1.0990  0.8947 -1.5846
 5287SOL    HW227321   2.668   0.468  13.326 -0.3532 -2.1421 -1.3343
 5288SOL     OW27322   0.847   2.491   7.951  0.0966  0.2759  0.2380
 5288SOL    HW127323   0.846   2.557   8.020 -0.4101  0.3075  0.2010
 5288SOL    HW227324   0.875   2.542   7.875 -3.4170  0.6910 -0.7573
 5289SOL     OW27325   4.706   3.509   2.724 -0.5809  0.1863  0.4096
 5289SOL    HW127326   4.629   3.517   2.667 -0.8862  0.0155  0.7983
 5289SOL    HW227327   0.003   3.418   2.704  0.2944  0.6331 -0.7001
 5290SOL     OW27328   0.844   4.118   5.695 -0.1388 -0.1317  0.1463
 5290SOL    HW127329   0.870   4.078   5.612 -2.0109 -0.1903 -0.4212
 5290SOL    HW227330   0.749   4.115   5.684 -0.1035  2.0656 -0.8247
 5291SOL     OW27331   3.952   1.117   4.198  0.5629 -0.2938 -0.4595
 5291SOL    HW127332   3.905   1.046   4.242 -2.2756  0.8056 -1.7412
 5291SOL    HW227333   4.017   1.062   4.153  1.4256  0.3502 -0.0187
 5292SOL     OW27334   3.845   4.695  15.519  0.3534  0.4112 -0.5915
 5292SOL    HW127335   3.881   0.039  15.462 -0.9453  1.6704  0.0723
 5292SOL    HW227336   3.846   0.006  15.608  0.7919 -0.6952 -0.1753
 5293SOL     OW27337   1.702   0.074   9.102 -0.0620  0.3213 -0.2234
 5293SOL    HW127338   1.731   0.000   9.049  0.3029  0.3786 -0.1067
 5293SOL    HW227339   1.785   0.120   9.115 -0.5565  0.5760  2.0717
 5294SOL     OW27340   1.873   0.448   2.237  0.5330  0.1721  0.1041
 5294SOL    HW127341   1.951   0.447   2.182 -0.7805  0.5881 -1.7509
 5294SOL    HW227342   1.835   0.361   2.221  0.0574  0.5211 -0.6242
 5295SOL     OW27343   4.083   2.050   3.522  0.1926  0.0245 -0.1745
 5295SOL    HW127344   4.009   1.990   3.530  0.5151 -0.5899 -1.8089
 5295SOL    HW227345   4.039   2.129   3.555 -0.1039 -0.4190  0.5004
 5296SOL     OW27346   2.038   2.018   2.902 -0.3797  0.4867 -0.1991
 5296SOL    HW127347   1.968   1.962   2.870  0.3322  0.3899 -1.5928
 5296SOL    HW227348   1.992   2.089   2.947 -1.2306  0.9873 -1.8704
 5297SOL     OW27349   4.598   1.730  10.993  0.4550 -0.0816  0.3843
 5297SOL    HW127350   4.610   1.638  10.970 -1.2675  0.7456 -3.7922
 5297SOL    HW227351   4.689   1.754  10.977  0.0509  0.3189 -1.2726
 5298SOL     OW27352   2.548   3.186   4.802 -0.4472 -0.0317 -0.0688
 5298SOL    HW127353   2.480   3.196   4.736 -0.1576  1.7047 -0.1051
 5298SOL    HW227354   2.625   3.207   4.749 -0.4794 -0.0962 -0.1415
 5299SOL     OW27355   0.424   2.421   7.578  0.5701 -0.3579  0.8268
 5299SOL    HW127356   0.446   2.341   7.627 -0.1005  0.2595  2.1266
 5299SOL    HW227357   0.443   2.483   7.648 -2.6550 -1.1287  2.3774
 5300SOL     OW27358   0.300   0.808   9.231  0.0119 -0.3339 -0.0926
 5300SOL    HW127359   0.341   0.758   9.160  0.9048 -2.2071  1.7330
 5300SOL    HW227360   0.366   0.806   9.300  2.2915  0.0502 -2.2755
 5301SOL     OW27361   0.402   2.901   3.297  0.5453 -0.3630 -0.1416
 5301SOL    HW127362   0.367   2.849   3.224 -2.1928  1.8637 -0.3841
 5301SOL    HW227363   0.336   2.873   3.361 -0.9727 -0.9515 -1.9543
 5302SOL     OW27364   1.616   1.187   5.863  0.6024  0.7857 -0.3733
 5302SOL    HW127365   1.647   1.152   5.780  1.0771  0.2258  0.0401
 5302SOL    HW227366   1.628   1.116   5.927 -1.0750  0.5275 -0.3565
 5303SOL     OW27367   1.998   0.389   3.619 -0.1943  0.1181  0.2185
 5303SOL    HW127368   1.931   0.396   3.551  0.4030 -1.2920 -0.5415
 5303SOL    HW227369   1.941   0.356   3.688 -0.0915  1.8817  1.1342
 5304SOL     OW27370   0.276   0.791   8.810  0.1118  0.2590 -0.1063
 5304SOL    HW127371   0.341   0.861   8.810  1.3835 -0.9283 -0.8872
 5304SOL    HW227372   0.212   0.832   8.868 -0.7746  1.6509 -2.0945
 5305SOL     OW27373   4.595   4.298   3.173 -0.1019 -0.3252  0.1213
 5305SOL    HW127374   4.618   4.266   3.261 -0.3312 -1.0035 -0.0672
 5305SOL    HW227375   4.685   4.311   3.144  0.0602 -3.2346 -0.6584
 5306SOL     OW27376   1.022   3.550   3.249  0.0424 -0.1310  0.3806
 5306SOL    HW127377   0.935   3.556   3.288 -0.5264 -1.5099 -0.6828
 5306SOL    HW227378   1.005   3.495   3.173  1.9950  0.3972 -0.4386
 5307SOL     OW27379   2.138   3.565   8.121 -0.0924 -0.3838 -0.9930
 5307SOL    HW127380   2.198   3.501   8.158 -0.9721 -0.2507  0.6440
 5307SOL    HW227381   2.139   3.628   8.193  2.1323  1.1154 -2.3438
 5308SOL     OW27382   4.482   0.948   6.121  0.3382 -0.8043 -0.3426
 5308SOL    HW127383   4.419   0.918   6.056 -0.8292  2.1443 -0.5888
 5308SOL    HW227384   4.492   0.870   6.175  3.2163  0.2497  0.6410
 5309SOL     OW27385   2.441   1.521   7.613 -0.5794  0.7407  0.1077
 5309SOL    HW127386   2.398   1.603   7.588 -0.8187  1.1970  1.9734
 5309SOL    HW227387   2.365   1.466   7.635  0.1851  0.6800  2.5919
 5310SOL     OW27388   0.933   3.160   8.466  0.5198  0.8763  0.4900
 5310SOL    HW127389   0.856   3.129   8.514  0.5882  1.9714  1.3050
 5310SOL    HW227390   0.890   3.201   8.391 -2.5385  0.5043  2.0044
 5311SOL     OW27391   1.381   2.236   6.111  0.1062 -0.6408  0.7033
 5311SOL    HW127392   1.457   2.293   6.102  2.3284 -3.5367  1.0051
 5311SOL    HW227393   1.322   2.286   6.168 -0.2030 -0.0562 -0.1337
 5312SOL     OW27394   3.181   1.982   4.527  0.2083  0.7424 -0.7633
 5312SOL    HW127395   3.266   1.956   4.562  0.0949  0.5040 -0.6678
 5312SOL    HW227396   3.183   1.944   4.439  1.0221 -2.0220  0.4590
 5313SOL     OW27397   0.563   2.285   1.030  0.0563  0.0237  0.1665
 5313SOL    HW127398   0.556   2.252   1.119  0.0856 -2.0689 -0.6187
 5313SOL    HW227399   0.537   2.377   1.042 -1.6678 -0.3965 -0.3336
 5314SOL     OW27400   1.151   3.135   5.428 -0.4004  0.1912  0.1573
 5314SOL    HW127401   1.080   3.146   5.364 -1.9291  0.0332  1.8169
 5314SOL    HW227402   1.196   3.218   5.412  0.2187 -0.4765 -1.4916
 5315SOL     OW27403   3.689   1.710  13.369  0.3642  0.2265  0.5528
 5315SOL    HW127404   3.710   1.621  13.341  3.5860  1.9932 -2.7078
 5315SOL    HW227405   3.660   1.692  13.458  0.4333 -2.7601 -0.0402
 5316SOL     OW27406   1.146   3.962   7.391  0.3179  0.1429  0.2857
 5316SOL    HW127407   1.239   3.940   7.383  0.3023 -1.1565  3.8635
 5316SOL    HW227408   1.138   4.036   7.331 -1.4390 -0.3905 -0.1317
 5317SOL     OW27409   1.784   0.017   2.281  0.1868  0.5326  0.0915
 5317SOL    HW127410   1.693   0.010   2.254  0.4093  0.6352 -0.6897
 5317SOL    HW227411   1.805   4.647   2.284 -0.2429  0.4673  1.1261
 5318SOL     OW27412   0.932   1.031   8.723 -0.3140 -0.4016  0.0963
 5318SOL    HW127413   0.984   1.012   8.801  0.0960  0.4642  0.0383
 5318SOL    HW227414   0.929   1.127   8.714 -0.5509 -0.2989  1.3835
 5319SOL     OW27415   3.484   2.772   7.519 -0.1305 -0.1749 -0.7353
 5319SOL    HW127416   3.398   2.812   7.503 -0.0266  0.0105 -0.8250
 5319SOL    HW227417   3.509   2.763   7.427 -0.4237  0.7752 -0.9121
 5320SOL     OW27418   3.419   0.087   9.995  0.5220 -0.0459  0.3431
 5320SOL    HW127419   3.440   0.129   9.911  0.4692 -1.9387 -0.6219
 5320SOL    HW227420   3.501   0.046  10.022  1.1663 -0.6384 -2.5312
 5321SOL     OW27421   3.380   2.299   5.721 -0.4628  0.1109  0.4317
 5321SOL    HW127422   3.457   2.339   5.682  0.8438 -1.2563  1.5905
 5321SOL    HW227423   3.425   2.234   5.776  0.5349 -0.5202 -1.1430
 5322SOL     OW27424   2.286   3.717   2.269  0.4997 -0.1421  0.2292
 5322SOL    HW127425   2.381   3.716   2.256  0.2793  0.6240 -1.4023
 5322SOL    HW227426   2.282   3.628   2.305 -3.4706 -0.3285 -0.7264
 5323SOL     OW27427   3.064   2.697   1.999  0.3356 -0.8284 -0.0368
 5323SOL    HW127428   3.015   2.693   1.917 -1.1614  0.5338  0.7925
 5323SOL    HW227429   3.129   2.626   1.996 -0.2957 -1.3376 -1.5042
 5324SOL     OW27430   3.699   3.563   8.608 -0.1811  0.2288  0.0258
 5324SOL    HW127431   3.661   3.476   8.615  1.6315 -0.6829 -1.6570
 5324SOL    HW227432   3.746   3.557   8.691 -0.6210 -2.7235  0.0635
 5325SOL     OW27433   3.007   2.694   4.112  0.0788  0.9660 -0.4104
 5325SOL    HW127434   2.967   2.609   4.133  0.4492  1.4033  2.1209
 5325SOL    HW227435   3.027   2.685   4.019 -0.6248  2.2063 -0.6847
 5326SOL     OW27436   2.888   0.231   7.174  0.1373  0.5097 -0.1531
 5326SOL    HW127437   2.857   0.180   7.099  1.0202  1.0875 -0.9115
 5326SOL    HW227438   2.831   0.194   7.241  0.5561 -1.9357 -1.1548
 5327SOL     OW27439   1.068   2.876  13.418  0.2326 -0.5567 -0.2674
 5327SOL    HW127440   1.156   2.900  13.446  0.2605  1.6548 -2.2290
 5327SOL    HW227441   1.062   2.918  13.332  1.7495  1.5732  0.6652
 5328SOL     OW27442   2.336   1.583   7.116  0.0358  0.0697  0.4399
 5328SOL    HW127443   2.303   1.602   7.203 -0.7328  2.5776 -0.3956
 5328SOL    HW227444   2.419   1.537   7.126  0.7213  1.1418 -0.1854
 5329SOL     OW27445   4.191   0.459   4.172  0.2056  0.4553  0.6224
 5329SOL    HW127446   4.243   0.428   4.247  1.6017  0.2578 -0.4229
 5329SOL    HW227447   4.258   0.515   4.133 -1.2290  1.0271 -1.0645
 5330SOL     OW27448   0.038   3.181   5.724 -0.0200 -0.3218 -1.0503
 5330SOL    HW127449   0.106   3.133   5.773 -1.8616 -0.1254  1.7331
 5330SOL    HW227450   0.074   3.173   5.636 -0.6933 -0.1407 -1.3337
 5331SOL     OW27451   1.868   3.303  13.899  0.2312 -0.3194  0.0914
 5331SOL    HW127452   1.818   3.234  13.942  0.2878  0.3333  1.2150
 5331SOL    HW227453   1.944   3.311  13.957 -1.5905  0.5339  2.3445
 5332SOL     OW27454   4.507   1.567   0.583 -0.4624 -0.3980 -0.1811
 5332SOL    HW127455   4.424   1.527   0.606  0.4976 -1.5813  1.2142
 5332SOL    HW227456   4.477   1.632   0.519 -2.0687  0.4111  1.4059
 5333SOL     OW27457   3.543   3.576   9.607  0.4016  0.1460 -0.1310
 5333SOL    HW127458   3.512   3.635   9.539 -1.0288 -2.1062 -1.4152
 5333SOL    HW227459   3.626   3.616   9.636  0.5722 -1.3239  1.4250
 5334SOL     OW27460   1.770   1.464  14.944 -0.1404 -0.5841 -0.3186
 5334SOL    HW127461   1.843   1.409  14.917 -0.3219  0.4700 -2.9839
 5334SOL    HW227462   1.731   1.463  14.857 -2.1420  1.9213  0.5415
 5335SOL     OW27463   1.646   1.682   8.270  0.1218  0.0047  0.2713
 5335SOL    HW127464   1.676   1.719   8.353 -0.7438  1.7597 -0.2184
 5335SOL    HW227465   1.652   1.760   8.215  1.0902  0.1793  0.6107
 5336SOL     OW27466   0.456   2.026   5.830 -0.0166 -0.3666 -0.5604
 5336SOL    HW127467   0.415   1.941   5.815 -0.1858  0.0824 -2.5778
 5336SOL    HW227468   0.534   2.018   5.776  0.1832  1.0810 -0.4998
 5337SOL     OW27469   4.471   3.695   7.172 -0.1032 -0.0318  0.8529
 5337SOL    HW127470   4.479   3.681   7.077 -0.6007 -1.0041  0.9607
 5337SOL    HW227471   4.495   3.612   7.213  1.0216 -0.0424  0.1693
 5338SOL     OW27472   4.708   0.053   3.704  0.1391  0.2080 -0.5581
 5338SOL    HW127473   0.063   4.722   3.709 -0.0660  0.0916  1.4516
 5338SOL    HW227474   4.634   4.719   3.721 -1.2016  1.9653 -0.4573
 5339SOL     OW27475   4.269   1.889   2.806  0.1040 -0.1083 -0.2712
 5339SOL    HW127476   4.212   1.815   2.786  0.7287 -0.1842 -1.7364
 5339SOL    HW227477   4.344   1.844   2.845 -0.7030  0.7265  2.2807
 5340SOL     OW27478   0.390   1.403   3.655  0.3003  0.6510  0.3991
 5340SOL    HW127479   0.466   1.390   3.712 -1.0635 -0.8928  1.8850
 5340SOL    HW227480   0.358   1.313   3.645  0.1471  0.8236 -0.5818
 5341SOL     OW27481   1.860   3.420  14.221 -0.1542  0.5289 -0.0030
 5341SOL    HW127482   1.832   3.331  14.200  1.7754  0.1639 -1.0718
 5341SOL    HW227483   1.790   3.473  14.183 -0.7888 -1.2178 -1.2569
 5342SOL     OW27484   2.732   3.822   6.504 -0.4039  0.7537  0.0769
 5342SOL    HW127485   2.679   3.761   6.557  1.6908 -0.4135  0.8431
 5342SOL    HW227486   2.744   3.900   6.558 -0.7871  0.1030  1.1077
 5343SOL     OW27487   0.263   1.105   9.595 -0.3130 -0.4320 -0.0205
 5343SOL    HW127488   0.305   1.073   9.516 -0.1332 -0.5032  0.1034
 5343SOL    HW227489   0.293   1.033   9.651  0.7479 -1.2708 -1.6847
 5344SOL     OW27490   0.864   0.384   7.545 -0.3384 -0.3103 -0.0277
 5344SOL    HW127491   0.778   0.422   7.566 -0.1272  0.5502 -0.7077
 5344SOL    HW227492   0.831   0.311   7.493 -0.7721  0.7354 -1.2173
 5345SOL     OW27493   1.591   3.468   7.406 -0.0155 -0.1963 -0.0216
 5345SOL    HW127494   1.618   3.464   7.314 -1.5396  0.5711 -0.5086
 5345SOL    HW227495   1.594   3.373   7.420  0.3943 -0.2467 -0.4333
 5346SOL     OW27496   3.294   1.509  10.333  0.1541 -0.1575 -0.2363
 5346SOL    HW127497   3.360   1.445  10.361 -0.8147 -0.3897  1.5029
 5346SOL    HW227498   3.218   1.487  10.387  0.4886 -0.0323  0.2860
 5347SOL     OW27499   3.149   2.660   3.828 -0.2086 -0.0326  0.0078
 5347SOL    HW127500   3.212   2.588   3.836  0.4785  0.3243 -2.2665
 5347SOL    HW227501   3.076   2.609   3.795 -0.1302 -0.8889  1.1295
 5348SOL     OW27502   2.024   0.960   7.956  0.2302 -0.1906 -0.4515
 5348SOL    HW127503   2.000   0.901   8.027 -0.3953 -0.1763 -0.6564
 5348SOL    HW227504   1.956   1.027   7.964  2.1745  1.8944 -1.2826
 5349SOL     OW27505   3.084   3.151  13.674  0.1717 -0.0759 -0.7146
 5349SOL    HW127506   3.055   3.061  13.663 -0.5614 -0.0664  1.1413
 5349SOL    HW227507   3.123   3.165  13.761 -0.0158 -2.5423 -0.2193
 5350SOL     OW27508   2.802   2.946   0.105  0.1311  0.1424 -0.0941
 5350SOL    HW127509   2.797   2.916   0.196  0.4096  0.7629  0.1249
 5350SOL    HW227510   2.863   3.019   0.120  0.3783  0.0533 -0.6668
 5351SOL     OW27511   4.454   4.091  11.436  0.4991 -0.0485 -0.5775
 5351SOL    HW127512   4.547   4.096  11.458  0.5413 -2.0636 -0.2585
 5351SOL    HW227513   4.427   4.182  11.441 -3.4106 -1.3108  1.8822
 5352SOL     OW27514   0.463   2.773   7.956 -0.6566 -0.8115 -0.2081
 5352SOL    HW127515   0.454   2.711   7.883 -0.4184 -1.5594  0.3969
 5352SOL    HW227516   0.559   2.780   7.959 -0.6447 -1.1541  0.2699
 5353SOL     OW27517   4.058   1.718   8.600  0.6424  0.5838  0.2744
 5353SOL    HW127518   3.990   1.726   8.533  1.5965  1.1456 -0.6392
 5353SOL    HW227519   4.062   1.622   8.597 -0.9473  0.5285  0.2989
 5354SOL     OW27520   0.055   0.676   5.205  0.4455  0.8848 -0.0868
 5354SOL    HW127521   4.694   0.720   5.217  0.3015  0.4920  0.3276
 5354SOL    HW227522   0.062   0.689   5.110  0.4193  1.4051 -0.0170
 5355SOL     OW27523   1.845   2.293   3.760 -0.4102  0.1621  0.3304
 5355SOL    HW127524   1.828   2.380   3.722  1.6589 -0.0299 -1.0600
 5355SOL    HW227525   1.877   2.308   3.849  1.9195  1.2542 -0.6952
 5356SOL     OW27526   0.580   1.817  17.476  0.3635  0.4513 -0.4351
 5356SOL    HW127527   0.503   1.838  17.528 -0.8140  0.6317 -2.2654
 5356SOL    HW227528   0.540   1.740  17.437 -0.4371 -0.3108  1.9115
 5357SOL     OW27529   1.082   1.688   0.954 -0.0469  0.0920 -0.2080
 5357SOL    HW127530   1.091   1.728   0.868 -4.5542 -1.4220 -1.3603
 5357SOL    HW227531   1.094   1.765   1.011  4.1802 -0.3012 -0.6369
 5358SOL     OW27532   2.989   4.135   4.356  0.0303 -0.4243 -0.4224
 5358SOL    HW127533   2.942   4.218   4.358 -1.5468 -1.3816  2.0202
 5358SOL    HW227534   3.080   4.158   4.378 -0.6564  4.0853 -2.3134
 5359SOL     OW27535   2.595   4.268   3.108  0.3855  0.1020 -0.0821
 5359SOL    HW127536   2.607   4.354   3.067 -0.4165  0.6747  0.8859
 5359SOL    HW227537   2.661   4.280   3.177 -0.2145 -1.2514  0.7270
 5360SOL     OW27538   4.595   2.346   9.014 -0.2236  0.0712  0.6165
 5360SOL    HW127539   4.672   2.307   9.056 -0.5681 -1.7242 -0.4162
 5360SOL    HW227540   4.641   2.421   8.976 -0.6943 -0.4889 -1.0179
 5361SOL     OW27541   2.620   3.948  11.725  0.1581 -0.4512 -0.0732
 5361SOL    HW127542   2.713   3.946  11.704 -0.1269 -1.1448 -1.2762
 5361SOL    HW227543   2.624   3.961  11.820 -2.3832  1.2569 -0.2038
 5362SOL     OW27544   3.793   2.920   5.175 -0.1612 -0.2328 -0.0187
 5362SOL    HW127545   3.785   2.824   5.178  1.5207 -0.2903  2.5476
 5362SOL    HW227546   3.886   2.929   5.193 -0.6047  0.5030  1.9308
 5363SOL     OW27547   0.814   3.945   8.658 -0.0487  0.3268  0.4278
 5363SOL    HW127548   0.884   3.958   8.594 -0.1189  0.0423  0.2939
 5363SOL    HW227549   0.864   3.953   8.739 -0.4606  0.0307  0.7138
 5364SOL     OW27550   0.820   4.430   0.613  0.0036 -0.2484 -0.6213
 5364SOL    HW127551   0.770   4.440   0.532  0.9092 -1.0162 -1.2712
 5364SOL    HW227552   0.887   4.497   0.598 -1.1474  0.4439 -2.6644
 5365SOL     OW27553   3.601   2.419  17.017 -0.2214  0.2665 -0.1439
 5365SOL    HW127554   3.656   2.352  17.057  1.1214  0.9137 -0.9170
 5365SOL    HW227555   3.564   2.464  17.093  0.9732 -0.0896  0.6431
 5366SOL     OW27556   2.028   4.197   8.726 -0.0087 -0.2833 -0.8413
 5366SOL    HW127557   2.000   4.158   8.808  1.3369 -0.6188 -0.5352
 5366SOL    HW227558   1.956   4.156   8.678 -0.5420  0.1059 -0.3621
 5367SOL     OW27559   0.222   2.385  12.001 -0.4230  0.5064  0.1776
 5367SOL    HW127560   0.237   2.475  11.974  1.5786  0.2699  0.4851
 5367SOL    HW227561   0.140   2.363  11.957 -0.0339 -0.4769 -0.0640
 5368SOL     OW27562   3.642   3.607   3.509  0.3104  0.2628 -0.0430
 5368SOL    HW127563   3.566   3.550   3.503  0.6576 -0.1731 -0.3790
 5368SOL    HW227564   3.716   3.546   3.505  1.8155  2.1114 -0.2904
 5369SOL     OW27565   4.173   0.859   8.975  0.3572  0.2495  0.1719
 5369SOL    HW127566   4.207   0.947   8.962  2.1325 -0.0488  2.6685
 5369SOL    HW227567   4.241   0.797   8.948 -1.8673 -2.4629  0.6904
 5370SOL     OW27568   2.462   3.383  14.339  0.0869  0.5493  0.0880
 5370SOL    HW127569   2.403   3.458  14.326  1.5305  1.6226 -0.2360
 5370SOL    HW227570   2.439   3.352  14.426 -1.9641  1.0004 -0.2806
 5371SOL     OW27571   0.841   2.169   0.163 -0.3323 -0.2764  0.3652
 5371SOL    HW127572   0.805   2.129   0.084 -0.5283  0.3964  0.1157
 5371SOL    HW227573   0.934   2.150   0.149 -0.6457 -2.4455  1.2037
 5372SOL     OW27574   4.008   1.379   4.214  0.2541  0.1707  0.2128
 5372SOL    HW127575   3.997   1.286   4.196  0.3581 -0.1173  1.7009
 5372SOL    HW227576   4.057   1.370   4.296 -0.5403  0.0207  0.6651
 5373SOL     OW27577   4.480   2.620   4.733  0.3870  0.0342 -0.2723
 5373SOL    HW127578   4.449   2.660   4.652  0.0349  0.2833 -0.0106
 5373SOL    HW227579   4.401   2.580   4.769 -0.4064  2.0380  0.2369
 5374SOL     OW27580   1.368   0.913   3.956 -0.8099 -0.0936  0.8548
 5374SOL    HW127581   1.455   0.930   3.991  0.9988 -1.8179 -2.8642
 5374SOL    HW227582   1.365   0.817   3.964 -1.5672 -0.0950  0.6203
 5375SOL     OW27583   3.383   0.088   6.793  0.4601  0.3989  0.2721
 5375SOL    HW127584   3.388   0.079   6.698 -1.5975 -0.6502  0.2766
 5375SOL    HW227585   3.400   0.182   6.802  0.6502  0.2666  1.3177
 5376SOL     OW27586   1.716   2.547   3.161 -0.1564  0.4023  0.2187
 5376SOL    HW127587   1.794   2.537   3.217  0.5475 -0.3445 -0.8945
 5376SOL    HW227588   1.759   2.551   3.076  1.7958  1.0888  1.2320
 5377SOL     OW27589   0.646   1.396   5.083 -0.7614 -0.0797  0.0998
 5377SOL    HW127590   0.652   1.438   4.997 -2.1356  1.1857  0.6140
 5377SOL    HW227591   0.738   1.406   5.105 -0.8231 -0.8931  0.7136
 5378SOL     OW27592   4.080   2.965   5.207 -0.0439  0.2235  0.3763
 5378SOL    HW127593   4.113   2.956   5.297 -1.5953  2.0903  1.1264
 5378SOL    HW227594   4.134   3.039   5.179 -0.1838  0.8220  1.6720
 5379SOL     OW27595   3.347   1.564   6.090  0.5539  0.0177 -0.0695
 5379SOL    HW127596   3.372   1.500   6.023  0.7140  0.9260 -0.8745
 5379SOL    HW227597   3.259   1.583   6.058  0.8877  0.7882 -0.5169
 5380SOL     OW27598   1.737   1.634   7.433  0.6028 -0.0569 -0.7126
 5380SOL    HW127599   1.785   1.564   7.478  1.5697 -1.1325 -3.4369
 5380SOL    HW227600   1.744   1.705   7.497 -1.5743 -0.5409  0.0980
 5381SOL     OW27601   0.935   0.763   0.122 -0.6772  0.1092 -0.4862
 5381SOL    HW127602   0.954   0.716   0.203 -1.5040 -2.1954 -1.6159
 5381SOL    HW227603   0.923   0.854   0.148  3.0649  0.1024  1.1706
 5382SOL     OW27604   1.117   1.013   3.137 -0.1225 -0.2158 -0.3674
 5382SOL    HW127605   1.108   0.928   3.095  0.0662 -1.2141  1.5982
 5382SOL    HW227606   1.059   1.004   3.212  0.5853  0.2143  0.2355
 5383SOL     OW27607   0.942   2.217   3.138  0.1056 -0.3250 -0.1153
 5383SOL    HW127608   0.888   2.172   3.072  1.2174 -0.9867 -0.5634
 5383SOL    HW227609   0.904   2.185   3.219 -0.2886 -0.6634 -0.4334
 5384SOL     OW27610   3.551   0.591   7.993  0.3688  0.2566  0.0734
 5384SOL    HW127611   3.571   0.528   7.924 -1.2698 -2.4222  2.0240
 5384SOL    HW227612   3.599   0.565   8.072 -0.7894 -1.4020  0.2127
 5385SOL     OW27613   0.062   4.521   8.410  0.2544 -0.5723 -0.2428
 5385SOL    HW127614   0.014   4.564   8.339  0.0415 -2.6801 -1.3581
 5385SOL    HW227615   0.145   4.525   8.364 -0.3528  1.7433 -1.1779
 5386SOL     OW27616   3.267   0.392   7.606  0.5191 -0.3735 -0.4450
 5386SOL    HW127617   3.333   0.451   7.642  0.3772  0.6260 -1.8129
 5386SOL    HW227618   3.320   0.332   7.555  1.5842  1.1668 -1.1544
 5387SOL     OW27619   4.623   2.095   7.790 -0.6526 -0.7029  0.2762
 5387SOL    HW127620   4.601   2.002   7.795 -0.4403 -0.8001 -0.6378
 5387SOL    HW227621   4.686   2.099   7.862  0.0837 -1.4065 -0.3378
 5388SOL     OW27622   2.338   4.243  16.752  0.5645  0.1597  0.0751
 5388SOL    HW127623   2.429   4.270  16.761  0.6054  0.2888 -0.7036
 5388SOL    HW227624   2.289   4.300  16.692 -0.8394  0.7538  1.8093
 5389SOL     OW27625   1.338   0.806   4.287 -0.4947  0.0611  0.1361
 5389SOL    HW127626   1.311   0.892   4.319 -1.1038 -0.4103  0.8862
 5389SOL    HW227627   1.427   0.794   4.320  0.5434  1.4644 -2.1373
 5390SOL     OW27628   3.714   4.637   8.677  0.0746 -0.0202  0.1367
 5390SOL    HW127629   3.639   4.589   8.642  0.2737  0.9646 -1.6438
 5390SOL    HW227630   3.739   4.695   8.605 -1.0311 -0.9896 -1.0407
 5391SOL     OW27631   2.761   4.481   2.513 -0.0979 -0.0765  0.0421
 5391SOL    HW127632   2.842   4.451   2.554 -0.5874 -0.5440  0.6610
 5391SOL    HW227633   2.767   4.436   2.429  1.3040 -1.3623  0.8380
 5392SOL     OW27634   3.716   2.709   7.053 -0.4442  0.7748  0.8273
 5392SOL    HW127635   3.736   2.728   6.961 -3.4392  2.6109  0.5712
 5392SOL    HW227636   3.802   2.691   7.091  1.3697  1.9212 -2.6289
 5393SOL     OW27637   4.512   3.463   6.513 -0.4947  0.0002 -0.1074
 5393SOL    HW127638   4.455   3.518   6.459 -0.5306 -0.6926 -0.7885
 5393SOL    HW227639   4.594   3.469   6.465 -0.4375 -1.0847 -0.1387
 5394SOL     OW27640   2.452   1.498  13.311 -0.3566  0.6542  0.8640
 5394SOL    HW127641   2.465   1.515  13.217  0.0711 -0.5461  0.7160
 5394SOL    HW227642   2.437   1.587  13.344  0.2556  0.0653  2.7287
 5395SOL     OW27643   3.223   0.101   7.674 -0.0791  0.6077 -0.0174
 5395SOL    HW127644   3.161   0.033   7.648 -0.0019  0.2948  0.6242
 5395SOL    HW227645   3.174   0.183   7.672 -1.7777 -0.3908  1.2897
 5396SOL     OW27646   2.427   0.735   3.534 -0.4563 -0.2181 -0.0593
 5396SOL    HW127647   2.443   0.758   3.625 -2.5496  3.4877 -0.6299
 5396SOL    HW227648   2.350   0.681   3.549 -0.2857 -0.4623 -0.0756
 5397SOL     OW27649   0.354   0.369   8.389  0.1733  0.2807  0.2662
 5397SOL    HW127650   0.288   0.435   8.367  2.3396  1.5890 -2.3789
 5397SOL    HW227651   0.304   0.293   8.418  0.0150  0.3049  0.0498
 5398SOL     OW27652   4.383   0.768   4.889 -0.0903  0.2417 -0.2307
 5398SOL    HW127653   4.429   0.685   4.895 -0.6328 -0.0182  0.2594
 5398SOL    HW227654   4.311   0.733   4.837  0.8481  1.0471 -2.1035
 5399SOL     OW27655   2.146   3.092  14.215  0.0469 -0.1605 -0.6462
 5399SOL    HW127656   2.054   3.114  14.202  0.4823  2.1393  0.1920
 5399SOL    HW227657   2.153   3.115  14.308 -4.5197  0.3110 -0.4103
 5400SOL     OW27658   4.408   3.307   0.167 -0.1285 -0.1495 -0.1971
 5400SOL    HW127659   4.324   3.342   0.134 -0.9107 -0.9412  0.9650
 5400SOL    HW227660   4.422   3.245   0.095 -0.9337  0.0649 -0.5468
 5401SOL     OW27661   2.031   1.987  14.265 -0.5422  0.2266 -0.5028
 5401SOL    HW127662   1.977   2.013  14.191 -3.2390  1.4748  1.8991
 5401SOL    HW227663   2.111   2.034  14.244 -1.2012  1.7410  0.3705
 5402SOL     OW27664   1.157   2.827   8.583 -0.0476 -0.1499 -0.0910
 5402SOL    HW127665   1.069   2.840   8.617 -0.2423  1.0705 -1.0597
 5402SOL    HW227666   1.209   2.809   8.661  1.8360  0.5893 -1.1683
 5403SOL     OW27667   3.946   0.139   4.841  0.0097  0.0347 -0.4427
 5403SOL    HW127668   4.020   0.189   4.877  1.3785 -3.2231  1.2413
 5403SOL    HW227669   3.987   0.085   4.774  1.3942 -1.0114  1.2648
 5404SOL     OW27670   3.184   1.866  13.165  0.0462 -0.3668 -0.3457
 5404SOL    HW127671   3.117   1.798  13.163  0.5086 -0.8365  0.1759
 5404SOL    HW227672   3.257   1.818  13.206 -1.0569 -0.7962  1.1282
 5405SOL     OW27673   3.519   3.910   0.354  0.0169 -0.5685  0.0531
 5405SOL    HW127674   3.460   3.974   0.315 -0.3662 -0.4827  0.7639
 5405SOL    HW227675   3.519   3.838   0.291 -3.8421  1.4135 -2.2152
 5406SOL     OW27676   1.542   0.027   5.014 -0.0463 -0.1546  0.2705
 5406SOL    HW127677   1.538   0.105   4.959  0.7381  0.4042  1.0102
 5406SOL    HW227678   1.636   0.010   5.010 -0.4332 -2.4404  0.9744
 5407SOL     OW27679   2.252   1.755   5.329 -0.4264  0.4841  0.6138
 5407SOL    HW127680   2.183   1.786   5.270 -0.0295 -1.0099 -0.6303
 5407SOL    HW227681   2.226   1.801   5.409  2.8575  3.0571  0.2114
 5408SOL     OW27682   2.229   1.670   0.139 -0.3146 -0.5127 -0.4750
 5408SOL    HW127683   2.142   1.701   0.113 -0.3194 -0.3230 -0.2361
 5408SOL    HW227684   2.270   1.631   0.062  1.6295 -0.3879  0.5023
 5409SOL     OW27685   2.715   4.310   3.371  0.1371 -0.3043 -0.4612
 5409SOL    HW127686   2.776   4.239   3.393 -0.6941 -0.9692 -0.3187
 5409SOL    HW227687   2.681   4.326   3.459  0.2489 -1.2987 -0.2335
 5410SOL     OW27688   3.282   3.219   5.042  0.0948  0.5855  0.3321
 5410SOL    HW127689   3.352   3.280   5.022  0.4904 -0.7884 -2.4348
 5410SOL    HW227690   3.292   3.159   4.968 -0.8794  0.5767  0.2074
 5411SOL     OW27691   1.692   2.009   5.251  0.0177 -0.4859 -0.1495
 5411SOL    HW127692   1.602   1.979   5.245 -0.5270  0.9500  0.7670
 5411SOL    HW227693   1.712   2.057   5.170 -1.4398  0.1142 -0.1443
 5412SOL     OW27694   4.589   0.872   2.531 -0.0157  0.7070  0.6083
 5412SOL    HW127695   4.643   0.910   2.462  2.4058  1.2860  2.7856
 5412SOL    HW227696   4.509   0.924   2.540 -1.4243 -1.7982  2.5293
 5413SOL     OW27697   2.884   2.936   0.381 -0.3756  0.1529  0.1541
 5413SOL    HW127698   2.976   2.919   0.359 -0.4532 -0.7294  0.5038
 5413SOL    HW227699   2.878   2.901   0.469 -0.6421 -0.3526 -0.0618
 5414SOL     OW27700   0.900   2.164   0.461  0.2825 -0.4985  0.3159
 5414SOL    HW127701   0.854   2.080   0.468 -0.6144 -0.1604 -1.6427
 5414SOL    HW227702   0.941   2.153   0.375 -0.5925 -4.4153  0.3850
 5415SOL     OW27703   3.571   0.448   9.157  0.0006 -0.0388  0.0564
 5415SOL    HW127704   3.546   0.371   9.106 -0.6833 -0.3754  0.9044
 5415SOL    HW227705   3.515   0.513   9.114  0.0405 -0.6261 -0.8809
 5416SOL     OW27706   0.297   1.969   1.110 -0.0709 -0.1382 -0.2184
 5416SOL    HW127707   0.224   2.019   1.073  0.2920  0.4310 -0.1652
 5416SOL    HW227708   0.355   1.975   1.034 -1.4629 -1.2667 -1.3717
 5417SOL     OW27709   1.549   0.858  10.055  0.1638  0.2505 -0.6390
 5417SOL    HW127710   1.556   0.943  10.013 -1.9452  1.3216  1.1297
 5417SOL    HW227711   1.482   0.866  10.123 -1.8170 -2.7754 -2.1968
 5418SOL     OW27712   2.967   2.515   7.904  0.1811  0.0204 -0.0183
 5418SOL    HW127713   3.055   2.551   7.903 -0.3825  1.4500  1.5300
 5418SOL    HW227714   2.986   2.432   7.861  0.1871  0.0734 -0.1166
 5419SOL     OW27715   2.763   3.717  12.953  0.1996  0.5134 -0.2377
 5419SOL    HW127716   2.751   3.674  13.038  3.2863 -2.4985 -1.3462
 5419SOL    HW227717   2.784   3.642  12.898 -0.4689 -0.0055  0.2092
 5420SOL     OW27718   2.109   0.982   7.469  0.0304  0.8472  0.0421
 5420SOL    HW127719   2.037   0.955   7.525  0.6365  1.6035  1.1944
 5420SOL    HW227720   2.166   1.012   7.540  1.8838  1.4223 -1.6843
 5421SOL     OW27721   2.068   2.470   7.307  0.1373  0.0139 -0.2399
 5421SOL    HW127722   2.102   2.490   7.394 -2.0576 -1.5108  1.0037
 5421SOL    HW227723   2.120   2.392   7.286  0.5934 -0.3577  2.3406
 5422SOL     OW27724   1.710   1.534   7.892 -0.1011  0.6041 -0.6094
 5422SOL    HW127725   1.760   1.609   7.923  0.5703 -0.5666  1.1696
 5422SOL    HW227726   1.685   1.566   7.806 -3.2117  0.1347  0.1389
 5423SOL     OW27727   3.681   0.746  17.641  0.1864  0.0130  0.0121
 5423SOL    HW127728   3.605   0.775  17.691  0.2609 -0.9495  0.6926
 5423SOL    HW227729   3.758   0.737   0.000  0.2175  0.3825  0.0264
 5424SOL     OW27730   0.140   3.029   5.109 -0.0301 -0.9180 -0.3862
 5424SOL    HW127731   0.057   3.040   5.063 -0.2176  0.6377  0.3277
 5424SOL    HW227732   0.178   2.948   5.074  3.6511 -0.4326  2.5124
 5425SOL     OW27733   3.773   2.537   0.714 -0.0468 -0.5414  0.1058
 5425SOL    HW127734   3.746   2.513   0.803  0.0840  0.3132  0.3770
 5425SOL    HW227735   3.757   2.631   0.725  0.0176 -0.5033 -0.1367
 5426SOL     OW27736   3.585   2.202   5.978 -0.0034  0.4382 -0.3303
 5426SOL    HW127737   3.642   2.127   5.998 -0.4760  0.0758 -0.3431
 5426SOL    HW227738   3.527   2.184   6.052  1.4630  1.1053  0.9715
 5427SOL     OW27739   0.933   0.035  17.669  0.0705  0.1235  0.0383
 5427SOL    HW127740   1.016   0.081  17.685  1.3996 -2.1646 -0.2363
 5427SOL    HW227741   0.912   0.054  17.577  3.0250 -2.1272 -1.1159
 5428SOL     OW27742   4.484   3.265   3.284 -0.4112 -0.4166 -0.0440
 5428SOL    HW127743   4.574   3.296   3.282 -0.6454  0.2945  0.6496
 5428SOL    HW227744   4.487   3.221   3.369 -1.1835 -1.8494 -0.7571
 5429SOL     OW27745   2.582   3.434  16.572  0.1405 -0.0893  0.4317
 5429SOL    HW127746   2.627   3.387  16.502 -1.0845 -0.9642  0.2365
 5429SOL    HW227747   2.635   3.514  16.576 -1.2803  0.8460  0.7677
 5430SOL     OW27748   0.339   3.864   7.689 -0.7248  0.3454  0.5288
 5430SOL    HW127749   0.319   3.820   7.772  0.9128  1.1071  1.3275
 5430SOL    HW227750   0.412   3.810   7.661 -0.2941  1.6772 -0.8852
 5431SOL     OW27751   2.541   1.197   5.460 -0.9634 -0.1520 -0.6813
 5431SOL    HW127752   2.499   1.283   5.465 -1.7506 -0.5630 -0.2856
 5431SOL    HW227753   2.633   1.219   5.473 -1.4854  0.4915  2.0327
 5432SOL     OW27754   3.478   0.918   0.046 -0.1656 -0.0408  0.1527
 5432SOL    HW127755   3.490   0.969   0.126 -2.6878  0.1303  0.3989
 5432SOL    HW227756   3.408   0.971   0.008  0.5336  0.2300 -0.7714
 5433SOL     OW27757   1.066   0.159   5.205  0.3532 -0.2533 -0.0416
 5433SOL    HW127758   1.106   0.082   5.165  2.1358  1.5866 -1.8291
 5433SOL    HW227759   1.023   0.117   5.280  0.4617  0.0499  0.1918
 5434SOL     OW27760   4.106   3.305  14.649 -0.4737 -0.3050 -0.0864
 5434SOL    HW127761   4.026   3.320  14.699 -0.6170 -1.4433  0.0259
 5434SOL    HW227762   4.166   3.356  14.704  0.7212 -1.5628 -0.2055
 5435SOL     OW27763   1.261   2.928   0.792  0.3818  0.2919  0.2379
 5435SOL    HW127764   1.183   2.877   0.816  0.2450 -0.2091 -1.2666
 5435SOL    HW227765   1.297   2.954   0.877  1.0859 -2.1769  0.6989
 5436SOL     OW27766   3.502   0.400   0.770 -0.0559  0.3328  0.3619
 5436SOL    HW127767   3.583   0.445   0.792 -0.4576  0.9666  0.5385
 5436SOL    HW227768   3.494   0.415   0.676 -0.8782 -1.0211  0.2082
 5437SOL     OW27769   2.482   1.771  13.414 -0.2588  0.7573 -0.0582
 5437SOL    HW127770   2.471   1.866  13.406  0.3567  0.5680 -2.8874
 5437SOL    HW227771   2.484   1.763  13.510  0.8535 -0.0479 -0.1497
 5438SOL     OW27772   4.664   4.653   3.988  0.6537  0.0791  0.2139
 5438SOL    HW127773   0.015   4.593   3.992 -0.7185 -1.5914  0.5801
 5438SOL    HW227774   4.658   4.662   3.893 -0.4929 -1.4612  0.1462
 5439SOL     OW27775   3.516   3.927  12.674 -0.6617  0.8365  0.3432
 5439SOL    HW127776   3.546   3.967  12.592  0.5331 -0.0444  0.3549
 5439SOL    HW227777   3.474   3.855  12.627  0.1345  1.0119 -0.6415
 5440SOL     OW27778   2.752   2.758   7.519  0.2809  0.4090  0.6610
 5440SOL    HW127779   2.786   2.764   7.429  0.2933 -1.2015  0.5540
 5440SOL    HW227780   2.776   2.848   7.543  1.4133  0.0924  0.7248
 5441SOL     OW27781   0.060   1.920   5.183 -0.0116  0.5495 -0.3248
 5441SOL    HW127782   0.149   1.951   5.198 -0.2139  1.0893 -0.2624
 5441SOL    HW227783   0.004   1.995   5.202 -1.1941 -0.0037 -1.6077
 5442SOL     OW27784   0.084   2.764   1.402 -0.3343 -0.4076 -0.1976
 5442SOL    HW127785   0.146   2.817   1.453  0.1903 -1.3866  0.1791
 5442SOL    HW227786   0.103   2.772   1.309 -1.2226  0.1738 -0.3266
 5443SOL     OW27787   2.979   1.464   1.904  0.5498 -0.6318  0.3760
 5443SOL    HW127788   3.020   1.414   1.833 -3.7001 -2.9567 -0.4280
 5443SOL    HW227789   3.029   1.439   1.981 -1.7250 -0.8897  1.7539
 5444SOL     OW27790   3.144   3.114   4.286 -0.0222 -0.0502  0.6305
 5444SOL    HW127791   3.167   3.024   4.267 -1.4810 -0.4492  0.7025
 5444SOL    HW227792   3.168   3.150   4.201  0.9663 -0.5115  0.7224
 5445SOL     OW27793   2.213   4.664   5.674  0.2248  0.1570 -0.3025
 5445SOL    HW127794   2.164   4.598   5.625 -0.4050 -0.2072  0.8117
 5445SOL    HW227795   2.299   4.627   5.689  0.8319  1.9890  0.7495
 5446SOL     OW27796   0.687   0.158   7.738 -0.1534 -0.3774  0.2276
 5446SOL    HW127797   0.593   0.176   7.741 -0.3058 -0.8554 -2.1220
 5446SOL    HW227798   0.703   0.234   7.682  1.6588 -2.7610 -2.4189
 5447SOL     OW27799   1.605   4.059   7.481 -0.2413  0.4482 -0.1060
 5447SOL    HW127800   1.546   4.118   7.528  0.2998 -0.4099  1.6385
 5447SOL    HW227801   1.681   4.051   7.539 -0.3869 -0.1071  0.0098
 5448SOL     OW27802   4.342   0.310   7.098 -0.2301 -0.4352 -0.1111
 5448SOL    HW127803   4.292   0.230   7.086  0.9132 -1.4275  1.8305
 5448SOL    HW227804   4.336   0.347   7.009 -0.8338  0.6674  0.3861
 5449SOL     OW27805   2.925   2.942   6.210 -0.0550  0.2266  0.0721
 5449SOL    HW127806   2.960   2.972   6.293 -0.7129  1.2377 -0.0063
 5449SOL    HW227807   2.963   3.006   6.149  0.4812  0.4342  0.6233
 5450SOL     OW27808   1.021   1.586   2.466 -0.5613 -0.0731 -0.1856
 5450SOL    HW127809   1.109   1.623   2.464 -0.2230 -0.8504  0.0579
 5450SOL    HW227810   1.039   1.501   2.426  0.3721 -0.0355  0.1520
 5451SOL     OW27811   0.121   1.595  12.211  0.0976 -0.6702 -0.2683
 5451SOL    HW127812   0.095   1.669  12.156  2.0746  0.9416  0.9443
 5451SOL    HW227813   0.119   1.631  12.300 -0.7762  0.6596 -0.8277
 5452SOL     OW27814   2.743   3.285   2.514 -0.0335  0.8547  0.1658
 5452SOL    HW127815   2.805   3.245   2.574  0.9304  0.9061 -0.7813
 5452SOL    HW227816   2.748   3.231   2.435  0.7883  0.4305  0.5120
 5453SOL     OW27817   2.526   2.440   2.923  0.1519 -0.8582 -1.0248
 5453SOL    HW127818   2.473   2.512   2.959  1.4600 -0.3235 -0.1782
 5453SOL    HW227819   2.546   2.479   2.838  2.0254 -1.9033 -1.0391
 5454SOL     OW27820   2.661   2.477   6.054  0.3670 -0.5345 -0.2479
 5454SOL    HW127821   2.726   2.536   6.092  1.5984 -0.7517 -2.0408
 5454SOL    HW227822   2.663   2.510   5.965 -1.4968  0.2982  0.0015
 5455SOL     OW27823   1.655   2.313   0.733  0.0581  0.2613 -0.0903
 5455SOL    HW127824   1.600   2.241   0.702  1.5932 -1.1507  0.4706
 5455SOL    HW227825   1.598   2.387   0.710 -1.0723 -0.2572  1.0624
 5456SOL     OW27826   2.961   3.115   8.406  0.0970  0.7892 -0.2442
 5456SOL    HW127827   2.934   3.119   8.315 -0.3093 -0.3243 -0.1746
 5456SOL    HW227828   2.884   3.154   8.445  0.7318  0.5515  1.2706
 5457SOL     OW27829   4.095   0.661   9.299 -0.6488  0.2221  0.1168
 5457SOL    HW127830   4.030   0.724   9.330 -0.8141  0.0110  0.1973
 5457SOL    HW227831   4.042   0.583   9.285 -0.6129  0.1983  0.1139
 5458SOL     OW27832   0.512   4.562  15.049  0.1000  0.1594  0.2999
 5458SOL    HW127833   0.573   4.489  15.059  1.4870  1.2146 -0.5680
 5458SOL    HW227834   0.549   4.593  14.967  1.6573  0.4889  1.1416
 5459SOL     OW27835   2.576   2.118   6.661  0.0439 -0.1656 -0.1090
 5459SOL    HW127836   2.593   2.169   6.740 -0.1143 -1.3939  0.7140
 5459SOL    HW227837   2.528   2.044   6.697 -0.0638  0.0637  0.2169
 5460SOL     OW27838   4.407   3.765  14.272 -0.8008 -0.4369 -0.0720
 5460SOL    HW127839   4.483   3.765  14.214  0.2138 -0.2183  1.2644
 5460SOL    HW227840   4.456   3.770  14.354  2.7264  0.4447 -2.2665
 5461SOL     OW27841   2.615   1.339   8.159 -0.1741  0.3667 -0.2365
 5461SOL    HW127842   2.633   1.399   8.231  0.0925  0.8544 -0.7162
 5461SOL    HW227843   2.520   1.352   8.159 -0.2274 -0.0073 -0.5523
 5462SOL     OW27844   1.186   2.551   1.011  0.0126 -0.1690  0.4487
 5462SOL    HW127845   1.108   2.494   1.016  0.9753 -1.3368  1.9939
 5462SOL    HW227846   1.149   2.639   1.015 -1.5108 -0.7352 -0.9738
 5463SOL     OW27847   0.345   2.991   2.433 -0.0549  0.1050  0.4920
 5463SOL    HW127848   0.347   3.073   2.383  2.2138 -2.1450 -3.1512
 5463SOL    HW227849   0.434   2.957   2.428  0.6942  1.6933  3.2114
 5464SOL     OW27850   1.564   0.152   7.965 -0.0597 -0.1693  0.5019
 5464SOL    HW127851   1.651   0.113   7.967  1.1317  2.5251  0.3917
 5464SOL    HW227852   1.587   0.227   8.019  0.4434 -0.4923  0.7262
 5465SOL     OW27853   2.820   1.156   6.569  0.2838 -0.6633 -0.0341
 5465SOL    HW127854   2.792   1.071   6.602  3.6152 -2.0598 -0.7717
 5465SOL    HW227855   2.911   1.148   6.597 -0.0758  0.6608  1.5094
 5466SOL     OW27856   3.070   1.519   2.331 -0.2729 -0.2277 -0.1358
 5466SOL    HW127857   3.097   1.508   2.240  4.5446  0.2716  1.2219
 5466SOL    HW227858   3.102   1.446   2.385 -0.0592 -0.2286 -0.2612
 5467SOL     OW27859   3.086   1.925   8.971 -0.1713 -0.1859 -0.3256
 5467SOL    HW127860   3.073   1.836   9.003 -1.1357  0.0428 -0.0833
 5467SOL    HW227861   3.033   1.922   8.892 -1.6220  1.1014  0.5991
 5468SOL     OW27862   2.284   2.669  16.933  0.3977 -0.0267  0.2809
 5468SOL    HW127863   2.345   2.703  16.867 -1.4483 -1.2779 -2.0879
 5468SOL    HW227864   2.284   2.575  16.911  2.5441  0.5962 -2.3315
 5469SOL     OW27865   1.496   1.562   0.626  0.2634 -0.2964  0.0083
 5469SOL    HW127866   1.425   1.520   0.675  2.5521  0.3411  3.8739
 5469SOL    HW227867   1.459   1.588   0.542 -1.3263  2.8495  1.6932
 5470SOL     OW27868   1.323   2.611   7.359 -0.1319  0.1201  0.4333
 5470SOL    HW127869   1.364   2.601   7.273 -0.5866  2.7826 -0.0992
 5470SOL    HW227870   1.233   2.610   7.325 -0.4796  2.1318  1.2771
 5471SOL     OW27871   2.249   0.986   3.968 -0.2730 -0.2089  0.3189
 5471SOL    HW127872   2.167   0.953   4.004 -1.2556  0.1929 -1.5647
 5471SOL    HW227873   2.218   1.064   3.922 -0.5169 -0.8180 -0.5546
 5472SOL     OW27874   4.340   1.171   7.727 -0.0510  0.2358  0.3103
 5472SOL    HW127875   4.279   1.218   7.670 -3.0769 -3.6921  0.2870
 5472SOL    HW227876   4.411   1.145   7.669  1.3308  0.7607  1.7677
 5473SOL     OW27877   2.678   1.330  13.037  0.1279  0.6285 -0.5833
 5473SOL    HW127878   2.757   1.352  12.987  1.7833  1.2672  2.3343
 5473SOL    HW227879   2.652   1.247  12.997 -0.3767  0.4455  0.1377
 5474SOL     OW27880   2.529   0.920   8.906  0.1402 -0.1074  0.4778
 5474SOL    HW127881   2.494   0.987   8.847  1.3434 -0.8195 -1.0420
 5474SOL    HW227882   2.562   0.974   8.977  1.4628 -1.3606  0.8194
 5475SOL     OW27883   3.927   2.218   3.323 -0.4376  0.3931  0.6271
 5475SOL    HW127884   3.981   2.199   3.246 -1.5946 -1.0957  0.1814
 5475SOL    HW227885   3.998   2.190   3.380 -0.3709  1.0597  0.8598
 5476SOL     OW27886   0.864   2.130   2.788 -0.4636 -0.6214  0.1626
 5476SOL    HW127887   0.807   2.072   2.738  0.4455 -0.5916 -0.9066
 5476SOL    HW227888   0.814   2.211   2.793 -0.2155 -0.3228 -2.0351
 5477SOL     OW27889   1.621   0.155   5.596 -0.3252  0.6955  0.8536
 5477SOL    HW127890   1.536   0.182   5.564 -0.8299 -1.8671 -0.0285
 5477SOL    HW227891   1.604   0.064   5.570  1.4321  1.8610 -4.4958
 5478SOL     OW27892   4.014   3.856  13.279 -0.1499 -0.2818  0.5110
 5478SOL    HW127893   3.960   3.802  13.337 -0.9551  0.6102  0.5982
 5478SOL    HW227894   3.969   3.844  13.196  2.8021  2.0031 -1.4473
 5479SOL     OW27895   1.959   2.201   8.811 -0.4416  0.7442  0.2551
 5479SOL    HW127896   2.045   2.198   8.770 -0.2288 -2.3980  0.9010
 5479SOL    HW227897   1.944   2.294   8.829  0.7613  1.2447 -1.2822
 5480SOL     OW27898   3.445   3.395   4.953  0.0897  0.6373  0.5566
 5480SOL    HW127899   3.530   3.439   4.949  0.2622  0.2842  0.3383
 5480SOL    HW227900   3.390   3.473   4.947 -2.4898 -1.1780  0.7496
 5481SOL     OW27901   4.252   4.362   0.931  0.3310 -0.0175  0.3694
 5481SOL    HW127902   4.346   4.363   0.915  0.1512 -0.1462 -0.6514
 5481SOL    HW227903   4.234   4.295   0.866 -0.7690  0.7920 -0.1575
 5482SOL     OW27904   2.914   4.657   3.931 -0.0556 -0.2156 -0.2063
 5482SOL    HW127905   2.937   4.709   3.854 -0.4257  0.9228  0.4422
 5482SOL    HW227906   2.975   4.586   3.912  0.3964  0.3767 -0.9738
 5483SOL     OW27907   1.529   1.816   6.463 -0.6716 -0.1589  0.3424
 5483SOL    HW127908   1.615   1.842   6.497 -0.6931 -1.0765  1.1023
 5483SOL    HW227909   1.559   1.749   6.401  1.4106 -0.4271  1.6248
 5484SOL     OW27910   2.094   4.530   3.604 -0.7627 -0.6624  0.3967
 5484SOL    HW127911   2.140   4.556   3.524 -0.5599  0.6810  0.9578
 5484SOL    HW227912   2.096   4.435   3.591  1.1188 -0.6863  0.8914
 5485SOL     OW27913   1.080   2.768   6.734  0.2540  0.3679 -0.2524
 5485SOL    HW127914   1.046   2.845   6.779  0.2777  1.1837 -1.6095
 5485SOL    HW227915   1.092   2.711   6.810 -0.4312  1.4355  0.6618
 5486SOL     OW27916   0.446   3.100   6.036  0.4984  0.1560  0.0331
 5486SOL    HW127917   0.505   3.031   6.007  1.1243  0.7546 -0.1115
 5486SOL    HW227918   0.475   3.106   6.126  1.4599  1.8991 -0.3871
 5487SOL     OW27919   0.016   0.902   2.300 -0.0916  0.6330  0.2951
 5487SOL    HW127920   0.105   0.916   2.268 -1.0808  1.5340 -2.0961
 5487SOL    HW227921   4.719   0.817   2.261  2.0899  0.4720 -0.5294
 5488SOL     OW27922   0.927   0.007   8.158  0.2042  0.2954  0.7978
 5488SOL    HW127923   0.924   0.000   8.063 -2.2648 -2.7152  1.0929
 5488SOL    HW227924   0.945   0.101   8.165 -1.1879  0.8458 -3.2934
 5489SOL     OW27925   0.909   3.830   4.650  0.1164 -0.4683  0.1600
 5489SOL    HW127926   0.952   3.914   4.670  1.2389 -0.7615 -1.0207
 5489SOL    HW227927   0.897   3.776   4.728 -0.6147 -2.8151 -1.5610
 5490SOL     OW27928   3.653   2.795   6.240 -0.2044 -0.5016  0.1565
 5490SOL    HW127929   3.562   2.815   6.261 -0.3124 -2.5280  1.6110
 5490SOL    HW227930   3.658   2.781   6.146  2.0837  0.5734  0.1176
 5491SOL     OW27931   3.421   4.667  11.457 -0.2396  0.1408  0.8074
 5491SOL    HW127932   3.397   4.722  11.532 -0.6201  2.3577 -0.9639
 5491SOL    HW227933   3.505   4.702  11.429  0.6976 -1.3643  1.7706
 5492SOL     OW27934   1.891   0.581   1.871  0.5706 -0.0052  0.0524
 5492SOL    HW127935   1.917   0.604   1.782 -3.9149  2.5616 -0.5943
 5492SOL    HW227936   1.859   0.659   1.916 -0.6766 -1.3876  1.5476
 5493SOL     OW27937   3.314   2.741   2.780 -0.1053  0.3512 -0.0588
 5493SOL    HW127938   3.223   2.716   2.763  0.1214  0.3573 -1.2448
 5493SOL    HW227939   3.303   2.819   2.835 -0.4898  1.6069 -1.9016
 5494SOL     OW27940   2.920   0.327   8.645 -0.4458  0.3020 -0.0812
 5494SOL    HW127941   2.920   0.420   8.666  1.3484  0.3022 -0.0828
 5494SOL    HW227942   2.832   0.306   8.615 -0.3407  0.6837 -0.6608
 5495SOL     OW27943   2.693   2.535   7.200  0.0956  0.3213  0.2568
 5495SOL    HW127944   2.747   2.456   7.206  1.1661  0.8398 -2.4220
 5495SOL    HW227945   2.650   2.537   7.285  1.0154  2.1395  0.6694
 5496SOL     OW27946   3.678   0.037  10.374  0.2558 -0.5013 -0.6107
 5496SOL    HW127947   3.713   0.002  10.292  2.0631 -1.6609  0.6793
 5496SOL    HW227948   3.706   0.128  10.371 -1.2066  0.0379  2.1900
 5497SOL     OW27949   2.795   2.548   9.516 -0.5268  0.8850  0.6116
 5497SOL    HW127950   2.724   2.585   9.567 -0.7257 -2.4593  2.8153
 5497SOL    HW227951   2.868   2.589   9.562 -0.4104  1.4539 -0.0933
 5498SOL     OW27952   0.632   2.034   3.014 -0.1033 -0.0435  0.4696
 5498SOL    HW127953   0.636   1.965   2.947  1.5467  0.7728 -0.2738
 5498SOL    HW227954   0.681   1.980   3.075  0.8910  1.3402  0.8894
 5499SOL     OW27955   3.882   0.450   6.246 -0.4379 -0.0611  1.0007
 5499SOL    HW127956   3.809   0.471   6.304 -0.1086  0.9457  1.0386
 5499SOL    HW227957   3.866   0.355   6.249  0.0925 -0.1657  0.5469
 5500SOL     OW27958   2.050   2.942   6.384 -0.6088  0.0542  0.2262
 5500SOL    HW127959   2.117   2.945   6.452  0.5053 -0.8207 -0.8358
 5500SOL    HW227960   2.019   2.852   6.399  0.2954 -0.4113 -0.7205
 5501SOL     OW27961   2.359   1.345   4.004  0.2765 -0.6390 -0.1313
 5501SOL    HW127962   2.266   1.327   4.017 -0.2488  1.0070 -1.5317
 5501SOL    HW227963   2.373   1.384   4.090  1.7435 -4.2166  1.2625
 5502SOL     OW27964   3.680   4.533   5.652 -0.5605  0.1544  0.7522
 5502SOL    HW127965   3.684   4.533   5.556 -0.6147 -0.9140  0.7485
 5502SOL    HW227966   3.648   4.620   5.677  1.4196  1.8717 -2.7317
 5503SOL     OW27967   3.024   3.708   0.572  0.6388 -0.1738 -0.4236
 5503SOL    HW127968   2.949   3.689   0.629  1.0175  2.2648  0.8667
 5503SOL    HW227969   3.060   3.620   0.555 -0.6044 -0.3769 -2.1022
 5504SOL     OW27970   1.610   2.730  10.590 -0.8646  0.3777 -1.0025
 5504SOL    HW127971   1.588   2.651  10.541  2.1168 -1.8972  1.3632
 5504SOL    HW227972   1.625   2.693  10.676  1.3986  1.5583 -0.8833
 5505SOL     OW27973   0.049   0.879   8.908 -0.4313  0.0368 -0.0672
 5505SOL    HW127974   0.003   0.962   8.896 -0.2687  0.3385  1.3907
 5505SOL    HW227975   4.711   0.809   8.887 -0.8682 -0.2807  2.2471
 5506SOL     OW27976   3.058   0.730   8.271 -0.1014 -0.3645 -0.2308
 5506SOL    HW127977   3.153   0.723   8.258 -0.1709  2.3249 -2.1740
 5506SOL    HW227978   3.044   0.723   8.365  0.2243 -1.8457 -0.2928
 5507SOL     OW27979   3.064   2.241   1.156 -0.0368  0.1467  0.3707
 5507SOL    HW127980   3.062   2.179   1.083  0.8037 -1.7367  1.9526
 5507SOL    HW227981   2.973   2.267   1.171  0.4272  1.0032  1.6895
 5508SOL     OW27982   2.359   1.395   8.284  0.3216  0.1265 -0.2736
 5508SOL    HW127983   2.275   1.365   8.320  0.1334  0.5266 -0.3795
 5508SOL    HW227984   2.327   1.443   8.208 -0.1355  0.2663  0.0059
 5509SOL     OW27985   3.879   3.132  15.733 -0.0939 -0.3209 -0.5560
 5509SOL    HW127986   3.837   3.106  15.651 -0.3721  1.5269 -0.9948
 5509SOL    HW227987   3.833   3.216  15.737 -0.6968 -0.5699 -2.0825
 5510SOL     OW27988   3.082   2.009   7.440 -0.3120 -0.0086 -0.2011
 5510SOL    HW127989   3.116   1.987   7.527  2.5097 -0.5400 -1.4349
 5510SOL    HW227990   3.163   2.009   7.388 -1.2711  0.6721 -1.6957
 5511SOL     OW27991   3.720   4.050   4.847  0.1056 -0.1530  0.1895
 5511SOL    HW127992   3.805   4.093   4.855 -0.5494  1.0172  0.8715
 5511SOL    HW227993   3.670   4.124   4.883  2.3918  1.1308  0.6760
 5512SOL     OW27994   4.623   3.344   5.864  0.0940 -0.5429 -0.4248
 5512SOL    HW127995   4.659   3.264   5.901  0.5995 -0.5672 -0.9885
 5512SOL    HW227996   4.616   3.306   5.777 -1.3215 -1.8530  0.2548
 5513SOL     OW27997   2.345   3.370  13.088 -0.6595  0.1455  0.2125
 5513SOL    HW127998   2.298   3.366  13.005  0.6572 -0.9373 -0.4788
 5513SOL    HW227999   2.271   3.379  13.148 -0.8717  0.7348 -0.1329
 5514SOL     OW28000   3.671   4.088   2.780  0.5645 -0.2104  0.0315
 5514SOL    HW128001   3.676   4.006   2.730 -0.3491 -0.8296  0.9320
 5514SOL    HW228002   3.666   4.053   2.869 -0.2666 -1.0955 -0.3591
 5515SOL     OW28003   4.336   3.396   5.750 -0.2530  0.7684 -0.2170
 5515SOL    HW128004   4.395   3.330   5.713  0.6849  0.7229  1.3950
 5515SOL    HW228005   4.271   3.337   5.786  0.0367  0.8188  0.3809
 5516SOL     OW28006   2.733   1.073   3.584 -0.4911 -0.1051  0.0892
 5516SOL    HW128007   2.637   1.066   3.588 -0.4494 -1.1935 -0.9487
 5516SOL    HW228008   2.763   1.069   3.675  1.0230 -0.4980 -0.4375
 5517SOL     OW28009   3.886   3.102   3.773  0.5934  0.3688 -0.2297
 5517SOL    HW128010   3.926   3.180   3.735  0.7808  0.3488 -0.0719
 5517SOL    HW228011   3.820   3.137   3.833  0.4957  2.7034 -1.7308
 5518SOL     OW28012   4.411   2.812   5.242  0.0909  0.1635 -0.5001
 5518SOL    HW128013   4.452   2.881   5.191 -2.5506  0.4301 -2.2425
 5518SOL    HW228014   4.360   2.866   5.302  0.6944  0.6299 -0.3998
 5519SOL     OW28015   2.322   0.276   5.996  0.1954 -0.1891 -0.3770
 5519SOL    HW128016   2.357   0.308   5.913 -1.7157 -0.6810 -1.3764
 5519SOL    HW228017   2.229   0.292   5.979  0.0091 -0.7444  0.1267
 5520SOL     OW28018   0.743   2.595   9.098  0.1524  0.0510 -0.0121
 5520SOL    HW128019   0.763   2.622   9.008 -1.0036 -1.3769 -0.6953
 5520SOL    HW228020   0.789   2.654   9.158  0.9522 -1.5372  0.9439
 5521SOL     OW28021   3.861   2.508  17.461  0.4203 -0.0862  0.2532
 5521SOL    HW128022   3.776   2.468  17.477 -1.5444  4.3811  0.9976
 5521SOL    HW228023   3.843   2.602  17.474 -1.9216 -0.6259  0.8863
 5522SOL     OW28024   2.966   1.539   0.120 -0.4574 -0.5977 -0.0394
 5522SOL    HW128025   2.995   1.459   0.164  2.2700 -0.3118 -1.3226
 5522SOL    HW228026   2.881   1.542   0.163 -0.4572  1.3672 -0.1728
 5523SOL     OW28027   1.358   2.993  16.069 -0.1001 -0.0201  0.2137
 5523SOL    HW128028   1.441   2.987  16.023  0.2316 -0.3533  0.8543
 5523SOL    HW228029   1.386   2.942  16.146  0.1249  0.9281  0.7552
 5524SOL     OW28030   0.426   3.688   2.709 -0.6944 -0.1940  0.1142
 5524SOL    HW128031   0.512   3.649   2.690 -1.7708 -2.0290 -1.0012
 5524SOL    HW228032   0.436   3.691   2.804 -1.5697 -0.3231  0.2146
 5525SOL     OW28033   1.585   0.493   0.932  0.4426  0.7434  0.4543
 5525SOL    HW128034   1.510   0.550   0.919 -0.4450 -0.7555 -1.0484
 5525SOL    HW228035   1.659   0.553   0.941  0.4403  0.7526  0.4108
 5526SOL     OW28036   4.477   3.857  16.622  0.7208  0.1360  0.0756
 5526SOL    HW128037   4.421   3.927  16.589 -0.3910 -1.0925 -0.6842
 5526SOL    HW228038   4.564   3.864  16.582  0.0999 -1.4040 -1.5951
 5527SOL     OW28039   4.566   4.407   6.277  0.4994  0.1871  0.7904
 5527SOL    HW128040   4.660   4.417   6.260  0.6221  1.7119  2.3643
 5527SOL    HW228041   4.535   4.497   6.263  0.7249  0.3615  1.4329
 5528SOL     OW28042   0.223   1.725  10.696  0.3628  0.4367  0.1434
 5528SOL    HW128043   0.278   1.772  10.634  0.4231 -0.7892 -0.7298
 5528SOL    HW228044   0.268   1.641  10.697  1.9442  1.3031  0.9222
 5529SOL     OW28045   0.763   0.657   6.261 -0.1239  0.2392 -0.2064
 5529SOL    HW128046   0.843   0.613   6.231 -0.5283  0.7653 -2.0324
 5529SOL    HW228047   0.701   0.584   6.256 -1.4082  1.3682 -0.8487
 5530SOL     OW28048   4.684   4.530  11.265 -0.1764  0.0712  0.4081
 5530SOL    HW128049   4.662   4.545  11.174  2.2687 -0.3287 -0.2439
 5530SOL    HW228050   0.053   4.514  11.246  0.4538  1.8748  1.9981
 5531SOL     OW28051   0.823   4.038   9.755 -0.2548 -0.3318  0.1976
 5531SOL    HW128052   0.889   4.022   9.824 -1.6652 -1.6833  1.2353
 5531SOL    HW228053   0.814   4.133   9.754 -0.9649 -0.3885  1.4468
 5532SOL     OW28054   0.117   1.767   7.916  0.1940 -0.1180  0.4868
 5532SOL    HW128055   0.094   1.733   8.003  0.4698  1.4623  1.1749
 5532SOL    HW228056   0.031   1.776   7.875  0.3834 -0.2236  0.0723
 5533SOL     OW28057   4.542   2.845   8.266 -0.3053 -0.1006  0.4643
 5533SOL    HW128058   4.622   2.801   8.240 -1.2349 -1.6926  0.3247
 5533SOL    HW228059   4.482   2.773   8.288  0.9065 -1.5255 -0.9571
 5534SOL     OW28060   0.054   3.244  15.068  0.1332 -0.2799  0.2733
 5534SOL    HW128061   0.126   3.282  15.118  1.2714 -1.4680 -0.4725
 5534SOL    HW228062   4.718   3.319  15.071 -0.0929 -0.4902  0.9996
 5535SOL     OW28063   2.349   2.335   2.706 -0.4981  0.1450  0.2329
 5535SOL    HW128064   2.412   2.301   2.642  0.3653  1.0793  0.5896
 5535SOL    HW228065   2.380   2.425   2.702 -1.5033  0.4770 -0.0062
 5536SOL     OW28066   1.206   3.565   9.972  0.5369 -0.2849 -0.2550
 5536SOL    HW128067   1.115   3.581   9.996  0.0424 -1.3355 -1.4391
 5536SOL    HW228068   1.198   3.498   9.904  2.0585 -2.1477  1.3762
 5537SOL     OW28069   4.071   2.672   7.915 -0.2228 -0.3707  0.9463
 5537SOL    HW128070   4.119   2.589   7.910  1.3927  0.5928  0.3731
 5537SOL    HW228071   3.989   2.643   7.955 -1.0056 -0.3860 -0.6789
 5538SOL     OW28072   0.016   1.258   8.356  0.3538 -0.1694  0.8443
 5538SOL    HW128073   0.014   1.223   8.267 -1.6933  3.9728 -0.7108
 5538SOL    HW228074   4.696   1.339   8.330 -3.0330 -2.2273  0.0770
 5539SOL     OW28075   0.182   2.492   4.605 -0.0245  0.3688  0.0255
 5539SOL    HW128076   0.091   2.493   4.576  0.5824 -1.6033 -1.9315
 5539SOL    HW228077   0.209   2.402   4.591 -1.0244  0.5016 -2.6237
 5540SOL     OW28078   1.345   1.613   1.019 -0.0503 -0.4508  0.2389
 5540SOL    HW128079   1.253   1.638   1.008  0.4497  1.1439 -0.1927
 5540SOL    HW228080   1.381   1.679   1.078  0.3944  0.5937 -1.1971
 5541SOL     OW28081   1.556   1.299   7.228 -0.4650  0.2671  0.0415
 5541SOL    HW128082   1.648   1.314   7.250  0.3900 -2.8422 -1.4570
 5541SOL    HW228083   1.564   1.271   7.137  2.5853  1.7120 -0.1459
 5542SOL     OW28084   0.647   1.597   7.198  0.2611 -0.6262 -0.1638
 5542SOL    HW128085   0.632   1.691   7.205  0.3908 -0.5740 -0.5749
 5542SOL    HW228086   0.556   1.569   7.199  0.3787 -0.9335  1.3803
 5543SOL     OW28087   2.726   1.280   0.085  0.7811 -0.5074 -0.4584
 5543SOL    HW128088   2.734   1.340   0.011 -0.0414  1.1795  0.8231
 5543SOL    HW228089   2.766   1.334   0.154  1.7394 -0.5877 -0.9606
 5544SOL     OW28090   3.275   2.735   9.073  0.2270 -0.3940  0.0587
 5544SOL    HW128091   3.351   2.792   9.072  0.7160 -1.0519  0.1851
 5544SOL    HW228092   3.228   2.762   8.993 -0.7927  1.6259  1.3544
 5545SOL     OW28093   1.134   2.125  10.091  0.0819  0.0613  0.1983
 5545SOL    HW128094   1.100   2.142  10.179  1.9952 -0.1038  0.9609
 5545SOL    HW228095   1.220   2.167  10.094 -0.3737  0.9539  0.8049
 5546SOL     OW28096   4.360   0.100   4.658  0.2941  0.0519  0.4983
 5546SOL    HW128097   4.392   0.018   4.696  2.0727  0.5394  0.0771
 5546SOL    HW228098   4.277   0.073   4.619 -0.3480  2.2662  0.3405
 5547SOL     OW28099   0.134   2.066   5.565 -0.0912 -0.1969 -0.0663
 5547SOL    HW128100   0.106   1.977   5.543  0.3893  0.1816 -2.1807
 5547SOL    HW228101   0.092   2.080   5.650 -0.0378 -0.8315  0.0655
 5548SOL     OW28102   3.008   2.959   5.621  0.4459 -0.2075  0.7769
 5548SOL    HW128103   3.039   3.037   5.667  0.6168  0.9765 -1.3678
 5548SOL    HW228104   3.061   2.889   5.661  0.0702 -0.2994  1.1146
 5549SOL     OW28105   4.174   2.469  10.489 -0.3208  0.3222  0.2213
 5549SOL    HW128106   4.109   2.520  10.442 -0.0406  0.1585 -0.3471
 5549SOL    HW228107   4.210   2.536  10.547  1.4908 -0.1590 -0.3438
 5550SOL     OW28108   1.413   1.225   5.302  0.5966 -0.2592  0.0640
 5550SOL    HW128109   1.438   1.151   5.248 -0.2760 -1.0752  0.7845
 5550SOL    HW228110   1.341   1.187   5.353  0.8394 -1.0126 -0.1652
 5551SOL     OW28111   1.759   0.464   5.791 -0.2316 -0.0640  0.3171
 5551SOL    HW128112   1.812   0.516   5.851  0.2667 -1.8206  1.3967
 5551SOL    HW228113   1.692   0.431   5.851 -2.8460  4.0968 -0.2825
 5552SOL     OW28114   4.490   3.747  10.166  0.4182 -0.0845  0.6623
 5552SOL    HW128115   4.483   3.693  10.087 -1.4460 -1.7936  1.9902
 5552SOL    HW228116   4.585   3.743  10.176  0.4269 -0.3843  0.4610
 5553SOL     OW28117   3.763   1.693   7.559 -0.0873 -0.5145  0.2724
 5553SOL    HW128118   3.712   1.613   7.576  1.6925 -1.6770  0.1400
 5553SOL    HW228119   3.716   1.728   7.483  1.5269 -0.4533 -0.6817
 5554SOL     OW28120   2.069   3.374   6.079 -0.1752 -0.5794  0.0707
 5554SOL    HW128121   2.105   3.460   6.097 -0.0774 -0.1510 -2.1456
 5554SOL    HW228122   2.119   3.309   6.130 -2.0793 -2.5674 -0.5878
 5555SOL     OW28123   4.551   3.788   0.625 -0.3375  0.2549 -0.5817
 5555SOL    HW128124   4.634   3.774   0.671  0.2350  0.9041 -1.4183
 5555SOL    HW228125   4.572   3.852   0.557 -0.8896  0.9712 -0.0811
 5556SOL     OW28126   1.599   2.186   7.953  0.2306  0.4035  0.0626
 5556SOL    HW128127   1.605   2.127   7.878 -0.3881 -0.0824  0.3924
 5556SOL    HW228128   1.551   2.129   8.014  0.4023  0.9340  0.6886
 5557SOL     OW28129   4.018   0.081   8.222 -0.1777 -0.1500  0.3506
 5557SOL    HW128130   4.018   0.157   8.163 -1.0434  1.2356  2.1414
 5557SOL    HW228131   4.106   0.098   8.253  0.4364 -1.0272 -0.9129
 5558SOL     OW28132   3.580   2.596   4.955 -0.3082 -0.6522  0.4927
 5558SOL    HW128133   3.518   2.667   4.944  1.4270  0.6295 -1.0388
 5558SOL    HW228134   3.650   2.628   4.897  0.4619 -1.2388  1.1019
 5559SOL     OW28135   4.091   3.103   5.754 -0.3045 -0.2580  0.5600
 5559SOL    HW128136   4.185   3.084   5.758 -0.5615 -1.1618  2.3983
 5559SOL    HW228137   4.050   3.017   5.765 -0.1438 -0.4472 -0.3392
 5560SOL     OW28138   0.179   4.493   4.685  0.5596 -0.0712 -0.3922
 5560SOL    HW128139   0.186   4.588   4.696  0.0777 -0.0233 -0.4949
 5560SOL    HW228140   0.102   4.480   4.741 -0.5157 -1.3081 -2.1735
 5561SOL     OW28141   3.817   1.412   7.888  0.1192 -0.7456  0.3661
 5561SOL    HW128142   3.882   1.472   7.853 -1.0575  0.5026  0.3440
 5561SOL    HW228143   3.831   1.339   7.828  0.9362  1.1289 -1.6843
 5562SOL     OW28144   2.502   1.895   5.640 -0.3026  0.1163 -0.1433
 5562SOL    HW128145   2.438   1.945   5.692  0.9693  2.1169 -0.4976
 5562SOL    HW228146   2.581   1.948   5.653 -0.9653  1.0410  0.1906
 5563SOL     OW28147   3.844   0.278   4.465  0.6319  0.0037 -0.5452
 5563SOL    HW128148   3.873   0.351   4.410 -0.1698 -0.1546 -1.1650
 5563SOL    HW228149   3.899   0.203   4.442  2.4049  0.9360  0.5890
 5564SOL     OW28150   0.970   3.075   5.175 -0.0781 -0.0415  0.2505
 5564SOL    HW128151   0.912   3.089   5.100 -1.4166 -1.9008  0.9709
 5564SOL    HW228152   0.939   2.994   5.214 -1.0152 -0.9259 -2.3223
 5565SOL     OW28153   3.511   2.104   1.890 -0.2345 -0.3005  0.4209
 5565SOL    HW128154   3.540   2.057   1.812  0.6553  2.4553 -0.9038
 5565SOL    HW228155   3.444   2.047   1.927  0.4266 -0.7035  0.9936
 5566SOL     OW28156   4.445   4.137   4.154  0.0382  0.4153 -0.0196
 5566SOL    HW128157   4.371   4.076   4.148  0.4793  0.0153 -1.3621
 5566SOL    HW228158   4.411   4.224   4.178 -0.6895  0.4564 -1.1748
 5567SOL     OW28159   2.341   0.267   6.548  0.1728 -0.0071 -0.0466
 5567SOL    HW128160   2.255   0.240   6.516  0.5097  2.1102 -2.7773
 5567SOL    HW228161   2.319   0.265   6.641  3.9546  0.7294  0.8890
 5568SOL     OW28162   3.174   4.525   2.691 -0.1486 -0.0896  0.1745
 5568SOL    HW128163   3.177   4.603   2.636  1.2869 -0.0304  0.3278
 5568SOL    HW228164   3.267   4.504   2.684 -0.9022 -2.0251 -3.7560
 5569SOL     OW28165   3.888   3.133  16.150 -0.4687 -0.2853 -0.4732
 5569SOL    HW128166   3.938   3.214  16.142  1.2654 -1.2453  0.5393
 5569SOL    HW228167   3.940   3.075  16.205 -0.8958 -1.2887 -1.1257
 5570SOL     OW28168   2.441   3.124   4.386 -0.0237  0.4243  1.1552
 5570SOL    HW128169   2.392   3.043   4.393 -0.7150  0.8041  0.6638
 5570SOL    HW228170   2.400   3.164   4.309  2.0712  1.3678  0.5041
 5571SOL     OW28171   0.293   1.633   4.920 -0.6575  0.0281  0.0997
 5571SOL    HW128172   0.338   1.706   4.961  0.8451 -0.3461 -0.8926
 5571SOL    HW228173   0.202   1.662   4.927 -0.0934  1.9226 -0.5554
 5572SOL     OW28174   0.771   4.393   8.577 -0.5838 -0.1652  0.6460
 5572SOL    HW128175   0.829   4.421   8.647  0.1084  0.5034 -0.1855
 5572SOL    HW228176   0.701   4.458   8.583 -1.5368 -1.1875  0.6968
 5573SOL     OW28177   3.486   1.003   8.543 -0.5392  0.2687  0.5840
 5573SOL    HW128178   3.426   1.047   8.603 -1.2875  1.2616 -0.8924
 5573SOL    HW228179   3.483   1.067   8.472  0.8681 -0.5974 -0.2705
 5574SOL     OW28180   0.078   1.812   4.145  0.4915  0.0797 -0.7616
 5574SOL    HW128181   0.117   1.727   4.127  1.1157 -0.3523  2.6255
 5574SOL    HW228182   0.133   1.868   4.089  2.0986 -1.4923 -0.7492
 5575SOL     OW28183   3.444   3.857   4.641 -0.1953 -0.9019  0.4052
 5575SOL    HW128184   3.352   3.835   4.625 -0.4342 -0.4908  1.2058
 5575SOL    HW228185   3.474   3.770   4.670  1.3236  0.4764  2.9295
 5576SOL     OW28186   1.818   0.787   7.416 -0.6318 -0.0852  0.1261
 5576SOL    HW128187   1.734   0.742   7.403 -1.0791  1.2866 -1.8434
 5576SOL    HW228188   1.839   0.764   7.506  2.3418 -0.1520 -0.5838
 5577SOL     OW28189   1.234   3.627   7.416  0.4476 -0.1971 -0.1519
 5577SOL    HW128190   1.176   3.678   7.360 -0.3576  0.3112  1.1646
 5577SOL    HW228191   1.212   3.667   7.500 -1.1768 -1.4428  0.0142
 5578SOL     OW28192   2.844   3.250  13.790  0.2752 -0.3313  0.3292
 5578SOL    HW128193   2.904   3.209  13.727  0.9065  0.5176  0.3689
 5578SOL    HW228194   2.889   3.335  13.788  0.9239 -0.6562  0.8495
 5579SOL     OW28195   1.399   0.040   1.784 -0.3093  0.3991 -0.1761
 5579SOL    HW128196   1.460   0.095   1.734 -0.5962 -1.3094 -2.4010
 5579SOL    HW228197   1.336   0.107   1.810  1.1386  1.4833  0.5195
 5580SOL     OW28198   0.400   4.576   2.906 -1.1637  0.5004  0.1717
 5580SOL    HW128199   0.388   4.495   2.856 -1.4732 -0.3760  1.6588
 5580SOL    HW228200   0.432   4.541   2.990  0.8899  1.2907 -0.2793
 5581SOL     OW28201   2.605   2.209   8.106 -0.0126 -0.2333 -0.4309
 5581SOL    HW128202   2.580   2.273   8.039 -0.3189 -1.4314 -1.4500
 5581SOL    HW228203   2.690   2.247   8.128  0.7343 -2.0992 -0.1508
 5582SOL     OW28204   1.033   2.167   4.979 -0.3920  0.1692  0.0689
 5582SOL    HW128205   1.052   2.074   4.968 -3.2692 -0.6266  1.8605
 5582SOL    HW228206   1.100   2.204   4.922 -0.0942 -1.4052 -0.6093
 5583SOL     OW28207   3.348   2.458   3.088 -0.5130 -0.1824 -0.1769
 5583SOL    HW128208   3.386   2.539   3.123  3.2950 -2.2317  0.4347
 5583SOL    HW228209   3.254   2.469   3.098 -0.6170 -0.1965 -1.0714
 5584SOL     OW28210   0.054   3.868   7.664 -0.1290  0.4828  0.8266
 5584SOL    HW128211   0.034   3.961   7.667 -0.5484  0.3595  2.1036
 5584SOL    HW228212   0.149   3.875   7.671 -0.1913 -0.3518  2.7154
 5585SOL     OW28213   0.903   1.606  12.964 -0.3727  0.2300 -0.3680
 5585SOL    HW128214   0.858   1.597  12.880 -2.5288 -1.3680  0.9832
 5585SOL    HW228215   0.938   1.517  12.968 -0.2481  0.3958  2.2124
 5586SOL     OW28216   2.183   1.314  12.204 -0.0464 -1.0062 -0.0394
 5586SOL    HW128217   2.250   1.252  12.179  2.9187  1.5828  1.4557
 5586SOL    HW228218   2.154   1.270  12.284 -0.5836 -1.2643 -0.3748
 5587SOL     OW28219   1.574   3.691   7.562  0.1124 -0.0709  0.2456
 5587SOL    HW128220   1.584   3.603   7.527 -1.8775 -0.1756 -0.0735
 5587SOL    HW228221   1.628   3.737   7.498  2.9920 -0.4658  2.3908
 5588SOL     OW28222   3.176   3.128  10.045  0.5200 -0.0719  0.0305
 5588SOL    HW128223   3.233   3.052  10.034 -0.1601 -0.5058 -0.4681
 5588SOL    HW228224   3.189   3.156   9.955 -1.4051 -0.9654 -0.5275
 5589SOL     OW28225   4.454   3.718   6.872  0.3132  0.3022 -0.0832
 5589SOL    HW128226   4.529   3.663   6.896  0.1769  0.1067 -0.1078
 5589SOL    HW228227   4.411   3.659   6.810  0.6977  0.4595 -0.4934
 5590SOL     OW28228   4.318   1.663   6.235  0.1006  0.1635  0.4399
 5590SOL    HW128229   4.361   1.597   6.180 -1.2794 -0.8186  0.5261
 5590SOL    HW228230   4.344   1.644   6.325 -1.1113  0.3424  0.8321
 5591SOL     OW28231   2.761   3.533   4.918  0.1048 -0.1503 -0.8180
 5591SOL    HW128232   2.691   3.587   4.880  2.2329  2.2380 -1.3458
 5591SOL    HW228233   2.746   3.563   5.008 -0.7879 -0.2387 -0.9411
 5592SOL     OW28234   2.823   0.228  14.240  0.4649 -0.4766 -0.2481
 5592SOL    HW128235   2.749   0.257  14.293  1.0564 -0.8189  0.7527
 5592SOL    HW228236   2.815   0.287  14.164  0.8743 -1.2636 -0.9027
 5593SOL     OW28237   0.752   4.360   2.082  0.2749 -0.4756 -0.3537
 5593SOL    HW128238   0.675   4.304   2.072 -0.4371  0.6175 -0.9567
 5593SOL    HW228239   0.812   4.299   2.127 -1.7478 -2.6246 -0.5581
 5594SOL     OW28240   1.782   1.890  14.909 -0.1857  0.0964  0.0227
 5594SOL    HW128241   1.863   1.940  14.921  1.3683 -2.2812 -0.5917
 5594SOL    HW228242   1.799   1.865  14.818 -0.9265 -1.9201  0.4407
 5595SOL     OW28243   2.704   2.755   5.692 -0.1406 -0.0473  0.1243
 5595SOL    HW128244   2.711   2.661   5.711  0.4328  0.7965  4.0989
 5595SOL    HW228245   2.681   2.745   5.600  0.2229 -1.4251  0.1836
 5596SOL     OW28246   4.529   2.025   2.577 -0.0066 -0.0355  0.3369
 5596SOL    HW128247   4.599   2.062   2.523 -0.3759 -0.2196 -0.2681
 5596SOL    HW228248   4.450   2.020   2.523 -0.2505 -1.2922  0.8048
 5597SOL     OW28249   0.033   2.995   2.300  0.5890  0.3929 -0.2062
 5597SOL    HW128250   0.126   2.993   2.277  0.3693  1.2991 -1.1970
 5597SOL    HW228251   0.006   2.908   2.327  0.3457  1.1648  2.0048
 5598SOL     OW28252   2.092   1.246   9.555  0.0468  0.1946 -0.4937
 5598SOL    HW128253   2.111   1.204   9.638  1.8943 -0.0593 -1.0279
 5598SOL    HW228254   2.018   1.193   9.527 -0.2448 -0.1208  0.8879
 5599SOL     OW28255   0.375   1.991  12.234  0.1246 -0.1767 -0.6016
 5599SOL    HW128256   0.418   2.009  12.318  3.1794 -2.7760 -1.6170
 5599SOL    HW228257   0.452   1.955  12.190  2.7879  3.0384  1.4004
 5600SOL     OW28258   3.507   1.578   8.030  0.7219  0.9539  0.0815
 5600SOL    HW128259   3.473   1.580   8.119  2.8178  1.3755  0.8897
 5600SOL    HW228260   3.516   1.669   8.003 -0.1329  1.1055  0.3070
 5601SOL     OW28261   2.604   4.459   7.986  0.3798 -0.0922  0.2895
 5601SOL    HW128262   2.519   4.491   8.017 -0.0318  2.0347 -3.0020
 5601SOL    HW228263   2.586   4.378   7.940  0.7654  0.8344 -1.4943
 5602SOL     OW28264   3.713   0.310  10.369 -0.9182 -0.3138  0.6036
 5602SOL    HW128265   3.701   0.349  10.455  0.1262 -0.0662  0.6315
 5602SOL    HW228266   3.747   0.383  10.317 -3.4386  1.2533  1.1559
 5603SOL     OW28267   1.155   0.590   3.784  0.6186  0.2857 -0.5705
 5603SOL    HW128268   1.106   0.579   3.866  0.2570  1.5753 -0.6137
 5603SOL    HW228269   1.198   0.504   3.783  0.0885  0.0091 -0.0419
 5604SOL     OW28270   2.653   2.036   0.504  0.1277 -0.0002  0.1048
 5604SOL    HW128271   2.632   1.944   0.493 -2.1813  0.5913 -0.3246
 5604SOL    HW228272   2.565   2.071   0.487  0.4443 -0.3591 -2.3138
 5605SOL     OW28273   3.718   0.903   3.781  0.0938 -0.2591 -0.1571
 5605SOL    HW128274   3.769   0.823   3.796  0.8611  0.2016 -0.3176
 5605SOL    HW228275   3.782   0.974   3.774 -0.8282  0.5780 -0.0974
 5606SOL     OW28276   3.718   0.548   8.484  0.4435  0.9233 -0.3308
 5606SOL    HW128277   3.802   0.511   8.512 -0.4478  0.2382  1.4931
 5606SOL    HW228278   3.718   0.637   8.519 -2.5068  0.5429  0.6598
 5607SOL     OW28279   1.019   1.401   0.347  0.3044 -0.0659 -0.2965
 5607SOL    HW128280   1.024   1.324   0.290 -0.5409  0.6421 -1.3114
 5607SOL    HW228281   1.059   1.470   0.295 -0.7506  1.9646  1.5858
 5608SOL     OW28282   1.469   2.394   5.402  0.1485 -0.0826  0.1932
 5608SOL    HW128283   1.510   2.317   5.440  1.1380  1.0951  1.5141
 5608SOL    HW228284   1.476   2.383   5.307 -0.0784 -0.8735  0.2686
 5609SOL     OW28285   0.271   1.443   6.742  0.2945  0.3882  0.3445
 5609SOL    HW128286   0.178   1.429   6.723 -0.0965  1.3180  1.5551
 5609SOL    HW228287   0.291   1.387   6.817 -0.6561 -0.4690 -0.0358
 5610SOL     OW28288   3.786   3.247   3.175  0.0320  0.2654 -0.5118
 5610SOL    HW128289   3.779   3.261   3.080 -1.2722  1.3449 -0.2470
 5610SOL    HW228290   3.695   3.244   3.206  0.2762 -1.4152  0.0738
 5611SOL     OW28291   0.336   2.238   8.137  0.0771 -0.1581  0.6325
 5611SOL    HW128292   0.333   2.329   8.107  0.1769 -0.4137 -0.1535
 5611SOL    HW228293   0.430   2.232   8.156 -0.3671 -0.9081  2.5277
 5612SOL     OW28294   2.363   3.214  10.466  0.2152  0.2579 -0.2679
 5612SOL    HW128295   2.422   3.200  10.540 -0.5674  1.8195  0.6698
 5612SOL    HW228296   2.298   3.256  10.523  1.0080  1.3180 -0.1416
 5613SOL     OW28297   4.094   0.988   3.626 -0.2774 -0.3953 -0.5112
 5613SOL    HW128298   4.169   0.928   3.624 -0.0084 -0.0990  1.0223
 5613SOL    HW228299   4.076   1.009   3.717  0.0179  1.9741 -1.0163
 5614SOL     OW28300   3.887   4.290   0.891 -0.0492 -0.3668 -0.5731
 5614SOL    HW128301   3.937   4.360   0.931  1.1444 -1.3218 -0.3961
 5614SOL    HW228302   3.835   4.344   0.831 -0.0167 -0.2707 -0.5129
 5615SOL     OW28303   0.689   1.412   9.835  0.3189  0.6362 -0.0954
 5615SOL    HW128304   0.714   1.320   9.831 -0.3359  0.4439  0.1654
 5615SOL    HW228305   0.765   1.443   9.884  0.4969 -1.1224  0.7287
 5616SOL     OW28306   4.239   0.056   0.458  0.1368 -0.0955 -0.5886
 5616SOL    HW128307   4.320   0.020   0.494  0.1553 -0.8160 -1.3618
 5616SOL    HW228308   4.202   4.698   0.425  1.0010 -0.4507 -0.6876
 5617SOL     OW28309   4.610   2.639   6.206 -0.4997  0.1037 -0.7870
 5617SOL    HW128310   4.632   2.681   6.123  1.3256 -1.9893 -1.3411
 5617SOL    HW228311   4.664   2.561   6.198 -1.0955 -0.4097  0.1908
 5618SOL     OW28312   0.609   0.515   0.817  0.5920 -0.0088  0.4467
 5618SOL    HW128313   0.542   0.565   0.864  1.2732 -0.2134  1.6372
 5618SOL    HW228314   0.679   0.505   0.882 -0.6995  1.6369  2.0947
 5619SOL     OW28315   0.401   0.511  11.394  0.0941 -0.4787  0.0580
 5619SOL    HW128316   0.401   0.590  11.448 -0.0300  1.9493 -3.4961
 5619SOL    HW228317   0.477   0.537  11.342 -0.3146  0.8712  0.1436
 5620SOL     OW28318   2.414   0.380   3.727 -0.0930 -0.2456 -0.3716
 5620SOL    HW128319   2.482   0.321   3.694  0.2830  0.3897 -0.7258
 5620SOL    HW228320   2.362   0.391   3.647 -0.2653  1.1035 -0.0632
 5621SOL     OW28321   0.243   0.463  17.278  0.3832  0.0715 -0.1569
 5621SOL    HW128322   0.172   0.399  17.280  0.1991  0.1866 -2.7935
 5621SOL    HW228323   0.245   0.478  17.373 -1.2775 -0.8069  0.0170
 5622SOL     OW28324   3.677   0.916  16.350  0.3944  0.1639  0.3461
 5622SOL    HW128325   3.631   0.978  16.292  0.4302  1.0475  1.2505
 5622SOL    HW228326   3.626   0.837  16.335  1.8256 -1.0643  2.0357
 5623SOL     OW28327   3.682   0.314   0.458 -0.0894  0.5398 -0.2283
 5623SOL    HW128328   3.599   0.359   0.471 -0.3695 -0.4332  1.2956
 5623SOL    HW228329   3.722   0.312   0.545 -0.1331 -0.1095 -0.2247
 5624SOL     OW28330   2.612   2.183  16.552 -0.2570  0.0736 -0.0144
 5624SOL    HW128331   2.664   2.175  16.472  0.8091  0.9738  0.5899
 5624SOL    HW228332   2.687   2.213  16.604 -0.7251  0.7613  0.2584
 5625SOL     OW28333   2.659   3.756  16.883  0.3888 -0.3152 -0.2157
 5625SOL    HW128334   2.732   3.774  16.943  1.2059 -1.1072 -0.9781
 5625SOL    HW228335   2.675   3.829  16.823 -1.4481 -0.1282 -0.4746
 5626SOL     OW28336   0.745   2.612   4.507  0.1189 -0.3596  0.7302
 5626SOL    HW128337   0.740   2.559   4.428 -0.4365  0.7636  0.0179
 5626SOL    HW228338   0.671   2.575   4.556  0.8621 -1.0817  1.3198
 5627SOL     OW28339   1.203   3.361  16.885  0.5907  0.4165  0.6353
 5627SOL    HW128340   1.127   3.417  16.870  0.3798 -0.2237 -0.6953
 5627SOL    HW228341   1.166   3.287  16.835  1.6968  1.6350 -2.0016
 5628SOL     OW28342   0.670   4.154   5.324  0.8660 -0.5780 -0.2901
 5628SOL    HW128343   0.717   4.179   5.404 -1.1983  0.4963  0.5811
 5628SOL    HW228344   0.644   4.238   5.287  0.0158  0.1058  1.8543
 5629SOL     OW28345   1.789   4.365   5.820  0.5753  0.1450  0.3590
 5629SOL    HW128346   1.814   4.334   5.907  0.4516  0.8937  0.6602
 5629SOL    HW228347   1.732   4.291   5.801 -2.5007  2.1025  1.9367
 5630SOL     OW28348   4.091   2.177   1.035 -0.7102  0.3827 -0.1213
 5630SOL    HW128349   4.161   2.141   1.090 -0.6389 -0.1897 -0.5895
 5630SOL    HW228350   4.140   2.206   0.958  0.8884 -1.3055  0.2584
 5631SOL     OW28351   3.248   0.539   4.599 -0.1636 -0.3071 -0.1560
 5631SOL    HW128352   3.241   0.444   4.584 -1.0261 -0.1373 -0.8489
 5631SOL    HW228353   3.313   0.547   4.529 -0.6567  1.5498 -0.3859
 5632SOL     OW28354   2.432   4.438   3.631  0.2507 -0.1033  0.0402
 5632SOL    HW128355   2.357   4.380   3.621 -0.0079 -0.2807  3.1345
 5632SOL    HW228356   2.416   4.505   3.565 -0.7802 -2.4205 -2.0831
 5633SOL     OW28357   3.938   3.490  15.532 -0.0344 -0.4786 -0.0455
 5633SOL    HW128358   3.992   3.532  15.466 -1.0819  1.0099  0.0474
 5633SOL    HW228359   3.942   3.562  15.595  0.2397  1.4542 -2.2931
 5634SOL     OW28360   0.027   1.594  15.110  0.6542  0.9374  0.1634
 5634SOL    HW128361   0.121   1.612  15.107  0.6354  0.4552 -2.8118
 5634SOL    HW228362   0.013   1.535  15.037  2.5695 -0.3674  0.8563
 5635SOL     OW28363   0.244   2.443   3.537 -0.4784 -0.0350  0.3468
 5635SOL    HW128364   0.182   2.498   3.490 -0.5186  1.6241  2.3432
 5635SOL    HW228365   0.319   2.468   3.482 -1.0196  1.4979  0.3386
 5636SOL     OW28366   1.618   3.485  11.229 -0.2278 -0.6017  0.1621
 5636SOL    HW128367   1.628   3.432  11.149  1.2130 -0.8995  0.5396
 5636SOL    HW228368   1.541   3.440  11.264 -0.6015 -0.8277 -0.9358
 5637SOL     OW28369   2.515   4.583   3.368 -0.2312  0.0332  0.7481
 5637SOL    HW128370   2.586   4.621   3.420 -0.6861  1.7632  0.1203
 5637SOL    HW228371   2.566   4.549   3.295  0.7710  2.5901  0.2389
 5638SOL     OW28372   4.637   4.082  17.484  0.9952 -0.5721 -0.4166
 5638SOL    HW128373   4.624   4.075  17.389 -1.2367 -1.0458 -0.0732
 5638SOL    HW228374   4.710   4.144  17.484  0.7684 -0.3095 -0.8231
 5639SOL     OW28375   3.284   2.339   0.480  0.3694  0.8068 -0.1464
 5639SOL    HW128376   3.276   2.258   0.531 -0.3080  0.7354 -0.3704
 5639SOL    HW228377   3.191   2.357   0.465 -0.1016 -0.2951  1.4440
 5640SOL     OW28378   4.538   3.625   3.400  0.1588  0.3604  0.6775
 5640SOL    HW128379   4.597   3.688   3.359 -0.6215 -0.0877 -1.1256
 5640SOL    HW228380   4.604   3.599   3.465  1.4190  0.5322 -0.5485
 5641SOL     OW28381   4.229   2.273   4.078  0.1082 -0.3336 -0.4407
 5641SOL    HW128382   4.248   2.230   3.995  1.2971 -1.3864  0.3702
 5641SOL    HW228383   4.133   2.266   4.082  0.2902 -2.3459  0.2355
 5642SOL     OW28384   4.116   1.144   6.189 -0.2272 -0.0003  0.4216
 5642SOL    HW128385   4.169   1.064   6.184  1.2413  1.0303 -0.6780
 5642SOL    HW228386   4.049   1.123   6.123  2.7144  1.3215 -2.9749
 5643SOL     OW28387   4.110   3.920  17.610  0.6350 -0.1616 -0.3058
 5643SOL    HW128388   4.132   4.008  17.579 -1.1377  0.5588  0.4888
 5643SOL    HW228389   4.148   3.933   0.000 -2.7889  1.9705  0.8853
 5644SOL     OW28390   3.786   1.943   8.650  0.4264 -0.3605 -0.5200
 5644SOL    HW128391   3.856   2.005   8.670  0.6834  0.0606 -2.7562
 5644SOL    HW228392   3.834   1.865   8.680 -0.0276 -0.7339 -0.7625
 5645SOL     OW28393   3.185   4.079  10.029  0.5571  0.0146  0.4664
 5645SOL    HW128394   3.225   4.138   9.966  0.2240 -0.3927 -0.1218
 5645SOL    HW228395   3.110   4.136  10.044 -0.4991 -1.3647  0.4940
 5646SOL     OW28396   0.318   2.765  11.577  0.0913 -0.4282  0.0561
 5646SOL    HW128397   0.402   2.789  11.537 -0.4528  1.2742 -0.0248
 5646SOL    HW228398   0.345   2.690  11.631 -0.2403 -1.1362 -0.7616
 5647SOL     OW28399   4.257   3.958   4.267  0.7504  0.6144  0.2438
 5647SOL    HW128400   4.261   3.863   4.252 -0.0194  0.7398 -0.7616
 5647SOL    HW228401   4.295   3.961   4.355  1.5009 -3.2602  0.0628
 5648SOL     OW28402   1.275   3.058   8.044 -0.4552  0.0594  0.1348
 5648SOL    HW128403   1.317   2.973   8.060 -0.0205  0.7671  2.7264
 5648SOL    HW228404   1.235   3.068   8.131  2.2988 -2.2817  1.6685
 5649SOL     OW28405   3.327   1.816  11.417  0.6644  0.0195 -0.0785
 5649SOL    HW128406   3.390   1.750  11.388  0.2010  0.0339 -1.0984
 5649SOL    HW228407   3.352   1.898  11.375  3.5608 -0.0902  1.4268
 5650SOL     OW28408   2.826   2.332  11.915  0.1435 -0.5389  0.5856
 5650SOL    HW128409   2.911   2.325  11.871  0.2238  1.4635  0.4482
 5650SOL    HW228410   2.853   2.328  12.007  0.7854 -1.1992  0.3680
 5651SOL     OW28411   4.042   1.847   5.355 -0.3973  0.3894  0.2122
 5651SOL    HW128412   4.063   1.835   5.262 -0.6411  1.7990 -0.0273
 5651SOL    HW228413   4.076   1.935   5.366 -1.1540  0.8345 -0.9520
 5652SOL     OW28414   3.350   1.528  13.969  0.4916  0.1364 -0.0026
 5652SOL    HW128415   3.280   1.481  13.925  1.4750  1.0651 -2.5656
 5652SOL    HW228416   3.386   1.579  13.897 -1.1515 -1.4870 -1.9491
 5653SOL     OW28417   0.790   2.224   0.894  0.6561 -0.2513  0.4126
 5653SOL    HW128418   0.745   2.191   0.817  0.2044 -1.6878  1.2996
 5653SOL    HW228419   0.718   2.232   0.956  0.7819  1.9928  0.2731
 5654SOL     OW28420   0.477   3.479   7.282  0.0405  0.3243  0.2330
 5654SOL    HW128421   0.450   3.560   7.325 -0.1815  0.2488  0.2358
 5654SOL    HW228422   0.432   3.478   7.197 -0.7053  2.5721  0.6065
 5655SOL     OW28423   4.597   4.148  14.661 -0.0846  0.6434 -0.3480
 5655SOL    HW128424   4.516   4.158  14.610  0.6788  1.3100 -1.4088
 5655SOL    HW228425   4.604   4.232  14.706 -2.9402  1.9095 -2.1963
 5656SOL     OW28426   4.107   2.876   6.379  0.2819  0.1421 -0.2325
 5656SOL    HW128427   4.162   2.952   6.399  2.9930 -1.0743 -3.1081
 5656SOL    HW228428   4.071   2.904   6.294 -0.2395 -0.1076 -0.0901
 5657SOL     OW28429   2.312   2.741  11.263 -0.4650 -0.2307  0.5339
 5657SOL    HW128430   2.310   2.765  11.356 -2.2849  4.1053 -0.6526
 5657SOL    HW228431   2.400   2.703  11.260  0.2402  1.3850  0.7026
 5658SOL     OW28432   1.242   2.579   3.068 -0.3291 -0.4203 -0.2433
 5658SOL    HW128433   1.309   2.516   3.040  1.2970  1.7970 -1.2723
 5658SOL    HW228434   1.305   2.647   3.090 -0.7987  1.0225 -3.3801
 5659SOL     OW28435   1.448   2.007   9.893  0.7054  1.0452  0.1393
 5659SOL    HW128436   1.353   2.007   9.880  0.8690 -3.5035 -1.0539
 5659SOL    HW228437   1.441   1.962   9.977  0.7616 -1.6723 -1.2979
 5660SOL     OW28438   4.298   2.928  10.718 -0.1247 -0.2172 -0.2701
 5660SOL    HW128439   4.343   2.996  10.666  0.6398  1.0073  1.9795
 5660SOL    HW228440   4.340   2.936  10.804  2.4175  2.7236 -1.7635
 5661SOL     OW28441   4.493   2.274   3.292 -0.2470 -0.1138 -0.6318
 5661SOL    HW128442   4.562   2.271   3.225  1.8892 -0.5727  1.5599
 5661SOL    HW228443   4.537   2.225   3.362  0.9352  0.2646 -1.1149
 5662SOL     OW28444   0.675   1.294   0.346  0.4305  0.3521 -0.2743
 5662SOL    HW128445   0.614   1.220   0.339 -1.3093  1.7558  0.1302
 5662SOL    HW228446   0.740   1.266   0.282 -0.8991  1.2511 -2.0138
 5663SOL     OW28447   0.296   2.039   1.543 -0.1362  0.1027 -0.2971
 5663SOL    HW128448   0.339   2.035   1.457  3.1021  2.1654  1.2109
 5663SOL    HW228449   0.250   2.122   1.550  1.3185  0.7760  1.3599
 5664SOL     OW28450   1.385   2.908   4.179 -0.1638 -0.0557  0.2205
 5664SOL    HW128451   1.381   2.967   4.104 -0.2272  0.4759  0.6371
 5664SOL    HW228452   1.441   2.962   4.235 -0.1772  1.0349 -0.8145
 5665SOL     OW28453   1.306   3.620   3.721  0.1030 -0.3263 -0.1566
 5665SOL    HW128454   1.261   3.651   3.643  0.6592  1.6536  0.3259
 5665SOL    HW228455   1.264   3.538   3.749 -0.5665  0.2373  0.4724
 5666SOL     OW28456   4.254   3.726   2.579  0.3788 -0.1426  0.4747
 5666SOL    HW128457   4.275   3.664   2.649  0.6793  0.4359  0.8943
 5666SOL    HW228458   4.212   3.665   2.518 -2.1314  0.6419  1.4202
 5667SOL     OW28459   2.124   3.072  15.217  0.0561  0.3623  0.3531
 5667SOL    HW128460   2.159   2.984  15.207 -2.7438 -0.8189  1.0099
 5667SOL    HW228461   2.088   3.068  15.306  4.5787  0.0045  2.1559
 5668SOL     OW28462   0.881   0.310   0.758 -0.0951  0.4722 -0.1872
 5668SOL    HW128463   0.921   0.235   0.714  0.8773  0.7378  0.2659
 5668SOL    HW228464   0.844   0.269   0.836 -1.9057 -1.1771 -1.8895
 5669SOL     OW28465   1.845   3.908  17.250 -0.4196  0.7411  0.0836
 5669SOL    HW128466   1.798   3.825  17.261  0.9942 -0.4918 -3.0009
 5669SOL    HW228467   1.829   3.954  17.332  1.4776  0.0392  0.8286
 5670SOL     OW28468   3.371   1.427   8.758  0.2709 -0.3082 -0.7312
 5670SOL    HW128469   3.350   1.449   8.849  1.2255  3.3645 -1.4006
 5670SOL    HW228470   3.301   1.463   8.703 -0.3500  0.0346  0.2848
 5671SOL     OW28471   1.389   1.077   2.458 -0.5335 -0.1025  0.4275
 5671SOL    HW128472   1.454   1.007   2.452 -0.5461 -0.1752  1.2031
 5671SOL    HW228473   1.327   1.036   2.518 -0.8470  1.0300  0.8801
 5672SOL     OW28474   1.828   2.147   1.856  0.2450  0.4400  0.3201
 5672SOL    HW128475   1.904   2.155   1.915  1.6636  0.7742 -1.5459
 5672SOL    HW228476   1.793   2.067   1.896 -3.7131  2.3758  0.7140
 5673SOL     OW28477   1.601   2.972   5.269 -0.0012 -0.4176  0.6227
 5673SOL    HW128478   1.523   2.921   5.248  0.0388 -0.5879  0.8780
 5673SOL    HW228479   1.647   2.971   5.185 -0.5212  2.1378  0.3156
 5674SOL     OW28480   2.477   3.181   0.897  0.0248 -0.0963  0.2676
 5674SOL    HW128481   2.496   3.111   0.835  2.1619 -0.7133  1.6200
 5674SOL    HW228482   2.405   3.156   0.955  0.0711  2.7431  1.5589
 5675SOL     OW28483   0.257   1.474   2.109 -0.2813  0.7705  0.2818
 5675SOL    HW128484   0.208   1.530   2.168 -2.0339 -0.7905  0.3287
 5675SOL    HW228485   0.348   1.492   2.130  0.2458  0.5187 -1.7291
 5676SOL     OW28486   2.959   0.822  17.091  0.2567  0.0402  0.3449
 5676SOL    HW128487   2.931   0.794  17.179 -1.5458 -0.7190 -0.4765
 5676SOL    HW228488   2.923   0.910  17.084  1.1245  0.2740 -1.2418
 5677SOL     OW28489   0.178   2.897   3.692  0.3535 -0.1691 -0.5057
 5677SOL    HW128490   0.097   2.935   3.728 -0.6923 -1.4932 -1.4794
 5677SOL    HW228491   0.203   2.830   3.756 -1.0577 -0.3732 -0.1631
 5678SOL     OW28492   0.531   0.395  13.830 -0.1780  0.4074  0.0152
 5678SOL    HW128493   0.547   0.462  13.897  1.9077  2.5689 -2.6644
 5678SOL    HW228494   0.440   0.411  13.808 -0.2881  1.8770  1.5499
 5679SOL     OW28495   0.960   2.587  15.083 -0.2906  0.7125 -0.4439
 5679SOL    HW128496   0.991   2.659  15.139  1.3054  1.5334 -2.3798
 5679SOL    HW228497   0.873   2.616  15.055 -0.6329 -1.0713 -1.2419
 5680SOL     OW28498   3.892   2.310   1.185 -0.2953 -0.4596  0.0981
 5680SOL    HW128499   3.941   2.357   1.252  1.4334  1.0008 -2.2423
 5680SOL    HW228500   3.963   2.287   1.125  0.2261  0.4740  0.3516
 5681SOL     OW28501   3.051   2.723  12.172 -0.2064  0.4423 -0.0716
 5681SOL    HW128502   3.142   2.737  12.147  0.1799 -0.1385  1.0064
 5681SOL    HW228503   3.059   2.628  12.171  1.4221  0.6011 -1.7937
 5682SOL     OW28504   0.817   0.176   3.809  0.1022  0.3706  0.2336
 5682SOL    HW128505   0.759   0.149   3.881 -0.6963  1.1075 -0.1326
 5682SOL    HW228506   0.884   0.224   3.858 -0.4972 -1.0352  2.4774
 5683SOL     OW28507   1.226   4.228   3.810  0.1584 -0.1627  0.6747
 5683SOL    HW128508   1.207   4.148   3.859 -4.3029  0.7783  0.4964
 5683SOL    HW228509   1.143   4.233   3.763  0.3407 -0.3061  0.3425
 5684SOL     OW28510   0.329   3.320   4.745  0.2444 -0.1964 -0.1111
 5684SOL    HW128511   0.379   3.394   4.782  0.6759 -0.2315 -0.6359
 5684SOL    HW228512   0.373   3.306   4.662  1.4225 -1.8296  0.8024
 5685SOL     OW28513   1.901   2.768   0.600 -0.3236  0.4913  0.0559
 5685SOL    HW128514   1.953   2.723   0.667  0.1241 -1.6557 -1.7213
 5685SOL    HW228515   1.971   2.766   0.535  0.0556 -0.6927  0.4952
 5686SOL     OW28516   3.787   3.261  12.815  0.2331  0.5721  0.1375
 5686SOL    HW128517   3.758   3.227  12.730 -1.1001  1.6247  0.1800
 5686SOL    HW228518   3.882   3.255  12.813  0.2454  0.5742  0.8549
 5687SOL     OW28519   1.410   2.561   9.607  0.6220  0.0861 -0.2223
 5687SOL    HW128520   1.339   2.499   9.592 -0.8522  1.8647 -0.5264
 5687SOL    HW228521   1.479   2.523   9.553  0.1932 -0.5418 -0.3339
 5688SOL     OW28522   1.143   3.528   5.564 -0.3136 -0.6107 -1.1732
 5688SOL    HW128523   1.142   3.560   5.474  3.6073 -1.1557 -1.4090
 5688SOL    HW228524   1.163   3.435   5.548  0.4962 -0.5846 -0.3301
 5689SOL     OW28525   0.025   3.467   3.489 -0.1226  0.1868  0.3502
 5689SOL    HW128526   0.004   3.411   3.415 -1.2129 -1.9267  2.2695
 5689SOL    HW228527   0.017   3.406   3.562  0.2576 -1.7489 -1.2454
 5690SOL     OW28528   1.379   2.693   2.429 -0.8471 -0.2037 -0.1464
 5690SOL    HW128529   1.415   2.617   2.382  1.3762  2.1575 -2.3037
 5690SOL    HW228530   1.301   2.654   2.468 -0.7008 -0.3751 -0.0275
 5691SOL     OW28531   3.424   0.652   6.071  0.1389  0.0163  0.1441
 5691SOL    HW128532   3.503   0.643   6.018  0.3698  1.3603  0.2620
 5691SOL    HW228533   3.360   0.618   6.008  0.6075  0.9527 -0.8380
 5692SOL     OW28534   0.551   0.005   2.114 -0.3005  0.0145  0.5497
 5692SOL    HW128535   0.514   0.088   2.143  0.1397  0.2858  0.3365
 5692SOL    HW228536   0.474   4.701   2.066  0.4896 -1.4272  0.0962
 5693SOL     OW28537   3.882   0.478   1.859  0.2806  0.4254  0.1378
 5693SOL    HW128538   3.839   0.401   1.895  1.9192 -0.9988 -0.9430
 5693SOL    HW228539   3.827   0.505   1.785  0.2345 -2.3704 -0.8243
 5694SOL     OW28540   4.719   3.331   7.042 -0.4815  0.1358  0.8334
 5694SOL    HW128541   0.066   3.302   6.985 -3.0592 -0.7427 -1.9276
 5694SOL    HW228542   4.640   3.301   6.997  0.9405 -2.3631  0.0297
 5695SOL     OW28543   2.418   0.166   0.212  0.0826 -0.3013 -0.1098
 5695SOL    HW128544   2.449   0.222   0.141  0.8687 -0.9182 -0.2508
 5695SOL    HW228545   2.464   0.206   0.286  0.4278  0.8202 -0.9400
 5696SOL     OW28546   2.806   1.219   5.445 -0.0473  0.1981 -0.1746
 5696SOL    HW128547   2.893   1.192   5.415 -0.0945 -0.7333  0.5132
 5696SOL    HW228548   2.811   1.235   5.539 -3.5776  2.0067 -0.3051
 5697SOL     OW28549   1.377   3.921  13.477  0.0925 -0.1694  0.2058
 5697SOL    HW128550   1.335   3.949  13.396 -2.0439 -1.7438  0.7702
 5697SOL    HW228551   1.453   3.980  13.477 -0.0629  0.0220 -0.7034
 5698SOL     OW28552   0.636   1.492  15.960  0.8892  0.0758  0.0929
 5698SOL    HW128553   0.690   1.564  15.927  1.0175 -0.1631 -0.2187
 5698SOL    HW228554   0.574   1.533  16.021 -0.5237 -2.3860  0.3149
 5699SOL     OW28555   1.272   2.737   8.074  0.2429 -0.5292  0.2191
 5699SOL    HW128556   1.275   2.669   8.142  0.0900 -0.8996 -0.1399
 5699SOL    HW228557   1.319   2.701   7.998 -0.4847 -0.2954 -0.3455
 5700SOL     OW28558   1.567   4.222  14.443  0.9043 -0.0027  0.0537
 5700SOL    HW128559   1.637   4.271  14.486  0.9481 -0.8103  0.9164
 5700SOL    HW228560   1.527   4.287  14.386 -1.4244 -0.4513  1.1770
 5701SOL     OW28561   4.240   2.396   6.925 -0.2848  0.5267  0.1860
 5701SOL    HW128562   4.272   2.466   6.982 -0.2336  0.0363  0.7478
 5701SOL    HW228563   4.251   2.448   6.845 -0.1591  1.3304  0.7244
 5702SOL     OW28564   2.894   3.453   3.587 -0.4271 -0.0263 -0.0815
 5702SOL    HW128565   2.834   3.409   3.648 -0.4023  0.4986  0.3145
 5702SOL    HW228566   2.894   3.381   3.523  0.9200  0.5126 -0.6791
 5703SOL     OW28567   1.187   2.577  12.905  0.4410 -0.3212  0.0918
 5703SOL    HW128568   1.185   2.490  12.865 -0.7806 -0.2432  0.0065
 5703SOL    HW228569   1.150   2.633  12.838 -2.8540 -1.2613  1.1128
 5704SOL     OW28570   0.733   2.538   0.915 -0.3278 -0.0397  0.0778
 5704SOL    HW128571   0.801   2.496   0.967 -2.0332 -0.0829  2.2815
 5704SOL    HW228572   0.752   2.501   0.829 -0.5064 -0.3651  0.1778
 5705SOL     OW28573   4.260   0.438   3.092 -0.4460 -0.2337  0.1418
 5705SOL    HW128574   4.323   0.502   3.062 -1.2186  0.0851 -0.7791
 5705SOL    HW228575   4.261   0.444   3.188 -2.4990  1.5739  0.0561
 5706SOL     OW28576   4.358   2.386   2.662 -0.3533 -0.3886  0.3276
 5706SOL    HW128577   4.349   2.293   2.683  1.0592 -0.7251 -0.5617
 5706SOL    HW228578   4.452   2.394   2.650 -0.8081  2.1906 -1.6038
 5707SOL     OW28579   3.956   2.946   6.159  0.1907  0.3901  0.0971
 5707SOL    HW128580   3.866   2.956   6.131 -0.1076 -2.5968 -0.0488
 5707SOL    HW228581   3.949   3.019   6.221  0.7240  1.3756 -1.0093
 5708SOL     OW28582   3.997   2.449   5.030  0.1536 -0.1887  0.8932
 5708SOL    HW128583   4.014   2.472   5.122  2.7203  1.1874  0.0652
 5708SOL    HW228584   3.919   2.395   5.042 -0.8953  1.4208  1.2816
 5709SOL     OW28585   0.628   4.556  12.870  0.4926  0.0318  0.2553
 5709SOL    HW128586   0.597   4.647  12.872  1.2950  0.2902  1.1994
 5709SOL    HW228587   0.555   4.511  12.829  0.8122 -1.2198  1.0522
 5710SOL     OW28588   2.594   1.410   7.417 -0.0285  0.4912 -0.6576
 5710SOL    HW128589   2.521   1.377   7.367  0.5140  1.0276 -1.8043
 5710SOL    HW228590   2.547   1.456   7.486 -0.1608 -0.9083  0.1852
 5711SOL     OW28591   2.850   1.746   4.417 -0.6386 -0.1150 -0.2292
 5711SOL    HW128592   2.774   1.801   4.432 -1.0061 -0.3479 -1.2365
 5711SOL    HW228593   2.850   1.747   4.321 -1.4538  1.1957 -0.1997
 5712SOL     OW28594   3.113   1.356   7.286 -0.4191  0.8467 -0.3278
 5712SOL    HW128595   3.079   1.267   7.292 -1.6788  1.3215 -0.3655
 5712SOL    HW228596   3.137   1.369   7.378 -0.5951  3.3261 -0.6105
 5713SOL     OW28597   0.075   0.922   8.606  1.0251  0.0241  0.3199
 5713SOL    HW128598   0.070   0.887   8.695 -2.5393 -1.1051 -0.3251
 5713SOL    HW228599   0.004   0.877   8.560  0.7555 -0.2915  1.0409
 5714SOL     OW28600   3.077   2.278  11.866 -0.3984  0.2722  0.1106
 5714SOL    HW128601   3.062   2.201  11.920 -1.7194  1.4621  1.4576
 5714SOL    HW228602   3.156   2.251  11.820 -0.0681 -0.1662  0.9413
 5715SOL     OW28603   3.907   4.430   6.687  0.4649 -0.0830  0.3730
 5715SOL    HW128604   3.954   4.377   6.623  2.1030 -1.5520  2.7838
 5715SOL    HW228605   3.839   4.373   6.722 -0.9127  0.4366 -1.4616
 5716SOL     OW28606   4.367   2.977   2.262 -0.2260 -0.0673 -0.2667
 5716SOL    HW128607   4.298   2.955   2.200 -2.0516  3.0744  0.7098
 5716SOL    HW228608   4.430   3.020   2.203  0.7687 -0.1337  0.7496
 5717SOL     OW28609   3.232   2.196   7.613 -0.3177 -0.2084 -0.0747
 5717SOL    HW128610   3.232   2.104   7.642  1.3097  0.2471  1.3599
 5717SOL    HW228611   3.319   2.221   7.645 -0.2506  1.0788 -1.2943
 5718SOL     OW28612   4.603   2.822  10.092 -0.1126  0.7384  0.1160
 5718SOL    HW128613   4.566   2.870  10.166 -2.0360  0.8340 -0.9154
 5718SOL    HW228614   4.525   2.784  10.050 -0.4863 -0.1114  1.5915
 5719SOL     OW28615   4.422   4.451   5.814  0.0927 -0.2363  0.0305
 5719SOL    HW128616   4.498   4.471   5.759  0.4296  0.9694  0.9294
 5719SOL    HW228617   4.447   4.360   5.830  0.8206  0.4040  2.5316
 5720SOL     OW28618   2.325   2.543  14.186  0.6230  0.7026 -0.0463
 5720SOL    HW128619   2.325   2.593  14.105 -0.4651 -0.5993 -0.8652
 5720SOL    HW228620   2.270   2.473  14.148  2.1240  0.4891 -1.8194
 5721SOL     OW28621   0.123   4.687   7.197 -0.3408 -0.1131 -0.2976
 5721SOL    HW128622   0.167   0.040   7.233 -0.4298 -1.1819  2.0544
 5721SOL    HW228623   0.061   4.675   7.269  1.1136 -1.5798  0.6878
 5722SOL     OW28624   1.162   1.347   6.614 -0.0927 -0.5218 -0.5123
 5722SOL    HW128625   1.109   1.426   6.612 -0.7171 -0.9105  0.8084
 5722SOL    HW228626   1.148   1.310   6.701 -1.3759  1.1402 -0.0182
 5723SOL     OW28627   0.770   3.076  10.499  0.5024 -0.7666  0.2141
 5723SOL    HW128628   0.776   3.057  10.405 -0.7764  0.2042 -0.0699
 5723SOL    HW228629   0.719   3.004  10.535  0.6038 -1.5086 -1.1033
 5724SOL     OW28630   1.228   2.946  14.508  0.3008 -0.2584 -0.5495
 5724SOL    HW128631   1.258   2.855  14.512  0.1210 -0.3188 -0.5612
 5724SOL    HW228632   1.275   2.985  14.582  0.5605 -0.8075 -0.4215
 5725SOL     OW28633   0.399   3.733   3.936  0.4065 -0.2620  0.7528
 5725SOL    HW128634   0.363   3.814   3.973 -0.4921 -0.6401  0.7156
 5725SOL    HW228635   0.493   3.750   3.935  0.0562  1.6274 -2.0098
 5726SOL     OW28636   0.905   2.876  13.637  0.2364  0.1199 -0.0051
 5726SOL    HW128637   0.946   2.872  13.550 -4.0319  1.8077 -2.1462
 5726SOL    HW228638   0.986   2.891  13.684  0.6782  0.6559 -0.9254
 5727SOL     OW28639   3.793   4.626   2.601  0.6656  0.0246 -0.1406
 5727SOL    HW128640   3.729   4.555   2.609 -0.0071  0.9632  2.6774
 5727SOL    HW228641   3.830   4.630   2.689 -1.9771 -0.8686  0.9901
 5728SOL     OW28642   4.715   1.178   9.581 -0.2419 -0.3289 -0.2477
 5728SOL    HW128643   0.082   1.149   9.592 -0.5941 -1.4907 -0.3731
 5728SOL    HW228644   4.697   1.165   9.487  1.2732  0.1214 -0.6137
 5729SOL     OW28645   2.728   2.209   6.134  0.6079 -0.1852  0.7965
 5729SOL    HW128646   2.700   2.204   6.225  0.5840 -1.0882  0.7440
 5729SOL    HW228647   2.678   2.284   6.102 -0.8826  0.6524  5.0416
 5730SOL     OW28648   2.759   4.060   6.653  0.0242  0.4985  0.1514
 5730SOL    HW128649   2.828   4.119   6.682 -0.4658  0.8782  0.5596
 5730SOL    HW228650   2.691   4.082   6.717  0.3036  1.4365  0.1187
 5731SOL     OW28651   3.216   1.847   4.041  0.2484 -0.3439 -0.1251
 5731SOL    HW128652   3.193   1.761   4.005 -0.7226 -0.3009  0.3991
 5731SOL    HW228653   3.300   1.845   3.995  0.7582 -0.0892  0.7926
 5732SOL     OW28654   4.002   1.326   2.624 -0.3809 -0.4385  0.4313
 5732SOL    HW128655   3.979   1.295   2.536  1.4584 -0.8236  0.0748
 5732SOL    HW228656   3.956   1.270   2.686 -2.1538  2.7047  1.9596
 5733SOL     OW28657   0.796   0.475  14.489  1.1852  0.0913 -0.6040
 5733SOL    HW128658   0.847   0.425  14.425  1.5482  1.8791 -1.7124
 5733SOL    HW228659   0.849   0.548  14.520  0.0924  0.4583  0.4157
 5734SOL     OW28660   0.487   3.755   5.251 -0.3227 -0.2280  0.3079
 5734SOL    HW128661   0.492   3.779   5.159  1.1705  0.1067  0.4801
 5734SOL    HW228662   0.411   3.697   5.250 -1.2779  1.0216  2.7347
 5735SOL     OW28663   1.604   4.046   2.513 -0.2937 -0.0717 -0.6609
 5735SOL    HW128664   1.613   3.960   2.553  0.5510 -0.1025 -0.8967
 5735SOL    HW228665   1.564   4.023   2.429 -0.4770 -1.2110 -0.2506
 5736SOL     OW28666   0.210   0.532   1.946 -0.0127 -0.1235  0.6464
 5736SOL    HW128667   0.210   0.453   2.001  0.5337 -0.3385  0.3365
 5736SOL    HW228668   0.301   0.543   1.919 -0.5532  0.4449 -0.9101
 5737SOL     OW28669   3.784   0.595  17.113  0.0710  0.8723  0.1088
 5737SOL    HW128670   3.708   0.577  17.058 -0.7889 -0.4643  1.7477
 5737SOL    HW228671   3.747   0.635  17.192  2.2217  0.1521  1.4891
 5738SOL     OW28672   3.913   1.958   0.067  0.1999 -0.0155  0.2004
 5738SOL    HW128673   3.957   1.888   0.019  0.1555  1.2606 -1.6844
 5738SOL    HW228674   3.867   1.908   0.134  0.6430  0.0061  0.5259
 5739SOL     OW28675   4.325   1.683   7.119 -0.5690 -0.5606 -0.8315
 5739SOL    HW128676   4.349   1.776   7.113  0.4576 -0.7602  0.2082
 5739SOL    HW228677   4.392   1.636   7.070  1.3594  2.5239 -1.2003
 5740SOL     OW28678   1.004   3.905   3.245 -0.3388  0.4469  1.2439
 5740SOL    HW128679   0.920   3.874   3.278  0.5355 -1.0271  2.0654
 5740SOL    HW228680   1.027   3.980   3.301 -0.5021  0.5212  1.2108
 5741SOL     OW28681   4.354   1.139   8.825 -0.2847 -0.0138 -0.1972
 5741SOL    HW128682   4.417   1.191   8.875 -0.5160  0.5064 -0.4465
 5741SOL    HW228683   4.272   1.184   8.845 -0.2548 -0.0996  0.1291
 5742SOL     OW28684   1.239   2.503   9.293  0.2192  0.1203 -0.0310
 5742SOL    HW128685   1.321   2.544   9.264  0.2519 -0.7555 -1.2153
 5742SOL    HW228686   1.260   2.410   9.293  0.7030  0.2315  0.3710
 5743SOL     OW28687   1.873   4.117   7.073 -0.7509 -0.2148  0.2353
 5743SOL    HW128688   1.805   4.127   7.139 -0.9740 -0.1656  0.0007
 5743SOL    HW228689   1.881   4.023   7.091  0.1529 -0.1822  0.0046
 5744SOL     OW28690   4.557   1.243   4.993 -0.0970  0.1718 -0.0623
 5744SOL    HW128691   4.637   1.191   5.002  1.1609  1.9088 -1.0713
 5744SOL    HW228692   4.490   1.182   4.965 -0.4050  1.4747 -2.1651
 5745SOL     OW28693   1.370   2.419   4.476 -0.4163 -0.2145  0.6382
 5745SOL    HW128694   1.305   2.350   4.493 -2.0125  0.9450 -0.7855
 5745SOL    HW228695   1.447   2.362   4.471 -2.0725 -2.4352  0.0879
 5746SOL     OW28696   0.289   2.272  11.602 -0.3039 -0.4153  0.3861
 5746SOL    HW128697   0.195   2.260  11.587 -0.4120 -0.1484  0.8645
 5746SOL    HW228698   0.332   2.191  11.574 -2.2663 -0.6726 -1.9163
 5747SOL     OW28699   1.344   3.201   2.397 -0.3162 -0.1680 -0.1855
 5747SOL    HW128700   1.273   3.261   2.375 -1.8845 -1.3542  1.7068
 5747SOL    HW228701   1.377   3.224   2.484  1.4914 -0.8281 -0.6995
 5748SOL     OW28702   3.660   2.288   9.153  0.4594 -0.5982  0.1149
 5748SOL    HW128703   3.599   2.270   9.225  1.2095 -1.7765  0.4559
 5748SOL    HW228704   3.654   2.383   9.157  0.2344 -0.6133  0.1418
 5749SOL     OW28705   0.475   0.568   2.165  0.5639  0.0925 -0.5228
 5749SOL    HW128706   0.410   0.529   2.224  2.4186 -1.1688  0.6911
 5749SOL    HW228707   0.562   0.559   2.205  0.9462 -0.5994 -1.5166
 5750SOL     OW28708   3.729   1.586   3.355 -0.5587 -0.2601  0.4151
 5750SOL    HW128709   3.708   1.625   3.270 -1.7927  0.6590  1.1429
 5750SOL    HW228710   3.642   1.579   3.393  0.2868 -0.4257  2.3218
 5751SOL     OW28711   0.044   2.834   3.081  0.3185 -0.4387 -0.3170
 5751SOL    HW128712   0.139   2.825   3.095  0.0930 -2.0813  0.2306
 5751SOL    HW228713   0.037   2.783   3.000 -0.3562  1.0163 -1.1565
 5752SOL     OW28714   1.092   1.613   8.475  0.0417  0.4304  0.1028
 5752SOL    HW128715   1.181   1.605   8.509 -0.6229 -0.0362  1.7444
 5752SOL    HW228716   1.088   1.705   8.447 -2.4327 -0.3397 -2.0847
 5753SOL     OW28717   1.252   0.980  16.659 -0.4408  0.6745  0.1548
 5753SOL    HW128718   1.235   1.033  16.737 -0.8467  1.0814 -0.2149
 5753SOL    HW228719   1.239   1.040  16.586 -3.5943 -2.8708 -2.1867
 5754SOL     OW28720   3.589   4.267  12.970  0.6354  0.4532  0.5268
 5754SOL    HW128721   3.642   4.341  13.001  1.0731  0.2791  0.2011
 5754SOL    HW228722   3.524   4.245  13.036 -0.9195 -0.0074 -1.1448
 5755SOL     OW28723   0.482   4.471   3.391  0.2064  0.2645  0.1906
 5755SOL    HW128724   0.505   4.541   3.453  1.4554 -1.0131  1.1805
 5755SOL    HW228725   0.389   4.463   3.409  0.6034 -1.7923  1.3791
 5756SOL     OW28726   4.148   0.206   3.119 -0.4567  0.3908 -0.4218
 5756SOL    HW128727   4.198   0.282   3.089 -1.2484  1.0453 -0.0612
 5756SOL    HW228728   4.169   0.198   3.212  1.1830  1.8287 -0.6602
 5757SOL     OW28729   1.093   2.243  11.495 -0.2174 -0.2487  0.2320
 5757SOL    HW128730   1.100   2.148  11.484 -2.2117 -0.5508  1.5419
 5757SOL    HW228731   1.167   2.242  11.555 -0.3886  0.3062  0.4527
 5758SOL     OW28732   2.775   0.309   0.135  0.1941 -0.4298  0.1569
 5758SOL    HW128733   2.858   0.265   0.119  0.2162  1.2985 -4.5975
 5758SOL    HW228734   2.806   0.384   0.185  2.6314 -1.2885 -0.0557
 5759SOL     OW28735   0.977   3.396  16.057 -0.2955 -0.3626 -0.4339
 5759SOL    HW128736   1.018   3.482  16.068 -2.2140  0.3199  1.3054
 5759SOL    HW228737   0.907   3.396  16.122 -1.1767  1.2881 -1.3882
 5760SOL     OW28738   1.739   1.529   8.686  0.1645 -0.1264  0.9043
 5760SOL    HW128739   1.763   1.475   8.611  1.0356  1.4051  0.0619
 5760SOL    HW228740   1.772   1.619   8.680  0.1282 -0.1682  0.1491
 5761SOL     OW28741   0.131   2.539   5.098  0.0563  0.2169  0.3543
 5761SOL    HW128742   0.090   2.457   5.070  2.3480 -1.2082  1.2336
 5761SOL    HW228743   0.075   2.560   5.174 -2.3602  1.3442 -1.7298
 5762SOL     OW28744   3.627   3.245  14.085  0.0723  0.2554  0.4279
 5762SOL    HW128745   3.670   3.288  14.159 -0.9923  0.2639  1.0411
 5762SOL    HW228746   3.687   3.178  14.052 -2.2728 -0.6018 -2.1349
 5763SOL     OW28747   2.125   0.898  16.357  0.0688 -0.3861 -0.2812
 5763SOL    HW128748   2.130   0.984  16.398  2.8588  0.2700 -2.0134
 5763SOL    HW228749   2.217   0.882  16.336  0.6219 -0.5421  2.3417
 5764SOL     OW28750   0.098   4.685   8.042  0.6695 -0.1195 -0.0558
 5764SOL    HW128751   0.067   4.616   7.983  0.7903 -1.9301  1.9805
 5764SOL    HW228752   0.177   4.644   8.077  2.7444  0.3232 -4.2836
 5765SOL     OW28753   2.119   4.260  16.972  0.5366 -0.4141  0.5465
 5765SOL    HW128754   2.079   4.344  16.951  0.6227 -0.7045 -0.8184
 5765SOL    HW228755   2.060   4.230  17.041  0.4951  1.5071  1.3288
 5766SOL     OW28756   4.195   2.047  15.413 -0.2097 -0.2484 -0.2402
 5766SOL    HW128757   4.156   1.987  15.349 -1.0660 -0.5552  0.5634
 5766SOL    HW228758   4.284   2.012  15.421  1.1837  3.4124  0.2140
 5767SOL     OW28759   2.785   4.206   5.025  0.6458 -0.9564  0.4336
 5767SOL    HW128760   2.879   4.208   5.042  0.9075 -0.2425 -1.0697
 5767SOL    HW228761   2.757   4.260   5.099  3.3531  0.3464  0.4984
 5768SOL     OW28762   2.439   4.000   4.617  0.2614  0.1210 -0.7377
 5768SOL    HW128763   2.379   4.073   4.601  1.0332  0.8141 -0.4566
 5768SOL    HW228764   2.393   3.951   4.686  2.1708 -1.0929 -0.3449
 5769SOL     OW28765   0.634   2.069   7.693  0.2027 -0.3725 -0.0464
 5769SOL    HW128766   0.622   1.974   7.689 -0.8825 -0.2038 -0.9285
 5769SOL    HW228767   0.585   2.094   7.772 -0.7763  0.2730 -0.8517
 5770SOL     OW28768   4.310   3.361   7.899 -0.1000  0.5916  0.0306
 5770SOL    HW128769   4.370   3.411   7.845  0.0418  1.5682  1.0820
 5770SOL    HW228770   4.336   3.387   7.988 -0.5937 -0.6290  0.5394
 5771SOL     OW28771   0.859   4.242   0.368 -0.2094 -0.1589 -0.2602
 5771SOL    HW128772   0.860   4.154   0.329 -3.0036  0.2040 -1.1276
 5771SOL    HW228773   0.941   4.238   0.417 -1.9324 -1.5578  2.5073
 5772SOL     OW28774   3.145   0.191   2.209 -0.0544 -0.3353  0.6164
 5772SOL    HW128775   3.207   0.120   2.225 -1.2721 -1.7863 -1.0324
 5772SOL    HW228776   3.146   0.234   2.294 -0.6194  1.7697 -0.4450
 5773SOL     OW28777   1.305   3.856   8.890 -0.2707 -0.4539 -0.1696
 5773SOL    HW128778   1.321   3.782   8.949 -0.8232 -0.5088 -0.0872
 5773SOL    HW228779   1.371   3.919   8.920 -0.1699 -0.6057 -0.0722
 5774SOL     OW28780   4.545   2.062  13.346  0.5973  0.5092 -0.0513
 5774SOL    HW128781   4.511   2.141  13.388  0.6028 -0.5917  2.0217
 5774SOL    HW228782   4.556   2.091  13.255  0.8765 -1.0281 -0.5109
 5775SOL     OW28783   0.311   0.159   5.189  0.1599  0.0543 -0.1111
 5775SOL    HW128784   0.363   0.177   5.267 -0.5009  1.0635  0.1021
 5775SOL    HW228785   0.332   0.233   5.131 -0.0628  1.0480  1.0745
 5776SOL     OW28786   1.725   3.204  14.975 -0.1082  0.0586  0.4521
 5776SOL    HW128787   1.727   3.262  14.899  0.0618  1.8116  1.8060
 5776SOL    HW228788   1.789   3.135  14.956  0.4923  0.4645  1.0277
 5777SOL     OW28789   2.262   2.198   8.431  0.3740  0.0164  0.3886
 5777SOL    HW128790   2.285   2.290   8.418  0.3423  0.2734  2.2265
 5777SOL    HW228791   2.286   2.188   8.523 -1.6125  1.6077  1.0726
 5778SOL     OW28792   4.556   0.585   7.463  0.0172 -0.2911  0.3205
 5778SOL    HW128793   4.609   0.619   7.391 -0.1535 -0.2821  0.1993
 5778SOL    HW228794   4.493   0.526   7.420  1.2203 -1.3727  0.0507
 5779SOL     OW28795   4.345   1.596   2.236 -0.5366  0.3226 -0.3720
 5779SOL    HW128796   4.434   1.624   2.256 -0.7372 -0.6097  1.8892
 5779SOL    HW228797   4.311   1.568   2.321 -2.7255 -1.7063 -1.9322
 5780SOL     OW28798   3.234   3.592   7.255 -0.0395  0.0629 -0.8508
 5780SOL    HW128799   3.209   3.660   7.192  0.6691  1.0657 -0.0427
 5780SOL    HW228800   3.308   3.641   7.291 -1.6740  0.1172  2.4129
 5781SOL     OW28801   1.356   1.810  15.101 -0.1380  0.6252 -0.3267
 5781SOL    HW128802   1.449   1.787  15.094  0.1020  0.6472  2.6072
 5781SOL    HW228803   1.325   1.726  15.135  1.9312 -0.2724 -0.6558
 5782SOL     OW28804   0.535   4.190   6.528  0.3581  0.5143 -0.0312
 5782SOL    HW128805   0.475   4.216   6.598 -0.1357 -2.7454  0.7838
 5782SOL    HW228806   0.482   4.115   6.499  0.5194  0.6380 -0.6420
 5783SOL     OW28807   0.590   1.663   0.329 -0.5296 -0.2878  0.0781
 5783SOL    HW128808   0.521   1.649   0.394  1.3821 -0.5039  2.0658
 5783SOL    HW228809   0.665   1.620   0.371 -0.9887 -0.6252  0.5485
 5784SOL     OW28810   3.427   1.514   8.274 -0.1949  0.1165  0.4385
 5784SOL    HW128811   3.447   1.602   8.306  0.2202 -0.6046  2.1760
 5784SOL    HW228812   3.334   1.495   8.285  0.2962 -3.7732 -2.0977
 5785SOL     OW28813   0.094   3.684  10.700 -0.6206 -0.3687  0.0144
 5785SOL    HW128814   0.132   3.618  10.758 -0.3550  0.5463  0.8899
 5785SOL    HW228815   0.123   3.643  10.618 -0.9223 -0.6167  0.0311
 5786SOL     OW28816   0.780   1.547   1.444  0.1067 -0.2438  0.5253
 5786SOL    HW128817   0.858   1.563   1.497 -0.1514 -0.3684  0.9441
 5786SOL    HW228818   0.802   1.464   1.403 -0.9828 -0.5584  0.5753
 5787SOL     OW28819   0.508   0.242  16.202  0.5178  0.0392 -0.4327
 5787SOL    HW128820   0.516   0.280  16.114  1.0297  2.9874  0.8994
 5787SOL    HW228821   0.425   0.280  16.232  0.4068 -0.1491 -0.5016
 5788SOL     OW28822   4.294   0.559   1.411 -0.1539  0.2882  0.0875
 5788SOL    HW128823   4.276   0.493   1.478  0.5508 -0.9825 -0.9869
 5788SOL    HW228824   4.224   0.621   1.434  0.1766  1.6656 -2.6427
 5789SOL     OW28825   0.189   2.223  15.231  0.2044  0.2045 -0.5902
 5789SOL    HW128826   0.225   2.308  15.258  0.9134 -0.1574 -0.3829
 5789SOL    HW228827   0.107   2.250  15.192  0.6964  1.6446 -0.6403
 5790SOL     OW28828   2.937   2.955   3.447  0.3499 -0.1518 -0.0044
 5790SOL    HW128829   2.922   2.860   3.450  0.4161 -0.1330  0.8009
 5790SOL    HW228830   2.992   2.970   3.523 -1.4924  0.3664  1.2324
 5791SOL     OW28831   2.300   2.767   2.543  0.5322  0.7219 -0.2292
 5791SOL    HW128832   2.284   2.728   2.629  1.0006  0.2109 -0.3763
 5791SOL    HW228833   2.344   2.694   2.499 -0.9507 -0.1172 -0.3387
 5792SOL     OW28834   0.961   2.880   2.935  0.0353  0.3348  0.3488
 5792SOL    HW128835   0.885   2.876   2.877 -0.0182 -2.2817  0.5661
 5792SOL    HW228836   0.987   2.788   2.940 -1.8563 -0.1296  1.4257
 5793SOL     OW28837   2.625   4.165   9.156  0.1802 -0.2355  0.1206
 5793SOL    HW128838   2.561   4.194   9.221 -0.4471 -1.5467  0.1041
 5793SOL    HW228839   2.590   4.202   9.076 -0.3829  1.0209  0.9552
 5794SOL     OW28840   1.314   0.992   8.101  0.9472  0.6975 -0.4465
 5794SOL    HW128841   1.277   1.080   8.096 -0.4892  0.1034 -0.5419
 5794SOL    HW228842   1.402   0.995   8.138  1.0266  1.5478 -0.7029
 5795SOL     OW28843   4.667   3.117   9.641  0.1244  0.1997 -0.1087
 5795SOL    HW128844   4.692   3.198   9.597 -1.4226  0.6149 -0.2207
 5795SOL    HW228845   0.017   3.103   9.702  0.7456 -0.4742 -0.9998
 5796SOL     OW28846   2.023   3.918  11.703  0.1300  0.5013  0.6533
 5796SOL    HW128847   1.936   3.908  11.665  0.2744  0.4525  0.3352
 5796SOL    HW228848   2.087   3.884  11.640  0.9273  0.3947  1.5271
 5797SOL     OW28849   2.920   1.852   1.249 -0.5418 -0.1791  0.3912
 5797SOL    HW128850   2.934   1.808   1.333  1.4941  3.4881  1.9649
 5797SOL    HW228851   3.000   1.904   1.252  1.5188 -3.2842 -0.9223
 5798SOL     OW28852   1.519   3.508  15.963 -0.2612  0.0547  0.4120
 5798SOL    HW128853   1.447   3.464  15.918  2.3273 -2.9558 -0.8269
 5798SOL    HW228854   1.591   3.453  15.933 -1.2897 -0.1504 -1.7117
 5799SOL     OW28855   2.583   2.043  10.533 -0.0754  0.4261 -0.0730
 5799SOL    HW128856   2.654   2.058  10.470 -0.9079  0.7437 -0.9424
 5799SOL    HW228857   2.619   2.035  10.621  1.7606  0.4676 -0.8166
 5800SOL     OW28858   0.861   4.344  12.067  0.8084  0.3386  0.0347
 5800SOL    HW128859   0.789   4.401  12.096 -1.7906 -1.4825 -2.8962
 5800SOL    HW228860   0.933   4.403  12.048 -0.1199  1.9131  1.3604
 5801SOL     OW28861   4.097   3.707  16.873 -0.2383  0.6787 -0.2749
 5801SOL    HW128862   4.064   3.756  16.949  2.1850  1.2598  0.3944
 5801SOL    HW228863   4.181   3.751  16.867  1.5177 -2.6712  0.0694
 5802SOL     OW28864   0.768   2.954   2.525 -0.1228 -0.5354  0.3714
 5802SOL    HW128865   0.729   3.013   2.460  0.7534 -0.5587 -0.1787
 5802SOL    HW228866   0.746   2.869   2.486 -0.3605  0.4755 -1.7285
 5803SOL     OW28867   0.531   2.444   6.471 -1.3343 -0.2254 -0.3042
 5803SOL    HW128868   0.587   2.383   6.519 -2.0676  0.7013  1.7092
 5803SOL    HW228869   0.597   2.498   6.426  1.7774 -1.6189  2.5482
 5804SOL     OW28870   3.920   3.700   5.059  0.1223  1.0692  0.0351
 5804SOL    HW128871   3.922   3.693   4.963 -1.5811 -1.2993  0.1461
 5804SOL    HW228872   3.828   3.704   5.086 -0.6784 -1.4787 -2.2101
 5805SOL     OW28873   3.762   1.857  14.584 -0.9609  0.1662 -0.5837
 5805SOL    HW128874   3.818   1.905  14.524  0.0888 -0.6927 -0.2897
 5805SOL    HW228875   3.713   1.796  14.530 -0.8118  1.2855 -1.9741
 5806SOL     OW28876   0.518   3.034   2.783 -0.0215  0.2130  0.5870
 5806SOL    HW128877   0.564   2.954   2.756  3.0039  1.4738  2.0027
 5806SOL    HW228878   0.430   2.999   2.795  0.5847 -1.2168  0.8790
 5807SOL     OW28879   0.644   2.953   6.927 -0.3047 -0.7816 -0.0966
 5807SOL    HW128880   0.667   3.014   6.857  3.3733 -0.7667  1.1253
 5807SOL    HW228881   0.560   2.986   6.961 -0.7492  0.0793 -2.0574
 5808SOL     OW28882   1.706   1.128  17.430  0.0311  0.4413 -0.2018
 5808SOL    HW128883   1.744   1.151  17.514 -0.1493 -0.6985  0.1788
 5808SOL    HW228884   1.635   1.070  17.454 -0.4709  0.2052 -2.2040
 5809SOL     OW28885   4.099   4.147  10.016 -0.2972  0.2946 -0.2215
 5809SOL    HW128886   4.174   4.203  10.033  0.9124 -1.5870  0.6262
 5809SOL    HW228887   4.072   4.123  10.104 -1.2476 -0.6388 -0.7660
 5810SOL     OW28888   3.780   1.760   5.467  0.2558  0.0201 -0.1639
 5810SOL    HW128889   3.744   1.724   5.386 -1.1416  0.8815  0.0691
 5810SOL    HW228890   3.863   1.797   5.439 -0.2028  1.1607 -0.0081
 5811SOL     OW28891   1.126   2.443   7.778  0.3917 -0.0586 -0.0008
 5811SOL    HW128892   1.202   2.454   7.835 -0.1478 -0.9041  0.8734
 5811SOL    HW228893   1.161   2.493   7.704  0.5361  1.2268  0.9477
 5812SOL     OW28894   0.416   1.751   2.032 -0.3678  0.2527  0.1002
 5812SOL    HW128895   0.471   1.782   2.105 -0.7936  1.7156 -0.1992
 5812SOL    HW228896   0.337   1.798   2.058  0.2303  0.4626  1.5998
 5813SOL     OW28897   4.420   0.140   8.045  0.6836 -0.1713 -0.0699
 5813SOL    HW128898   4.417   0.090   7.963 -0.0296 -1.5614  0.7976
 5813SOL    HW228899   4.511   0.169   8.042  0.9968 -1.2405 -1.0877
 5814SOL     OW28900   1.231   0.410   4.927  0.2673  0.1436  0.0706
 5814SOL    HW128901   1.201   0.409   4.836  1.6019  1.1080 -0.3858
 5814SOL    HW228902   1.148   0.415   4.973 -0.1422  1.8772 -0.8430
 5815SOL     OW28903   1.916   2.067   2.555 -0.6394 -0.2999  0.9582
 5815SOL    HW128904   1.955   2.134   2.610  0.1286  1.5646 -1.8807
 5815SOL    HW228905   1.854   2.123   2.507  1.1518 -0.6200 -1.7580
 5816SOL     OW28906   0.067   0.581   6.074  0.1095 -0.3798  0.1165
 5816SOL    HW128907   0.087   0.538   6.156  0.8670 -0.7301 -0.2540
 5816SOL    HW228908   0.147   0.625   6.047  0.8230 -1.6263  0.2291
 5817SOL     OW28909   4.026   1.888   4.039 -0.7111  0.5184  0.5678
 5817SOL    HW128910   4.056   1.814   3.986 -0.1496 -0.0775  1.7163
 5817SOL    HW228911   4.073   1.963   4.004  4.2504 -2.0119  1.8356
 5818SOL     OW28912   3.591   1.794   6.372 -0.0738  0.5011 -0.5807
 5818SOL    HW128913   3.563   1.819   6.284  1.7826  0.1653 -1.2632
 5818SOL    HW228914   3.567   1.702   6.372  0.8149  0.2655 -0.7081
 5819SOL     OW28915   3.491   1.903  14.036 -0.4306  0.2268  0.6761
 5819SOL    HW128916   3.403   1.886  14.068 -0.3009  0.2357  1.0366
 5819SOL    HW228917   3.521   1.974  14.092  1.6400 -0.6397  0.6738
 5820SOL     OW28918   1.756   3.089   2.499  0.8540  0.3366 -0.1138
 5820SOL    HW128919   1.824   3.021   2.499  0.4208 -0.0997  0.4504
 5820SOL    HW228920   1.807   3.169   2.493  0.1720  0.5713 -2.5485
 5821SOL     OW28921   1.721   2.454   3.436  0.0110  0.6834  0.2816
 5821SOL    HW128922   1.644   2.483   3.386 -0.0430  1.3671  0.7549
 5821SOL    HW228923   1.690   2.473   3.525  0.0169  0.4295  0.3373
 5822SOL     OW28924   2.527   1.145   1.721 -0.0835  0.2754 -0.3212
 5822SOL    HW128925   2.594   1.142   1.653  0.3950 -1.8594  0.2291
 5822SOL    HW228926   2.450   1.127   1.667 -0.9917  2.1262  0.3720
 5823SOL     OW28927   3.604   0.411  15.257  0.1088 -0.3423 -0.2242
 5823SOL    HW128928   3.639   0.477  15.317 -1.2940 -0.4284  0.6940
 5823SOL    HW228929   3.598   0.459  15.175 -1.9699  3.3711  2.1396
 5824SOL     OW28930   3.150   1.299   2.505 -0.1704 -0.4324  0.5138
 5824SOL    HW128931   3.064   1.273   2.539 -0.9514  1.2766 -0.1412
 5824SOL    HW228932   3.199   1.217   2.499 -2.8672 -1.9907 -0.3409
 5825SOL     OW28933   1.728   3.003   6.681  0.0523 -0.2499  0.4790
 5825SOL    HW128934   1.782   2.987   6.604  0.8152  0.8450  0.7864
 5825SOL    HW228935   1.675   2.923   6.677 -0.1485 -0.0587 -0.6540
 5826SOL     OW28936   0.270   4.669  15.083 -0.2040  0.2683  0.0177
 5826SOL    HW128937   0.357   4.631  15.084 -0.5358 -0.5186 -0.8190
 5826SOL    HW228938   0.297   0.029  15.045  0.7172 -1.2728 -2.7155
 5827SOL     OW28939   3.475   4.323   3.847  0.1578  0.7074  0.0196
 5827SOL    HW128940   3.567   4.326   3.821 -0.1068  0.5601 -0.9432
 5827SOL    HW228941   3.435   4.321   3.760 -1.2121  0.2098  0.6548
 5828SOL     OW28942   1.812   1.153   2.249  0.1299  0.6623 -0.1229
 5828SOL    HW128943   1.860   1.167   2.168  0.1650 -2.2779 -0.5920
 5828SOL    HW228944   1.875   1.095   2.291 -1.9090 -1.1200  0.4332
 5829SOL     OW28945   1.714   2.985   0.561 -0.6320 -0.3172 -0.3383
 5829SOL    HW128946   1.753   2.898   0.569 -2.2555 -0.7939  2.2849
 5829SOL    HW228947   1.752   3.032   0.635 -0.5860 -1.5975  0.4442
 5830SOL     OW28948   3.314   1.992   8.433  0.0843 -0.1015 -0.1786
 5830SOL    HW128949   3.371   1.918   8.453 -1.9169 -1.1634  1.6094
 5830SOL    HW228950   3.377   2.060   8.411 -0.1961  0.3226  0.3357
 5831SOL     OW28951   1.072   3.866  13.166  0.2937 -0.5479 -0.3315
 5831SOL    HW128952   0.980   3.884  13.188  0.6935  0.3902  0.5396
 5831SOL    HW228953   1.068   3.804  13.093  0.7078 -0.3441 -0.5229
 5832SOL     OW28954   4.342   3.784   0.811 -0.2799  0.1447  0.2530
 5832SOL    HW128955   4.359   3.833   0.892  1.0850  0.7862 -0.4283
 5832SOL    HW228956   4.413   3.819   0.757  1.3326 -0.1905  2.1513
 5833SOL     OW28957   4.651   3.176  17.307  0.0198 -0.4045 -0.2756
 5833SOL    HW128958   4.700   3.179  17.389 -0.0233 -1.2021 -0.2198
 5833SOL    HW228959   4.563   3.166  17.343  0.5450  0.4401  1.2613
 5834SOL     OW28960   1.446   2.747   3.071 -0.4508  0.5020 -0.3082
 5834SOL    HW128961   1.471   2.812   3.004  0.2641 -0.6467 -1.1551
 5834SOL    HW228962   1.524   2.740   3.125 -2.1847 -0.3185  2.0689
 5835SOL     OW28963   2.664   2.048   1.404  0.0130  0.9928  0.2953
 5835SOL    HW128964   2.635   2.039   1.495  1.7520 -1.0365  0.6412
 5835SOL    HW228965   2.731   1.983   1.384  0.0402  0.8435  0.8954
 5836SOL     OW28966   2.399   3.371   4.972 -0.1151  0.2329  0.1773
 5836SOL    HW128967   2.435   3.442   4.920 -1.1832  1.3186  0.9036
 5836SOL    HW228968   2.450   3.296   4.941 -2.4537 -0.0069 -3.1074
 5837SOL     OW28969   0.172   2.076   4.941  0.0289  0.0391 -0.6085
 5837SOL    HW128970   0.183   2.053   4.849  0.6735  0.9528 -0.7529
 5837SOL    HW228971   0.257   2.045   4.972  0.0024 -0.7101 -1.2890
 5838SOL     OW28972   1.508   3.866   3.128 -0.4415  0.2021 -0.2000
 5838SOL    HW128973   1.459   3.942   3.095 -0.2288  0.1981 -0.5290
 5838SOL    HW228974   1.584   3.914   3.161  0.2672  0.2765 -1.9428
 5839SOL     OW28975   2.524   1.313   4.545 -0.0177 -0.0182 -0.8037
 5839SOL    HW128976   2.524   1.405   4.517  1.7227  0.8397  2.0528
 5839SOL    HW228977   2.614   1.288   4.527  0.0223 -0.8094  0.5033
 5840SOL     OW28978   2.724   1.851   0.162 -0.0458 -0.2217  0.3146
 5840SOL    HW128979   2.778   1.877   0.236  1.5912 -1.1856 -0.5347
 5840SOL    HW228980   2.661   1.791   0.202 -0.3226  0.7202  1.2639
 5841SOL     OW28981   0.720   1.300   6.718 -0.5404  0.0197  0.2996
 5841SOL    HW128982   0.699   1.322   6.809 -0.2830 -0.0561  0.3795
 5841SOL    HW228983   0.655   1.344   6.664 -0.3241 -1.6509 -1.3134
 5842SOL     OW28984   0.088   4.655  14.794 -0.0173 -0.6673 -0.1715
 5842SOL    HW128985   0.116   4.585  14.853 -0.4245  0.3679  1.2516
 5842SOL    HW228986   0.164   4.654  14.736  0.1870 -2.8910  0.1422
 5843SOL     OW28987   0.166   1.349   7.240  0.0818  0.5252 -0.1629
 5843SOL    HW128988   0.196   1.435   7.268  0.5346  0.2748  0.1041
 5843SOL    HW228989   0.087   1.374   7.190  0.7794  0.8894 -1.0820
 5844SOL     OW28990   0.723   2.420  13.491 -0.3209  0.4233  1.0877
 5844SOL    HW128991   0.773   2.462  13.421 -0.6677 -1.2281 -0.1830
 5844SOL    HW228992   0.712   2.497  13.546  1.0324  1.8511 -0.6128
 5845SOL     OW28993   3.291   4.139   2.506 -0.4542 -0.3274  0.5163
 5845SOL    HW128994   3.324   4.162   2.593  1.3645 -0.4705 -0.1368
 5845SOL    HW228995   3.372   4.125   2.457 -1.2401  2.0478 -1.4190
 5846SOL     OW28996   2.866   2.466   2.820 -0.3435 -0.4623 -0.1450
 5846SOL    HW128997   2.960   2.463   2.836 -0.2206 -2.3405 -1.1849
 5846SOL    HW228998   2.844   2.507   2.903 -2.6476 -0.6397 -0.6803
 5847SOL     OW28999   0.681   2.408  11.923 -0.0024  0.9100 -0.2080
 5847SOL    HW129000   0.663   2.424  11.831  0.3615 -0.7584 -0.5710
 5847SOL    HW229001   0.681   2.500  11.948 -0.8623  1.0342 -0.6730
 5848SOL     OW29002   3.111   3.897   8.141 -0.2994 -0.4454 -0.0602
 5848SOL    HW129003   3.160   3.815   8.131  0.4000  0.0709 -0.8078
 5848SOL    HW229004   3.027   3.853   8.155 -0.6099  0.1146 -0.1763
 5849SOL     OW29005   4.182   4.421   2.386 -0.3937 -0.0120  0.0824
 5849SOL    HW129006   4.230   4.340   2.402  1.6960  1.1037 -0.4613
 5849SOL    HW229007   4.165   4.423   2.291  0.5470 -2.4596 -0.1297
 5850SOL     OW29008   0.617   0.095   4.000 -0.3920 -0.0836 -0.1932
 5850SOL    HW129009   0.584   0.069   4.086  0.8634  1.7446  0.8248
 5850SOL    HW229010   0.579   0.183   3.998 -0.9477 -0.3537 -2.0354
 5851SOL     OW29011   3.344   1.194   8.110 -0.4294  0.3188  0.1340
 5851SOL    HW129012   3.419   1.177   8.053 -0.7502  0.9281 -0.4615
 5851SOL    HW229013   3.268   1.210   8.054  0.4221  0.5330 -0.9284
 5852SOL     OW29014   1.575   1.406  12.324 -0.3287 -0.1055  0.2236
 5852SOL    HW129015   1.535   1.431  12.241  0.0450 -1.3040 -0.3189
 5852SOL    HW229016   1.598   1.495  12.350  1.9572 -0.6430  0.0377
 5853SOL     OW29017   0.168   1.675   8.498  0.5811 -0.3548 -0.4353
 5853SOL    HW129018   0.230   1.607   8.521 -0.3861  0.1406  3.5713
 5853SOL    HW229019   0.088   1.637   8.535 -1.0447  1.3856 -2.1127
 5854SOL     OW29020   1.586   0.286   6.699  0.2252  0.1729  0.8632
 5854SOL    HW129021   1.653   0.353   6.681 -2.0458  1.7470 -1.8138
 5854SOL    HW229022   1.516   0.323   6.645  1.2201  0.3579 -0.3103
 5855SOL     OW29023   2.235   1.779   2.035  0.0246 -0.1292  0.4185
 5855SOL    HW129024   2.244   1.749   1.944 -1.8569 -0.3355  0.3106
 5855SOL    HW229025   2.325   1.769   2.065  0.7558  1.6333 -1.1257
 5856SOL     OW29026   3.110   1.360  10.455 -0.4150 -0.1727  0.4204
 5856SOL    HW129027   3.038   1.331  10.399 -0.4080  0.1455  0.2481
 5856SOL    HW229028   3.054   1.369  10.532 -0.0947 -1.9187  0.8667
 5857SOL     OW29029   3.467   2.327   4.944  0.6031  0.1464 -0.0815
 5857SOL    HW129030   3.554   2.287   4.952 -0.3512 -2.0505 -0.7784
 5857SOL    HW229031   3.490   2.415   4.972  1.0115 -0.0793  0.3088
 5858SOL     OW29032   0.596   0.821   7.737 -0.2259 -0.4170 -0.0819
 5858SOL    HW129033   0.626   0.889   7.798 -0.1110 -1.7665  1.3626
 5858SOL    HW229034   0.582   0.746   7.795 -0.1972 -0.0788  0.3622
 5859SOL     OW29035   2.727   3.793   4.330  0.6587  0.3687 -0.3883
 5859SOL    HW129036   2.715   3.701   4.310  1.3262  0.1253  0.3354
 5859SOL    HW229037   2.726   3.837   4.245  1.8879  2.4915  0.6934
 5860SOL     OW29038   2.522   0.228   3.282  0.0353 -0.2367  0.6857
 5860SOL    HW129039   2.482   0.171   3.216 -3.1202  1.1438  1.3644
 5860SOL    HW229040   2.488   0.307   3.239 -0.2211 -0.2466  0.8661
 5861SOL     OW29041   3.065   0.862   2.246  0.3965 -0.0815 -0.1174
 5861SOL    HW129042   3.138   0.805   2.271 -0.1215 -0.3464  0.7703
 5861SOL    HW229043   3.042   0.833   2.158  0.7458  0.7615 -0.4911
 5862SOL     OW29044   4.084   2.422  10.761 -0.5737 -0.1609  0.1184
 5862SOL    HW129045   4.003   2.445  10.806  0.2046 -0.2417  1.5417
 5862SOL    HW229046   4.125   2.500  10.724  0.8355 -1.4601 -1.0691
 5863SOL     OW29047   3.438   1.748  13.821 -0.0183 -0.8396 -0.1233
 5863SOL    HW129048   3.480   1.790  13.896  1.2288 -1.4369 -0.4919
 5863SOL    HW229049   3.400   1.823  13.776 -0.7524 -1.3259 -0.3255
 5864SOL     OW29050   3.024   4.322   6.582 -0.5503  0.1004 -0.2611
 5864SOL    HW129051   3.097   4.321   6.644  0.4851 -1.2473 -1.4996
 5864SOL    HW229052   3.034   4.410   6.547  1.8939  0.7229  2.0209
 5865SOL     OW29053   3.363   0.322   3.348 -0.3981  0.1342  0.2950
 5865SOL    HW129054   3.416   0.290   3.275 -0.6708 -0.3677  0.3165
 5865SOL    HW229055   3.302   0.248   3.357  0.7625 -0.6606  1.5301
 5866SOL     OW29056   0.364   0.708   5.276  0.8540 -0.1774 -0.7401
 5866SOL    HW129057   0.446   0.754   5.294  0.7062 -0.4884  0.6566
 5866SOL    HW229058   0.303   0.781   5.266  0.1481 -0.6276  0.3639
 5867SOL     OW29059   4.328   3.559   2.824 -0.0195 -0.4978 -0.5077
 5867SOL    HW129060   4.303   3.582   2.913  1.0504 -0.5496 -0.1961
 5867SOL    HW229061   4.395   3.493   2.844 -1.3960 -1.0668  2.1573
 5868SOL     OW29062   4.658   1.053   4.555  0.1344 -0.0434  0.3828
 5868SOL    HW129063   4.723   0.990   4.587 -1.3437 -2.3778 -1.2701
 5868SOL    HW229064   4.580   1.015   4.595  1.2236 -0.3886  2.1897
 5869SOL     OW29065   2.620   4.701  15.451 -0.2237  0.7291 -0.3781
 5869SOL    HW129066   2.551   4.682  15.388 -0.8387 -1.9244  1.1113
 5869SOL    HW229067   2.667   0.037  15.392 -0.2131  0.4043 -0.6969
 5870SOL     OW29068   4.517   3.494   3.784  0.6736 -0.0928  0.4622
 5870SOL    HW129069   4.519   3.401   3.805 -4.6765 -0.2708  0.2174
 5870SOL    HW229070   4.438   3.494   3.731 -0.8114  2.0877  2.6961
 5871SOL     OW29071   0.396   4.676   7.919  0.2793  0.0735 -0.1650
 5871SOL    HW129072   0.470   4.708   7.970  0.0920 -0.5002  0.4643
 5871SOL    HW229073   0.354   0.032   7.887  1.6601  1.7521  2.1789
 5872SOL     OW29074   2.058   0.698  13.409  0.5871  0.4158  0.3086
 5872SOL    HW129075   2.009   0.780  13.409  0.9144  0.6134  0.5000
 5872SOL    HW229076   2.116   0.686  13.333 -0.7401  1.1880 -0.8267
 5873SOL     OW29077   4.594   0.468   3.930 -0.6287 -0.4477  0.5552
 5873SOL    HW129078   4.652   0.442   4.002  0.8754 -0.5878 -0.7272
 5873SOL    HW229079   4.654   0.430   3.867 -0.4553  0.9157 -0.0906
 5874SOL     OW29080   0.512   2.157   5.138 -0.1668  0.5644 -0.0611
 5874SOL    HW129081   0.592   2.114   5.168  0.1028  1.3540  0.3439
 5874SOL    HW229082   0.541   2.168   5.047 -0.8420 -0.6069 -0.4128
 5875SOL     OW29083   2.521   2.314   1.815 -0.0070  0.0563  0.3856
 5875SOL    HW129084   2.564   2.235   1.783  1.4711  0.3403  1.6319
 5875SOL    HW229085   2.453   2.314   1.748 -0.3524 -1.8297  0.7272
 5876SOL     OW29086   2.663   2.215   8.502  0.1675  0.3078  0.2525
 5876SOL    HW129087   2.729   2.199   8.570 -0.7072 -1.8551  0.5953
 5876SOL    HW229088   2.633   2.130   8.469 -2.7371  1.4132  0.0923
 5877SOL     OW29089   0.602   1.473  16.757 -0.4829 -0.6307 -0.2094
 5877SOL    HW129090   0.696   1.467  16.777 -0.5317 -0.7544 -0.0271
 5877SOL    HW229091   0.570   1.493  16.845  0.7170 -0.4136  0.1803
 5878SOL     OW29092   4.074   1.870  16.746 -0.1204  0.2949  0.4377
 5878SOL    HW129093   4.088   1.958  16.710  1.7936 -0.1132  0.1807
 5878SOL    HW229094   3.987   1.844  16.717 -0.4043  1.0042  0.6368
 5879SOL     OW29095   4.322   1.653   5.145  0.1132 -0.0577  0.0595
 5879SOL    HW129096   4.310   1.558   5.145 -0.8673  0.0335 -4.8063
 5879SOL    HW229097   4.329   1.678   5.237 -3.4753 -0.7787  0.4929
 5880SOL     OW29098   1.825   4.647  14.095 -0.2854  0.0400  0.4832
 5880SOL    HW129099   1.810   0.013  14.127 -2.6804 -0.1791 -0.0513
 5880SOL    HW229100   1.760   4.601  14.149 -1.0366  0.4249 -0.0996
 5881SOL     OW29101   0.367   3.092   5.645 -0.2531  0.2365  0.0192
 5881SOL    HW129102   0.315   3.084   5.565  1.2415 -0.7336 -0.8735
 5881SOL    HW229103   0.428   3.022   5.622 -0.9528 -0.4289  0.2249
 5882SOL     OW29104   1.282   2.007   5.385 -0.1437  0.3669 -0.4824
 5882SOL    HW129105   1.314   2.030   5.298 -0.9362  0.4649 -0.7454
 5882SOL    HW229106   1.349   1.944   5.413  0.3952  0.6250 -1.1764
 5883SOL     OW29107   4.171   0.397  15.089  0.0409 -0.1843 -0.3362
 5883SOL    HW129108   4.217   0.376  15.007 -0.5978 -2.9642  0.0241
 5883SOL    HW229109   4.171   0.315  15.138  0.0356  0.8718  1.4366
 5884SOL     OW29110   2.507   2.578   9.398  0.0557 -0.3111 -0.2090
 5884SOL    HW129111   2.551   2.645   9.450  0.0606 -1.8540  1.7317
 5884SOL    HW229112   2.524   2.603   9.307  0.6380  0.5679  0.1415
 5885SOL     OW29113   3.915   1.570  10.732 -0.1673  0.1910 -0.0125
 5885SOL    HW129114   3.898   1.479  10.706  1.6191 -0.5905  1.6371
 5885SOL    HW229115   3.835   1.588  10.781  0.5466  0.4087  1.0540
 5886SOL     OW29116   0.938   3.580   0.047  0.2064 -0.3820  0.0790
 5886SOL    HW129117   1.025   3.549   0.072  1.5309  3.9070  0.7341
 5886SOL    HW229118   0.967   3.645  17.679  0.5834 -0.8943 -0.2715
 5887SOL     OW29119   2.575   3.384   5.641 -0.2911  0.3385  0.0316
 5887SOL    HW129120   2.482   3.393   5.660  0.1054 -1.1662  2.7639
 5887SOL    HW229121   2.573   3.292   5.614 -0.8581  0.1372  0.7541
 5888SOL     OW29122   2.154   0.482  15.623  0.4811 -0.6023  0.0507
 5888SOL    HW129123   2.174   0.544  15.553 -0.6741 -0.2673  0.0118
 5888SOL    HW229124   2.238   0.437  15.633  0.8856  0.3085  0.6251
 5889SOL     OW29125   0.463   4.445   3.761 -0.7748 -0.2518 -0.3424
 5889SOL    HW129126   0.536   4.505   3.777 -0.6260 -0.9019  1.4227
 5889SOL    HW229127   0.476   4.423   3.669  0.3743 -0.3934 -0.1466
 5890SOL     OW29128   2.799   1.783   3.113  0.0308  0.1452  0.1062
 5890SOL    HW129129   2.853   1.810   3.188  0.2548  1.6507 -0.5893
 5890SOL    HW229130   2.761   1.870   3.096 -1.2214 -0.7323 -1.4997
 5891SOL     OW29131   4.371   1.655  10.303 -0.6051 -0.3113  0.1818
 5891SOL    HW129132   4.330   1.731  10.344  0.9183  0.4166  0.3435
 5891SOL    HW229133   4.457   1.695  10.292 -0.4333 -0.7754 -0.1482
 5892SOL     OW29134   1.558   3.534   3.622 -0.2315  1.0141  0.1792
 5892SOL    HW129135   1.544   3.483   3.542  0.9242 -1.2492  1.3911
 5892SOL    HW229136   1.472   3.567   3.650  1.0777  1.2018  4.0129
 5893SOL     OW29137   0.686   4.302   6.789  0.2306 -0.3884 -0.1405
 5893SOL    HW129138   0.690   4.348   6.705  1.7418  1.5580  0.9754
 5893SOL    HW229139   0.621   4.351   6.840  0.8491 -1.7034  1.9494
 5894SOL     OW29140   3.881   1.515  12.710 -0.5221  0.3300 -0.0100
 5894SOL    HW129141   3.856   1.604  12.733 -1.2234  0.2303 -0.3805
 5894SOL    HW229142   3.934   1.540  12.634  0.2853  0.8590  0.7206
 5895SOL     OW29143   2.325   2.317   1.617  0.8036  0.4135  0.0788
 5895SOL    HW129144   2.342   2.336   1.525  0.9371 -0.0740  0.0013
 5895SOL    HW229145   2.243   2.269   1.612 -0.1570  2.2731 -2.0421
 5896SOL     OW29146   1.122   1.346   0.916 -0.0057 -0.0091 -0.2463
 5896SOL    HW129147   1.030   1.367   0.904  0.8129  4.0767  0.5646
 5896SOL    HW229148   1.117   1.277   0.982  0.2587 -0.0999 -0.3175
 5897SOL     OW29149   2.246   1.398  14.928 -0.2905 -0.3453 -0.3418
 5897SOL    HW129150   2.335   1.421  14.956  0.7725 -0.4498 -3.6694
 5897SOL    HW229151   2.216   1.480  14.889  0.0273 -0.3371 -0.5658
 5898SOL     OW29152   2.349   1.888   1.756 -0.4577 -0.4018 -0.7876
 5898SOL    HW129153   2.310   1.825   1.696 -0.2912 -1.4801  0.2388
 5898SOL    HW229154   2.443   1.870   1.747 -0.2204  0.3291  0.2291
 5899SOL     OW29155   4.442   4.617  10.342 -0.4784 -0.6283  0.0556
 5899SOL    HW129156   4.372   4.554  10.355 -0.4532 -0.3893  1.3377
 5899SOL    HW229157   4.503   4.594  10.412  0.8996  0.8854 -0.6376
 5900SOL     OW29158   4.237   2.561   4.845 -0.7474  0.5435 -0.0409
 5900SOL    HW129159   4.220   2.556   4.940  0.1920 -0.6164  0.0735
 5900SOL    HW229160   4.201   2.474   4.825  0.4555  0.1066 -0.3129
 5901SOL     OW29161   4.547   1.392   5.783 -0.0735  0.2756  0.1404
 5901SOL    HW129162   4.590   1.326   5.730 -2.0565 -0.3414 -0.6867
 5901SOL    HW229163   4.477   1.422   5.725 -1.8510  0.9508  2.6402
 5902SOL     OW29164   4.020   2.879   6.648  0.4347 -0.4863 -0.1662
 5902SOL    HW129165   4.027   2.870   6.553  0.8393  3.6134 -0.5192
 5902SOL    HW229166   4.112   2.897   6.667 -0.0231  2.1815 -0.5599
 5903SOL     OW29167   2.794   2.140  15.057 -0.1205 -0.1805 -0.3745
 5903SOL    HW129168   2.708   2.179  15.040 -0.4225 -0.5523  0.2878
 5903SOL    HW229169   2.856   2.212  15.044  1.3647 -1.1191  1.4891
 5904SOL     OW29170   2.484   2.741  10.188 -0.5528 -0.0105 -0.6758
 5904SOL    HW129171   2.468   2.832  10.214 -1.8467  0.0869 -1.8154
 5904SOL    HW229172   2.394   2.712  10.175 -1.4137  1.7617  1.3123
 5905SOL     OW29173   3.587   3.718   7.054 -0.1542  0.7237  0.1484
 5905SOL    HW129174   3.675   3.744   7.084  0.2197  1.5026 -1.6036
 5905SOL    HW229175   3.558   3.782   6.988 -0.0448 -0.2060 -0.8097
 5906SOL     OW29176   0.656   1.108   9.348 -0.3079  0.2455  0.1578
 5906SOL    HW129177   0.660   1.203   9.362  1.1722  0.4024 -1.3687
 5906SOL    HW229178   0.736   1.078   9.392 -0.5381 -0.2009  0.2698
 5907SOL     OW29179   1.658   1.905   4.070  0.1972 -0.7489 -0.0521
 5907SOL    HW129180   1.700   1.961   4.135  3.3466 -3.3140  0.1185
 5907SOL    HW229181   1.715   1.925   3.995 -1.1841  1.4092 -0.5212
 5908SOL     OW29182   3.860   2.243   8.932 -0.5133 -0.7367 -0.2871
 5908SOL    HW129183   3.941   2.192   8.928 -0.8356 -1.1721 -1.2959
 5908SOL    HW229184   3.821   2.221   9.017 -3.2636  0.2585 -1.2938
 5909SOL     OW29185   4.121   0.437  17.646  0.1657  0.3920  0.3330
 5909SOL    HW129186   4.123   0.422   0.045 -0.5010 -0.3057  0.2331
 5909SOL    HW229187   4.099   0.347  17.623  0.8070  0.0146  1.1937
 5910SOL     OW29188   3.571   4.446   9.149 -0.0942 -0.4693  0.8698
 5910SOL    HW129189   3.611   4.430   9.234  0.6965 -1.7159  0.2782
 5910SOL    HW229190   3.616   4.386   9.089 -0.2936 -2.1007  2.3573
 5911SOL     OW29191   2.341   4.419  14.670 -0.8646 -0.3603 -0.0933
 5911SOL    HW129192   2.373   4.401  14.758 -3.9286 -1.5740  0.7255
 5911SOL    HW229193   2.331   4.335  14.627 -1.1704  0.1989 -1.1191
 5912SOL     OW29194   2.996   1.174   7.602 -0.1739 -0.1705 -0.2839
 5912SOL    HW129195   2.946   1.218   7.671  0.9209  0.6496 -0.0170
 5912SOL    HW229196   2.965   1.085   7.619  0.9014 -0.3430  0.7947
 5913SOL     OW29197   3.126   0.002   6.093  0.0029 -0.1542  0.3432
 5913SOL    HW129198   3.213   4.709   6.057  0.0825 -1.2402  1.0121
 5913SOL    HW229199   3.147   0.018   6.185 -1.6028 -0.6223  0.7866
 5914SOL     OW29200   4.425   2.002   7.098 -0.2259  0.5799 -1.0282
 5914SOL    HW129201   4.353   2.056   7.131 -0.3304  1.5674 -2.8538
 5914SOL    HW229202   4.418   2.021   7.005  0.7227 -1.9050 -1.6067
 5915SOL     OW29203   0.793   4.539   1.696 -0.6209 -0.3307 -0.2779
 5915SOL    HW129204   0.709   4.526   1.741 -0.7134  3.5616  0.6359
 5915SOL    HW229205   0.776   4.620   1.648  0.1661  0.4719  0.7970
 5916SOL     OW29206   1.143   2.644   4.498  0.0204  0.1336 -0.1312
 5916SOL    HW129207   1.201   2.590   4.552  0.4931 -1.2258 -1.9701
 5916SOL    HW229208   1.148   2.605   4.411  1.1868 -1.7855  0.7892
 5917SOL     OW29209   3.255   4.029   7.163  0.4382 -0.1618 -0.2278
 5917SOL    HW129210   3.294   4.073   7.238 -1.1545  0.0830  0.4584
 5917SOL    HW229211   3.173   3.995   7.200  0.1320  0.4384 -0.3566
 5918SOL     OW29212   0.175   4.182   2.598  0.3401  0.0725  0.2211
 5918SOL    HW129213   0.137   4.116   2.655 -0.7827 -0.1362 -0.7659
 5918SOL    HW229214   0.108   4.181   2.530 -0.8818 -1.5038  1.4686
 5919SOL     OW29215   2.948   4.204  10.062  0.2473  0.2830 -0.2213
 5919SOL    HW129216   2.924   4.225   9.972 -3.0671  1.3131  0.8732
 5919SOL    HW229217   2.864   4.180  10.101  1.1703 -0.8877  1.0715
 5920SOL     OW29218   0.538   4.209   4.564  0.1701  0.5669 -0.4426
 5920SOL    HW129219   0.595   4.286   4.553  0.6167  0.3886  0.5572
 5920SOL    HW229220   0.495   4.236   4.645  0.2370  0.0852 -0.2439
 5921SOL     OW29221   2.111   3.096  13.635  0.0080 -0.1026  0.5358
 5921SOL    HW129222   2.064   3.165  13.681  1.2762  2.3076 -1.8090
 5921SOL    HW229223   2.178   3.073  13.699  0.3018  0.3843  0.4022
 5922SOL     OW29224   1.646   1.301   7.607  0.2608 -0.0730  0.2831
 5922SOL    HW129225   1.594   1.325   7.530  0.7610  0.5329  0.1356
 5922SOL    HW229226   1.735   1.287   7.574  0.2409 -0.9594  0.5950
 5923SOL     OW29227   1.009   1.293   7.293  0.3493 -0.2364  0.0157
 5923SOL    HW129228   0.986   1.382   7.267  1.2246 -0.7040 -2.3690
 5923SOL    HW229229   0.964   1.277   7.376 -0.3308 -0.1121 -0.3343
 5924SOL     OW29230   2.074   2.098   5.362  0.3322 -0.3314 -0.0452
 5924SOL    HW129231   2.028   2.109   5.279  1.4011 -1.3142 -0.7720
 5924SOL    HW229232   2.155   2.149   5.355  0.1815 -0.1532 -0.4884
 5925SOL     OW29233   3.431   1.373   5.915  0.1666 -0.4510 -0.0913
 5925SOL    HW129234   3.395   1.337   5.834  0.3529  1.7520 -1.1480
 5925SOL    HW229235   3.519   1.334   5.915  0.1976 -0.3822  0.1739
 5926SOL     OW29236   3.774   1.815   1.958 -0.3746 -0.0086 -0.5486
 5926SOL    HW129237   3.706   1.830   2.024 -0.6184 -0.7333 -0.6383
 5926SOL    HW229238   3.768   1.720   1.949  1.2296 -0.2516  0.8096
 5927SOL     OW29239   2.511   4.593   2.505  0.4359  0.1128 -0.4606
 5927SOL    HW129240   2.592   4.543   2.496 -0.7651 -1.6541 -1.2280
 5927SOL    HW229241   2.460   4.571   2.428 -2.5458  0.0850  1.5139
 5928SOL     OW29242   2.678   0.898   5.391 -0.0373  0.3054  0.1906
 5928SOL    HW129243   2.634   0.983   5.388 -0.2391  0.1379 -1.4736
 5928SOL    HW229244   2.707   0.901   5.482 -0.5670  1.8139  0.3102
 5929SOL     OW29245   2.719   3.480   8.196 -0.6934  0.0910 -0.1658
 5929SOL    HW129246   2.764   3.522   8.269 -0.5806 -2.1963  1.0813
 5929SOL    HW229247   2.774   3.402   8.187 -2.9910 -1.7350  1.7398
 5930SOL     OW29248   0.296   0.323  15.718 -0.0943  0.0377  0.1047
 5930SOL    HW129249   0.290   0.418  15.729 -0.9696  0.1842 -1.6155
 5930SOL    HW229250   0.371   0.299  15.773 -0.9782  0.5664  1.5445
 5931SOL     OW29251   4.125   1.299   6.574 -0.1397  0.1514 -0.1691
 5931SOL    HW129252   4.062   1.231   6.599 -0.4421  0.2130 -0.7702
 5931SOL    HW229253   4.078   1.358   6.515  0.1390  2.8354  2.2842
 5932SOL     OW29254   3.240   2.311   6.836 -0.1418  0.1817 -0.0767
 5932SOL    HW129255   3.211   2.226   6.801 -0.8551  0.8723 -1.1488
 5932SOL    HW229256   3.334   2.300   6.846  0.0592 -0.3056 -2.6566
 5933SOL     OW29257   2.701   2.949   2.021  0.6960  0.4353  0.2376
 5933SOL    HW129258   2.642   2.988   2.085 -0.7425 -1.5940  0.1310
 5933SOL    HW229259   2.687   2.855   2.025 -0.8005  0.7061  1.4627
 5934SOL     OW29260   2.021   1.811   8.208  0.0726  0.2106  0.2473
 5934SOL    HW129261   1.935   1.854   8.210  0.3610  0.7591  1.0340
 5934SOL    HW229262   2.067   1.885   8.249  2.3926 -0.7226 -0.6676
 5935SOL     OW29263   1.007   1.532   1.611 -0.0647  0.0636 -0.1551
 5935SOL    HW129264   1.046   1.461   1.560 -0.0055  1.1994 -1.6827
 5935SOL    HW229265   0.946   1.490   1.671 -0.6131  0.7738 -0.2206
 5936SOL     OW29266   0.359   2.748   0.835 -0.5685 -0.0470  0.4736
 5936SOL    HW129267   0.394   2.797   0.910  3.5277  0.6706 -1.8497
 5936SOL    HW229268   0.441   2.745   0.785 -0.8622  0.8240 -0.0687
 5937SOL     OW29269   3.558   1.785   0.081  0.6981  0.4564  0.0366
 5937SOL    HW129270   3.625   1.724   0.050 -0.1701  0.4818 -1.8921
 5937SOL    HW229271   3.611   1.817   0.154  0.3865 -1.0267  0.9243
 5938SOL     OW29272   4.217   0.068   9.951  0.2925  0.3157 -0.3948
 5938SOL    HW129273   4.190   0.131  10.018 -1.5286  0.8189 -1.5963
 5938SOL    HW229274   4.171   4.715   9.986 -0.3075  0.8135 -0.1002
 5939SOL     OW29275   1.217   4.089  15.136 -0.3999  0.1803  0.5863
 5939SOL    HW129276   1.296   4.130  15.171 -1.0251  1.1925  0.8080
 5939SOL    HW229277   1.252   4.051  15.055 -2.7466 -3.1650  1.1411
 5940SOL     OW29278   3.039   2.537   5.612 -0.3538  0.1945 -0.3929
 5940SOL    HW129279   3.101   2.464   5.602 -0.7970 -0.3682  0.8852
 5940SOL    HW229280   2.965   2.506   5.560 -1.6432  1.4463  0.6976
 5941SOL     OW29281   4.521   1.237  11.706  0.1969  0.4767 -0.0861
 5941SOL    HW129282   4.579   1.311  11.723  1.7425 -0.6097 -0.6109
 5941SOL    HW229283   4.440   1.284  11.725  0.0166  0.3528 -0.5427
 5942SOL     OW29284   2.177   3.162   6.252  0.0186  0.0484 -0.1116
 5942SOL    HW129285   2.118   3.118   6.312 -0.2487  0.2638 -0.2157
 5942SOL    HW229286   2.246   3.095   6.244  1.4727  1.6690 -1.2158
 5943SOL     OW29287   3.028   3.885  12.956 -0.0089 -0.8014  0.4867
 5943SOL    HW129288   3.048   3.903  13.048  1.4538 -0.6940  0.1424
 5943SOL    HW229289   2.955   3.824  12.957 -0.0791 -0.6934  1.7014
 5944SOL     OW29290   3.446   4.664   3.988  0.0628 -0.1757 -0.3231
 5944SOL    HW129291   3.524   4.717   3.969 -0.7020  1.1449  0.1748
 5944SOL    HW229292   3.430   4.621   3.904 -0.1258 -0.1753 -0.2869
 5945SOL     OW29293   0.209   2.337   6.832 -0.0226 -0.2129  0.4220
 5945SOL    HW129294   0.181   2.386   6.909 -0.4985 -0.7548  0.6016
 5945SOL    HW229295   0.170   2.251   6.848  0.2120 -0.5051 -0.5452
 5946SOL     OW29296   1.497   0.378   9.184 -0.0700  0.7660 -0.1706
 5946SOL    HW129297   1.456   0.293   9.170 -0.1361  0.4941  1.5979
 5946SOL    HW229298   1.431   0.404   9.250 -1.3269 -0.0614 -1.1009
 5947SOL     OW29299   2.015   0.349   7.842  0.1900  0.7306  0.2038
 5947SOL    HW129300   2.047   0.262   7.867  1.2973  1.1411  0.1719
 5947SOL    HW229301   1.953   0.364   7.914  0.7816 -0.6971  1.0282
 5948SOL     OW29302   4.680   1.541  12.687 -0.0605  0.1974  0.0058
 5948SOL    HW129303   0.030   1.545  12.625  0.0500  1.6763  0.2537
 5948SOL    HW229304   4.604   1.542  12.629 -1.3648 -0.0863  1.7461
 5949SOL     OW29305   0.734   3.156   5.044  0.0450  0.2366 -0.0109
 5949SOL    HW129306   0.674   3.218   5.086 -1.5557 -1.8454  0.7802
 5949SOL    HW229307   0.679   3.097   4.992 -2.8105 -0.6116  3.9621
 5950SOL     OW29308   1.339   0.467   3.003 -0.1791  0.4835 -0.0953
 5950SOL    HW129309   1.378   0.509   2.926  2.9411 -0.3336  1.0378
 5950SOL    HW229310   1.366   0.375   2.992 -0.8629  0.2495  0.1750
 5951SOL     OW29311   0.731   2.334  10.066 -0.0315 -0.1437  0.0173
 5951SOL    HW129312   0.647   2.302  10.032 -0.2240  1.6072 -1.1388
 5951SOL    HW229313   0.793   2.287  10.010 -0.6108  1.5696 -2.0805
 5952SOL     OW29314   0.934   3.639  12.017  0.2748 -0.1614  0.2097
 5952SOL    HW129315   0.968   3.706  12.077  1.3965 -0.6792  0.1625
 5952SOL    HW229316   0.842   3.665  12.013  0.4986  0.6512  0.2222
 5953SOL     OW29317   2.621   0.368  16.997 -0.7582  0.1316  0.7980
 5953SOL    HW129318   2.664   0.314  16.931 -0.5657 -1.6983  2.3916
 5953SOL    HW229319   2.611   0.306  17.070  0.0072  0.0106  0.8015
 5954SOL     OW29320   4.632   2.194   3.512 -0.5502  0.0074 -0.5236
 5954SOL    HW129321   4.711   2.141   3.523  0.8380  2.2185  0.2988
 5954SOL    HW229322   4.647   2.276   3.559  0.4818 -0.7344  0.4289
 5955SOL     OW29323   3.488   1.958  16.056 -0.1754  0.3692 -0.0566
 5955SOL    HW129324   3.465   2.051  16.055 -1.2830  0.1143  2.1875
 5955SOL    HW229325   3.465   1.932  15.967 -0.0496  0.7015 -0.1859
 5956SOL     OW29326   3.164   2.232   6.468  0.3369 -0.0166 -0.2512
 5956SOL    HW129327   3.146   2.179   6.545 -0.5135 -0.0523 -0.4668
 5956SOL    HW229328   3.094   2.215   6.404  0.3069  1.3187 -0.5790
 5957SOL     OW29329   1.122   0.256   7.649  0.3437  0.3073 -0.2821
 5957SOL    HW129330   1.057   0.308   7.601  1.1222  1.4810 -0.0801
 5957SOL    HW229331   1.103   0.173   7.606  0.1915 -0.7557  1.8640
 5958SOL     OW29332   3.233   1.513   3.290  0.0674 -0.0449  0.1635
 5958SOL    HW129333   3.143   1.481   3.286  0.3267 -0.7146 -0.2665
 5958SOL    HW229334   3.257   1.510   3.198 -1.2341 -2.0162 -0.1195
 5959SOL     OW29335   1.800   4.584   8.984  0.7893  0.0537 -0.2731
 5959SOL    HW129336   1.831   4.532   8.909  3.0329  0.8719  0.1052
 5959SOL    HW229337   1.776   4.513   9.043  0.5360 -0.5057 -1.0530
 5960SOL     OW29338   2.727   2.287   3.064 -0.1450  0.4142  0.1442
 5960SOL    HW129339   2.810   2.262   3.021  0.1222 -0.0415  0.9379
 5960SOL    HW229340   2.707   2.356   3.001  0.8912 -0.0072 -0.6688
 5961SOL     OW29341   1.737   0.633   0.711  0.2016  0.2568 -0.6223
 5961SOL    HW129342   1.747   0.714   0.662 -1.3978 -0.0566 -1.4767
 5961SOL    HW229343   1.817   0.582   0.698  0.8738  0.8566  1.2369
 5962SOL     OW29344   2.650   3.968  11.998 -0.3894  0.1824  0.5897
 5962SOL    HW129345   2.701   3.887  11.987 -0.1008  0.2441  1.4379
 5962SOL    HW229346   2.675   3.977  12.090  0.0713 -0.2314  0.5095
 5963SOL     OW29347   3.661   2.388   4.162  0.2703 -0.0775  0.3093
 5963SOL    HW129348   3.631   2.454   4.098  0.0934 -0.7360 -0.2895
 5963SOL    HW229349   3.614   2.313   4.126 -2.6385  1.7513  0.2492
 5964SOL     OW29350   0.894   2.098   3.792 -1.1820 -0.7980 -0.4048
 5964SOL    HW129351   0.966   2.039   3.815 -0.2020  0.8819  0.8328
 5964SOL    HW229352   0.908   2.082   3.699  0.7387  2.1044 -0.6058
 5965SOL     OW29353   0.041   2.907   7.427 -0.6268 -0.1615 -0.2358
 5965SOL    HW129354   0.104   2.898   7.499 -0.5260  1.1674 -0.1514
 5965SOL    HW229355   0.025   2.815   7.407 -0.6896  0.0659 -1.2350
 5966SOL     OW29356   1.895   1.160   7.106  0.3628  0.0481  0.9725
 5966SOL    HW129357   1.831   1.089   7.120 -0.1118  0.2410 -0.1998
 5966SOL    HW229358   1.975   1.128   7.149  1.1637  0.3280 -0.3134
 5967SOL     OW29359   1.874   4.429   9.283  0.1555 -0.1117 -0.5840
 5967SOL    HW129360   1.881   4.383   9.366  3.6717 -1.4191 -1.5928
 5967SOL    HW229361   1.967   4.448   9.270  0.0712  0.8717  0.1633
 5968SOL     OW29362   0.027   0.170   5.139 -0.0270  0.1387  0.4543
 5968SOL    HW129363   0.029   0.262   5.168 -1.0290 -0.1063  1.2758
 5968SOL    HW229364   0.120   0.151   5.129  0.2184  1.7931 -0.4145
 5969SOL     OW29365   3.020   3.131   6.020  0.6658  0.0691 -0.3419
 5969SOL    HW129366   3.036   3.167   5.933  2.1343  0.6009  0.1482
 5969SOL    HW229367   3.107   3.121   6.059  0.0774 -1.2609  0.6024
 5970SOL     OW29368   3.866   1.827   5.764 -0.2477 -0.3451  0.3406
 5970SOL    HW129369   3.787   1.846   5.713  0.1891 -1.8672 -0.9253
 5970SOL    HW229370   3.842   1.752   5.819  1.3824 -1.6599 -0.7106
 5971SOL     OW29371   0.184   3.737   2.312 -0.3779  0.2583 -0.7589
 5971SOL    HW129372   0.178   3.720   2.406  1.6611  0.8108 -0.5341
 5971SOL    HW229373   0.098   3.709   2.281  0.2678  0.6406 -2.9142
 5972SOL     OW29374   1.489   0.869   0.754 -0.1562 -0.0489 -0.0399
 5972SOL    HW129375   1.518   0.877   0.845  0.2452  0.3824 -0.2050
 5972SOL    HW229376   1.536   0.793   0.720  1.4393 -0.0763  2.2278
 5973SOL     OW29377   1.925   2.799   6.599  0.4940  0.0445 -0.0756
 5973SOL    HW129378   1.907   2.710   6.630  0.8285 -0.3536 -1.0122
 5973SOL    HW229379   2.018   2.811   6.619  0.6770  0.5854 -1.2546
 5974SOL     OW29380   1.907   0.929  12.104  0.2118 -0.4747  0.0141
 5974SOL    HW129381   1.831   0.904  12.051  0.8148  1.6859 -1.8289
 5974SOL    HW229382   1.978   0.870  12.078  1.2024  0.4241  0.6976
 5975SOL     OW29383   3.691   2.360   5.686 -0.3953  0.2616 -0.2745
 5975SOL    HW129384   3.674   2.453   5.677 -0.7431  0.2439  0.2017
 5975SOL    HW229385   3.751   2.351   5.760 -1.7486  3.7500  1.2407
 5976SOL     OW29386   1.796   0.783   4.086 -0.0593  0.1519 -0.2323
 5976SOL    HW129387   1.889   0.794   4.107 -0.2141  0.0998  0.4967
 5976SOL    HW229388   1.809   0.763   3.993  0.7757  1.3862 -0.3851
 5977SOL     OW29389   2.251   3.102   0.422  0.1998 -0.3362  0.0285
 5977SOL    HW129390   2.298   3.104   0.505 -0.8394  1.3441  0.5749
 5977SOL    HW229391   2.190   3.175   0.431  2.4245  1.5397  0.2108
 5978SOL     OW29392   3.228   2.533   0.949  0.2223  0.2168 -0.2287
 5978SOL    HW129393   3.281   2.509   1.025 -2.4152 -0.6573  1.3126
 5978SOL    HW229394   3.148   2.565   0.990 -0.1749 -0.1544 -0.7022
 5979SOL     OW29395   1.304   3.757   0.408  0.3353 -0.1062  0.2895
 5979SOL    HW129396   1.212   3.781   0.418  0.1473 -0.6922 -0.0536
 5979SOL    HW229397   1.303   3.772   0.314 -0.6546 -1.1288  0.1403
 5980SOL     OW29398   2.881   1.631   2.181 -0.5772 -0.1141 -0.0220
 5980SOL    HW129399   2.933   1.676   2.115  3.7513 -2.6944  1.6748
 5980SOL    HW229400   2.955   1.599   2.233 -0.9568 -0.7365  0.1362
 5981SOL     OW29401   0.704   4.456   7.506  0.4399  0.4352  0.4000
 5981SOL    HW129402   0.691   4.392   7.576  0.9924 -1.3045 -1.1039
 5981SOL    HW229403   0.628   4.428   7.455  1.8120 -2.9865  0.2194
 5982SOL     OW29404   2.756   4.541   7.740 -0.2248 -0.1411 -0.8750
 5982SOL    HW129405   2.728   4.512   7.827  2.4892 -0.8962 -0.2482
 5982SOL    HW229406   2.680   4.552   7.684 -2.4463 -0.5681  2.0845
 5983SOL     OW29407   2.881   4.286  10.762 -0.1888  0.1588  0.3348
 5983SOL    HW129408   2.876   4.380  10.746  1.4457  0.4791  1.6646
 5983SOL    HW229409   2.974   4.281  10.740 -0.4309 -2.3717 -0.0826
 5984SOL     OW29410   1.845   1.873   1.522  0.8653 -0.5455 -0.0313
 5984SOL    HW129411   1.833   1.778   1.514 -1.5677 -0.2045 -0.5362
 5984SOL    HW229412   1.937   1.886   1.499  0.3494 -0.5508 -2.0866
 5985SOL     OW29413   3.389   2.302  16.878 -0.1508  0.8158 -0.1193
 5985SOL    HW129414   3.425   2.217  16.903 -0.9912  0.4503 -0.1515
 5985SOL    HW229415   3.446   2.369  16.918 -0.1097  0.5655  0.2358
 5986SOL     OW29416   4.367   0.453   1.023 -0.6158 -0.6849  0.3852
 5986SOL    HW129417   4.326   0.368   1.035 -0.5568 -1.0563 -2.1097
 5986SOL    HW229418   4.298   0.519   1.014  0.4761  0.3796 -0.1800
 5987SOL     OW29419   3.658   1.544  10.879 -0.5912  0.5966  0.4803
 5987SOL    HW129420   3.599   1.470  10.896 -0.2410  0.0648 -0.6186
 5987SOL    HW229421   3.691   1.556  10.967 -1.2512  0.2746  0.7759
 5988SOL     OW29422   3.063   3.670   5.079 -0.2016  0.1992 -0.1712
 5988SOL    HW129423   2.995   3.738   5.086 -0.1563  0.0886  1.3835
 5988SOL    HW229424   3.020   3.600   5.030 -3.0090  2.2570 -0.6481
 5989SOL     OW29425   1.646   0.720   8.067 -0.0888 -0.2291 -0.1315
 5989SOL    HW129426   1.570   0.674   8.103 -1.1043  1.6468  0.0783
 5989SOL    HW229427   1.633   0.807   8.104  1.5336  0.6245 -1.5831
 5990SOL     OW29428   1.557   3.186   1.155  0.1631  0.1639  0.3337
 5990SOL    HW129429   1.599   3.260   1.198  1.4133 -1.1656  1.4326
 5990SOL    HW229430   1.550   3.122   1.226 -3.6184 -0.7094 -0.8220
 5991SOL     OW29431   2.487   2.319   8.314  0.0307  0.1070 -0.3231
 5991SOL    HW129432   2.529   2.279   8.238 -1.2815  0.0702 -1.0296
 5991SOL    HW229433   2.546   2.277   8.377 -0.6093 -0.3999 -0.0523
 5992SOL     OW29434   0.732   4.305   8.869 -0.0618  0.7959 -0.1882
 5992SOL    HW129435   0.786   4.345   8.938  1.6484 -0.8455 -0.5896
 5992SOL    HW229436   0.753   4.356   8.791  0.6834 -1.1700 -1.2535
 5993SOL     OW29437   4.408   1.142  10.020 -0.2868  0.0725  0.1489
 5993SOL    HW129438   4.456   1.067   9.984 -2.6834 -1.1912 -0.4262
 5993SOL    HW229439   4.412   1.206   9.949  1.5422 -1.7884 -1.4355
 5994SOL     OW29440   1.861   4.310   6.067 -0.2985  0.6398  0.5846
 5994SOL    HW129441   1.915   4.389   6.060  1.5740 -0.8115 -1.5899
 5994SOL    HW229442   1.894   4.265   6.145  2.0186  3.3425  1.1619
 5995SOL     OW29443   2.135   3.837  10.693  0.3400 -0.3709  0.6547
 5995SOL    HW129444   2.114   3.928  10.717  1.2053 -0.3878  1.4917
 5995SOL    HW229445   2.149   3.844  10.599 -2.2771 -0.4911  0.2554
 5996SOL     OW29446   3.970   3.094   0.319  0.2763 -0.6392 -0.1795
 5996SOL    HW129447   3.998   3.094   0.227 -0.8006 -0.3751 -0.5071
 5996SOL    HW229448   4.057   3.112   0.354 -0.3678  1.3340  0.4189
 5997SOL     OW29449   1.666   3.721   2.322 -0.1493 -0.2125  0.2402
 5997SOL    HW129450   1.608   3.793   2.298  1.4944 -0.2416 -3.7377
 5997SOL    HW229451   1.748   3.760   2.292 -1.1014  1.6130 -0.0339
 5998SOL     OW29452   1.888   1.385   5.959  0.2721  0.2358 -0.5988
 5998SOL    HW129453   1.964   1.332   5.936 -1.0628 -1.4902 -1.0438
 5998SOL    HW229454   1.842   1.382   5.875  0.5910  1.1899 -0.8163
 5999SOL     OW29455   3.632   2.984   0.410 -0.3507 -0.2198  0.0433
 5999SOL    HW129456   3.645   2.893   0.439 -0.3650 -0.8469 -1.9185
 5999SOL    HW229457   3.708   3.006   0.355 -1.4867 -0.7422 -1.7255
 6000SOL     OW29458   2.270   3.496   7.129  0.1100  0.8922 -0.1257
 6000SOL    HW129459   2.215   3.432   7.174 -0.5221 -0.2809 -2.5715
 6000SOL    HW229460   2.207   3.520   7.061  0.8636  0.2356 -1.0545
 6001SOL     OW29461   1.089   2.154   9.632  0.6394 -0.0415  0.7184
 6001SOL    HW129462   1.079   2.137   9.725  0.2943  0.1992  0.7281
 6001SOL    HW229463   1.010   2.116   9.594  0.2862  1.1279  0.2884
 6002SOL     OW29464   0.446   3.818   4.301 -0.0823  0.5531  0.5235
 6002SOL    HW129465   0.465   3.882   4.370  1.4618 -0.2625  0.8462
 6002SOL    HW229466   0.536   3.806   4.271 -0.6312  1.5778 -1.5082
 6003SOL     OW29467   2.353   3.466   2.764 -0.0791 -0.6444  0.6597
 6003SOL    HW129468   2.340   3.500   2.852 -0.3163  0.4682  0.1937
 6003SOL    HW229469   2.443   3.490   2.741  0.2661 -0.0176  2.6545
 6004SOL     OW29470   2.640   4.042  14.466 -0.1417  0.0424  0.1025
 6004SOL    HW129471   2.727   4.004  14.478 -0.6525 -1.6679 -1.4803
 6004SOL    HW229472   2.659   4.096  14.390 -1.4811 -0.7599 -0.8052
 6005SOL     OW29473   4.628   2.121  16.001 -0.5147  0.4537  0.1592
 6005SOL    HW129474   4.534   2.112  15.981 -0.7209 -0.4648  1.5719
 6005SOL    HW229475   4.654   2.029  16.000  1.2542  0.9712 -1.7205
 6006SOL     OW29476   1.411   1.362   5.867 -0.1232 -0.0122 -0.1626
 6006SOL    HW129477   1.491   1.311   5.876 -2.0854 -2.8164  1.4635
 6006SOL    HW229478   1.443   1.451   5.883 -1.8644  0.1863  2.2609
 6007SOL     OW29479   1.995   4.429   3.158  0.1972  0.0854  0.0653
 6007SOL    HW129480   1.951   4.493   3.214  1.4012  0.2092  0.8777
 6007SOL    HW229481   2.073   4.476   3.129  1.1246 -2.1038 -0.9623
 6008SOL     OW29482   2.786   3.864   3.073  0.0693 -0.3946 -0.3904
 6008SOL    HW129483   2.869   3.911   3.085  0.1012 -1.0454  1.9501
 6008SOL    HW229484   2.804   3.786   3.126 -0.6454 -1.2815 -1.4468
 6009SOL     OW29485   4.003   2.814  16.837  0.0279 -0.0771  0.4387
 6009SOL    HW129486   3.951   2.894  16.843 -2.0627 -1.2293 -2.2367
 6009SOL    HW229487   3.954   2.759  16.898  0.7549 -0.2255  0.8746
 6010SOL     OW29488   3.613   2.727   0.464  0.0397  0.9658  0.1017
 6010SOL    HW129489   3.567   2.645   0.480 -1.3263  1.9452  1.1668
 6010SOL    HW229490   3.685   2.714   0.526  0.8769 -1.4106 -1.3634
 6011SOL     OW29491   0.416   3.625  11.673  0.8288 -0.0228  0.9186
 6011SOL    HW129492   0.418   3.658  11.763  0.6723  1.2656  0.4607
 6011SOL    HW229493   0.508   3.635  11.649 -0.1639  1.1133 -2.4543
 6012SOL     OW29494   4.065   3.861   0.844 -0.0857 -0.1983 -0.2397
 6012SOL    HW129495   4.146   3.829   0.805 -0.8726 -1.2512 -0.9941
 6012SOL    HW229496   4.038   3.784   0.894 -1.5703  0.7516  0.4268
 6013SOL     OW29497   1.283   1.582   8.194 -0.1456 -0.2786  0.0050
 6013SOL    HW129498   1.339   1.554   8.122  0.8522 -3.5461  2.0381
 6013SOL    HW229499   1.302   1.675   8.185 -1.5134  0.1347  1.3498
 6014SOL     OW29500   1.198   4.411   8.990  0.1927  0.3022  0.4285
 6014SOL    HW129501   1.180   4.340   8.928 -0.2610 -0.0342  0.9511
 6014SOL    HW229502   1.233   4.367   9.068  0.8780  1.0465  0.5416
 6015SOL     OW29503   0.167   2.915   7.170 -0.4288  0.0523  0.3404
 6015SOL    HW129504   0.135   2.909   7.259 -1.3393 -6.1698 -0.4372
 6015SOL    HW229505   0.113   2.983   7.130  1.4638  0.6031 -1.3187
 6016SOL     OW29506   2.735   1.535   6.352 -0.8360 -0.3422 -0.5111
 6016SOL    HW129507   2.782   1.615   6.329  0.0230 -1.6393 -3.3003
 6016SOL    HW229508   2.644   1.562   6.365 -0.5111  0.6330 -0.2486
 6017SOL     OW29509   3.780   3.369   8.332 -0.2501  0.0936 -0.1448
 6017SOL    HW129510   3.769   3.464   8.325 -2.7343 -0.2055 -0.3797
 6017SOL    HW229511   3.875   3.359   8.343 -0.4561 -0.4316  1.1324
 6018SOL     OW29512   3.734   3.957   0.161 -0.4531  0.0956  0.7056
 6018SOL    HW129513   3.662   3.926   0.106  0.9347 -1.7776 -0.0559
 6018SOL    HW229514   3.713   4.049   0.176  0.6779  0.3260  0.9081
 6019SOL     OW29515   2.610   4.604   3.079 -0.1890 -0.0593 -0.8254
 6019SOL    HW129516   2.597   4.606   2.984 -0.9379 -0.8067 -0.7446
 6019SOL    HW229517   2.543   4.671   3.090 -1.8128 -1.6112 -1.2293
 6020SOL     OW29518   1.780   3.874  11.553  0.2231 -0.4237 -0.2837
 6020SOL    HW129519   1.745   3.833  11.474 -1.3656 -0.0981  0.2325
 6020SOL    HW229520   1.713   3.840  11.612  0.7761  1.3169  1.3591
 6021SOL     OW29521   1.979   0.773   6.485  0.5917 -0.2409 -0.6979
 6021SOL    HW129522   1.992   0.685   6.521 -0.0210 -1.2157 -2.8173
 6021SOL    HW229523   2.065   0.780   6.443  0.9427 -2.9956 -0.4374
 6022SOL     OW29524   1.208   2.934   4.848  0.4774  0.0784 -0.5169
 6022SOL    HW129525   1.298   2.956   4.874  0.0315  1.5392 -0.2178
 6022SOL    HW229526   1.167   3.002   4.900  1.0416 -0.4262  0.5867
 6023SOL     OW29527   2.894   2.515   8.266 -0.2480  0.2493  0.2269
 6023SOL    HW129528   2.923   2.472   8.347  0.4235  2.4867  1.1613
 6023SOL    HW229529   2.854   2.597   8.296 -0.0448  0.7665 -0.9460
 6024SOL     OW29530   4.064   4.175   3.791  0.5351  0.0035  0.4538
 6024SOL    HW129531   4.147   4.137   3.761  1.1722  0.7629  1.2563
 6024SOL    HW229532   4.064   4.159   3.885  0.6309  0.4749  0.5371
 6025SOL     OW29533   0.232   4.498  16.026  0.6513  0.0583 -0.2203
 6025SOL    HW129534   0.306   4.558  16.038  0.6072  0.2507 -0.9305
 6025SOL    HW229535   0.238   4.475  15.933  0.0541 -0.9136 -0.0173
 6026SOL     OW29536   0.300   2.336  16.318  0.2038  0.1407 -0.3472
 6026SOL    HW129537   0.365   2.393  16.277 -0.2188  1.0161  0.1967
 6026SOL    HW229538   0.230   2.399  16.336  1.1379  0.3268  2.7362
 6027SOL     OW29539   3.600   2.873   3.364  0.5937 -0.6532  0.2965
 6027SOL    HW129540   3.691   2.898   3.350  0.6179 -1.0364 -0.2321
 6027SOL    HW229541   3.573   2.944   3.423  0.3402 -1.3688  1.0423
 6028SOL     OW29542   3.862   3.239   2.570 -0.3660 -0.5382  0.2062
 6028SOL    HW129543   3.943   3.206   2.609 -0.1814 -0.2672  0.0545
 6028SOL    HW229544   3.831   3.171   2.511 -0.6485 -0.5488  0.3714
 6029SOL     OW29545   4.267   1.239   4.371  0.1716 -0.3768  0.7959
 6029SOL    HW129546   4.295   1.195   4.291  0.5850  0.0552  0.7084
 6029SOL    HW229547   4.245   1.165   4.428 -0.1417 -1.7451 -1.0807
 6030SOL     OW29548   3.353   2.761   4.878 -0.4503  0.1907 -0.1613
 6030SOL    HW129549   3.305   2.764   4.960 -2.7449 -2.0721 -1.4081
 6030SOL    HW229550   3.328   2.845   4.840  2.6255  0.5375 -1.4247
 6031SOL     OW29551   1.057   3.568   8.375  0.2655 -0.1784 -0.3650
 6031SOL    HW129552   0.964   3.585   8.364  0.2150 -0.3290 -0.1702
 6031SOL    HW229553   1.065   3.580   8.469 -0.0132 -0.3238 -0.3220
 6032SOL     OW29554   0.682   0.316   9.664  0.4803  0.1769 -0.5719
 6032SOL    HW129555   0.599   0.285   9.628  0.5168 -2.2901  1.4460
 6032SOL    HW229556   0.664   0.308   9.758 -1.8208  2.6319 -0.8042
 6033SOL     OW29557   3.021   1.659   5.209  0.1551  0.3983 -0.7270
 6033SOL    HW129558   2.968   1.584   5.239 -0.1397  0.4941 -1.0037
 6033SOL    HW229559   3.088   1.608   5.165 -1.9243 -1.2058 -2.0525
 6034SOL     OW29560   1.919   2.767   5.515 -0.6031  0.1560  0.1114
 6034SOL    HW129561   1.859   2.839   5.533 -2.6209 -2.0105  2.2558
 6034SOL    HW229562   2.004   2.810   5.503 -1.2379  1.3056 -0.2418
 6035SOL     OW29563   4.723   0.448   2.268  0.3700 -0.0246 -0.2874
 6035SOL    HW129564   4.631   0.420   2.263  0.3702 -0.3867  1.8950
 6035SOL    HW229565   0.014   0.511   2.197  2.6755 -0.2540  0.0118
 6036SOL     OW29566   4.669   0.748   3.244 -0.5558 -0.7816  0.4326
 6036SOL    HW129567   0.033   0.788   3.247 -1.4083  1.1330 -0.5397
 6036SOL    HW229568   4.680   0.654   3.258 -1.1686 -1.1400 -1.4607
 6037SOL     OW29569   3.700   0.621   8.221  0.1217 -0.5481  0.4656
 6037SOL    HW129570   3.696   0.607   8.315 -0.8311  2.3251  0.8583
 6037SOL    HW229571   3.780   0.670   8.205  0.1531 -0.1704  1.8102
 6038SOL     OW29572   2.742   1.985  13.308  0.2602 -0.2405 -0.1588
 6038SOL    HW129573   2.691   1.999  13.229  1.1924  1.4626 -0.4423
 6038SOL    HW229574   2.709   2.056  13.363  2.7857  1.2716 -0.6214
 6039SOL     OW29575   1.292   0.292   5.277  0.5120 -0.4058  0.3299
 6039SOL    HW129576   1.314   0.287   5.370  0.7824  3.8684  0.4964
 6039SOL    HW229577   1.219   0.231   5.268 -0.2797  0.4540  0.9361
 6040SOL     OW29578   1.266   3.503   2.376 -0.0591 -0.0354  0.4073
 6040SOL    HW129579   1.302   3.482   2.462 -0.2465  2.8169  1.1777
 6040SOL    HW229580   1.174   3.497   2.399 -0.0763  0.0326  0.3563
 6041SOL     OW29581   0.030   1.579   5.701  0.0215  0.0600 -0.2532
 6041SOL    HW129582   4.697   1.526   5.757  0.9335  1.4382  2.0014
 6041SOL    HW229583   0.018   1.531   5.620 -2.7931 -1.7931  1.2700
 6042SOL     OW29584   2.971   3.371   4.211 -0.1154 -0.0719 -0.0174
 6042SOL    HW129585   3.035   3.311   4.250 -0.4581  0.7953  1.9024
 6042SOL    HW229586   2.970   3.345   4.120 -0.6372 -1.6589  0.4493
 6043SOL     OW29587   0.687   3.589   0.349  0.0412  0.2440  0.3804
 6043SOL    HW129588   0.631   3.653   0.307  2.4063  1.2952 -1.1241
 6043SOL    HW229589   0.621   3.526   0.379  1.4490 -1.5618 -0.3245
 6044SOL     OW29590   1.806   2.856   2.978 -0.1611  0.2698  0.1898
 6044SOL    HW129591   1.760   2.812   2.906  2.2987 -2.7053  0.4420
 6044SOL    HW229592   1.751   2.837   3.054  0.1568  3.1433  1.1166
 6045SOL     OW29593   3.232   2.559   8.758  0.6162  0.8019  0.1459
 6045SOL    HW129594   3.180   2.639   8.768 -1.4028 -0.3005 -1.4138
 6045SOL    HW229595   3.168   2.493   8.785 -2.5983  3.9907  0.4586
 6046SOL     OW29596   4.128   2.411   7.658 -0.0018 -0.3260 -0.2382
 6046SOL    HW129597   4.172   2.495   7.670  0.6032 -0.9879  2.2570
 6046SOL    HW229598   4.091   2.401   7.746 -3.9857  0.6213 -1.8322
 6047SOL     OW29599   1.272   2.507   6.455  0.0766 -0.4543 -0.5087
 6047SOL    HW129600   1.235   2.592   6.434  1.1278  0.4160  1.1924
 6047SOL    HW229601   1.242   2.490   6.544 -1.1515 -0.0051 -0.8394
 6048SOL     OW29602   0.805   4.533   5.349  0.0206 -0.0782 -0.0863
 6048SOL    HW129603   0.763   4.467   5.293  1.0777 -0.9029  0.0903
 6048SOL    HW229604   0.833   4.471   5.417  1.1471 -0.5934 -1.0191
 6049SOL     OW29605   3.438   4.384   5.904  0.3625  0.6064  0.9410
 6049SOL    HW129606   3.526   4.359   5.877  0.5253  0.3472  1.7158
 6049SOL    HW229607   3.415   4.316   5.968  1.2546 -0.7957 -0.2351
 6050SOL     OW29608   2.032   2.419   5.720  0.0252  0.6619  0.7793
 6050SOL    HW129609   2.076   2.336   5.739  0.0270  0.1239 -1.5778
 6050SOL    HW229610   2.091   2.480   5.676 -0.7138  2.7122  2.6254
 6051SOL     OW29611   2.487   0.555  10.326 -0.3822 -0.0941 -0.6134
 6051SOL    HW129612   2.459   0.527  10.239 -0.0127 -0.1132 -0.7237
 6051SOL    HW229613   2.409   0.531  10.376 -1.1582  0.9233 -1.3282
 6052SOL     OW29614   3.117   0.779   5.437 -0.0852 -0.1235  0.0584
 6052SOL    HW129615   3.087   0.688   5.432 -0.0647 -0.0773 -0.8603
 6052SOL    HW229616   3.076   0.815   5.359  1.4018 -0.2371 -0.7860
 6053SOL     OW29617   1.740   1.790   9.112 -0.0341  0.0575  0.0208
 6053SOL    HW129618   1.806   1.847   9.072  1.6524 -0.3555  2.2171
 6053SOL    HW229619   1.674   1.858   9.123 -0.0694  0.2227 -1.1901
 6054SOL     OW29620   2.569   3.425  11.444 -0.3680 -0.0672  0.0229
 6054SOL    HW129621   2.617   3.503  11.417  1.4685 -1.5197 -0.9400
 6054SOL    HW229622   2.569   3.438  11.539 -2.7525 -0.0523  0.0433
 6055SOL     OW29623   0.575   4.116   5.650  0.6648 -0.3081  0.3009
 6055SOL    HW129624   0.537   4.097   5.736  0.2147 -0.0816  0.1533
 6055SOL    HW229625   0.517   4.071   5.588 -0.1628  2.6453 -1.0487
 6056SOL     OW29626   3.115   0.597  12.800  0.3587  0.5020 -0.9089
 6056SOL    HW129627   3.194   0.596  12.747  0.4770  3.9332 -0.7401
 6056SOL    HW229628   3.117   0.525  12.864 -1.3834  2.3041  1.1956
 6057SOL     OW29629   0.898   3.675  13.027  0.3189 -0.0870 -0.7169
 6057SOL    HW129630   0.811   3.639  13.041 -0.1274  0.8885 -0.9540
 6057SOL    HW229631   0.931   3.613  12.962 -0.3708 -0.4072 -0.7606
 6058SOL     OW29632   1.269   2.131   8.219 -0.6116  0.3572  0.0349
 6058SOL    HW129633   1.260   2.152   8.125 -1.1357  1.0676  0.2408
 6058SOL    HW229634   1.234   2.217   8.242 -1.3851 -0.4518  1.8313
 6059SOL     OW29635   1.372   3.197   2.670  0.0039 -0.2394 -0.1116
 6059SOL    HW129636   1.427   3.159   2.739 -0.9155 -0.4285  0.5127
 6059SOL    HW229637   1.286   3.162   2.694  0.1398 -1.6133 -1.6726
 6060SOL     OW29638   0.609   1.623   4.863  0.0331 -0.3810  0.0610
 6060SOL    HW129639   0.602   1.575   4.780  0.0835  0.1600 -0.2510
 6060SOL    HW229640   0.676   1.690   4.855 -0.8831  0.8790  3.0180
 6061SOL     OW29641   1.366   2.636  17.275 -0.6994 -0.0662 -0.7056
 6061SOL    HW129642   1.278   2.655  17.308 -0.8190 -1.4713 -0.2206
 6061SOL    HW229643   1.430   2.665  17.340 -1.0505 -0.2002 -0.3005
 6062SOL     OW29644   3.204   2.860   5.426  0.0898  0.0901  0.2846
 6062SOL    HW129645   3.148   2.928   5.464  0.5521  0.0537  1.0365
 6062SOL    HW229646   3.291   2.900   5.426 -0.3518  1.0373  0.8869
 6063SOL     OW29647   1.500   3.088   4.372  0.4430  0.4907 -1.0657
 6063SOL    HW129648   1.446   3.039   4.434 -0.8751  2.4408 -0.6698
 6063SOL    HW229649   1.540   3.157   4.425 -1.4400 -0.0525  1.0484
 6064SOL     OW29650   0.599   0.746   3.744  0.4074  0.4816 -0.4165
 6064SOL    HW129651   0.676   0.781   3.788  0.8658 -2.6827  1.2767
 6064SOL    HW229652   0.614   0.652   3.755 -0.5613  0.3467 -0.2718
 6065SOL     OW29653   2.927   1.089  12.216 -0.1151 -0.4812 -0.2261
 6065SOL    HW129654   2.921   1.169  12.164  1.4706 -0.8460 -0.9491
 6065SOL    HW229655   2.946   1.127  12.302 -2.3774 -0.4577  0.2745
 6066SOL     OW29656   1.924   1.196   4.778  0.1623 -0.1479 -0.0826
 6066SOL    HW129657   1.851   1.192   4.839 -0.5025  0.3839 -0.8413
 6066SOL    HW229658   1.984   1.257   4.823 -1.2691 -0.1003  1.7703
 6067SOL     OW29659   0.531   4.681   4.522 -0.3746 -0.2819  0.0069
 6067SOL    HW129660   0.553   4.588   4.528  1.3782  0.0739 -0.8260
 6067SOL    HW229661   0.471   4.686   4.596 -2.6811  1.7105 -1.9958
 6068SOL     OW29662   1.631   0.691  17.388  0.0476  0.5711 -0.1170
 6068SOL    HW129663   1.654   0.769  17.438  1.2696  1.2474 -1.7265
 6068SOL    HW229664   1.585   0.626  17.441  0.4297  0.9352  0.6656
 6069SOL     OW29665   1.990   0.268   9.538 -0.3947  0.0590 -0.0765
 6069SOL    HW129666   1.921   0.327   9.506 -0.4087  1.0400  1.7887
 6069SOL    HW229667   2.071   0.319   9.534 -1.3240  1.4645 -1.2826
 6070SOL     OW29668   3.807   2.624  16.906  0.3935 -0.2691  0.1996
 6070SOL    HW129669   3.799   2.665  16.992  0.9230 -0.8935  0.5484
 6070SOL    HW229670   3.785   2.536  16.939  0.8500  0.7498  3.2074
 6071SOL     OW29671   2.445   3.900  16.220 -0.2623 -0.6603 -0.4805
 6071SOL    HW129672   2.449   3.937  16.308 -1.4955  2.7196 -1.8812
 6071SOL    HW229673   2.515   3.945  16.174 -0.2422 -0.2145 -0.0111
 6072SOL     OW29674   4.200   3.701   0.449 -0.2795  0.1065  0.3066
 6072SOL    HW129675   4.278   3.651   0.472 -0.2489 -0.5398 -1.2313
 6072SOL    HW229676   4.197   3.700   0.354 -0.1846 -0.0793  0.3055
 6073SOL     OW29677   3.697   1.726   3.068 -0.4547  0.2740  0.0241
 6073SOL    HW129678   3.752   1.805   3.071 -2.4135  1.5527  2.6236
 6073SOL    HW229679   3.722   1.677   2.990  1.8632 -0.3439  1.1493
 6074SOL     OW29680   2.338   1.646   2.912  0.4766 -0.1368  0.0955
 6074SOL    HW129681   2.316   1.722   2.967 -2.1804 -0.5771 -0.3553
 6074SOL    HW229682   2.372   1.683   2.831  0.0951  1.8944  0.8544
 6075SOL     OW29683   0.689   3.405   6.016  0.2091  0.7069  0.4318
 6075SOL    HW129684   0.767   3.373   6.061 -0.4650 -1.8679 -0.2511
 6075SOL    HW229685   0.724   3.420   5.928 -0.6644 -0.4745 -0.1192
 6076SOL     OW29686   3.047   3.145   2.516 -0.3430  0.0052  0.1383
 6076SOL    HW129687   3.121   3.184   2.563  0.2322  0.5611 -1.2112
 6076SOL    HW229688   3.094   3.082   2.462 -1.6752 -0.3495 -0.6065
 6077SOL     OW29689   3.300   3.829  15.547 -0.3482 -0.4962  0.1092
 6077SOL    HW129690   3.358   3.784  15.486  1.2833  2.1447 -0.3165
 6077SOL    HW229691   3.271   3.904  15.495 -0.9196 -0.3169  0.6912
 6078SOL     OW29692   2.785   2.167  16.300  0.1568  0.6632 -0.5296
 6078SOL    HW129693   2.865   2.170  16.247  2.4077  1.6478  2.9405
 6078SOL    HW229694   2.715   2.201  16.245 -2.2594 -2.6581  0.5021
 6079SOL     OW29695   3.962   2.369   4.465 -0.1049  0.3882  0.1797
 6079SOL    HW129696   3.915   2.448   4.492 -0.5520  0.3421 -0.4667
 6079SOL    HW229697   3.984   2.397   4.376 -4.9960  1.4354 -0.6903
 6080SOL     OW29698   1.288   1.110  15.957 -0.2242 -0.6816 -0.2422
 6080SOL    HW129699   1.246   1.073  16.034  0.8277 -1.2316  0.0635
 6080SOL    HW229700   1.227   1.182  15.940  2.6445  1.1945 -2.7625
 6081SOL     OW29701   1.964   1.760   3.390  0.2019 -0.2524 -0.4788
 6081SOL    HW129702   1.982   1.854   3.382 -1.8499  0.0307 -1.5382
 6081SOL    HW229703   1.898   1.755   3.459  0.8475 -0.6957  0.1058
 6082SOL     OW29704   0.459   4.358   2.179 -0.3862  0.3152  0.1071
 6082SOL    HW129705   0.478   4.447   2.207  0.5666  0.2169 -0.2211
 6082SOL    HW229706   0.428   4.326   2.263 -1.1596  2.9084  0.7995
 6083SOL     OW29707   0.419   3.055   4.020  0.6257 -0.1556  0.9136
 6083SOL    HW129708   0.429   3.122   4.088 -2.5044  0.3132  0.8889
 6083SOL    HW229709   0.491   3.071   3.959 -0.8399  1.0980 -0.4717
 6084SOL     OW29710   3.831   2.820   0.639 -0.0220  0.0214 -0.3687
 6084SOL    HW129711   3.922   2.842   0.660  0.3895 -1.0476 -1.0398
 6084SOL    HW229712   3.792   2.906   0.655 -0.5995 -0.2547 -0.3064
 6085SOL     OW29713   0.974   1.173   5.950  0.1380 -0.1105 -0.4511
 6085SOL    HW129714   1.028   1.252   5.952  0.6853 -0.6289  4.0136
 6085SOL    HW229715   1.018   1.126   6.020  0.1399 -1.2838 -1.2381
 6086SOL     OW29716   2.125   0.581   4.054  0.4439  0.1868  0.4741
 6086SOL    HW129717   2.111   0.516   4.123  1.8004 -0.8890 -0.2650
 6086SOL    HW229718   2.213   0.554   4.029  0.1145  1.2734 -1.7796
 6087SOL     OW29719   1.729   1.207  17.686 -0.3074  0.3119  0.0896
 6087SOL    HW129720   1.702   1.181   0.078 -2.7312 -1.1448 -1.0718
 6087SOL    HW229721   1.791   1.276   0.011 -1.4255  1.1731  0.5195
 6088SOL     OW29722   3.920   0.684   3.821  0.3530  0.1323 -0.6701
 6088SOL    HW129723   3.951   0.663   3.910  0.2716 -1.3625 -1.0075
 6088SOL    HW229724   3.995   0.664   3.766  2.1921  0.8334  1.5472
 6089SOL     OW29725   0.424   1.537   5.287 -0.3505  0.0751 -0.2149
 6089SOL    HW129726   0.364   1.463   5.282  0.5276 -0.6968  0.8425
 6089SOL    HW229727   0.363   1.610   5.290 -0.3674 -0.0195  1.6222
 6090SOL     OW29728   1.433   0.098   9.158 -0.2831 -0.4064  0.0558
 6090SOL    HW129729   1.526   0.080   9.144 -0.4907  0.1677 -2.0555
 6090SOL    HW229730   1.402   0.018   9.199 -0.8499  0.6587  1.7005
 6091SOL     OW29731   2.792   0.089   1.798 -0.1689 -0.2768  0.5340
 6091SOL    HW129732   2.778   0.178   1.767 -1.4079  0.7330  4.0226
 6091SOL    HW229733   2.849   0.106   1.873 -0.8829 -0.7510  1.1819
 6092SOL     OW29734   1.084   3.000   9.327 -0.4894  0.4916  0.0404
 6092SOL    HW129735   1.027   2.942   9.276  1.1964 -1.3837  0.2865
 6092SOL    HW229736   1.173   2.965   9.322 -1.0362 -1.0003  0.7390
 6093SOL     OW29737   1.525   2.514  17.083 -0.3394  0.3545 -0.0648
 6093SOL    HW129738   1.555   2.603  17.064 -1.9168  0.6672 -1.1308
 6093SOL    HW229739   1.465   2.529  17.156 -0.1234  1.9052 -0.2135
 6094SOL     OW29740   0.367   0.827   1.298 -0.1601  0.0293 -0.4553
 6094SOL    HW129741   0.305   0.861   1.362  1.2954 -0.7378  1.3413
 6094SOL    HW229742   0.440   0.815   1.358  0.2276  2.5694 -0.4497
 6095SOL     OW29743   0.128   0.710   9.894 -0.2445 -0.0087  0.5213
 6095SOL    HW129744   0.057   0.723   9.831  0.6437 -0.3106 -0.5412
 6095SOL    HW229745   0.079   0.702   9.976  2.3664  1.3851  2.2064
 6096SOL     OW29746   1.579   0.669   4.667 -0.0464 -0.5238  0.3599
 6096SOL    HW129747   1.495   0.659   4.712 -1.3370  0.1011 -1.8667
 6096SOL    HW229748   1.579   0.592   4.611  0.2114  0.0898 -0.4880
 6097SOL     OW29749   4.062   0.110   7.274 -0.6539  0.2777 -0.0775
 6097SOL    HW129750   4.034   0.132   7.363 -1.4561 -0.3219 -0.1898
 6097SOL    HW229751   4.035   0.018   7.272  1.2417 -0.3020  0.4378
 6098SOL     OW29752   4.214   1.217   4.690 -0.3903 -0.1798  0.0059
 6098SOL    HW129753   4.185   1.145   4.633 -0.7163 -0.9328  1.1272
 6098SOL    HW229754   4.173   1.294   4.651 -1.0490  0.5548  2.1506
 6099SOL     OW29755   3.947   1.615  16.585 -0.4361  0.4527 -0.1684
 6099SOL    HW129756   3.995   1.675  16.528  0.4607  2.4773  2.7825
 6099SOL    HW229757   4.018   1.573  16.634 -0.5276  0.7379  0.2046
 6100SOL     OW29758   3.307   0.537  14.458 -0.5783 -0.3719 -0.2131
 6100SOL    HW129759   3.258   0.511  14.380 -2.3494  1.0740  0.4321
 6100SOL    HW229760   3.353   0.607  14.411 -0.1221  0.7395  1.9346
 6101SOL     OW29761   1.433   1.218   3.916 -0.4150  0.2175  0.3921
 6101SOL    HW129762   1.407   1.263   3.996  0.1506 -0.6212  1.0529
 6101SOL    HW229763   1.447   1.131   3.954 -1.5047 -0.6623 -1.2268
 6102SOL     OW29764   2.659   1.175   5.846 -0.3788 -0.0498  0.0795
 6102SOL    HW129765   2.673   1.207   5.935 -1.5463 -0.3189  0.3585
 6102SOL    HW229766   2.670   1.081   5.859  2.6534  0.3402  0.2789
 6103SOL     OW29767   0.286   1.020   8.473  0.0924 -0.1354  0.0659
 6103SOL    HW129768   0.207   0.993   8.521  1.4918  0.3297  2.6205
 6103SOL    HW229769   0.340   1.073   8.532  1.0696  1.2404 -2.0605
 6104SOL     OW29770   0.012   2.494   3.103  0.3931  0.3039 -0.7849
 6104SOL    HW129771   0.015   2.399   3.119  0.6127  0.9167  2.7735
 6104SOL    HW229772   0.078   2.508   3.035  1.4628  2.2804  0.6884
 6105SOL     OW29773   0.593   2.590   8.722 -0.1210  0.2295 -0.3344
 6105SOL    HW129774   0.673   2.632   8.690  1.5910 -1.0212  2.2632
 6105SOL    HW229775   0.569   2.660   8.783  0.2304  0.8084 -0.8559
 6106SOL     OW29776   1.075   3.455  12.221  0.5275 -0.1530  0.1347
 6106SOL    HW129777   1.009   3.396  12.183  1.5876 -0.8746 -0.5919
 6106SOL    HW229778   1.051   3.534  12.172  2.0489  1.3891  1.9053
 6107SOL     OW29779   0.874   3.118   7.235  0.1357  0.1354 -0.8947
 6107SOL    HW129780   0.839   3.204   7.211 -0.4982  0.1016 -0.0747
 6107SOL    HW229781   0.905   3.142   7.323 -1.0518  0.8776 -0.6731
 6108SOL     OW29782   0.653   1.327   3.095  0.3355 -0.2652 -0.4504
 6108SOL    HW129783   0.560   1.332   3.071  1.0185 -1.3640 -3.2848
 6108SOL    HW229784   0.695   1.361   3.016  1.5342 -2.6442 -0.8633
 6109SOL     OW29785   0.912   3.522   7.865 -0.3587 -0.5813 -0.1161
 6109SOL    HW129786   0.888   3.509   7.773 -0.7864 -1.2485  0.0871
 6109SOL    HW229787   0.900   3.433   7.899  0.8176 -0.4554  0.6433
 6110SOL     OW29788   4.674   1.411   7.115  0.2956 -0.0901 -0.0634
 6110SOL    HW129789   4.672   1.484   7.053 -0.1557  1.1802  1.4165
 6110SOL    HW229790   4.582   1.383   7.113 -0.0094  0.9707 -0.7693
 6111SOL     OW29791   3.015   4.312   5.044  0.2285  0.2190 -0.6025
 6111SOL    HW129792   2.959   4.372   4.995 -1.6195 -1.4027 -0.4695
 6111SOL    HW229793   3.072   4.368   5.097 -0.8488  1.3888 -0.6713
 6112SOL     OW29794   0.237   1.603   7.269  0.6877 -0.5098  0.1295
 6112SOL    HW129795   0.254   1.660   7.344  0.3879 -1.5738  1.0044
 6112SOL    HW229796   0.186   1.651   7.204  1.7590 -1.2427 -1.2632
 6113SOL     OW29797   2.402   0.759  17.683 -0.5977 -0.6954  0.0579
 6113SOL    HW129798   2.463   0.802  17.622 -2.0694 -0.9750 -1.6256
 6113SOL    HW229799   2.410   0.666  17.662 -1.5923 -0.4921 -1.2015
 6114SOL     OW29800   2.756   0.259   5.425  0.0575 -0.2914  0.9556
 6114SOL    HW129801   2.757   0.311   5.345  0.4417 -1.3406  0.2860
 6114SOL    HW229802   2.818   0.311   5.476  0.2146 -0.1630  0.6366
 6115SOL     OW29803   1.666   3.042   3.630  0.5290 -0.2121 -0.5139
 6115SOL    HW129804   1.657   3.131   3.665 -1.4787 -0.5502 -0.1897
 6115SOL    HW229805   1.760   3.041   3.610  0.1127 -0.5820 -2.3664
 6116SOL     OW29806   0.024   4.349   0.699  0.2258 -0.1605 -0.3168
 6116SOL    HW129807   0.106   4.310   0.730  0.5541  0.4804 -0.3984
 6116SOL    HW229808   0.049   4.440   0.683  2.2606 -1.1781 -2.8946
 6117SOL     OW29809   1.738   2.913   8.510  0.6519 -0.1425  0.7215
 6117SOL    HW129810   1.696   2.964   8.580 -0.3445 -0.2833  0.2202
 6117SOL    HW229811   1.763   2.985   8.452 -0.0026  1.2806  2.1907
 6118SOL     OW29812   3.271   2.048   3.373  0.0264  0.3361 -0.1059
 6118SOL    HW129813   3.199   2.107   3.394 -0.2904  0.7396 -2.2704
 6118SOL    HW229814   3.340   2.106   3.342  1.2538 -2.1339 -2.0377
 6119SOL     OW29815   0.517   4.691  11.947 -0.0033 -0.5643  0.2665
 6119SOL    HW129816   0.567   4.683  11.865  1.7635 -0.6494  1.3395
 6119SOL    HW229817   0.433   4.671  11.907  1.7909 -2.8690 -2.3443
 6120SOL     OW29818   2.369   2.345  16.890  0.1382  0.0536  0.5415
 6120SOL    HW129819   2.454   2.304  16.908  0.6566  0.0222 -1.9288
 6120SOL    HW229820   2.336   2.361  16.978 -1.3990 -1.1667  0.1883
 6121SOL     OW29821   0.775   3.455   9.040 -0.2634  0.2555  0.1350
 6121SOL    HW129822   0.866   3.458   9.013 -0.1266 -1.8315  0.4053
 6121SOL    HW229823   0.748   3.546   9.051 -1.6905 -0.0602 -0.6628
 6122SOL     OW29824   3.632   1.569   3.847  0.0575 -0.2045  0.4901
 6122SOL    HW129825   3.694   1.535   3.911  1.0702 -0.2211 -0.5146
 6122SOL    HW229826   3.687   1.626   3.793  1.1119 -3.9242 -2.3185
 6123SOL     OW29827   4.132   3.052   3.909 -0.4989 -1.0809 -0.4507
 6123SOL    HW129828   4.149   2.989   3.838 -2.2964 -1.3738 -0.6328
 6123SOL    HW229829   4.042   3.079   3.890 -0.6307  0.2068  2.0470
 6124SOL     OW29830   2.205   4.137  12.587 -0.3155 -0.2348 -0.5669
 6124SOL    HW129831   2.211   4.188  12.506  0.3261  0.6664  0.0591
 6124SOL    HW229832   2.295   4.111  12.606  0.5445  1.4430 -2.3945
 6125SOL     OW29833   0.140   3.155   3.060 -0.2815  0.0674  0.3075
 6125SOL    HW129834   0.153   3.198   2.975  0.9034 -1.0656 -0.0701
 6125SOL    HW229835   0.184   3.072   3.041 -0.9576 -0.3471  0.5234
 6126SOL     OW29836   0.903   4.167   7.225 -0.0066 -0.2484  0.0881
 6126SOL    HW129837   0.998   4.171   7.220 -0.0561 -0.0903 -0.7756
 6126SOL    HW229838   0.889   4.261   7.236  0.2857  0.0461 -2.0129
 6127SOL     OW29839   2.081   2.589   0.708 -0.3944  0.7145 -0.2144
 6127SOL    HW129840   2.007   2.530   0.700  0.4025 -0.3996  0.6914
 6127SOL    HW229841   2.138   2.565   0.634 -0.7230  1.7544 -0.8032
 6128SOL     OW29842   3.318   1.135  17.674  0.4915 -0.0555 -0.8115
 6128SOL    HW129843   3.330   1.225   0.010  0.5789 -0.4225  0.2078
 6128SOL    HW229844   3.230   1.110   0.007 -0.5734  4.3671 -0.2942
 6129SOL     OW29845   2.626   0.188   6.621  0.0091  0.4579 -0.2621
 6129SOL    HW129846   2.616   0.224   6.709  0.4017 -0.9332  0.3364
 6129SOL    HW229847   2.658   0.101   6.641 -0.0398  0.2833 -0.9330
 6130SOL     OW29848   1.453   3.184   7.863 -0.1362  0.2525 -0.1468
 6130SOL    HW129849   1.495   3.187   7.949  0.7203  0.4020 -0.5669
 6130SOL    HW229850   1.367   3.154   7.891 -0.4658  2.4644  1.1604
 6131SOL     OW29851   4.590   4.116   1.244  0.6814 -0.5785 -0.2893
 6131SOL    HW129852   4.573   4.113   1.338  1.1316 -1.2726 -0.2307
 6131SOL    HW229853   4.506   4.157   1.224  0.5843 -1.6469 -2.0245
 6132SOL     OW29854   0.006   2.076   5.841  0.5273 -0.5537 -0.1739
 6132SOL    HW129855   0.030   2.168   5.837  2.1066 -0.9406  0.1985
 6132SOL    HW229856   4.716   2.063   5.935  0.5606 -0.4107 -0.1500
 6133SOL     OW29857   0.889   1.993  13.405 -0.0855  0.1144  0.3381
 6133SOL    HW129858   0.813   2.032  13.361  1.1616  0.3682 -1.5823
 6133SOL    HW229859   0.838   1.933  13.459 -2.3296  2.0452  0.3721
 6134SOL     OW29860   4.541   3.163   7.688  0.2420 -0.3808  0.4886
 6134SOL    HW129861   4.537   3.105   7.764  0.6167 -2.2815 -0.9349
 6134SOL    HW229862   4.570   3.242   7.733  0.0223 -0.8214  1.3839
 6135SOL     OW29863   0.941   4.134   4.748 -0.3620 -0.1141  0.3763
 6135SOL    HW129864   0.853   4.128   4.785 -0.3209  0.6290  0.5988
 6135SOL    HW229865   0.986   4.177   4.820  0.4316 -2.4573  1.2718
 6136SOL     OW29866   4.054   1.134  12.039  0.4135 -0.0002 -0.1064
 6136SOL    HW129867   4.137   1.089  12.058  0.4971 -0.2162 -0.9784
 6136SOL    HW229868   4.036   1.108  11.948 -2.2435 -1.2506  0.7720
 6137SOL     OW29869   2.966   0.354   5.905  0.2020  0.5006 -0.0205
 6137SOL    HW129870   2.872   0.376   5.907  0.0331 -0.2468  0.3857
 6137SOL    HW229871   2.975   0.290   5.834  0.6964  0.1257  0.3836
 6138SOL     OW29872   3.782   1.813   0.250  0.2789  0.5928 -0.1632
 6138SOL    HW129873   3.756   1.734   0.297  0.0006  1.6736  1.5027
 6138SOL    HW229874   3.790   1.875   0.322  1.0592  0.2536  0.0422
 6139SOL     OW29875   2.992   1.153  10.778  0.0461  0.1027  0.1747
 6139SOL    HW129876   2.897   1.151  10.793  0.1536 -2.0441  0.5151
 6139SOL    HW229877   2.999   1.115  10.690 -2.4635  0.7495 -0.3173
 6140SOL     OW29878   1.414   1.611   7.174  0.2258 -0.1376  0.4216
 6140SOL    HW129879   1.480   1.665   7.217  2.0768 -2.0597 -0.0292
 6140SOL    HW229880   1.378   1.568   7.252 -0.7960  0.9914  0.5757
 6141SOL     OW29881   0.683   4.655   2.997  0.1086 -0.6996  0.1664
 6141SOL    HW129882   0.615   4.721   2.983 -0.4740 -1.2258  0.5224
 6141SOL    HW229883   0.630   4.598   3.053 -0.5502 -0.3782 -0.1334
 6142SOL     OW29884   4.645   4.662   3.031  0.1276 -0.1036 -0.8696
 6142SOL    HW129885   4.568   4.654   3.088  1.2683  0.2204  0.7431
 6142SOL    HW229886   4.628   0.009   2.968 -0.6291  0.9367  0.4731
 6143SOL     OW29887   1.038   1.644   9.121  0.7513 -0.6053  0.5736
 6143SOL    HW129888   0.956   1.683   9.091  1.4513 -0.5428 -1.2485
 6143SOL    HW229889   1.096   1.719   9.135  2.3175 -1.6928 -0.0289
 6144SOL     OW29890   4.008   0.268   2.331 -0.4972  0.0661  0.7163
 6144SOL    HW129891   4.029   0.305   2.245  1.4765 -1.7128  0.4143
 6144SOL    HW229892   3.956   0.191   2.307  0.9313 -0.6134 -0.2528
 6145SOL     OW29893   2.210   0.341   4.658 -0.6944  0.6714  0.0433
 6145SOL    HW129894   2.186   0.431   4.634  0.4679  0.6392 -1.2425
 6145SOL    HW229895   2.198   0.289   4.579  0.3350  0.5727 -0.0538
 6146SOL     OW29896   0.824   2.682   7.701  0.0133 -0.2825  0.3958
 6146SOL    HW129897   0.817   2.643   7.614  0.9508 -1.7674  0.9818
 6146SOL    HW229898   0.859   2.768   7.681  0.9543 -0.2223  2.3207
 6147SOL     OW29899   3.890   2.173   6.623 -0.5345 -0.3077  0.6198
 6147SOL    HW129900   3.951   2.232   6.580  0.7719 -3.2093 -1.5453
 6147SOL    HW229901   3.940   2.092   6.637  2.0832  1.2825  0.3292
 6148SOL     OW29902   0.973   2.982  16.616  0.4943 -0.0935  0.8484
 6148SOL    HW129903   0.985   3.015  16.527 -0.6537 -3.4158 -0.5004
 6148SOL    HW229904   1.046   2.921  16.624 -0.7370 -1.6274  0.4085
 6149SOL     OW29905   3.728   2.972   7.482 -0.2372 -0.5338 -0.4136
 6149SOL    HW129906   3.664   2.933   7.541  0.9822  0.8666  1.8751
 6149SOL    HW229907   3.666   2.972   7.410  1.8542  2.0886 -2.2047
 6150SOL     OW29908   4.401   3.556  13.438  0.1621  0.2090 -0.3455
 6150SOL    HW129909   4.339   3.623  13.468  1.0822 -0.5789  3.2733
 6150SOL    HW229910   4.484   3.603  13.443 -0.3830  0.9397  2.0779
 6151SOL     OW29911   1.229   2.260   4.817 -0.8144  0.4289  0.6268
 6151SOL    HW129912   1.213   2.298   4.731 -0.1642 -1.9063 -0.5275
 6151SOL    HW229913   1.317   2.224   4.808 -1.0485 -0.2858  1.1745
 6152SOL     OW29914   3.263   2.217  12.844 -0.2417  0.0727  0.2050
 6152SOL    HW129915   3.190   2.231  12.904 -0.8547 -2.1003 -0.0177
 6152SOL    HW229916   3.302   2.140  12.886 -0.6068  0.1925  0.7595
 6153SOL     OW29917   0.618   4.398  14.798  0.1118 -0.2199 -0.3478
 6153SOL    HW129918   0.687   4.399  14.865 -0.3090 -1.4319  0.0972
 6153SOL    HW229919   0.583   4.313  14.823  0.9982 -0.9897 -1.7569
 6154SOL     OW29920   2.006   4.387  12.136 -0.0993  0.2219 -0.4629
 6154SOL    HW129921   2.060   4.465  12.150  2.0188 -1.1898 -0.6958
 6154SOL    HW229922   2.058   4.319  12.093 -0.7388  0.5816 -1.8000
 6155SOL     OW29923   0.672   3.283  10.831 -0.1559 -0.4891 -0.3488
 6155SOL    HW129924   0.633   3.333  10.903  1.6501  0.9492 -0.3928
 6155SOL    HW229925   0.643   3.195  10.857 -1.8912  0.3169  0.4656
 6156SOL     OW29926   3.083   0.935   3.268  0.0981  0.2972  0.3003
 6156SOL    HW129927   3.070   0.874   3.195 -0.9400  1.2492 -0.3197
 6156SOL    HW229928   3.072   0.881   3.346  0.1211 -1.1900 -0.7099
 6157SOL     OW29929   4.119   1.380   7.933  0.0872  0.5670  0.8872
 6157SOL    HW129930   4.092   1.318   8.001  1.2152 -2.0376 -1.0203
 6157SOL    HW229931   4.206   1.388   7.971  1.3727  0.8647 -2.1446
 6158SOL     OW29932   3.420   0.507   7.213 -0.5234  0.1449 -0.0277
 6158SOL    HW129933   3.409   0.428   7.265  3.0499 -0.1499  0.3080
 6158SOL    HW229934   3.371   0.472   7.139  1.8003 -1.2810 -0.8829
 6159SOL     OW29935   1.133   4.088   2.520  0.2328  0.1666 -0.2642
 6159SOL    HW129936   1.218   4.069   2.559 -0.7173 -1.0170  1.2632
 6159SOL    HW229937   1.143   4.138   2.439  0.4620 -1.2681 -1.1108
 6160SOL     OW29938   4.692   3.688   3.701  0.2304 -0.1274 -0.6885
 6160SOL    HW129939   4.623   3.623   3.704  1.9831 -1.8831  1.2755
 6160SOL    HW229940   0.037   3.622   3.705 -0.7449 -1.0155  1.0176
 6161SOL     OW29941   2.149   1.907   5.535  0.1116  0.3313  0.0873
 6161SOL    HW129942   2.193   1.947   5.610  3.2300 -0.1524 -1.4851
 6161SOL    HW229943   2.117   1.979   5.480  0.1052  2.4006  2.8001
 6162SOL     OW29944   2.960   1.983   0.252  0.0269  0.3736  0.2217
 6162SOL    HW129945   2.916   2.063   0.282  1.0284  1.5351 -1.4073
 6162SOL    HW229946   3.004   2.019   0.175 -1.8141 -0.1211 -1.0467
 6163SOL     OW29947   1.153   0.060   6.176 -0.9250 -0.0809  0.1555
 6163SOL    HW129948   1.073   0.019   6.143 -0.2793  0.3636 -1.9939
 6163SOL    HW229949   1.174   4.711   6.235 -1.2934 -2.4682 -2.6467
 6164SOL     OW29950   1.467   4.345   4.381  0.2103 -0.9755  0.0286
 6164SOL    HW129951   1.411   4.278   4.421  0.5886 -0.9726  0.5736
 6164SOL    HW229952   1.423   4.424   4.414  0.4433 -0.1349 -1.6942
 6165SOL     OW29953   0.611   0.371   5.607  0.2903 -0.1752 -0.5968
 6165SOL    HW129954   0.648   0.408   5.687 -1.9579 -0.1631  0.4200
 6165SOL    HW229955   0.558   0.437   5.564 -0.3296 -0.2315  0.0783
 6166SOL     OW29956   2.867   3.510   3.917  0.0273 -0.6316 -0.4280
 6166SOL    HW129957   2.917   3.435   3.883 -1.8006 -0.2925 -3.8377
 6166SOL    HW229958   2.794   3.455   3.946 -0.0929 -0.9221 -1.2903
 6167SOL     OW29959   4.202   4.308   6.709  0.0011 -0.0213  0.3343
 6167SOL    HW129960   4.204   4.355   6.626  0.1654 -0.4292  0.1083
 6167SOL    HW229961   4.209   4.380   6.772  2.1157  1.5560 -1.6981
 6168SOL     OW29962   3.648   0.211   7.011 -0.4986 -0.1990  0.2336
 6168SOL    HW129963   3.583   0.281   7.022  0.7569  1.1562 -1.0226
 6168SOL    HW229964   3.730   0.256   7.028  0.4101 -2.2771  1.3325
 6169SOL     OW29965   0.527   4.008   3.562 -0.0242  0.0847 -0.4608
 6169SOL    HW129966   0.467   3.938   3.586 -1.1900  1.1953 -0.1597
 6169SOL    HW229967   0.482   4.087   3.592  0.7780  0.3162  0.1610
 6170SOL     OW29968   0.077   0.594   7.616 -0.3888  0.1438 -0.0406
 6170SOL    HW129969   0.126   0.665   7.575  0.1305  0.0362  0.3928
 6170SOL    HW229970   4.715   0.600   7.574 -0.5937  2.8975  0.7323
 6171SOL     OW29971   3.696   3.844   3.392 -0.1279  0.2284  0.3232
 6171SOL    HW129972   3.677   3.781   3.463  3.4832  1.5245  2.4571
 6171SOL    HW229973   3.634   3.913   3.418 -0.3062 -0.0009  0.5138
 6172SOL     OW29974   2.910   1.068   9.150 -0.2001 -0.3956  0.0647
 6172SOL    HW129975   2.823   1.029   9.156  0.0596 -1.2609 -2.0324
 6172SOL    HW229976   2.896   1.157   9.118 -0.2223 -1.6492 -3.4565
 6173SOL     OW29977   2.459   1.488   6.078  0.3253  0.3824  0.5063
 6173SOL    HW129978   2.399   1.546   6.125 -1.4642 -0.4258 -0.7934
 6173SOL    HW229979   2.474   1.428   6.151 -2.6319  0.0762  0.8627
 6174SOL     OW29980   2.280   2.617  15.328  0.3323  0.6159 -0.0955
 6174SOL    HW129981   2.203   2.633  15.382  0.6199 -1.7793  1.0105
 6174SOL    HW229982   2.280   2.523  15.314 -1.1435  0.3825  1.5625
 6175SOL     OW29983   2.243   0.127  16.091  0.4882 -0.4403 -0.2752
 6175SOL    HW129984   2.276   0.074  16.019  0.5068 -1.3766  0.4371
 6175SOL    HW229985   2.172   0.178  16.051  2.4086  2.3386 -0.1911
 6176SOL     OW29986   3.826   3.076   4.106 -0.0052 -0.4254 -0.2478
 6176SOL    HW129987   3.815   2.982   4.090 -0.7373 -0.1652 -1.3333
 6176SOL    HW229988   3.737   3.108   4.091  0.2280  1.2893  2.1012
 6177SOL     OW29989   1.067   1.458  12.602  0.4500 -0.4431  0.3487
 6177SOL    HW129990   1.149   1.506  12.609 -1.8305  3.2725  1.1753
 6177SOL    HW229991   1.089   1.395  12.533 -0.1715  0.8442 -1.0190
 6178SOL     OW29992   2.033   1.588  14.779  0.1523  0.1510  0.0446
 6178SOL    HW129993   1.971   1.660  14.781 -0.6838 -0.5907  0.7870
 6178SOL    HW229994   1.977   1.511  14.773 -0.6345  0.7559 -0.2880
 6179SOL     OW29995   2.742   2.497  11.043 -0.4289  0.0492 -0.2699
 6179SOL    HW129996   2.674   2.445  11.000 -2.4649  2.7157 -0.3163
 6179SOL    HW229997   2.775   2.536  10.962  0.3324 -0.9944 -0.4515
 6180SOL     OW29998   1.415   3.591   8.780  0.1939 -0.1685 -0.1623
 6180SOL    HW129999   1.377   3.539   8.710  1.4863 -0.7246 -0.4447
 6180SOL    HW230000   1.431   3.530   8.853 -1.8574  0.2672  0.6481
 6181SOL     OW30001   0.572   0.560  14.022  0.3520  0.8746 -0.1248
 6181SOL    HW130002   0.548   0.651  14.040 -0.6809  0.9619 -1.8714
 6181SOL    HW230003   0.654   0.567  14.071 -0.7760  2.2443  1.5749
 6182SOL     OW30004   1.769   4.170   2.027  0.4572 -0.0194 -0.0215
 6182SOL    HW130005   1.773   4.201   1.936  0.9730 -0.3679 -0.1135
 6182SOL    HW230006   1.695   4.224   2.056  1.1566 -0.3902  2.4266
 6183SOL     OW30007   1.317   1.398  12.431  0.1985  0.4969  0.9278
 6183SOL    HW130008   1.288   1.482  12.394 -2.5543 -0.2927  1.2692
 6183SOL    HW230009   1.405   1.395  12.393 -0.5421  3.6303 -1.0385
 6184SOL     OW30010   0.285   3.454   2.223  0.0906 -0.4920  0.3625
 6184SOL    HW130011   0.207   3.426   2.271 -1.6063 -1.7618 -3.1368
 6184SOL    HW230012   0.240   3.500   2.152 -1.8573 -1.3366  1.0586
 6185SOL     OW30013   0.274   1.097   0.265  0.4223 -0.3471  0.2677
 6185SOL    HW130014   0.361   1.088   0.303 -0.6897  0.0226  2.9400
 6185SOL    HW230015   0.241   1.167   0.321 -0.4672  1.1555 -2.1638
 6186SOL     OW30016   2.448   3.835   6.085 -0.1172 -0.3762 -0.5883
 6186SOL    HW130017   2.463   3.845   6.179  3.5602 -1.0899 -1.1131
 6186SOL    HW230018   2.384   3.904   6.067 -0.6357 -0.5652  0.5443
 6187SOL     OW30019   3.082   3.861   2.147 -0.3223 -0.0262 -0.4349
 6187SOL    HW130020   3.109   3.909   2.226  0.3812  0.4990 -0.9990
 6187SOL    HW230021   3.026   3.797   2.191 -1.6862  1.7756  0.4087
 6188SOL     OW30022   3.602   2.563   1.542 -0.1834  0.0913  0.0659
 6188SOL    HW130023   3.612   2.652   1.508  0.5442  0.2195  0.6055
 6188SOL    HW230024   3.510   2.562   1.566 -0.7458  1.8814 -1.9539
 6189SOL     OW30025   2.931   3.670   2.801 -0.7415 -0.4611  0.7124
 6189SOL    HW130026   3.024   3.649   2.793 -0.4239  1.2216  0.0604
 6189SOL    HW230027   2.895   3.586   2.772 -3.0910  0.4810  0.8625
 6190SOL     OW30028   2.888   1.124  15.674  0.3805 -0.0681  0.0382
 6190SOL    HW130029   2.891   1.063  15.600  1.7434  0.4047 -0.3013
 6190SOL    HW230030   2.835   1.186  15.625  0.9376 -1.7084 -2.6710
 6191SOL     OW30031   0.318   4.286  16.734 -0.0543  0.3930  0.3342
 6191SOL    HW130032   0.281   4.213  16.684 -0.1905  0.8773 -0.2715
 6191SOL    HW230033   0.397   4.247  16.773 -0.2805 -0.7233 -0.3257
 6192SOL     OW30034   3.234   4.331   4.346 -0.3276  0.2642 -0.4775
 6192SOL    HW130035   3.184   4.413   4.350 -2.3813 -0.9677 -0.8467
 6192SOL    HW230036   3.270   4.306   4.432 -0.3578  0.6554 -0.3519
 6193SOL     OW30037   3.486   1.063   5.897 -0.2728  0.4626 -0.5353
 6193SOL    HW130038   3.551   1.128   5.924  0.8896 -0.8471 -0.1878
 6193SOL    HW230039   3.432   1.108   5.832 -1.0949 -1.5288 -1.2239
 6194SOL     OW30040   3.170   4.445   7.273  0.0631  0.0817  0.1463
 6194SOL    HW130041   3.247   4.498   7.293  0.5385  0.1010 -1.7457
 6194SOL    HW230042   3.198   4.354   7.274 -0.6307 -0.1558 -2.3111
 6195SOL     OW30043   4.429   4.518   2.081 -0.1770 -0.1783 -1.0411
 6195SOL    HW130044   4.402   4.610   2.086  1.4099  0.2178  0.0131
 6195SOL    HW230045   4.519   4.513   2.114 -0.0086 -1.5719 -1.7198
 6196SOL     OW30046   0.982   1.288   8.737 -0.5626 -0.2324  0.4047
 6196SOL    HW130047   0.967   1.383   8.730  0.1101 -0.2196 -0.7833
 6196SOL    HW230048   1.076   1.287   8.720 -0.1695  0.8187  2.4310
 6197SOL     OW30049   3.797   1.756   4.085 -0.2478 -0.1060  0.6456
 6197SOL    HW130050   3.875   1.811   4.094  0.0229  0.0594 -2.8694
 6197SOL    HW230051   3.829   1.680   4.037  1.9869  0.9786  0.3819
 6198SOL     OW30052   4.020   1.709   2.959  0.8872  0.6444  0.6814
 6198SOL    HW130053   3.950   1.643   2.954  2.1013 -0.4958 -1.2463
 6198SOL    HW230054   3.988   1.793   2.992  1.9119  1.3747 -0.1779
 6199SOL     OW30055   2.475   2.810   0.042  0.6674  0.4044  0.2283
 6199SOL    HW130056   2.538   2.742   0.068 -0.5473 -1.0352 -0.5536
 6199SOL    HW230057   2.451   2.848   0.126  0.3613 -1.3248  0.9403
 6200SOL     OW30058   1.560   1.428   6.690  0.8668  0.2956 -0.7313
 6200SOL    HW130059   1.564   1.523   6.703  1.7159  0.2010 -0.2488
 6200SOL    HW230060   1.529   1.396   6.775 -1.8207  1.2366 -1.3757
 6201SOL     OW30061   3.068   1.230   8.940 -0.1283  0.6050 -0.3753
 6201SOL    HW130062   3.093   1.138   8.935 -0.7494  0.3670  0.9459
 6201SOL    HW230063   3.112   1.264   9.018  1.1273  2.0648 -1.7188
 6202SOL     OW30064   3.411   3.335   8.354 -0.2409  0.3951 -0.0827
 6202SOL    HW130065   3.362   3.287   8.287 -0.5325 -1.0284  1.1692
 6202SOL    HW230066   3.466   3.283   8.412 -2.0425 -1.7937 -0.3179
 6203SOL     OW30067   0.378   2.366  10.752 -0.1222  0.0243  0.3748
 6203SOL    HW130068   0.446   2.345  10.816 -0.0418  3.0923  1.2701
 6203SOL    HW230069   0.405   2.452  10.722  1.9878 -0.4378  0.9312
 6204SOL     OW30070   3.369   1.384  16.785 -0.1627  0.2509  0.1151
 6204SOL    HW130071   3.461   1.397  16.766  0.1607 -2.1505  0.1115
 6204SOL    HW230072   3.371   1.369  16.879 -0.9753 -3.5858 -0.4704
 6205SOL     OW30073   2.738   1.364  16.064 -0.0317  0.0391  0.3342
 6205SOL    HW130074   2.740   1.436  16.126  1.6044 -0.9030  1.3916
 6205SOL    HW230075   2.751   1.404  15.978  0.7174 -0.9635 -0.0241
 6206SOL     OW30076   2.528   3.948  14.700 -0.2502  0.4653 -0.4677
 6206SOL    HW130077   2.563   3.983  14.617 -0.4753  0.7410 -0.4479
 6206SOL    HW230078   2.543   3.856  14.680 -1.9762 -0.1434  1.0734
 6207SOL     OW30079   4.472   2.209   8.080  0.0516  0.6360 -0.1811
 6207SOL    HW130080   4.529   2.136   8.103 -1.2547  0.2585  1.8447
 6207SOL    HW230081   4.405   2.221   8.147 -0.4270 -1.5345 -0.2972
 6208SOL     OW30082   3.380   1.170   6.621  0.1839 -0.0580 -0.1573
 6208SOL    HW130083   3.391   1.102   6.555  3.1136 -1.2108  1.5321
 6208SOL    HW230084   3.398   1.247   6.567 -1.8343  2.0167  2.0850
 6209SOL     OW30085   3.698   2.087  11.450  0.2511  0.1241  0.0215
 6209SOL    HW130086   3.662   2.153  11.391  1.9303  0.5543 -0.5300
 6209SOL    HW230087   3.622   2.083  11.508  0.0517 -1.8253 -0.3695
 6210SOL     OW30088   0.994   2.967   1.723 -0.1649 -0.6226 -0.2136
 6210SOL    HW130089   0.942   3.045   1.744  0.2679  0.1833 -2.1532
 6210SOL    HW230090   1.084   3.001   1.727 -0.4149  0.4172 -3.2518
 6211SOL     OW30091   2.249   1.993   2.297 -0.1227 -0.2066 -0.5907
 6211SOL    HW130092   2.289   1.999   2.211 -0.6075  0.4625 -0.7740
 6211SOL    HW230093   2.325   1.985   2.354  0.4649 -1.1431 -1.5131
 6212SOL     OW30094   0.156   1.446   4.417 -0.0768 -0.3450  0.2512
 6212SOL    HW130095   0.107   1.378   4.371 -0.8411  1.1059 -1.1116
 6212SOL    HW230096   0.110   1.529   4.401  0.3743 -0.7434 -3.2165
 6213SOL     OW30097   3.840   3.645   9.565 -0.2279  0.5506 -0.4764
 6213SOL    HW130098   3.836   3.575   9.630  0.1825  0.6872 -0.3057
 6213SOL    HW230099   3.814   3.716   9.623 -1.8810 -0.2633 -0.2105
 6214SOL     OW30100   3.956   1.682   8.348  0.0553  0.1012  0.4867
 6214SOL    HW130101   3.876   1.671   8.295  0.0063 -1.3594  0.8466
 6214SOL    HW230102   4.003   1.755   8.309 -1.1812  1.6682  1.9845
 6215SOL     OW30103   0.153   2.647   1.102  0.4254 -0.3922 -0.0982
 6215SOL    HW130104   0.136   2.739   1.124 -2.0407 -1.1582  1.1193
 6215SOL    HW230105   0.218   2.660   1.032 -2.1785 -0.8038 -2.5884
 6216SOL     OW30106   1.189   3.444   7.079  0.6291  0.2836 -0.0676
 6216SOL    HW130107   1.139   3.363   7.062  1.6661 -0.8925  2.3889
 6216SOL    HW230108   1.189   3.490   6.995 -1.0018 -0.2948 -0.4001
 6217SOL     OW30109   1.411   2.842   1.721  0.1633  0.2919  0.2463
 6217SOL    HW130110   1.505   2.847   1.739  0.6189  0.8387 -2.1929
 6217SOL    HW230111   1.373   2.903   1.784 -0.0637 -0.7982  1.1638
 6218SOL     OW30112   0.090   2.114   0.998  0.2055 -0.1434 -0.0391
 6218SOL    HW130113   0.022   2.097   0.933  0.1433 -4.0311  1.0609
 6218SOL    HW230114   0.103   2.206   0.972 -0.8411  0.2126  0.6887
 6219SOL     OW30115   3.290   0.017   3.324 -0.0891 -0.2602  0.0287
 6219SOL    HW130116   3.237   4.687   3.266 -0.6206  1.0427 -0.6802
 6219SOL    HW230117   3.351   0.064   3.268  2.1153 -1.5594  1.3184
 6220SOL     OW30118   2.285   1.679  14.838 -0.0402 -0.2414 -0.1441
 6220SOL    HW130119   2.222   1.647  14.774  2.1090 -0.6360 -2.0716
 6220SOL    HW230120   2.254   1.769  14.845  0.4049 -0.1837  1.0627
 6221SOL     OW30121   3.488   4.405   8.565  0.0566 -0.2344  0.5033
 6221SOL    HW130122   3.510   4.352   8.641  0.0859 -3.0024 -1.4452
 6221SOL    HW230123   3.520   4.344   8.499  0.8135 -0.2861  0.9276
 6222SOL     OW30124   4.275   3.745   6.159  0.2441 -0.4950 -0.4305
 6222SOL    HW130125   4.194   3.717   6.201 -0.2209 -0.1981 -1.1191
 6222SOL    HW230126   4.268   3.705   6.072 -0.5112  1.8440 -1.4598
 6223SOL     OW30127   1.823   0.001   4.950  0.2374 -0.3106 -0.6738
 6223SOL    HW130128   1.877   0.079   4.943 -0.2078  0.0677  0.1523
 6223SOL    HW230129   1.890   4.666   4.985  1.1597  0.9844 -0.2577
 6224SOL     OW30130   1.505   2.103   0.621 -0.3027  0.6707  0.4730
 6224SOL    HW130131   1.432   2.094   0.682 -0.9542  0.6548 -0.3018
 6224SOL    HW230132   1.452   2.127   0.545 -0.0570 -1.2566 -0.3067
 6225SOL     OW30133   2.175   1.769   6.586  0.0190  0.3330 -0.2590
 6225SOL    HW130134   2.090   1.761   6.628  0.7977  0.2641  1.2931
 6225SOL    HW230135   2.220   1.818   6.654  1.3420 -0.8305 -0.2853
 6226SOL     OW30136   4.170   4.480   3.279 -0.2979  0.5248  0.1480
 6226SOL    HW130137   4.194   4.423   3.206 -0.9408  1.4059 -0.7591
 6226SOL    HW230138   4.100   4.432   3.322  0.4188 -0.7873 -0.1767
 6227SOL     OW30139   0.986   4.081   7.755  0.3547 -0.0054  0.0987
 6227SOL    HW130140   1.002   4.074   7.850 -0.3113  0.1344  0.2213
 6227SOL    HW230141   0.946   3.996   7.737 -0.4964  0.8325 -1.8114
 6228SOL     OW30142   4.107   0.593   1.019 -0.3011 -0.9165  0.0246
 6228SOL    HW130143   4.019   0.572   0.986 -0.6489 -0.6311  0.7659
 6228SOL    HW230144   4.084   0.599   1.112 -0.8068 -0.1994 -0.1378
 6229SOL     OW30145   4.720   1.674   4.355 -0.8658 -0.4186 -0.3613
 6229SOL    HW130146   4.682   1.597   4.311  1.4894 -0.8421 -1.6644
 6229SOL    HW230147   0.004   1.734   4.281 -2.9980 -0.0202 -0.2487
 6230SOL     OW30148   2.512   3.266  17.035 -0.0452 -0.4506 -0.2033
 6230SOL    HW130149   2.499   3.250  16.941  1.8290 -1.2576 -0.3193
 6230SOL    HW230150   2.490   3.182  17.073  2.2339 -0.5124  0.9554
 6231SOL     OW30151   2.014   0.716   5.605 -0.4648 -0.0311  0.0344
 6231SOL    HW130152   1.936   0.666   5.582 -1.1194  1.0598 -0.0870
 6231SOL    HW230153   2.012   0.797   5.554 -0.0768 -0.8842 -1.3480
 6232SOL     OW30154   0.183   2.513   2.887 -0.5618 -0.2038  0.3575
 6232SOL    HW130155   0.277   2.508   2.872 -0.9150 -1.3067 -1.4520
 6232SOL    HW230156   0.145   2.482   2.804 -0.5535 -2.0804  1.0695
 6233SOL     OW30157   4.513   0.300   5.763 -0.1216 -0.5626  0.4359
 6233SOL    HW130158   4.464   0.225   5.730 -0.0324 -0.7547  0.7392
 6233SOL    HW230159   4.530   0.346   5.681  0.6747 -0.2408  0.7713
 6234SOL     OW30160   1.063   0.747  16.825 -0.5992  0.4895  0.1153
 6234SOL    HW130161   1.017   0.666  16.847 -2.4040  1.0883 -1.4742
 6234SOL    HW230162   1.045   0.794  16.907 -0.9454 -1.8587  1.3867
 6235SOL     OW30163   3.987   4.152   2.279  0.4828  0.0045  0.3407
 6235SOL    HW130164   3.896   4.123   2.271  0.0836  1.7422 -1.6355
 6235SOL    HW230165   4.026   4.068   2.255  1.2389  0.2446  0.7454
 6236SOL     OW30166   4.284   0.608   6.653  0.4826 -0.0665 -0.3663
 6236SOL    HW130167   4.360   0.584   6.600  1.5745  3.6918 -0.5211
 6236SOL    HW230168   4.302   0.702   6.657  2.0775 -0.4528  1.4581
 6237SOL     OW30169   2.507   1.096  16.382 -0.1546  0.1206  0.3392
 6237SOL    HW130170   2.539   1.040  16.453  1.7536 -2.0294 -2.1756
 6237SOL    HW230171   2.435   1.042  16.349  1.0826 -1.4645  0.2375
 6238SOL     OW30172   3.896   0.307  14.681  0.8311  0.0843  0.1455
 6238SOL    HW130173   3.893   0.248  14.606  0.6415 -0.8476  0.8866
 6238SOL    HW230174   3.979   0.281  14.720  1.0333  0.7560  0.1741
 6239SOL     OW30175   4.439   2.660   7.416 -0.9849 -0.0375  0.2230
 6239SOL    HW130176   4.376   2.721   7.455 -1.6487  0.0101 -0.9253
 6239SOL    HW230177   4.471   2.698   7.334 -0.0183  0.0451  0.6391
 6240SOL     OW30178   2.527   3.621   3.681  0.5787  0.1876  0.0836
 6240SOL    HW130179   2.589   3.642   3.611  2.1873 -0.6799  1.2514
 6240SOL    HW230180   2.442   3.621   3.637 -0.1012  1.3192  1.4044
 6241SOL     OW30181   1.318   1.422   2.779 -0.3538  0.2203 -0.6475
 6241SOL    HW130182   1.296   1.385   2.865 -1.4384 -0.6615 -1.3154
 6241SOL    HW230183   1.280   1.354   2.724 -1.0984 -1.7665  2.3581
 6242SOL     OW30184   4.186   3.315   9.557  0.5496  1.0067 -0.2056
 6242SOL    HW130185   4.145   3.385   9.505  0.2756  1.2894  0.3901
 6242SOL    HW230186   4.210   3.256   9.486  0.6596  2.2607 -1.2150
 6243SOL     OW30187   3.291   4.443  13.635 -0.5535 -0.6153  0.1244
 6243SOL    HW130188   3.217   4.426  13.577 -0.2908 -1.1395 -0.0542
 6243SOL    HW230189   3.319   4.354  13.658  0.3447 -1.1578 -2.9938
 6244SOL     OW30190   2.569   2.860   4.257 -0.5834  0.1979  0.3431
 6244SOL    HW130191   2.502   2.794   4.272  0.6529 -1.2698 -0.6233
 6244SOL    HW230192   2.584   2.890   4.347  1.5244 -0.1664  0.1011
 6245SOL     OW30193   1.317   0.165   0.382  0.2150  0.5260 -0.3175
 6245SOL    HW130194   1.405   0.198   0.365 -0.3529  2.6349  0.7419
 6245SOL    HW230195   1.342   0.082   0.424  0.2886  0.5961 -0.2202
 6246SOL     OW30196   1.768   1.758   7.167  0.4717  0.1726 -0.4999
 6246SOL    HW130197   1.743   1.724   7.254  1.2314 -0.7428 -0.6422
 6246SOL    HW230198   1.827   1.686   7.147  0.7004 -0.0435  0.9349
 6247SOL     OW30199   2.246   2.807   8.071 -0.0404  0.3246 -0.1101
 6247SOL    HW130200   2.254   2.902   8.060 -0.0311  0.4355  0.7761
 6247SOL    HW230201   2.173   2.801   8.133  0.1103  0.2727  0.0633
 6248SOL     OW30202   0.318   4.538   2.529  0.0102  0.4650  1.1267
 6248SOL    HW130203   0.247   4.476   2.546 -0.2721  0.3699 -0.4148
 6248SOL    HW230204   0.405   4.498   2.536 -0.7630 -1.6945 -1.6431
 6249SOL     OW30205   1.675   2.282   8.361 -0.6550 -0.3751 -0.2287
 6249SOL    HW130206   1.598   2.336   8.380 -0.8140 -0.1873 -1.3715
 6249SOL    HW230207   1.688   2.245   8.448  2.0824 -1.9850 -1.3410
 6250SOL     OW30208   1.862   2.292   7.464  0.0505  0.1769  0.5401
 6250SOL    HW130209   1.855   2.321   7.373  1.8395 -0.3405  0.2361
 6250SOL    HW230210   1.805   2.359   7.500  1.3128  1.8198 -0.5517
 6251SOL     OW30211   1.091   2.497   3.454  0.0469  0.4004 -0.3801
 6251SOL    HW130212   1.004   2.463   3.434  0.1461 -0.5477  0.8154
 6251SOL    HW230213   1.136   2.433   3.399  1.1106  0.3706  0.5402
 6252SOL     OW30214   1.280   3.884   4.345 -0.4622  0.1368  0.0416
 6252SOL    HW130215   1.203   3.903   4.398  0.4305 -0.8464  1.6970
 6252SOL    HW230216   1.345   3.923   4.403 -0.0533  0.4882 -0.6556
 6253SOL     OW30217   3.434   1.723  16.960 -0.2818  0.5583 -0.1776
 6253SOL    HW130218   3.408   1.631  16.965 -0.7322  0.7060  0.2709
 6253SOL    HW230219   3.518   1.703  16.920  1.3519 -0.3071  3.6843
 6254SOL     OW30220   3.841   4.391  15.773 -0.1487  0.5849  0.6982
 6254SOL    HW130221   3.900   4.353  15.708 -1.4329  1.7660 -1.1515
 6254SOL    HW230222   3.783   4.451  15.726  0.4415  2.9332  2.9632
 6255SOL     OW30223   0.333   0.160   2.189  0.2416 -0.0927  0.2702
 6255SOL    HW130224   0.271   0.184   2.120  0.0785 -0.3733  0.3191
 6255SOL    HW230225   0.277   0.125   2.258  1.4070 -1.4051  0.5529
 6256SOL     OW30226   0.237   3.880   0.421 -0.8018  0.1847  0.1933
 6256SOL    HW130227   0.309   3.930   0.384 -0.5071 -1.0809 -0.9202
 6256SOL    HW230228   0.287   3.801   0.441 -0.6973  0.5591  1.4086
 6257SOL     OW30229   0.290   0.135  12.058  0.5647  0.4116  0.3227
 6257SOL    HW130230   0.380   0.118  12.088  0.9455 -0.9156 -1.5514
 6257SOL    HW230231   0.300   0.129  11.963  0.9202 -1.8300  0.5144
 6258SOL     OW30232   1.268   1.154   4.759  0.1971 -0.0978 -0.5137
 6258SOL    HW130233   1.208   1.080   4.765  1.4246 -0.9388  1.2559
 6258SOL    HW230234   1.352   1.113   4.739 -0.2902 -0.6388 -1.4270
 6259SOL     OW30235   4.226   3.369  17.537  0.5115 -0.5000  0.0120
 6259SOL    HW130236   4.198   3.383  17.628 -2.6525  1.7208 -1.2983
 6259SOL    HW230237   4.319   3.389  17.549  0.1725  2.4498 -2.1923
 6260SOL     OW30238   2.317   1.317  14.165  0.2751 -0.1726  0.3771
 6260SOL    HW130239   2.241   1.287  14.215 -0.1868 -0.1250 -0.2915
 6260SOL    HW230240   2.365   1.237  14.142  0.5917  0.4052 -0.9646
 6261SOL     OW30241   1.656   2.044   7.305  0.0840  0.0287  0.1382
 6261SOL    HW130242   1.635   2.127   7.263 -0.7726  0.2410  0.9631
 6261SOL    HW230243   1.633   1.987   7.232  0.4617  0.9111 -0.6677
 6262SOL     OW30244   4.310   2.431   7.418 -0.2659 -0.3034  0.2727
 6262SOL    HW130245   4.230   2.442   7.469  0.8758 -0.8210  2.1336
 6262SOL    HW230246   4.363   2.510   7.433  0.1974 -0.6881  0.6447
 6263SOL     OW30247   0.294   0.169   7.209 -0.2995  0.0047  0.4043
 6263SOL    HW130248   0.301   0.139   7.119 -1.3392  0.7436  0.0834
 6263SOL    HW230249   0.362   0.236   7.221  0.4801 -0.7261  0.0168
 6264SOL     OW30250   2.864   3.714   7.406  0.1316 -0.2462  0.5634
 6264SOL    HW130251   2.931   3.647   7.420  1.5917  1.4614  1.7698
 6264SOL    HW230252   2.784   3.700   7.457 -0.2462 -2.0579 -0.5354
 6265SOL     OW30253   1.602   2.386   6.133  0.5153  0.2578 -0.1171
 6265SOL    HW130254   1.580   2.463   6.185 -0.6803  1.0445 -1.7723
 6265SOL    HW230255   1.696   2.394   6.119  0.6187 -0.3059  0.2703
 6266SOL     OW30256   4.573   2.965  13.903 -0.3043  0.2428 -0.6532
 6266SOL    HW130257   4.646   2.998  13.851 -0.3920  1.0240 -0.2949
 6266SOL    HW230258   4.604   2.987  13.991  0.3988 -0.2947 -0.7722
 6267SOL     OW30259   0.863   3.145  15.937  0.1132 -0.4864 -0.0557
 6267SOL    HW130260   0.802   3.175  15.871 -0.1402 -1.5533 -0.3099
 6267SOL    HW230261   0.879   3.228  15.982 -1.4497 -0.0644 -0.2809
 6268SOL     OW30262   2.683   0.164   0.360  0.0471 -0.5195 -0.8544
 6268SOL    HW130263   2.705   0.190   0.271 -2.2613 -1.2516 -1.6333
 6268SOL    HW230264   2.763   0.197   0.401  0.7118 -1.4624 -1.3911
 6269SOL     OW30265   0.934   3.836   7.825 -0.3958  0.0395  0.0505
 6269SOL    HW130266   0.984   3.848   7.906  0.7103 -0.9992 -0.4836
 6269SOL    HW230267   0.895   3.749   7.831  1.9578 -0.9517  0.9496
 6270SOL     OW30268   0.873   2.050   1.417  0.1998 -0.2569 -0.0691
 6270SOL    HW130269   0.903   1.964   1.386  0.0163  0.1408 -1.3591
 6270SOL    HW230270   0.836   2.027   1.502 -0.8849  0.8722 -0.2408
 6271SOL     OW30271   3.078   0.857   9.636  0.1379 -0.5764  0.5365
 6271SOL    HW130272   3.137   0.783   9.651 -1.4474 -1.6216  1.5860
 6271SOL    HW230273   3.023   0.813   9.572  0.8089 -0.3478 -0.1999
 6272SOL     OW30274   2.203   2.096   1.839  0.2766 -0.0713 -0.0594
 6272SOL    HW130275   2.161   2.105   1.754 -0.1609  0.3124  0.1948
 6272SOL    HW230276   2.252   2.015   1.821  0.1734  0.3937 -2.4425
 6273SOL     OW30277   0.819   0.775   3.907  0.2036  0.3415  0.0498
 6273SOL    HW130278   0.873   0.778   3.827 -1.6750 -0.5272 -1.2455
 6273SOL    HW230279   0.848   0.855   3.952 -0.6300  0.6043  0.1245
 6274SOL     OW30280   2.155   2.841   4.877  0.1490 -0.4523 -0.0055
 6274SOL    HW130281   2.150   2.861   4.783  1.5728 -0.0254  0.0247
 6274SOL    HW230282   2.108   2.757   4.870  2.3592 -1.6698 -0.1282
 6275SOL     OW30283   1.392   0.054  12.647 -0.0629  0.1585 -0.7218
 6275SOL    HW130284   1.399   4.682  12.641  0.3274  0.2963 -2.2592
 6275SOL    HW230285   1.463   0.077  12.588  2.2083 -2.3442  0.9856
 6276SOL     OW30286   3.859   2.797  17.444  0.2278  0.2432  0.7045
 6276SOL    HW130287   3.912   2.855  17.389 -2.1154  0.9602 -0.7895
 6276SOL    HW230288   3.768   2.813  17.419  1.0787 -0.5921 -2.9445
 6277SOL     OW30289   0.581   2.813   5.350  0.4286 -0.1696 -0.0856
 6277SOL    HW130290   0.515   2.804   5.282 -0.0484  0.4717  0.2955
 6277SOL    HW230291   0.632   2.735   5.326 -1.2805 -0.7423 -1.8327
 6278SOL     OW30292   2.121   3.764   7.374 -0.1557 -0.0218  0.2362
 6278SOL    HW130293   2.166   3.848   7.361 -0.1274 -0.0696  0.0363
 6278SOL    HW230294   2.186   3.700   7.403 -1.5249 -0.4589  2.4306
 6279SOL     OW30295   4.408   4.114   0.551  0.1225  0.1394 -0.4208
 6279SOL    HW130296   4.484   4.108   0.608 -0.3375  2.5011  0.4605
 6279SOL    HW230297   4.430   4.199   0.511 -1.5301 -0.9682 -3.6734
 6280SOL     OW30298   1.920   2.082   4.803 -0.4155 -0.4900  0.2097
 6280SOL    HW130299   1.921   2.112   4.712  0.3490 -0.7031  0.1511
 6280SOL    HW230300   2.004   2.103   4.844  0.3738 -3.4595  0.0767
 6281SOL     OW30301   3.345   2.609  14.811 -0.1894  0.0485  0.7064
 6281SOL    HW130302   3.347   2.535  14.750  1.3099 -0.4683  1.3844
 6281SOL    HW230303   3.350   2.685  14.753 -1.1977  0.9434  1.8007
 6282SOL     OW30304   4.316   4.192   2.413 -0.3062  0.1820 -0.4381
 6282SOL    HW130305   4.294   4.121   2.474  0.9418 -0.7823 -1.1272
 6282SOL    HW230306   4.343   4.135   2.341 -0.2680 -1.6505  1.0001
 6283SOL     OW30307   0.420   2.703   2.601 -0.3178  0.0166  0.5493
 6283SOL    HW130308   0.503   2.659   2.619 -0.1310  0.5181  0.9149
 6283SOL    HW230309   0.430   2.728   2.509 -0.1599  0.3269  0.6516
 6284SOL     OW30310   4.427   3.362   2.334 -0.3651  0.0729  0.1108
 6284SOL    HW130311   4.345   3.326   2.369  0.3660 -2.8436 -1.0899
 6284SOL    HW230312   4.394   3.392   2.249  0.8448 -1.0457 -0.7564
 6285SOL     OW30313   4.618   1.629  11.607  0.1381 -0.0695 -0.0283
 6285SOL    HW130314   4.546   1.568  11.620 -0.8666  0.8592 -1.2594
 6285SOL    HW230315   4.671   1.574  11.549 -0.1035 -0.9738  0.6146
 6286SOL     OW30316   2.074   4.374   2.319  0.3570 -0.3334 -0.0735
 6286SOL    HW130317   2.058   4.316   2.394 -1.2732  0.7067  0.3887
 6286SOL    HW230318   2.042   4.318   2.248 -0.5850 -1.2403  1.0372
 6287SOL     OW30319   3.089   3.410   4.886 -0.2070 -0.0768 -0.1627
 6287SOL    HW130320   3.134   3.423   4.802 -0.6829 -1.5840 -0.6593
 6287SOL    HW230321   3.149   3.347   4.924  2.3174  2.6885  0.4063
 6288SOL     OW30322   0.765   1.710   5.618 -0.2433 -0.3182  0.1788
 6288SOL    HW130323   0.787   1.688   5.709  4.5336  0.8214 -0.7206
 6288SOL    HW230324   0.701   1.639   5.604  0.9273 -1.0723 -1.3224
 6289SOL     OW30325   4.468   3.705   4.927 -0.2740  0.2370 -0.5565
 6289SOL    HW130326   4.416   3.784   4.915 -0.2486 -0.1388 -3.2404
 6289SOL    HW230327   4.504   3.693   4.839 -0.3081 -1.6129 -0.3033
 6290SOL     OW30328   1.952   4.165   6.278 -0.8345  0.0115  0.0438
 6290SOL    HW130329   1.861   4.166   6.310  0.2276 -2.5224  3.1711
 6290SOL    HW230330   1.982   4.106   6.347  1.1242  0.1202 -0.7326
 6291SOL     OW30331   2.492   3.729  11.623 -0.9252  0.2476 -0.1421
 6291SOL    HW130332   2.408   3.722  11.668 -1.3356  0.5647 -0.8598
 6291SOL    HW230333   2.530   3.804  11.670  1.2326 -1.3336  0.6233
 6292SOL     OW30334   4.239   3.767  13.495  0.0465  0.5293 -0.1508
 6292SOL    HW130335   4.170   3.785  13.430 -0.7890  1.8223  1.0785
 6292SOL    HW230336   4.217   3.823  13.569  1.4911  1.4681 -0.4312
 6293SOL     OW30337   3.020   3.679   6.745  0.3457 -0.0259  0.6540
 6293SOL    HW130338   3.106   3.642   6.767 -0.5012 -2.3145  0.1049
 6293SOL    HW230339   3.046   3.770   6.731 -2.9861  0.8663  0.3363
 6294SOL     OW30340   2.357   4.367   4.796 -0.5724  0.1461  0.3042
 6294SOL    HW130341   2.267   4.336   4.801 -0.5113 -0.0373  0.2621
 6294SOL    HW230342   2.358   4.411   4.710 -0.7242  0.7686  0.6230
 6295SOL     OW30343   3.835   3.811  12.580  0.1827  0.2601  0.3161
 6295SOL    HW130344   3.804   3.892  12.540  0.5861  1.9934  3.5873
 6295SOL    HW230345   3.918   3.802  12.533 -1.1378 -0.4648 -1.9044
 6296SOL     OW30346   2.848   1.692   0.743 -0.0495  0.4033  1.1395
 6296SOL    HW130347   2.878   1.661   0.828  1.5804 -1.7784 -0.2259
 6296SOL    HW230348   2.846   1.788   0.751  1.6434  0.3166  2.4936
 6297SOL     OW30349   1.128   4.372   7.925  0.2905 -0.4472 -0.1945
 6297SOL    HW130350   1.102   4.389   7.834 -1.2711  0.2279  0.3779
 6297SOL    HW230351   1.175   4.455   7.939  0.4415 -0.9333  2.1666
 6298SOL     OW30352   3.976   2.514   3.794  0.4351  0.5135  0.5417
 6298SOL    HW130353   3.956   2.594   3.841  1.7198  3.0141 -3.1707
 6298SOL    HW230354   3.980   2.548   3.705  0.6609 -0.0351  0.3387
 6299SOL     OW30355   2.815   3.822  15.988 -0.0885  0.1233  0.4696
 6299SOL    HW130356   2.907   3.848  15.995 -0.7376  3.4628 -3.0915
 6299SOL    HW230357   2.815   3.826  15.892  1.1725  0.3718  0.4842
 6300SOL     OW30358   2.837   0.508   7.032 -0.0400 -0.2631  0.1898
 6300SOL    HW130359   2.785   0.488   7.109  1.0163 -4.1011 -0.0963
 6300SOL    HW230360   2.926   0.517   7.068 -1.2228  0.5921  2.8729
 6301SOL     OW30361   0.209   4.188   0.821  0.0832  0.2681  0.5613
 6301SOL    HW130362   0.229   4.171   0.913 -1.0350 -0.2837  0.6985
 6301SOL    HW230363   0.219   4.106   0.773  0.3134  0.1323  0.8374
 6302SOL     OW30364   3.272   2.980  12.370  0.2258  0.0867 -0.3850
 6302SOL    HW130365   3.233   2.942  12.291 -0.8562 -0.7665  0.5560
 6302SOL    HW230366   3.257   2.911  12.435 -2.7376  0.3662 -0.7795
 6303SOL     OW30367   4.706   3.228  13.587 -0.8668 -0.3752  0.6513
 6303SOL    HW130368   4.661   3.250  13.505  0.1815  1.1262  0.4852
 6303SOL    HW230369   4.681   3.299  13.647 -1.3616  0.8454 -0.9977
 6304SOL     OW30370   3.570   4.016   0.643 -0.6853 -0.0423  0.3692
 6304SOL    HW130371   3.567   4.039   0.550 -0.7587 -0.8934  0.1638
 6304SOL    HW230372   3.545   3.924   0.644 -0.0088 -0.2240 -0.1064
 6305SOL     OW30373   2.498   4.677   6.820 -0.1413  0.1544 -0.2341
 6305SOL    HW130374   2.461   4.677   6.908 -0.1668  1.8864 -0.2354
 6305SOL    HW230375   2.477   4.589   6.789  0.0376  0.2157 -0.5270
 6306SOL     OW30376   0.243   3.457   7.880 -0.0805  0.8390  0.2152
 6306SOL    HW130377   0.174   3.514   7.913 -0.4245  0.4377  0.1852
 6306SOL    HW230378   0.324   3.508   7.886 -0.2550  1.0855  0.4776
 6307SOL     OW30379   4.117   1.827   5.076 -0.1704  0.0970  0.3145
 6307SOL    HW130380   4.049   1.769   5.042 -2.3673  2.0629  1.3350
 6307SOL    HW230381   4.192   1.774   5.102 -1.1089 -3.0366 -3.3850
 6308SOL     OW30382   2.160   3.037   3.547  0.4385  0.1976  0.3859
 6308SOL    HW130383   2.158   2.943   3.529  0.5748  0.4955 -1.2145
 6308SOL    HW230384   2.170   3.080   3.462 -1.7493  0.9346  0.4879
 6309SOL     OW30385   1.524   2.695  17.521  0.3331 -0.1398 -0.0356
 6309SOL    HW130386   1.528   2.714  17.614  1.3569 -0.5169  0.0007
 6309SOL    HW230387   1.534   2.779  17.475 -0.0074 -0.2669 -0.3401
 6310SOL     OW30388   2.166   4.044   7.397 -0.8235 -0.4889 -0.6304
 6310SOL    HW130389   2.140   4.096   7.473 -0.5846 -1.5082  0.1528
 6310SOL    HW230390   2.134   4.103   7.329 -1.0992  0.5932  0.4471
 6311SOL     OW30391   4.439   1.593   2.657  0.1614 -0.0303 -0.5035
 6311SOL    HW130392   4.483   1.518   2.615 -0.7764 -0.0824 -1.3927
 6311SOL    HW230393   4.506   1.661   2.649  1.7714 -1.4603  0.9283
 6312SOL     OW30394   3.791   4.081   1.721  0.0447 -0.1292  0.4922
 6312SOL    HW130395   3.862   4.060   1.781  0.1013  1.4841  0.9802
 6312SOL    HW230396   3.822   4.164   1.685 -0.1189 -1.4960 -2.7823
 6313SOL     OW30397   3.654   0.588  14.690  0.3861  0.4869  0.2215
 6313SOL    HW130398   3.617   0.589  14.601  0.3293  0.8423  0.2487
 6313SOL    HW230399   3.596   0.648  14.737  3.1063  2.1114  1.5025
 6314SOL     OW30400   2.702   0.484   6.480 -0.3960 -0.1539 -0.1744
 6314SOL    HW130401   2.747   0.539   6.416  0.5258  0.9910  1.4665
 6314SOL    HW230402   2.665   0.547   6.542 -0.4380 -0.9371  0.6133
 6315SOL     OW30403   3.317   1.117   8.720 -0.6176 -0.9060 -0.5373
 6315SOL    HW130404   3.305   1.205   8.757 -1.3741 -1.4683  0.5494
 6315SOL    HW230405   3.256   1.071   8.777  1.2253 -1.4017  1.0406
 6316SOL     OW30406   4.013   1.097   8.706  0.3528  0.5703  0.6592
 6316SOL    HW130407   3.975   1.055   8.783  1.4371 -2.1456 -0.2626
 6316SOL    HW230408   3.938   1.131   8.658 -0.6424 -1.3200  0.8514
 6317SOL     OW30409   3.646   0.910   5.706 -0.0750 -0.3878 -0.0888
 6317SOL    HW130410   3.614   0.968   5.775 -1.3714 -0.6881 -0.4400
 6317SOL    HW230411   3.737   0.942   5.705 -0.5940  1.0799 -0.0463
 6318SOL     OW30412   4.215   1.397   6.945 -0.2755  0.2948 -0.5606
 6318SOL    HW130413   4.195   1.420   6.855  0.9284 -2.4529 -1.5139
 6318SOL    HW230414   4.131   1.371   6.985  0.9481 -0.5719  1.4886
 6319SOL     OW30415   0.540   1.855   7.284  0.1858  0.5029 -0.3548
 6319SOL    HW130416   0.612   1.865   7.346 -0.5851 -1.4613  0.8539
 6319SOL    HW230417   0.574   1.918   7.220 -2.7139  1.7378 -0.6428
 6320SOL     OW30418   2.520   2.708   1.248  0.2842 -0.6633  0.2318
 6320SOL    HW130419   2.574   2.663   1.183  1.6035  2.1058 -0.5623
 6320SOL    HW230420   2.432   2.708   1.212  0.5730  0.3581 -0.4634
 6321SOL     OW30421   2.851   3.098   4.987 -0.5433 -0.1131 -0.4061
 6321SOL    HW130422   2.848   3.160   4.914 -2.3130 -1.5038 -1.5203
 6321SOL    HW230423   2.787   3.139   5.046  1.1961  2.3292 -0.2344
 6322SOL     OW30424   2.302   4.081   5.013 -0.1800 -0.2953  0.2923
 6322SOL    HW130425   2.266   4.124   5.090  0.7719  0.2167  0.4498
 6322SOL    HW230426   2.388   4.124   5.008  0.4913 -1.5077  1.3983
 6323SOL     OW30427   0.301   1.082   6.449 -0.0160  0.1724 -0.8450
 6323SOL    HW130428   0.358   1.007   6.430  3.0642  1.9968  1.0969
 6323SOL    HW230429   0.289   1.075   6.544  1.6051  1.6676 -0.5190
 6324SOL     OW30430   0.970   2.041   3.540  0.3803  0.0736 -0.1022
 6324SOL    HW130431   0.962   1.949   3.514  2.1519 -0.0516 -0.1762
 6324SOL    HW230432   0.927   2.091   3.471  1.2347 -2.8545 -2.7567
 6325SOL     OW30433   3.191   3.236   1.753  0.1148  0.1160 -0.5339
 6325SOL    HW130434   3.181   3.300   1.683  0.1409  1.8770  1.0832
 6325SOL    HW230435   3.100   3.209   1.759 -0.0917  0.7596 -0.8506
 6326SOL     OW30436   4.002   2.623   0.889 -0.0255  1.4361 -0.4890
 6326SOL    HW130437   4.018   2.718   0.891  2.3733  0.9627  3.9659
 6326SOL    HW230438   3.918   2.627   0.844 -0.7589  3.0441  1.0021
 6327SOL     OW30439   0.173   3.851   0.707  0.5153  0.7664 -0.1786
 6327SOL    HW130440   0.221   3.849   0.624  0.4186  0.2266 -0.2204
 6327SOL    HW230441   0.153   3.758   0.719 -2.4822  1.7303  2.3137
 6328SOL     OW30442   0.702   4.591   5.699  0.0313  0.5043 -0.0772
 6328SOL    HW130443   0.644   4.523   5.664 -0.3991  0.6649  0.3185
 6328SOL    HW230444   0.636   4.660   5.712 -2.0835 -1.8688  1.9065
 6329SOL     OW30445   1.318   2.488   8.195 -0.4059  0.0846 -0.0240
 6329SOL    HW130446   1.285   2.494   8.285 -1.5234  0.5609 -0.4709
 6329SOL    HW230447   1.412   2.473   8.210 -0.8676 -1.8726  0.9117
 6330SOL     OW30448   4.339   0.810   3.597  0.2341  0.0242  0.3835
 6330SOL    HW130449   4.372   0.850   3.516  0.2524 -0.0550  0.3527
 6330SOL    HW230450   4.418   0.780   3.641  0.2607 -0.4946 -0.0136
 6331SOL     OW30451   2.874   4.168   9.273  0.4334  0.1917  0.2816
 6331SOL    HW130452   2.793   4.193   9.229  1.4042 -0.0731 -1.6581
 6331SOL    HW230453   2.920   4.130   9.198 -0.3634  1.7020 -0.9695
 6332SOL     OW30454   3.605   1.416   9.974 -0.3845 -0.1145  0.4561
 6332SOL    HW130455   3.518   1.383   9.950  0.4901 -1.1291 -1.2950
 6332SOL    HW230456   3.634   1.480   9.909  0.1693 -1.2616 -0.4188
 6333SOL     OW30457   4.165   4.533   5.715  0.2757  0.2703 -0.2614
 6333SOL    HW130458   4.250   4.511   5.754 -0.1219 -0.2599  0.2936
 6333SOL    HW230459   4.184   4.544   5.621  1.3925 -2.2348 -0.3318
 6334SOL     OW30460   2.999   2.272   2.999  0.6641 -0.1062 -0.0227
 6334SOL    HW130461   3.058   2.199   2.978  0.2575 -0.9982  1.9562
 6334SOL    HW230462   3.036   2.302   3.082 -2.4596  1.5780  0.7286
 6335SOL     OW30463   1.500   0.941  15.983  0.3911  0.9106  0.0381
 6335SOL    HW130464   1.492   0.890  15.903 -1.4418  0.8636  0.2482
 6335SOL    HW230465   1.433   1.009  15.973 -1.3708 -0.8515 -0.2138
 6336SOL     OW30466   2.723   4.705   8.351 -1.1250  0.5904 -0.5119
 6336SOL    HW130467   2.792   0.047   8.343 -0.5935  0.0092 -0.6727
 6336SOL    HW230468   2.741   4.672   8.439 -0.6214  2.4236  0.0704
 6337SOL     OW30469   0.517   0.303   5.997 -0.3611 -0.0060  0.5450
 6337SOL    HW130470   0.507   0.229   6.057 -0.8784 -1.0674 -0.8596
 6337SOL    HW230471   0.556   0.257   5.923  2.0239 -0.0141  1.8096
 6338SOL     OW30472   3.228   2.471   1.991  0.5580  0.0815 -0.0169
 6338SOL    HW130473   3.311   2.426   2.011  0.3461  0.1732  1.0371
 6338SOL    HW230474   3.205   2.429   1.908 -2.0556  1.2714  0.1195
 6339SOL     OW30475   3.390   3.666  17.394 -0.6267  0.0304  0.1413
 6339SOL    HW130476   3.472   3.697  17.432  0.8625 -0.9574 -2.2833
 6339SOL    HW230477   3.388   3.574  17.418 -0.5966  0.3085  1.2256
 6340SOL     OW30478   0.146   2.819  14.807  0.2537  0.2817 -1.0472
 6340SOL    HW130479   0.158   2.879  14.734  1.9193  0.2697 -0.7687
 6340SOL    HW230480   0.169   2.873  14.883 -0.1121  1.6123 -1.8822
 6341SOL     OW30481   2.868   4.582   3.183  0.1680 -0.3399 -0.3936
 6341SOL    HW130482   2.910   4.501   3.155  1.5437 -0.2490  1.3956
 6341SOL    HW230483   2.777   4.563   3.163 -0.3288 -0.7022  2.3322
 6342SOL     OW30484   1.911   0.619   5.961  0.0386 -0.4628  0.4231
 6342SOL    HW130485   1.855   0.658   6.028  1.3522  0.3487  1.0454
 6342SOL    HW230486   1.967   0.551   5.998  0.2902 -0.0455  0.8010
 6343SOL     OW30487   1.977   0.053  16.523 -0.3777 -0.7141  0.1092
 6343SOL    HW130488   2.024   0.136  16.536 -2.4127  0.6321 -1.2170
 6343SOL    HW230489   2.047   4.713  16.510 -0.7551 -1.3905  1.3690
 6344SOL     OW30490   3.006   2.716   0.808 -0.4324  0.2298  0.3468
 6344SOL    HW130491   2.948   2.640   0.817  2.2009 -1.5082  2.6864
 6344SOL    HW230492   2.975   2.763   0.885 -0.7732  0.0431  0.3244
 6345SOL     OW30493   0.215   3.067   5.879  0.6800  0.3844 -0.1666
 6345SOL    HW130494   0.281   3.065   5.949 -0.7145 -0.6132  1.1248
 6345SOL    HW230495   0.269   3.083   5.802 -1.3775 -2.5448 -2.2463
 6346SOL     OW30496   1.521   0.543  13.220 -0.0944  0.4243 -0.1008
 6346SOL    HW130497   1.524   0.585  13.134  2.4388  0.1465 -0.1506
 6346SOL    HW230498   1.430   0.514  13.221  0.8745 -2.6094 -0.4791
 6347SOL     OW30499   1.125   0.518   2.380 -0.3487 -0.5695 -0.8356
 6347SOL    HW130500   1.207   0.482   2.415  0.6918  1.4378 -1.2540
 6347SOL    HW230501   1.163   0.587   2.326  0.3033 -2.5758 -2.9268
 6348SOL     OW30502   1.326   4.581   7.509 -0.1795  0.4992  0.1242
 6348SOL    HW130503   1.359   4.667   7.536 -0.0928  0.5471 -0.1288
 6348SOL    HW230504   1.380   4.532   7.571 -0.1442 -0.7478 -0.9014
 6349SOL     OW30505   3.743   2.316   7.632 -0.3489 -0.3522  0.1432
 6349SOL    HW130506   3.705   2.404   7.639 -0.3865 -0.1263 -2.9659
 6349SOL    HW230507   3.767   2.296   7.722  0.7993  0.2205 -0.0326
 6350SOL     OW30508   0.547   0.503   2.951 -0.1216 -0.5991 -0.1359
 6350SOL    HW130509   0.616   0.475   2.891  0.9129 -1.5099  1.4797
 6350SOL    HW230510   0.479   0.511   2.884  0.1989  0.7328 -0.3042
 6351SOL     OW30511   2.646   0.820   3.766 -0.2583  0.1861  0.1473
 6351SOL    HW130512   2.663   0.863   3.850  2.1717 -1.9084  0.7295
 6351SOL    HW230513   2.729   0.827   3.719 -1.3421 -0.5693 -1.8811
 6352SOL     OW30514   0.312   2.238   4.651 -0.0334  0.2346  0.4269
 6352SOL    HW130515   0.227   2.196   4.661 -0.0057 -0.4995 -2.2211
 6352SOL    HW230516   0.370   2.162   4.658  0.2315  0.2791 -1.2377
 6353SOL     OW30517   3.590   0.133  15.417 -0.4965  0.2398 -0.6842
 6353SOL    HW130518   3.552   0.182  15.343  0.0774  0.8748 -0.5585
 6353SOL    HW230519   3.679   0.167  15.421  0.4630 -2.2524 -1.0437
 6354SOL     OW30520   3.510   4.037   6.234 -0.5378 -0.5430  0.4505
 6354SOL    HW130521   3.549   3.950   6.227 -2.2011 -1.1492 -1.2828
 6354SOL    HW230522   3.573   4.071   6.298 -1.0416 -1.7989  1.6138
 6355SOL     OW30523   1.132   2.436   7.215 -0.0554  0.6638  0.0876
 6355SOL    HW130524   1.084   2.353   7.207  1.4604 -0.0537 -1.6021
 6355SOL    HW230525   1.222   2.406   7.204  0.3036  1.9400 -0.4823
 6356SOL     OW30526   3.294   4.554  16.343  0.1408 -0.1721  0.7103
 6356SOL    HW130527   3.326   4.616  16.409  1.4149 -0.0561 -0.0186
 6356SOL    HW230528   3.303   4.474  16.396  0.5381 -0.6146 -0.0310
 6357SOL     OW30529   0.191   4.189   1.185 -0.0826  0.2427 -0.3171
 6357SOL    HW130530   0.225   4.269   1.225 -0.7309 -0.0240  0.7529
 6357SOL    HW230531   0.240   4.131   1.243 -0.5125  1.2812  1.0749
 6358SOL     OW30532   0.384   2.255   0.147 -0.2594 -0.2996  0.2114
 6358SOL    HW130533   0.305   2.226   0.101  0.8312  0.7472 -2.3268
 6358SOL    HW230534   0.439   2.177   0.147  1.9057  1.2357 -0.4633
 6359SOL     OW30535   3.872   4.235   5.465  0.0221 -0.1022  0.4265
 6359SOL    HW130536   3.822   4.231   5.383 -0.2474 -0.7931  0.6237
 6359SOL    HW230537   3.812   4.210   5.536 -0.0026 -2.8736 -0.5697
 6360SOL     OW30538   1.950   0.075  12.631 -0.5098  0.2810  0.5759
 6360SOL    HW130539   1.920   0.164  12.651  0.6486  0.6273  0.7569
 6360SOL    HW230540   1.900   0.011  12.683  0.3239 -1.2749 -0.5542
 6361SOL     OW30541   4.023   3.903   6.005  0.2061  0.1915 -0.4162
 6361SOL    HW130542   3.988   3.887   6.093 -0.0933 -0.7484 -0.7141
 6361SOL    HW230543   4.004   3.820   5.961  1.3749  0.3152 -1.1301
 6362SOL     OW30544   3.444   4.040  10.204 -0.4016  0.5347 -0.2563
 6362SOL    HW130545   3.374   4.018  10.142  0.2088  1.6189 -1.3366
 6362SOL    HW230546   3.409   4.111  10.258  0.0505  0.9537 -0.5186
 6363SOL     OW30547   3.247   3.610  14.173  0.5060 -0.3467  0.2924
 6363SOL    HW130548   3.290   3.559  14.104 -0.5712 -2.0590  0.9193
 6363SOL    HW230549   3.312   3.677  14.197  0.7005 -0.0949 -0.9361
 6364SOL     OW30550   4.659   3.333   5.371 -0.6850 -0.1628  0.1120
 6364SOL    HW130551   4.659   3.429   5.376 -0.5247 -0.1689  0.2122
 6364SOL    HW230552   4.647   3.322   5.277 -0.5815 -1.3051  0.2349
 6365SOL     OW30553   1.261   2.942   2.296 -0.3797  0.3812  0.3297
 6365SOL    HW130554   1.300   3.012   2.349 -0.0472 -0.5019  1.2652
 6365SOL    HW230555   1.311   2.864   2.323 -1.4586 -1.4544 -2.9398
 6366SOL     OW30556   4.301   2.296   7.195  0.3330 -0.3780 -0.3686
 6366SOL    HW130557   4.368   2.332   7.138  0.2078 -1.8020 -1.4036
 6366SOL    HW230558   4.309   2.357   7.269 -0.4384  0.1684 -0.7314
 6367SOL     OW30559   0.566   0.468   3.650 -0.2768  0.1936  0.0400
 6367SOL    HW130560   0.662   0.471   3.657 -0.1088 -2.6790 -1.0054
 6367SOL    HW230561   0.555   0.434   3.561 -1.1045  0.1142  0.1775
 6368SOL     OW30562   0.911   2.983   3.191 -0.0010  0.2276  0.7210
 6368SOL    HW130563   0.922   2.891   3.213 -0.3825 -0.1663 -0.7394
 6368SOL    HW230564   0.937   2.983   3.099 -1.2273 -0.1224  0.3694
 6369SOL     OW30565   4.228   3.767   8.282 -0.6068  0.1326 -0.1332
 6369SOL    HW130566   4.315   3.784   8.317 -0.2955  0.2625 -0.9500
 6369SOL    HW230567   4.222   3.835   8.214 -0.5850  1.5608  1.2979
 6370SOL     OW30568   2.844   4.104   8.476  0.1010  0.0983  0.5833
 6370SOL    HW130569   2.771   4.049   8.448  0.4266  0.3368 -0.7532
 6370SOL    HW230570   2.799   4.177   8.517 -0.3564  0.3304 -0.3274
 6371SOL     OW30571   3.621   2.430   7.046 -0.6069 -0.1709  0.0320
 6371SOL    HW130572   3.711   2.462   7.047 -0.4116 -0.7973  1.6162
 6371SOL    HW230573   3.593   2.513   7.085  0.1803  0.7822 -1.4210
 6372SOL     OW30574   1.818   4.646   0.697  0.6021  0.4663  0.1483
 6372SOL    HW130575   1.814   4.674   0.788 -0.6781  1.8325 -0.3244
 6372SOL    HW230576   1.898   4.593   0.699  0.8481  0.7746 -1.0736
 6373SOL     OW30577   4.095   2.189   7.466 -0.3817  0.4150 -0.2218
 6373SOL    HW130578   4.053   2.136   7.534  0.3264 -0.6722 -0.6314
 6373SOL    HW230579   4.143   2.257   7.511  1.9238 -1.2220 -0.2203
 6374SOL     OW30580   2.085   3.656  12.603 -0.0840 -0.3189  0.1024
 6374SOL    HW130581   2.091   3.721  12.533 -0.1404 -1.3522 -0.8587
 6374SOL    HW230582   2.125   3.690  12.683  1.7561  1.2176 -1.4659
 6375SOL     OW30583   4.334   1.437   9.045  0.3690  0.2517  0.1233
 6375SOL    HW130584   4.347   1.387   9.126 -0.3831  0.4480  0.3614
 6375SOL    HW230585   4.261   1.397   8.997  0.3610  0.3922  0.0183
 6376SOL     OW30586   0.775   3.004   4.243 -0.2985  0.2922 -0.3641
 6376SOL    HW130587   0.858   2.962   4.221  0.4163  1.7292 -0.3615
 6376SOL    HW230588   0.715   2.929   4.242 -0.7067  0.6507 -3.6855
 6377SOL     OW30589   2.039   4.543   5.974 -0.4472 -0.1182 -0.5151
 6377SOL    HW130590   2.127   4.577   5.989 -0.4469 -0.3580  0.0251
 6377SOL    HW230591   2.030   4.547   5.879 -0.0687  2.2018 -0.4535
 6378SOL     OW30592   1.862   0.028   7.189  0.2023  0.2113  0.3179
 6378SOL    HW130593   1.848   4.657   7.188  0.1243  0.2078  1.5647
 6378SOL    HW230594   1.795   0.062   7.129 -0.3411 -1.6658 -0.1186
 6379SOL     OW30595   3.321   2.548   9.365  0.0143  0.2878  0.0368
 6379SOL    HW130596   3.315   2.464   9.411  0.5100 -0.3049 -0.9594
 6379SOL    HW230597   3.249   2.602   9.398 -0.7928 -1.3331  0.9227
 6380SOL     OW30598   0.431   4.088   7.548 -0.2753  0.1499  0.6733
 6380SOL    HW130599   0.407   4.000   7.576 -0.2697 -1.0608 -3.2060
 6380SOL    HW230600   0.518   4.067   7.513 -1.6474 -1.8889 -1.5173
 6381SOL     OW30601   1.769   0.602   5.563  0.0643  0.2470  0.2066
 6381SOL    HW130602   1.762   0.559   5.649 -0.7003  1.1512  0.5992
 6381SOL    HW230603   1.738   0.536   5.501  2.5190  1.1868 -2.0194
 6382SOL     OW30604   4.187   1.302   3.760  0.5114 -0.1803 -0.7646
 6382SOL    HW130605   4.216   1.230   3.815 -2.9035 -0.5813  0.5399
 6382SOL    HW230606   4.163   1.371   3.823 -1.9316 -1.2342 -0.5305
 6383SOL     OW30607   3.553   0.538   5.182 -0.4414 -0.3854 -0.2699
 6383SOL    HW130608   3.582   0.447   5.173 -0.7331 -0.6741  1.8388
 6383SOL    HW230609   3.626   0.562   5.239 -0.0175 -1.2954 -0.4233
 6384SOL     OW30610   1.614   3.205   4.160 -0.1516  0.4020 -0.3277
 6384SOL    HW130611   1.523   3.224   4.138 -0.2747 -0.2722 -0.4193
 6384SOL    HW230612   1.590   3.158   4.240  1.5821  0.0078 -0.0388
 6385SOL     OW30613   3.836   1.587   9.954  0.6170 -0.4506  0.7907
 6385SOL    HW130614   3.901   1.633  10.007 -0.6245 -0.1800  2.0933
 6385SOL    HW230615   3.764   1.642   9.986  2.0812  1.4030  0.8786
 6386SOL     OW30616   0.882   2.604  13.341  0.5422 -0.8015 -0.3008
 6386SOL    HW130617   0.813   2.668  13.324  0.6150 -0.7345 -0.3405
 6386SOL    HW230618   0.958   2.662  13.348 -0.1480  0.0623 -0.0319
 6387SOL     OW30619   2.772   0.640  13.971  0.3754 -0.5032  0.0336
 6387SOL    HW130620   2.791   0.552  14.003 -1.4280 -0.8571  0.1155
 6387SOL    HW230621   2.688   0.624  13.930  0.4603  0.5010 -0.5384
 6388SOL     OW30622   1.785   1.892  11.243 -0.0555 -0.5159 -0.7558
 6388SOL    HW130623   1.757   1.970  11.194 -0.3606  0.5609  1.1387
 6388SOL    HW230624   1.739   1.826  11.191  0.0954 -0.0294 -1.5110
 6389SOL     OW30625   4.509   3.607   6.264  0.8600 -0.7438  0.1971
 6389SOL    HW130626   4.436   3.655   6.225  0.9751 -0.4977  0.2862
 6389SOL    HW230627   4.547   3.563   6.187  2.0029 -1.4604  1.1719
 6390SOL     OW30628   3.214   3.473   1.058  0.0082  0.0750  0.4476
 6390SOL    HW130629   3.288   3.414   1.073  0.5776  0.8526  0.6731
 6390SOL    HW230630   3.149   3.403   1.054 -0.4558  0.5872 -0.9984
 6391SOL     OW30631   2.552   4.629   1.815  0.2353  0.3230 -0.5509
 6391SOL    HW130632   2.616   4.700   1.808 -0.0833  0.7045  0.4045
 6391SOL    HW230633   2.541   4.623   1.910 -0.4937  1.6522 -0.5527
 6392SOL     OW30634   4.269   1.675   9.143 -0.4693  0.0800 -0.3024
 6392SOL    HW130635   4.317   1.726   9.077  1.8464 -0.3498  1.0597
 6392SOL    HW230636   4.284   1.591   9.099 -1.2169  0.6249 -1.6158
 6393SOL     OW30637   0.788   3.283   7.845 -0.3948 -0.8352  0.5150
 6393SOL    HW130638   0.858   3.234   7.888  1.0904  2.5105  1.8976
 6393SOL    HW230639   0.744   3.211   7.800 -1.5354 -0.2606  0.7259
 6394SOL     OW30640   0.933   2.937   7.618  0.4425  0.4290 -0.1765
 6394SOL    HW130641   0.962   2.966   7.531 -1.2744 -1.4560 -1.3865
 6394SOL    HW230642   1.015   2.963   7.660  0.6303  1.6853 -1.2946
 6395SOL     OW30643   3.589   0.364   4.215  0.0865 -0.0147  0.4856
 6395SOL    HW130644   3.509   0.411   4.238 -0.6344 -0.6355 -0.7188
 6395SOL    HW230645   3.567   0.271   4.209 -0.7356  0.1662  0.7004
 6396SOL     OW30646   3.834   2.693   1.691  0.0279  0.2030 -0.4160
 6396SOL    HW130647   3.780   2.634   1.744  4.3494 -2.5651  0.9051
 6396SOL    HW230648   3.847   2.631   1.618 -2.6325  1.2811 -1.8399
 6397SOL     OW30649   2.510   0.156   9.740 -0.2627 -0.2119  0.3796
 6397SOL    HW130650   2.524   0.064   9.718  0.7629  0.0035  0.1417
 6397SOL    HW230651   2.421   0.164   9.774  0.1694  0.5106  1.3444
 6398SOL     OW30652   4.634   1.758   6.107  0.5579  0.0885 -0.2356
 6398SOL    HW130653   4.582   1.679   6.095 -0.4921  0.6189  0.8297
 6398SOL    HW230654   4.661   1.754   6.199  2.2845  0.6567 -0.7221
 6399SOL     OW30655   1.995   4.338   6.933 -0.4927 -0.5171 -0.2438
 6399SOL    HW130656   2.069   4.372   6.983 -0.4111  2.1510 -2.1649
 6399SOL    HW230657   1.957   4.277   6.996  1.8420 -0.2013  1.4580
 6400SOL     OW30658   0.347   1.421   8.545  0.5806 -0.1731  0.3744
 6400SOL    HW130659   0.420   1.443   8.604  1.1488  0.8013 -0.6939
 6400SOL    HW230660   0.341   1.328   8.566  0.0601 -0.2081  0.0570
 6401SOL     OW30661   2.864   2.080   0.921  0.5174  0.0189 -0.3576
 6401SOL    HW130662   2.840   2.028   0.844  1.7031  0.0155 -0.7269
 6401SOL    HW230663   2.957   2.061   0.932  0.7856  1.4706 -0.1891
 6402SOL     OW30664   1.579   2.373   9.506  0.3952 -0.7140  0.5344
 6402SOL    HW130665   1.544   2.286   9.525 -1.1793 -0.0033  0.8757
 6402SOL    HW230666   1.660   2.354   9.458  0.4831 -1.7596  1.1006
 6403SOL     OW30667   3.727   1.256  11.267 -0.3619 -0.2903 -0.4032
 6403SOL    HW130668   3.819   1.282  11.271 -0.2830 -0.7992  1.2865
 6403SOL    HW230669   3.715   1.271  11.174 -1.1723  1.0800 -0.0792
 6404SOL     OW30670   1.948   0.426   2.656 -0.2532 -0.0502 -0.3203
 6404SOL    HW130671   1.984   0.476   2.582  2.0235 -0.7005  0.3547
 6404SOL    HW230672   1.928   0.337   2.627 -0.8869 -0.3792  1.1718
 6405SOL     OW30673   4.158   1.925  11.156  1.0107  0.0239  0.1821
 6405SOL    HW130674   4.103   1.992  11.115 -0.1507 -1.3819 -0.5466
 6405SOL    HW230675   4.236   1.908  11.103  0.8948 -2.2472  0.7216
 6406SOL     OW30676   3.012   0.503   2.832  0.5383 -0.0549 -0.2238
 6406SOL    HW130677   3.082   0.560   2.865 -0.3976  0.2448  1.2283
 6406SOL    HW230678   2.938   0.543   2.878 -0.5424 -5.0282  2.4573
 6407SOL     OW30679   0.571   2.183  10.898 -0.0883 -0.2987  0.2949
 6407SOL    HW130680   0.601   2.266  10.936  0.6592 -0.6889  0.5448
 6407SOL    HW230681   0.651   2.132  10.890  0.8892  1.4046 -0.9663
 6408SOL     OW30682   2.112   0.108   7.073 -0.0808  0.0664 -0.2006
 6408SOL    HW130683   2.071   0.159   7.003 -1.4723  0.8452  1.1857
 6408SOL    HW230684   2.035   0.093   7.128  0.2036  0.8449  0.4108
 6409SOL     OW30685   4.061   0.499  11.979  0.1484 -0.6606  0.1230
 6409SOL    HW130686   4.149   0.536  11.965  0.2185 -0.6138  0.6701
 6409SOL    HW230687   4.059   0.417  11.930  0.9483 -0.8120  0.3368
 6410SOL     OW30688   2.746   3.745   2.143  0.6392  0.3714  0.4354
 6410SOL    HW130689   2.756   3.835   2.176 -3.0544  1.1590 -0.5655
 6410SOL    HW230690   2.833   3.708   2.154  0.1700 -0.3107  1.8352
 6411SOL     OW30691   0.211   1.392   6.033 -0.4813 -0.2840 -0.5046
 6411SOL    HW130692   0.224   1.480   6.069 -0.9322 -0.6791  0.6183
 6411SOL    HW230693   0.239   1.410   5.943 -0.4325  0.2967 -0.3718
 6412SOL     OW30694   2.199   1.930  14.796  0.2380  0.0395 -0.4138
 6412SOL    HW130695   2.234   1.977  14.721  1.5819 -1.2450 -0.5891
 6412SOL    HW230696   2.111   1.959  14.820  0.0623 -1.1353  0.4149
 6413SOL     OW30697   4.312   1.339   6.174  0.1446  0.4079 -0.4262
 6413SOL    HW130698   4.236   1.282   6.177  0.2070  0.2846 -1.1556
 6413SOL    HW230699   4.278   1.387   6.098  0.1944 -0.7513 -1.1837
 6414SOL     OW30700   3.445   3.307   8.685  0.0270  0.3958 -0.1762
 6414SOL    HW130701   3.539   3.289   8.681 -0.0572  0.2795 -1.5925
 6414SOL    HW230702   3.402   3.221   8.677 -0.0461  0.2853  1.4904
 6415SOL     OW30703   0.393   2.718  14.211 -0.6114  0.4136  0.3759
 6415SOL    HW130704   0.339   2.643  14.236 -1.4903  0.4151 -1.4556
 6415SOL    HW230705   0.326   2.785  14.196 -1.5594 -0.5153  0.4753
 6416SOL     OW30706   3.182   4.595   3.110  0.0311  0.1995 -0.3595
 6416SOL    HW130707   3.100   4.644   3.099 -1.1505 -1.7188 -0.1977
 6416SOL    HW230708   3.206   4.581   3.019  3.4308  2.7334  0.1820
 6417SOL     OW30709   2.429   4.335   5.731  0.5090 -0.8369  0.2388
 6417SOL    HW130710   2.440   4.429   5.741  0.4255 -0.7256 -0.7331
 6417SOL    HW230711   2.343   4.302   5.759 -0.0275 -0.6760 -1.2085
 6418SOL     OW30712   2.928   2.635   8.692  0.0682  0.0473 -0.0982
 6418SOL    HW130713   2.922   2.704   8.626 -1.0593  0.4001  0.3840
 6418SOL    HW230714   2.852   2.640   8.750 -0.6720  0.7692 -1.1455
 6419SOL     OW30715   1.311   2.622   8.440  0.0983 -1.0564 -0.3482
 6419SOL    HW130716   1.248   2.670   8.494  0.2494 -0.4371 -0.7296
 6419SOL    HW230717   1.369   2.697   8.433 -1.0181 -0.1087  0.5007
 6420SOL     OW30718   1.262   2.133  15.685 -0.0781 -0.5553 -0.6176
 6420SOL    HW130719   1.244   2.132  15.591 -1.6937  0.3999 -0.3280
 6420SOL    HW230720   1.301   2.219  15.696 -0.3944 -0.8760  3.1440
 6421SOL     OW30721   0.812   3.193   3.909  0.7433 -0.1108  0.3463
 6421SOL    HW130722   0.720   3.197   3.885  1.4173  1.4277 -1.8857
 6421SOL    HW230723   0.816   3.259   3.978 -1.4307 -0.8012  1.1344
 6422SOL     OW30724   3.395   2.474   0.260 -0.5411 -0.2785 -0.0932
 6422SOL    HW130725   3.385   2.406   0.326  1.4340 -1.4431 -0.9988
 6422SOL    HW230726   3.417   2.549   0.315  1.9151 -0.8213 -0.3367
 6423SOL     OW30727   0.085   1.414   3.544  0.1162 -0.2567  1.1088
 6423SOL    HW130728   0.036   1.428   3.625 -0.0917  0.3900  0.8698
 6423SOL    HW230729   0.166   1.374   3.577  1.5317  1.6880  0.0082
 6424SOL     OW30730   1.629   2.974   1.354 -0.1226  0.4114 -0.5745
 6424SOL    HW130731   1.586   2.888   1.354 -0.0179  0.3565  0.8421
 6424SOL    HW230732   1.721   2.945   1.356  0.0331  1.2124  3.7935
 6425SOL     OW30733   0.837   2.712   6.628  0.5032  0.1931  0.1418
 6425SOL    HW130734   0.825   2.778   6.560 -0.8646  1.4563  1.5957
 6425SOL    HW230735   0.926   2.734   6.653  0.2292  1.6828 -0.2348
 6426SOL     OW30736   2.206   1.990   8.281 -0.2755 -0.3133 -0.1108
 6426SOL    HW130737   2.260   1.986   8.202 -0.6068  0.0253 -0.3586
 6426SOL    HW230738   2.251   2.066   8.319  0.5470  0.1254 -1.9143
 6427SOL     OW30739   2.711   2.784   2.405 -0.8732  0.1571  0.0458
 6427SOL    HW130740   2.665   2.710   2.444  0.3256 -0.5109  0.1678
 6427SOL    HW230741   2.786   2.735   2.372 -0.3505  1.2129 -0.3579
 6428SOL     OW30742   1.320   3.453   1.760  0.4240  0.1043  0.1921
 6428SOL    HW130743   1.236   3.461   1.804  0.9316  2.1042  0.8199
 6428SOL    HW230744   1.295   3.484   1.673  0.9137  1.2140  0.4410
 6429SOL     OW30745   0.822   2.819   0.102 -0.4611  0.2711  0.2744
 6429SOL    HW130746   0.810   2.845   0.193  3.1099  4.0862 -0.3271
 6429SOL    HW230747   0.766   2.743   0.089 -0.6768  0.6250 -0.8352
 6430SOL     OW30748   2.949   1.437  10.665 -0.0380  0.2325  0.2917
 6430SOL    HW130749   2.928   1.523  10.701  1.5918  0.7936 -0.0993
 6430SOL    HW230750   2.934   1.377  10.737  0.5449 -0.0386  0.1806
 6431SOL     OW30751   3.132   1.352   4.714  0.4105 -0.5257 -0.0612
 6431SOL    HW130752   3.173   1.425   4.668 -1.2701  0.2368 -0.3733
 6431SOL    HW230753   3.190   1.329   4.787  0.8779 -1.8590 -0.8708
 6432SOL     OW30754   0.955   4.342   6.114  0.0717  0.1278 -0.2813
 6432SOL    HW130755   0.889   4.316   6.178  0.8753  1.2059  1.0017
 6432SOL    HW230756   0.957   4.264   6.059  2.0058 -1.2092  1.6591
 6433SOL     OW30757   3.217   2.788   6.571 -0.1490  0.2179 -0.2030
 6433SOL    HW130758   3.125   2.812   6.570  0.5248  2.8263  0.1969
 6433SOL    HW230759   3.216   2.698   6.538  1.9015  0.4792 -0.9882
 6434SOL     OW30760   2.963   1.695  13.161 -0.0872 -0.3359  0.0278
 6434SOL    HW130761   2.880   1.726  13.126  0.1979  0.5977  0.1930
 6434SOL    HW230762   2.936   1.694  13.253  0.6988  2.4443  0.2871
 6435SOL     OW30763   3.150   2.320   3.235 -0.3703  0.2471 -0.2361
 6435SOL    HW130764   3.169   2.404   3.276  4.3041 -0.4832 -0.8663
 6435SOL    HW230765   3.098   2.278   3.304 -1.4992 -1.2550 -1.9932
 6436SOL     OW30766   1.858   3.498  12.885 -0.1180 -0.6048 -0.4548
 6436SOL    HW130767   1.876   3.405  12.898  2.2944 -0.1045 -0.1379
 6436SOL    HW230768   1.906   3.553  12.948 -2.4470  0.7696  0.1006
 6437SOL     OW30769   0.216   3.848  14.178  0.0269  0.1716  0.6043
 6437SOL    HW130770   0.237   3.941  14.188 -1.7972  0.5128  1.3455
 6437SOL    HW230771   0.270   3.806  14.245  0.9469  0.6275  0.1469
 6438SOL     OW30772   1.446   2.016   3.660  0.5129 -0.7152  0.1309
 6438SOL    HW130773   1.521   2.050   3.708 -0.3949  0.3542  0.7917
 6438SOL    HW230774   1.456   2.067   3.580  0.6834 -0.1265  0.5355
 6439SOL     OW30775   3.874   4.526   8.857 -0.3719 -0.3635 -0.7659
 6439SOL    HW130776   3.964   4.539   8.828  0.1146  1.0952  1.4241
 6439SOL    HW230777   3.817   4.556   8.787 -0.5306  1.8881  0.3196
 6440SOL     OW30778   0.182   0.823   3.611  0.1698  0.2725  0.5504
 6440SOL    HW130779   0.106   0.878   3.588 -1.7010 -1.7655  1.8491
 6440SOL    HW230780   0.245   0.846   3.543  0.2562 -0.6919  0.3097
 6441SOL     OW30781   1.126   1.759   1.526 -0.0514 -0.0758  0.2285
 6441SOL    HW130782   1.090   1.674   1.551  1.0500 -0.3760  0.7826
 6441SOL    HW230783   1.061   1.795   1.467  1.4758  0.3842 -1.1757
 6442SOL     OW30784   4.219   2.444   7.933 -0.1765  0.0438 -0.5638
 6442SOL    HW130785   4.177   2.381   7.991  1.8042  0.2547  1.0673
 6442SOL    HW230786   4.310   2.444   7.960 -0.4677 -2.1490  0.3641
 6443SOL     OW30787   1.011   0.116  13.864 -0.0360 -0.7209 -0.0774
 6443SOL    HW130788   0.923   0.104  13.829 -0.1969  0.1922 -0.0014
 6443SOL    HW230789   1.021   0.035  13.914 -0.2395 -0.4485  0.4061
 6444SOL     OW30790   3.442   0.005   7.551 -0.1639  0.8818 -0.5926
 6444SOL    HW130791   3.354   0.039   7.564 -0.5780 -0.4629  0.1399
 6444SOL    HW230792   3.460   4.700   7.641 -0.1634  1.1586 -0.5034
 6445SOL     OW30793   3.459   4.453   3.324  0.5495 -0.0943 -0.0636
 6445SOL    HW130794   3.372   4.465   3.363 -0.0006  0.4621 -1.4580
 6445SOL    HW230795   3.433   4.385   3.263  0.9638 -1.0730  0.8538
 6446SOL     OW30796   3.235   3.617   0.805 -0.5594  0.7033  0.3438
 6446SOL    HW130797   3.177   3.623   0.729 -0.4174  0.5482  0.2232
 6446SOL    HW230798   3.191   3.554   0.862 -0.4653 -0.2172 -0.6064
 6447SOL     OW30799   0.239   3.054  13.513 -0.2537 -0.2392 -0.1527
 6447SOL    HW130800   0.290   3.084  13.437 -0.0154  1.7966  0.7899
 6447SOL    HW230801   0.156   3.030  13.472 -0.6679 -1.3161  1.3334
 6448SOL     OW30802   4.171   1.447   5.667  0.5291  0.0770  0.0858
 6448SOL    HW130803   4.172   1.431   5.573 -1.9687 -1.0183  0.2534
 6448SOL    HW230804   4.187   1.541   5.670  0.7707  0.0405 -0.0540
 6449SOL     OW30805   1.128   4.255   0.422  0.2003 -0.1642  0.5690
 6449SOL    HW130806   1.179   4.179   0.393 -0.4163  0.3018 -1.7350
 6449SOL    HW230807   1.178   4.304   0.487  0.6637 -0.8318  0.7154
 6450SOL     OW30808   3.270   2.015   2.046  0.2200 -0.4364  0.7778
 6450SOL    HW130809   3.187   2.059   2.028 -0.7042 -1.6372  2.1015
 6450SOL    HW230810   3.313   2.078   2.103 -0.0041  2.2590 -2.0651
 6451SOL     OW30811   0.938   3.484  16.430  0.0415  0.2033  0.2535
 6451SOL    HW130812   0.952   3.555  16.368  1.1752  0.1890  0.5106
 6451SOL    HW230813   1.004   3.418  16.410  0.5544  0.3047  1.5951
 6452SOL     OW30814   0.855   4.674   9.293  0.5886  0.5039 -0.6110
 6452SOL    HW130815   0.833   4.581   9.304 -0.8197  1.0090  0.8411
 6452SOL    HW230816   0.936   4.674   9.343 -0.2118 -2.4674  0.7199
 6453SOL     OW30817   2.034   1.492   8.813  0.1028 -0.1094  0.2088
 6453SOL    HW130818   2.105   1.530   8.762  1.7417  0.9612  3.3539
 6453SOL    HW230819   1.968   1.561   8.808 -0.5611 -0.7585 -0.0128
 6454SOL     OW30820   3.478   2.617   2.565  0.5078 -0.0751 -0.1297
 6454SOL    HW130821   3.461   2.539   2.618 -0.7439 -0.3936 -1.0010
 6454SOL    HW230822   3.435   2.683   2.619 -0.6108  0.3172 -1.4989
 6455SOL     OW30823   1.105   1.030   3.469  0.3001 -0.2639 -0.0149
 6455SOL    HW130824   1.048   0.998   3.400  0.3565  0.1279 -0.2449
 6455SOL    HW230825   1.136   0.950   3.510 -0.6207 -0.3712  0.4844
 6456SOL     OW30826   0.487   1.908   6.372  0.3468  0.0952  0.0251
 6456SOL    HW130827   0.520   1.988   6.413 -0.5316  0.4810 -0.0212
 6456SOL    HW230828   0.428   1.868   6.435  0.6494 -0.3706  0.0171
 6457SOL     OW30829   1.128   3.250   8.698  0.3205 -0.3482 -0.2668
 6457SOL    HW130830   1.087   3.214   8.618 -0.3800  2.2293 -1.0541
 6457SOL    HW230831   1.220   3.246   8.673  0.9967 -1.9285  2.5188
 6458SOL     OW30832   3.609   2.872  14.715 -0.0707  0.1496 -0.0455
 6458SOL    HW130833   3.561   2.931  14.656  1.9808  1.4154 -0.4556
 6458SOL    HW230834   3.576   2.790  14.678  0.6258 -0.2917  0.3306
 6459SOL     OW30835   1.901   2.055  16.174  0.2959  0.1617  0.1296
 6459SOL    HW130836   1.832   2.014  16.123 -0.6308  2.6212 -0.5689
 6459SOL    HW230837   1.959   2.076  16.101 -0.4128 -0.6457 -0.6544
 6460SOL     OW30838   2.196   2.841   5.442  0.0761 -0.2388  0.1121
 6460SOL    HW130839   2.286   2.872   5.452 -0.1537  0.5102 -0.1925
 6460SOL    HW230840   2.193   2.814   5.351 -1.2187  0.8235 -0.1640
 6461SOL     OW30841   4.033   3.937   4.783  0.6707 -0.0885 -0.2260
 6461SOL    HW130842   4.076   4.000   4.840 -0.6153 -0.0104  0.6655
 6461SOL    HW230843   3.975   3.993   4.731  0.4794 -0.5505 -0.5169
 6462SOL     OW30844   3.081   3.967   2.769  0.0178  0.2017 -0.0226
 6462SOL    HW130845   3.170   3.952   2.801 -0.2335 -0.9679  0.1274
 6462SOL    HW230846   3.041   3.881   2.762 -1.7519  0.8869  1.9827
 6463SOL     OW30847   3.235   2.213   2.597  0.1118  0.0852  0.0182
 6463SOL    HW130848   3.313   2.198   2.650  1.4029  0.2322 -1.8425
 6463SOL    HW230849   3.218   2.122   2.570 -0.7555  0.9357 -2.2359
 6464SOL     OW30850   3.860   3.146   5.534 -0.5315  0.8974  0.1690
 6464SOL    HW130851   3.904   3.062   5.518 -0.5515  1.2205 -1.5838
 6464SOL    HW230852   3.912   3.207   5.483  1.6107 -1.8040 -0.8670
 6465SOL     OW30853   0.930   1.785  17.389 -0.2529  0.1703 -0.1333
 6465SOL    HW130854   0.979   1.850  17.440  1.0024 -0.8984  0.0419
 6465SOL    HW230855   0.869   1.836  17.335  0.1363  1.9475  1.1047
 6466SOL     OW30856   3.457   0.436   5.434 -0.3293  0.0303 -0.3790
 6466SOL    HW130857   3.436   0.473   5.348 -1.2234  1.4906  0.4574
 6466SOL    HW230858   3.384   0.468   5.486  0.1394 -1.9064  1.4313
 6467SOL     OW30859   2.539   0.065   4.260 -0.5793 -0.0454 -0.5353
 6467SOL    HW130860   2.565   0.156   4.243 -0.3232 -0.1110 -0.4838
 6467SOL    HW230861   2.464   0.046   4.203  0.1486  0.2813 -1.6029
 6468SOL     OW30862   0.662   2.274   8.918 -0.6018 -1.1339  0.6824
 6468SOL    HW130863   0.639   2.308   9.005  0.6176 -3.0627  1.7414
 6468SOL    HW230864   0.603   2.335   8.873  3.8524  2.6456 -0.0394
 6469SOL     OW30865   3.369   1.846   9.931  0.4610 -0.1055 -0.4352
 6469SOL    HW130866   3.353   1.759   9.969 -0.2098 -0.0409 -0.5686
 6469SOL    HW230867   3.369   1.819   9.839 -0.3682  0.1203 -0.5010
 6470SOL     OW30868   1.990   1.075  13.648  0.3337  0.1611  0.1041
 6470SOL    HW130869   2.022   0.999  13.696 -2.4026 -0.5955  0.7531
 6470SOL    HW230870   1.934   1.029  13.586  2.1920 -1.1441 -0.5874
 6471SOL     OW30871   0.515   0.244  15.895  0.1542 -0.4263 -0.1931
 6471SOL    HW130872   0.586   0.199  15.849  0.2289 -3.3532  2.7397
 6471SOL    HW230873   0.530   0.337  15.885 -0.0221 -0.2688  0.9644
 6472SOL     OW30874   0.523   4.604   8.997 -0.2704 -0.6789  0.4316
 6472SOL    HW130875   0.529   4.638   9.087 -1.0698  1.1484 -0.2012
 6472SOL    HW230876   0.533   4.511   9.017  0.3173 -0.3113  1.8715
 6473SOL     OW30877   2.424   4.699  15.231  0.2846  0.3360  0.1590
 6473SOL    HW130878   2.349   0.004  15.180  0.0161  0.6207  0.7201
 6473SOL    HW230879   2.393   4.620  15.275  2.0551 -0.8808 -0.7400
 6474SOL     OW30880   1.835   1.609   2.127  0.6145 -0.2648 -0.0524
 6474SOL    HW130881   1.780   1.670   2.176  1.4439 -0.6964  1.3916
 6474SOL    HW230882   1.797   1.525   2.150 -0.8742 -0.0928 -1.8143
 6475SOL     OW30883   4.692   0.179  14.446 -0.1189  0.1938  0.0687
 6475SOL    HW130884   4.603   0.176  14.411  0.1166  1.6094 -0.6548
 6475SOL    HW230885   4.675   0.180  14.541 -0.0096 -0.2552  0.0938
 6476SOL     OW30886   2.931   4.125   9.011  0.2447 -0.2190 -0.4568
 6476SOL    HW130887   2.938   4.213   8.974  1.8385 -0.3615 -0.4821
 6476SOL    HW230888   2.844   4.104   8.978  0.5412  0.4284 -1.6805
 6477SOL     OW30889   3.602   2.577  17.241 -0.1106 -0.4192  0.1663
 6477SOL    HW130890   3.510   2.599  17.259 -0.3999 -1.3632 -0.1285
 6477SOL    HW230891   3.607   2.507  17.307  2.1693  0.9234  1.3867
 6478SOL     OW30892   3.369   2.974   9.347 -0.0533  0.4683 -0.2294
 6478SOL    HW130893   3.442   2.917   9.325 -0.3421  0.7516 -1.8813
 6478SOL    HW230894   3.313   2.919   9.402 -0.3879  1.3825  0.3414
 6479SOL     OW30895   1.978   2.583   9.346  0.0188  0.0470 -0.0680
 6479SOL    HW130896   1.954   2.675   9.342  2.3699  0.7206  1.1715
 6479SOL    HW230897   2.042   2.591   9.417  0.2472 -4.1353  0.2473
 6480SOL     OW30898   1.138   3.970   6.324 -0.3216  0.1758  0.0597
 6480SOL    HW130899   1.095   3.967   6.239 -1.2787 -0.4230  0.5708
 6480SOL    HW230900   1.103   3.890   6.363 -2.1442  1.4736  1.0828
 6481SOL     OW30901   4.590   0.721  11.318  0.0688  0.0138  0.5218
 6481SOL    HW130902   4.603   0.794  11.257 -0.9526  0.7788  1.2235
 6481SOL    HW230903   4.679   0.687  11.329  0.2814  0.0952 -0.8526
 6482SOL     OW30904   0.241   2.716   8.620 -0.1461 -0.6057  0.0222
 6482SOL    HW130905   0.166   2.689   8.566 -1.4117  0.8032  1.0563
 6482SOL    HW230906   0.204   2.751   8.701 -0.2992 -0.7617  0.0203
 6483SOL     OW30907   3.254   3.303  12.019  0.7237  0.0063  0.1250
 6483SOL    HW130908   3.278   3.365  11.950 -0.6206  0.9804  0.5349
 6483SOL    HW230909   3.225   3.223  11.974  0.2980 -0.0584  0.5094
 6484SOL     OW30910   4.270   4.174   6.092  0.1699  0.1988  0.4164
 6484SOL    HW130911   4.265   4.107   6.024  2.1517  0.1037  0.3615
 6484SOL    HW230912   4.358   4.157   6.125  0.7144  1.2292 -0.5096
 6485SOL     OW30913   2.157   1.094   0.646  0.4450  0.5813 -0.0246
 6485SOL    HW130914   2.173   1.170   0.702  1.9326  2.2731 -2.7759
 6485SOL    HW230915   2.233   1.103   0.589  1.0712 -2.4591  0.3020
 6486SOL     OW30916   0.291   4.123   3.039 -0.7392 -0.2256 -0.8102
 6486SOL    HW130917   0.254   4.209   3.019  1.5898  1.4531  2.1671
 6486SOL    HW230918   0.287   4.085   2.951 -2.4890 -2.1791  0.0999
 6487SOL     OW30919   0.334   0.344   4.564 -0.0726  0.0045 -0.0086
 6487SOL    HW130920   0.332   0.439   4.572  0.6519  0.0586 -0.4406
 6487SOL    HW230921   0.427   0.325   4.580 -0.4983 -3.0431 -0.9811
 6488SOL     OW30922   4.023   0.958  17.316  0.3867 -0.6164 -0.3896
 6488SOL    HW130923   3.988   1.018  17.382  1.2331 -0.1574 -0.3601
 6488SOL    HW230924   4.102   0.924  17.359  1.5864 -0.7381 -2.6860
 6489SOL     OW30925   0.765   2.983   1.940 -0.3355  0.1860 -0.2692
 6489SOL    HW130926   0.706   3.030   1.998  0.3398  1.2965 -0.4894
 6489SOL    HW230927   0.756   3.041   1.864 -1.8766 -1.8456 -1.6369
 6490SOL     OW30928   2.242   2.135   4.304  0.2703 -0.3910  0.3562
 6490SOL    HW130929   2.241   2.075   4.378  1.8604 -0.9421 -0.0770
 6490SOL    HW230930   2.328   2.172   4.284  0.4939 -1.1868 -0.1706
 6491SOL     OW30931   0.174   0.275   6.663  0.1776  0.0591 -0.0767
 6491SOL    HW130932   0.126   0.228   6.595 -2.1196  0.0678  1.5535
 6491SOL    HW230933   0.126   0.357   6.670 -0.5747 -0.3882  0.0114
 6492SOL     OW30934   3.948   0.311   0.984 -0.7590 -0.2368 -0.3558
 6492SOL    HW130935   3.906   0.397   0.983  0.0175  0.1389 -0.2506
 6492SOL    HW230936   3.983   0.305   1.073  1.7334 -2.4055 -1.5028
 6493SOL     OW30937   2.023   1.538   2.650 -0.0058 -0.3733 -0.1559
 6493SOL    HW130938   1.959   1.609   2.655 -0.1859 -0.5158 -0.3921
 6493SOL    HW230939   1.976   1.485   2.585 -0.0108 -0.9349  0.3117
 6494SOL     OW30940   2.372   0.196  13.990 -1.0180 -0.3583 -0.1986
 6494SOL    HW130941   2.366   0.176  14.083  0.7495  0.8243  0.1763
 6494SOL    HW230942   2.460   0.233  13.984 -1.4498  0.5737 -0.7371
 6495SOL     OW30943   3.792   4.122   3.767  0.3413 -0.2106  0.1917
 6495SOL    HW130944   3.785   4.141   3.861 -0.4216 -0.7012  0.2367
 6495SOL    HW230945   3.881   4.152   3.750  0.8247 -1.6549  0.2087
 6496SOL     OW30946   2.428   3.271   2.512 -0.3764  0.2945  0.2511
 6496SOL    HW130947   2.477   3.240   2.436  1.9209  2.2656  0.9340
 6496SOL    HW230948   2.470   3.223   2.583 -1.0757  0.8090  1.0123
 6497SOL     OW30949   2.021   0.761  13.901 -0.4196 -0.2693  0.3685
 6497SOL    HW130950   2.026   0.825  13.972 -1.9803  1.6770 -1.2881
 6497SOL    HW230951   1.935   0.779  13.865  0.8467  2.1204 -1.4555
 6498SOL     OW30952   0.175   2.793   8.898 -0.6500 -0.3539  0.1273
 6498SOL    HW130953   0.157   2.887   8.899  1.1500 -0.0354  1.8260
 6498SOL    HW230954   0.228   2.785   8.978 -1.2815  2.6200  0.8674
 6499SOL     OW30955   4.461   1.157   4.156  0.0686 -0.1017  0.0458
 6499SOL    HW130956   4.518   1.169   4.080 -0.3208  1.2931 -0.0147
 6499SOL    HW230957   4.526   1.123   4.218 -1.8396  1.1545  2.7325
 6500SOL     OW30958   2.604   1.122  12.257 -0.0431  0.0782 -0.2766
 6500SOL    HW130959   2.699   1.125  12.270  0.0599 -0.0432 -1.0065
 6500SOL    HW230960   2.572   1.054  12.316  2.2684  1.0712  2.1612
 6501SOL     OW30961   2.041   3.435   9.447 -0.6186 -0.2204  0.0393
 6501SOL    HW130962   2.021   3.433   9.540 -1.6323 -1.5405 -0.2031
 6501SOL    HW230963   2.127   3.394   9.450 -0.0323  1.0794  1.0716
 6502SOL     OW30964   4.190   1.130  11.092 -0.0123  0.6996  0.4372
 6502SOL    HW130965   4.179   1.036  11.078 -3.0115  1.4033 -1.9409
 6502SOL    HW230966   4.152   1.165  11.011  1.9946  2.9108  0.4579
 6503SOL     OW30967   0.998   0.660   3.225 -0.4319 -0.0828  0.3510
 6503SOL    HW130968   0.951   0.600   3.167  0.3457  0.3366 -0.7183
 6503SOL    HW230969   0.920   0.712   3.244 -0.0596  0.3625  0.6880
 6504SOL     OW30970   0.092   1.521   8.081  0.0303  0.1697 -0.6929
 6504SOL    HW130971   0.155   1.502   8.011 -1.0601  0.9484 -1.8921
 6504SOL    HW230972   0.153   1.534   8.153 -0.7945  0.3637 -0.0246
 6505SOL     OW30973   2.749   0.516   9.752 -0.0147 -0.3034 -0.6022
 6505SOL    HW130974   2.828   0.547   9.797  0.3865  1.3429 -2.4495
 6505SOL    HW230975   2.763   0.425   9.781  0.5009 -0.1563 -0.3829
 6506SOL     OW30976   4.409   2.401   0.919 -0.1567  0.6241  0.1888
 6506SOL    HW130977   4.368   2.480   0.884  0.4407  0.3853 -1.0592
 6506SOL    HW230978   4.472   2.449   0.971  2.7282 -1.5029 -1.3147
 6507SOL     OW30979   4.706   3.465  17.452 -0.1198 -0.1683  0.0566
 6507SOL    HW130980   4.627   3.493  17.500  0.5550 -0.5825  1.4166
 6507SOL    HW230981   4.718   3.374  17.479 -1.4396 -1.3763 -3.5050
 6508SOL     OW30982   4.371   2.550   3.387 -0.3213  0.1414 -0.2767
 6508SOL    HW130983   4.278   2.539   3.365 -0.3001  0.6791 -0.6236
 6508SOL    HW230984   4.404   2.484   3.326  1.2940  1.2827 -0.6319
 6509SOL     OW30985   2.060   1.056  12.737  0.4286 -0.1154  0.0389
 6509SOL    HW130986   2.091   1.085  12.823 -0.7138 -0.0795  0.4442
 6509SOL    HW230987   2.042   1.141  12.698  2.5110 -0.3399 -1.3927
 6510SOL     OW30988   2.683   3.545   2.491 -0.2198  0.5431  0.0608
 6510SOL    HW130989   2.653   3.583   2.573 -2.9966 -1.3262 -0.0760
 6510SOL    HW230990   2.708   3.455   2.512  1.0475  0.6892 -0.7917
 6511SOL     OW30991   2.106   1.260   5.894  0.3781  0.2864 -0.2119
 6511SOL    HW130992   2.194   1.297   5.885  0.1797  0.5184 -1.1568
 6511SOL    HW230993   2.134   1.169   5.893 -1.2052 -0.2174  1.5773
 6512SOL     OW30994   3.764   2.404  15.101  0.0387 -0.0265 -0.2553
 6512SOL    HW130995   3.692   2.462  15.075  0.5320  0.3198 -0.8475
 6512SOL    HW230996   3.830   2.440  15.042 -1.4015  2.3769 -0.4165
 6513SOL     OW30997   1.978   2.860  11.508  0.5772 -0.0065 -0.0851
 6513SOL    HW130998   2.012   2.795  11.570  0.8499 -0.1650 -0.3989
 6513SOL    HW230999   2.041   2.931  11.513  1.8981 -1.1716  0.0372
 6514SOL     OW31000   1.608   4.260   8.789  0.0856  0.4798 -0.3551
 6514SOL    HW131001   1.662   4.183   8.774 -0.3930  0.1538 -0.3971
 6514SOL    HW231002   1.553   4.235   8.864 -0.1809 -1.4909 -1.2044
 6515SOL     OW31003   2.115   0.020  14.274 -0.2644 -0.3201 -0.0102
 6515SOL    HW131004   2.206   0.052  14.274 -1.1136  2.0790 -2.2346
 6515SOL    HW231005   2.098   0.027  14.180  1.3461  1.8924 -0.1430
 6516SOL     OW31006   4.132   0.728   2.444 -0.0387 -0.0518  0.1887
 6516SOL    HW131007   4.222   0.707   2.417 -0.1170  1.6333 -1.3602
 6516SOL    HW231008   4.118   0.674   2.522  0.6606 -1.7659 -0.8714
 6517SOL     OW31009   1.656   3.826   4.940 -0.3739  0.5191  0.1894
 6517SOL    HW131010   1.636   3.826   4.846 -2.5016  1.0496  0.6536
 6517SOL    HW231011   1.736   3.774   4.945 -1.3971 -1.3013 -2.5965
 6518SOL     OW31012   1.484   3.274   6.199 -0.3890  0.6034  0.2526
 6518SOL    HW131013   1.454   3.189   6.231  2.4107 -0.0823  1.0218
 6518SOL    HW231014   1.528   3.256   6.116 -0.3734 -2.9846  1.0424
 6519SOL     OW31015   2.829   1.347  12.209 -0.4222 -0.2074  0.4181
 6519SOL    HW131016   2.789   1.413  12.266 -1.4979  0.8644 -1.5843
 6519SOL    HW231017   2.912   1.394  12.203 -1.5029  1.1826 -3.5320
 6520SOL     OW31018   4.467   3.956   4.662 -0.1466 -0.0712  0.4987
 6520SOL    HW131019   4.473   3.876   4.609  2.7250  0.5360 -0.0977
 6520SOL    HW231020   4.394   4.000   4.618  2.5463  0.4580 -3.3996
 6521SOL     OW31021   1.358   0.957   8.540 -0.4297  0.4367  0.2932
 6521SOL    HW131022   1.408   1.025   8.495  0.0758 -1.1722 -1.5585
 6521SOL    HW231023   1.269   0.978   8.512  0.1492  2.5392  0.0236
 6522SOL     OW31024   3.782   0.420   7.634  0.3329  0.1661  0.2854
 6522SOL    HW131025   3.696   0.445   7.598  0.1189 -0.0786  0.6302
 6522SOL    HW231026   3.838   0.496   7.616  1.1378 -0.3685  0.5770
 6523SOL     OW31027   3.264   0.744  16.119  0.1719 -0.0754 -0.1509
 6523SOL    HW131028   3.342   0.736  16.174  1.9710  3.5067 -2.2571
 6523SOL    HW231029   3.246   0.650  16.109 -0.6381  0.1480 -0.8068
 6524SOL     OW31030   3.491   4.418  11.599 -0.1187  0.7467 -0.5741
 6524SOL    HW131031   3.475   4.487  11.535 -0.3962  1.9568  0.7907
 6524SOL    HW231032   3.541   4.350  11.553  0.0281  1.6388 -1.7185
 6525SOL     OW31033   0.050   0.895   1.474 -0.4768 -0.3302  0.1402
 6525SOL    HW131034   4.717   0.961   1.513  0.4272  0.6434 -0.1850
 6525SOL    HW231035   0.133   0.903   1.521 -0.3343  1.1940 -0.3576
 6526SOL     OW31036   2.635   0.270   8.174  0.5788 -0.7685 -0.0433
 6526SOL    HW131037   2.629   0.191   8.120  1.1078  0.4105 -1.8182
 6526SOL    HW231038   2.606   0.232   8.257 -0.9045 -1.3895 -0.8466
 6527SOL     OW31039   4.188   0.393   5.617  0.4985  0.2395  0.3918
 6527SOL    HW131040   4.216   0.477   5.655  1.7171  1.1965 -2.6148
 6527SOL    HW231041   4.115   0.372   5.675  0.4683 -2.0845 -0.4954
 6528SOL     OW31042   2.020   1.964   6.735  0.0678  0.0807 -0.3269
 6528SOL    HW131043   2.013   1.888   6.793  2.1453  0.1713  0.0609
 6528SOL    HW231044   2.053   2.017   6.808 -0.1749  0.4569 -0.4886
 6529SOL     OW31045   1.769   1.972  15.961 -0.0881  0.2444  0.1131
 6529SOL    HW131046   1.700   1.908  15.945 -0.8091  1.6919 -2.5233
 6529SOL    HW231047   1.744   2.042  15.901  2.0351  0.3149 -0.6861
 6530SOL     OW31048   1.276   1.872  14.828  0.0189 -0.5099  0.7471
 6530SOL    HW131049   1.247   1.850  14.916  1.6881  1.0006  1.6705
 6530SOL    HW231050   1.362   1.911  14.844 -0.3765  0.0619  1.4578
 6531SOL     OW31051   3.729   2.193   0.726 -0.0378  0.0809 -0.6404
 6531SOL    HW131052   3.807   2.158   0.768  1.2441  0.8105 -2.3755
 6531SOL    HW231053   3.759   2.238   0.647  0.7805 -0.1319 -0.4454
 6532SOL     OW31054   1.512   0.922   9.115  0.0862  0.7244 -0.4003
 6532SOL    HW131055   1.456   0.994   9.085 -1.8256 -1.2113 -1.4499
 6532SOL    HW231056   1.590   0.950   9.066  0.6605 -0.2480 -0.0394
 6533SOL     OW31057   3.482   2.101  10.089  0.5074  0.4014 -0.3401
 6533SOL    HW131058   3.479   2.014  10.129  1.6174  2.0511  3.3960
 6533SOL    HW231059   3.479   2.078   9.997  1.7286  0.3633 -0.3671
 6534SOL     OW31060   2.897   2.637   2.247 -0.0758 -0.4285  0.4603
 6534SOL    HW131061   2.883   2.545   2.271  2.9934 -0.6548  1.3686
 6534SOL    HW231062   2.928   2.637   2.156  1.0070 -1.0501  0.8274
 6535SOL     OW31063   4.454   2.221   4.726 -0.4901 -0.1024  0.2580
 6535SOL    HW131064   4.366   2.232   4.690  0.2928 -0.7665 -1.8049
 6535SOL    HW231065   4.513   2.240   4.654 -1.1923 -0.0914 -0.3151
 6536SOL     OW31066   1.329   3.669   1.964 -0.5228  0.4547 -0.6982
 6536SOL    HW131067   1.319   3.698   2.054  0.9819  0.7744 -0.6294
 6536SOL    HW231068   1.245   3.703   1.934 -0.3111  0.5350 -1.1937
 6537SOL     OW31069   1.550   4.122   0.377 -0.3656 -0.1631 -0.2691
 6537SOL    HW131070   1.466   4.078   0.367  1.2975 -3.0228 -1.5349
 6537SOL    HW231071   1.590   4.067   0.444 -1.0120  0.8973  0.9974
 6538SOL     OW31072   3.402   1.786   8.890  0.4267  0.7537 -0.2696
 6538SOL    HW131073   3.321   1.753   8.850  0.8591  0.4146 -0.8674
 6538SOL    HW231074   3.372   1.874   8.915  1.0352  0.9346 -0.1857
 6539SOL     OW31075   4.708   4.435   2.606  0.3076  0.3790 -0.4040
 6539SOL    HW131076   4.692   4.457   2.514  1.8950  0.9397 -0.5353
 6539SOL    HW231077   4.668   4.349   2.612 -0.5881  0.7974 -0.3527
 6540SOL     OW31078   3.220   3.245  12.410  0.4176  0.2977 -0.2024
 6540SOL    HW131079   3.221   3.155  12.378  1.0824  0.8088 -1.5929
 6540SOL    HW231080   3.299   3.254  12.463 -0.2340 -0.0351  0.8428
 6541SOL     OW31081   1.218   2.348   8.678 -0.8649  0.7793 -0.3873
 6541SOL    HW131082   1.180   2.342   8.590  0.1599 -1.5281 -0.6788
 6541SOL    HW231083   1.138   2.370   8.725 -1.6604  1.4612 -2.0665
 6542SOL     OW31084   1.481   3.729   6.496  0.6288 -0.7224 -0.0876
 6542SOL    HW131085   1.560   3.713   6.444  0.8762  1.9926 -0.5134
 6542SOL    HW231086   1.459   3.821   6.484  1.7429 -0.5454 -0.7841
 6543SOL     OW31087   0.974   2.897   9.576 -0.0379  0.4969  0.5161
 6543SOL    HW131088   1.034   2.824   9.592 -1.5856 -1.5346 -2.7170
 6543SOL    HW231089   1.028   2.949   9.517 -0.3074  0.4708  0.2431
 6544SOL     OW31090   0.172   0.545   8.704  0.0054 -0.5229  0.3659
 6544SOL    HW131091   0.207   0.626   8.743  1.6444 -1.4288  0.7766
 6544SOL    HW231092   0.194   0.573   8.616 -2.1581  1.5773  0.4731
 6545SOL     OW31093   4.696   0.471   3.277  0.0455  0.2364  0.0655
 6545SOL    HW131094   4.617   0.427   3.246  0.6065 -1.6747  1.3783
 6545SOL    HW231095   0.035   0.452   3.207  2.5076 -0.1995  2.3682
 6546SOL     OW31096   1.466   2.166   4.763 -0.1825 -0.0240 -0.1013
 6546SOL    HW131097   1.548   2.151   4.810 -0.5518 -2.2088 -0.1755
 6546SOL    HW231098   1.442   2.076   4.743  0.7732  0.0079 -1.3694
 6547SOL     OW31099   3.103   4.058   6.542 -0.4245  0.0162 -0.4384
 6547SOL    HW131100   3.101   4.015   6.627 -2.7034  0.1410 -0.4354
 6547SOL    HW231101   3.078   4.147   6.563 -2.3764 -1.1260  2.0627
 6548SOL     OW31102   3.644   3.127   9.669  0.7368 -0.0736 -0.0825
 6548SOL    HW131103   3.624   3.165   9.754  1.1298 -0.0973  0.0242
 6548SOL    HW231104   3.602   3.042   9.677 -0.6837  0.6218 -0.1497
 6549SOL     OW31105   1.766   2.735   4.363  0.4482  0.1041 -0.0930
 6549SOL    HW131106   1.683   2.731   4.409  1.6624  1.4703  2.1964
 6549SOL    HW231107   1.827   2.693   4.424  0.0898  0.7022  0.6702
 6550SOL     OW31108   4.501   0.004  11.712  0.1484  0.0758  0.0396
 6550SOL    HW131109   4.503   4.704  11.619  2.2992 -1.8730  0.6061
 6550SOL    HW231110   4.593   0.018  11.733  0.3117 -0.2039 -0.4936
 6551SOL     OW31111   3.196   3.507   4.667 -0.4918  0.4914 -0.4260
 6551SOL    HW131112   3.254   3.561   4.613  2.6421 -3.0900 -0.6677
 6551SOL    HW231113   3.215   3.424   4.624  1.2256 -0.0237  1.3296
 6552SOL     OW31114   3.323   1.216  17.024 -0.1786  0.0397 -0.3598
 6552SOL    HW131115   3.257   1.186  17.086 -0.3125 -3.6447 -2.2844
 6552SOL    HW231116   3.405   1.184  17.061 -0.1900 -1.6293 -1.7712
 6553SOL     OW31117   2.694   3.871   3.757  0.5193  0.3896  0.1620
 6553SOL    HW131118   2.642   3.951   3.769  0.0328 -0.1305  1.5166
 6553SOL    HW231119   2.633   3.805   3.790  1.6057 -0.1146  1.1564
 6554SOL     OW31120   4.625   4.414   2.872 -0.2866 -0.0058 -0.9748
 6554SOL    HW131121   4.633   4.486   2.934  0.7870 -0.3568 -0.7053
 6554SOL    HW231122   4.650   4.453   2.789  1.4642  1.4975  0.2685
 6555SOL     OW31123   3.439   0.948   4.709  0.3408  0.5963 -0.5958
 6555SOL    HW131124   3.443   0.884   4.780 -0.3808 -0.1963 -1.2746
 6555SOL    HW231125   3.347   0.963   4.687  0.2099  1.8571  0.7680
 6556SOL     OW31126   4.608   4.318  10.128 -0.0692  0.4539 -0.1241
 6556SOL    HW131127   4.682   4.295  10.071 -0.2144 -0.6813  0.1519
 6556SOL    HW231128   4.655   4.371  10.192  1.0032 -0.7602  0.0955
 6557SOL     OW31129   3.914   4.641   4.177 -0.2126 -0.4841 -0.1025
 6557SOL    HW131130   3.963   4.586   4.115 -1.2866 -0.6331 -0.8187
 6557SOL    HW231131   3.835   4.591   4.193 -1.0059  0.5480 -0.7835
 6558SOL     OW31132   1.248   3.893   8.413  0.2924 -0.7421 -0.0645
 6558SOL    HW131133   1.314   3.866   8.477 -0.0916  1.5187  1.2769
 6558SOL    HW231134   1.278   3.848   8.334  1.0140 -0.2304 -0.0806
 6559SOL     OW31135   0.031   2.124  15.463  0.3138 -0.2283 -0.6358
 6559SOL    HW131136   0.104   2.075  15.501  0.3880  0.5892  0.2634
 6559SOL    HW231137   0.075   2.148  15.381  0.4708  0.5191 -0.3292
 6560SOL     OW31138   3.169   4.270   3.183 -0.0966 -0.2992  0.3229
 6560SOL    HW131139   3.134   4.181   3.186 -0.1104 -0.3141 -0.2164
 6560SOL    HW231140   3.096   4.313   3.138 -1.2527 -0.6255  1.8507
 6561SOL     OW31141   0.555   1.395   7.925  0.2319 -0.4135  0.8042
 6561SOL    HW131142   0.609   1.411   8.003  0.1997 -0.3086  0.8058
 6561SOL    HW231143   0.612   1.371   7.852 -0.3952 -1.9396  0.8109
 6562SOL     OW31144   0.607   2.794   4.266 -0.0748 -0.8523  0.0277
 6562SOL    HW131145   0.609   2.707   4.225 -2.2083 -0.7356 -0.2922
 6562SOL    HW231146   0.520   2.819   4.235  1.6001  2.3515 -2.0171
 6563SOL     OW31147   0.207   1.833   6.030 -0.3957  0.2589  0.4723
 6563SOL    HW131148   0.225   1.845   5.936  0.4768  1.3423  0.7825
 6563SOL    HW231149   0.114   1.815   6.035 -1.0841  3.4763 -0.7750
 6564SOL     OW31150   0.136   0.156   8.442  0.5030  0.0971 -0.1263
 6564SOL    HW131151   0.181   0.083   8.399 -1.1849  0.7973 -3.0700
 6564SOL    HW231152   0.075   0.195   8.381 -0.8366 -1.5905  0.1457
 6565SOL     OW31153   0.582   0.027   7.302  0.3391  0.0531  0.1410
 6565SOL    HW131154   0.516   0.063   7.243  1.1142  0.7547 -0.2860
 6565SOL    HW231155   0.529   4.703   7.366  0.2942  2.6423  2.0099
 6566SOL     OW31156   2.870   1.428  14.812  0.5385  0.1742 -0.1410
 6566SOL    HW131157   2.803   1.393  14.753 -0.3455 -2.4992  2.4638
 6566SOL    HW231158   2.922   1.348  14.827  0.1201 -0.2562 -0.9707
 6567SOL     OW31159   1.395   1.906   4.869 -0.6802 -0.3183 -0.3999
 6567SOL    HW131160   1.470   1.853   4.842  1.0182  0.8983  1.9078
 6567SOL    HW231161   1.382   1.882   4.960 -1.7195 -0.1885 -0.5187
 6568SOL     OW31162   0.796   3.153   5.826  0.6684  0.0787 -0.2370
 6568SOL    HW131163   0.749   3.236   5.822  1.7293  0.6101 -1.4596
 6568SOL    HW231164   0.879   3.173   5.782  1.0952  1.6719  1.2960
 6569SOL     OW31165   4.044   3.231   4.100 -0.1121  0.0512 -0.0429
 6569SOL    HW131166   3.958   3.190   4.104  0.3204 -0.9563 -0.9471
 6569SOL    HW231167   4.094   3.184   4.033 -1.0927  0.6439 -1.1894
 6570SOL     OW31168   0.832   2.278   1.264  0.2426  0.5102  0.4803
 6570SOL    HW131169   0.736   2.286   1.264  0.2857  0.9999  0.5552
 6570SOL    HW231170   0.855   2.214   1.331 -2.8630 -0.8885  0.2279
 6571SOL     OW31171   2.465   1.834  12.906 -0.7982  0.2601 -0.1176
 6571SOL    HW131172   2.383   1.878  12.880 -0.0721  0.6528 -1.7873
 6571SOL    HW231173   2.428   1.768  12.964  1.5252 -0.8359  0.0841
 6572SOL     OW31174   3.640   4.377   7.708  0.2265 -0.1477  0.2797
 6572SOL    HW131175   3.645   4.375   7.613  0.0534  1.3391  0.2543
 6572SOL    HW231176   3.629   4.282   7.717  0.8371 -0.0041  2.4544
 6573SOL     OW31177   1.923   3.487   1.811 -0.4075 -0.2906 -0.0889
 6573SOL    HW131178   1.934   3.400   1.773 -2.0805 -0.2839 -0.5708
 6573SOL    HW231179   1.873   3.467   1.890  0.2701  3.1079  1.1869
 6574SOL     OW31180   4.120   2.138   7.894 -0.1279 -0.2500  0.3865
 6574SOL    HW131181   4.066   2.105   7.822 -1.9396  3.7537 -0.1086
 6574SOL    HW231182   4.199   2.171   7.852 -0.7840  0.5855 -0.1920
 6575SOL     OW31183   2.120   1.298   3.401 -0.2506  0.1275  0.5996
 6575SOL    HW131184   2.164   1.380   3.425  0.2581 -0.4925  1.7349
 6575SOL    HW231185   2.185   1.232   3.423  0.0948  0.9185  1.9533
 6576SOL     OW31186   4.717   1.580  13.096 -0.3171 -0.9817 -0.6480
 6576SOL    HW131187   0.028   1.529  13.023  0.5174 -0.0799 -0.8752
 6576SOL    HW231188   4.650   1.627  13.047 -1.2284 -1.8477 -0.2512
 6577SOL     OW31189   1.949   4.212  16.684  0.1814  0.1589 -0.4118
 6577SOL    HW131190   1.967   4.306  16.694  0.9084  0.0841 -1.0388
 6577SOL    HW231191   1.869   4.208  16.737  0.6709 -0.0457  0.3215
 6578SOL     OW31192   3.475   2.178   8.349  0.4079  0.3437  0.1700
 6578SOL    HW131193   3.427   2.254   8.318  1.5353  1.1441  0.3817
 6578SOL    HW231194   3.549   2.213   8.399 -0.3569  0.1497  1.4124
 6579SOL     OW31195   4.321   1.535   4.353  0.1924  0.8509  0.8132
 6579SOL    HW131196   4.391   1.555   4.415  2.0828  1.2209 -1.4405
 6579SOL    HW231197   4.324   1.442   4.376 -1.9846  0.3722 -0.9176
 6580SOL     OW31198   4.062   1.341   2.912 -0.3196 -0.0574  0.5895
 6580SOL    HW131199   3.971   1.314   2.923 -0.2367  0.2825  2.0278
 6580SOL    HW231200   4.065   1.399   2.836 -0.2247 -0.4230  0.3073
 6581SOL     OW31201   3.548   4.134   8.513  0.3160 -0.5238 -0.5196
 6581SOL    HW131202   3.609   4.111   8.444 -1.6979 -0.7802 -2.2056
 6581SOL    HW231203   3.582   4.090   8.591 -0.0139 -0.2158 -0.2001
 6582SOL     OW31204   2.126   3.170   2.274  0.0964 -0.0810  1.0504
 6582SOL    HW131205   2.153   3.219   2.352 -0.2686 -0.1191  1.1976
 6582SOL    HW231206   2.145   3.084   2.310  0.9582  0.1144  1.0671
 6583SOL     OW31207   2.537   4.246   8.260 -0.1982  0.7006  0.0251
 6583SOL    HW131208   2.476   4.282   8.325  1.3211  0.3482  1.6298
 6583SOL    HW231209   2.479   4.220   8.188  1.6300 -1.3872 -0.7090
 6584SOL     OW31210   4.584   4.142   6.841  0.2643 -0.3740  0.1066
 6584SOL    HW131211   4.496   4.134   6.803  0.4858  0.4898 -0.5847
 6584SOL    HW231212   4.617   4.053   6.828 -0.0581 -0.3138 -1.1584
 6585SOL     OW31213   1.110   1.909   4.892  0.5233 -0.5386 -0.1250
 6585SOL    HW131214   1.061   1.891   4.811 -0.6497 -0.4235  0.5597
 6585SOL    HW231215   1.199   1.876   4.878  1.0992  0.4809  1.1258
 6586SOL     OW31216   1.658   1.252   8.604  0.5339  0.0556 -0.4141
 6586SOL    HW131217   1.665   1.190   8.531 -1.4647 -1.4086  0.6699
 6586SOL    HW231218   1.745   1.253   8.644  1.1658 -0.9549 -1.7714
 6587SOL     OW31219   0.404   1.735   4.568  0.0916  0.9416  0.3492
 6587SOL    HW131220   0.475   1.684   4.608  1.3119  1.2895 -1.4011
 6587SOL    HW231221   0.374   1.660   4.516  0.6428 -0.1837  1.6437
 6588SOL     OW31222   4.620   0.673   8.756  0.0380 -0.4387  0.1428
 6588SOL    HW131223   4.542   0.636   8.715  0.2329  1.5951 -2.0511
 6588SOL    HW231224   4.684   0.601   8.760  0.4299  0.0173  1.8974
 6589SOL     OW31225   3.056   0.954   4.213  0.0556  0.1841 -0.0390
 6589SOL    HW131226   3.087   0.879   4.161  1.9147  1.5523 -0.9253
 6589SOL    HW231227   2.975   0.908   4.235  0.4315 -0.0462  0.8290
 6590SOL     OW31228   3.799   3.364   5.715  0.1878 -0.2254  0.4323
 6590SOL    HW131229   3.810   3.288   5.657 -2.1260  2.4443 -3.5089
 6590SOL    HW231230   3.705   3.382   5.712  0.7270  2.5768  0.9737
 6591SOL     OW31231   2.007   1.805  11.098 -0.2047 -0.0566 -0.4991
 6591SOL    HW131232   1.938   1.832  11.158  0.3140  0.7781 -0.2876
 6591SOL    HW231233   1.958   1.823  11.018  1.2592  0.0544 -1.3889
 6592SOL     OW31234   4.128   0.528   6.389 -0.1351  0.3737  0.0162
 6592SOL    HW131235   4.213   0.485   6.387 -0.9862 -1.3739  1.4469
 6592SOL    HW231236   4.074   0.455   6.420  0.5004  0.4548  1.3326
 6593SOL     OW31237   2.777   4.300   2.314  0.0194  0.9825 -0.0533
 6593SOL    HW131238   2.867   4.293   2.282 -0.4437 -0.4713 -1.0199
 6593SOL    HW231239   2.727   4.290   2.233 -0.5522  0.6262  0.3524
 6594SOL     OW31240   1.974   0.829   9.008  0.2098 -0.3843 -0.1002
 6594SOL    HW131241   1.998   0.918   9.036  2.9995 -0.3523 -2.6224
 6594SOL    HW231242   1.983   0.839   8.913  2.4969 -0.2021  0.1242
 6595SOL     OW31243   2.853   0.815   4.409 -0.6280  0.1418  0.8438
 6595SOL    HW131244   2.874   0.780   4.496  1.8143  1.5204  0.8030
 6595SOL    HW231245   2.774   0.860   4.439 -0.9688 -1.1749  1.9355
 6596SOL     OW31246   3.072   1.674   3.511 -0.3432  0.3332  0.1643
 6596SOL    HW131247   3.140   1.632   3.458  1.2548  2.0723  0.8465
 6596SOL    HW231248   3.062   1.615   3.586  1.0981  1.6481  1.4039
 6597SOL     OW31249   4.084   1.896   7.201  0.3778  0.4174  0.1671
 6597SOL    HW131250   4.076   1.811   7.245 -0.2394  0.5745  0.3573
 6597SOL    HW231251   4.114   1.949   7.274  0.9848 -0.1407  0.3234
 6598SOL     OW31252   0.206   3.282   7.224 -0.0223  0.3695  0.0995
 6598SOL    HW131253   0.167   3.316   7.143  1.2600 -2.0963 -1.5468
 6598SOL    HW231254   0.132   3.283   7.285  0.4439  0.9389  0.6611
 6599SOL     OW31255   1.324   1.967   4.223 -0.0917  0.5206 -0.6112
 6599SOL    HW131256   1.397   2.030   4.226 -1.2538  1.8694 -0.7282
 6599SOL    HW231257   1.256   2.027   4.192 -0.0358  0.8152 -0.1574
 6600SOL     OW31258   1.462   1.756   3.717 -0.1590 -0.0132 -0.3691
 6600SOL    HW131259   1.418   1.721   3.640 -0.0418  0.7092 -0.7701
 6600SOL    HW231260   1.471   1.847   3.687  0.4287 -0.6790 -2.1908
 6601SOL     OW31261   1.097   2.234  10.704  0.4046  0.3804 -0.7110
 6601SOL    HW131262   1.012   2.256  10.741  1.5059  2.0085  0.7963
 6601SOL    HW231263   1.074   2.171  10.636 -0.7020 -0.6835  0.6445
 6602SOL     OW31264   3.853   2.039   0.946 -0.4038  0.7041 -0.1665
 6602SOL    HW131265   3.935   2.076   0.978 -0.6757  1.2579 -0.1091
 6602SOL    HW231266   3.887   1.977   0.881 -1.2779  1.0291 -0.9418
 6603SOL     OW31267   1.450   0.026   7.738 -0.6046  0.0439  0.0978
 6603SOL    HW131268   1.453   0.112   7.697  1.2083 -0.1697 -0.2235
 6603SOL    HW231269   1.483   0.068   7.817  1.3939  0.3297 -0.8786
 6604SOL     OW31270   2.914   3.987  15.587 -0.1085  0.2588  0.5839
 6604SOL    HW131271   2.921   4.073  15.629  0.2696  0.0915  0.8552
 6604SOL    HW231272   2.936   4.018  15.499 -0.2315 -1.1954  0.0430
 6605SOL     OW31273   1.523   2.418   4.798 -0.9467 -0.0130 -0.3196
 6605SOL    HW131274   1.522   2.323   4.790 -1.3348 -0.1935  1.7798
 6605SOL    HW231275   1.438   2.443   4.836 -0.4436 -1.6592  1.9035
 6606SOL     OW31276   3.094   0.234  14.376  0.1932  0.2251 -0.4258
 6606SOL    HW131277   3.144   0.244  14.295 -1.5153  1.2416 -1.3653
 6606SOL    HW231278   3.007   0.213  14.344  0.7806 -1.5752 -0.8222
 6607SOL     OW31279   3.885   1.495   7.341  0.2900 -0.5634  0.0324
 6607SOL    HW131280   3.905   1.577   7.386 -1.3784 -0.7609  1.1510
 6607SOL    HW231281   3.810   1.455   7.386 -1.3911 -1.5584 -3.6009
 6608SOL     OW31282   2.694   3.283  14.030 -0.2986  0.0720 -0.1229
 6608SOL    HW131283   2.735   3.301  13.945 -0.0609  2.8296  0.5694
 6608SOL    HW231284   2.779   3.286  14.073 -0.8172 -1.5306  1.0064
 6609SOL     OW31285   4.600   0.680   4.584  0.2047  0.2543 -0.4505
 6609SOL    HW131286   4.611   0.607   4.522  1.3617 -0.1024  0.1838
 6609SOL    HW231287   4.509   0.701   4.564 -0.5881 -0.0302  2.9304
 6610SOL     OW31288   0.255   1.376   2.415 -0.8874 -0.1976 -0.2486
 6610SOL    HW131289   0.255   1.299   2.359  0.2015  0.3700 -1.0367
 6610SOL    HW231290   0.184   1.370   2.478  0.0177  0.9961  0.9109
 6611SOL     OW31291   1.072   0.409   7.334  0.2831  0.0475  0.5666
 6611SOL    HW131292   1.099   0.320   7.358  0.5649  0.1052  0.4605
 6611SOL    HW231293   0.997   0.428   7.391 -0.4371 -0.2426 -0.2782
 6612SOL     OW31294   3.872   3.645   2.238 -0.0027  0.3124  0.2115
 6612SOL    HW131295   3.803   3.579   2.224 -0.0676  0.4943 -0.3421
 6612SOL    HW231296   3.936   3.586   2.199 -0.4149  0.3185 -0.4768
 6613SOL     OW31297   2.401   3.225  13.463  0.3950  0.1347  0.5760
 6613SOL    HW131298   2.428   3.314  13.443 -1.5935  0.5189 -0.3687
 6613SOL    HW231299   2.312   3.231  13.430 -0.2514 -1.0260  2.0783
 6614SOL     OW31300   0.769   1.519   8.845  0.0107  0.2699  0.5712
 6614SOL    HW131301   0.861   1.543   8.846  0.0397  0.1839 -0.1090
 6614SOL    HW231302   0.744   1.551   8.932 -0.6573 -0.2312  0.5647
 6615SOL     OW31303   2.544   0.719   4.283  0.0011 -0.0398  0.0732
 6615SOL    HW131304   2.502   0.803   4.269  1.2652  0.5410 -0.2003
 6615SOL    HW231305   2.613   0.727   4.218  0.2209  0.2624  0.3474
 6616SOL     OW31306   0.947   0.856   2.698 -0.3250 -0.5082  0.3037
 6616SOL    HW131307   0.872   0.914   2.686 -1.2942 -1.9314 -0.5814
 6616SOL    HW231308   0.917   0.770   2.668 -0.6211 -0.7354  1.2453
 6617SOL     OW31309   2.410   2.502   5.776 -0.0233 -0.8036 -0.0171
 6617SOL    HW131310   2.459   2.583   5.791 -0.0081 -1.4606  3.4827
 6617SOL    HW231311   2.341   2.529   5.716  0.6764 -0.5415 -0.7029
 6618SOL     OW31312   1.273   0.678   7.756 -0.4108  0.3525 -0.3768
 6618SOL    HW131313   1.324   0.651   7.680 -0.7425 -0.7772 -0.1944
 6618SOL    HW231314   1.269   0.602   7.813 -1.7139  0.8338  0.1860
 6619SOL     OW31315   0.484   4.071   6.174  0.1926  0.2990 -0.2987
 6619SOL    HW131316   0.522   4.053   6.260 -1.8330  0.1826  0.5702
 6619SOL    HW231317   0.411   4.010   6.170  1.2722 -0.9660 -0.9650
 6620SOL     OW31318   4.646   2.496   3.534  0.1088  0.3910  0.5608
 6620SOL    HW131319   4.579   2.524   3.472 -0.6976 -1.0179  0.7986
 6620SOL    HW231320   4.716   2.549   3.496 -0.9082  1.5858  0.3754
 6621SOL     OW31321   4.647   0.019   6.218 -0.6842  0.3736  0.4152
 6621SOL    HW131322   4.569   4.712   6.173  0.2147  2.1156 -2.3503
 6621SOL    HW231323   4.670   0.096   6.166 -0.3591  1.5942  2.3426
 6622SOL     OW31324   4.581   1.380   2.299  0.2299  0.3361  0.8856
 6622SOL    HW131325   4.526   1.400   2.223  0.3841 -1.5985  0.2693
 6622SOL    HW231326   4.601   1.292   2.268 -1.2685  0.0882  0.5932
 6623SOL     OW31327   3.816   3.817   9.350  0.2207 -0.3563 -0.4263
 6623SOL    HW131328   3.783   3.756   9.417 -2.5520  1.3644 -0.2245
 6623SOL    HW231329   3.867   3.880   9.402 -0.2144 -0.4077  0.0711
 6624SOL     OW31330   3.028   2.573   7.130  0.1458 -0.3870  0.0327
 6624SOL    HW131331   2.992   2.485   7.124  0.3443 -0.5432  1.2107
 6624SOL    HW231332   3.122   2.552   7.126  0.3813  0.6681 -0.0309
 6625SOL     OW31333   4.354   4.263   9.967 -0.0985  0.4160  0.3599
 6625SOL    HW131334   4.407   4.323  10.019  0.2527  0.2965  0.1380
 6625SOL    HW231335   4.358   4.301   9.880  2.0645 -2.6939 -0.8987
 6626SOL     OW31336   4.473   1.812   4.668 -0.2776  0.0542 -0.6389
 6626SOL    HW131337   4.505   1.873   4.735  0.6774 -0.0279 -1.0131
 6626SOL    HW231338   4.402   1.863   4.629  0.8139 -0.1793 -2.9313
 6627SOL     OW31339   2.163   3.311  12.891 -0.0372 -0.7431  0.7797
 6627SOL    HW131340   2.168   3.217  12.876 -0.8748 -0.8030  0.8445
 6627SOL    HW231341   2.068   3.311  12.903 -0.0367 -2.7838  0.7373
 6628SOL     OW31342   4.709   2.733  14.295  0.6724  0.6463 -0.0962
 6628SOL    HW131343   4.642   2.798  14.276 -0.0670  0.1722  0.9192
 6628SOL    HW231344   4.697   2.727  14.390 -0.7203  1.5623 -0.2201
 6629SOL     OW31345   3.123   3.686   6.098 -0.2231 -0.4737 -0.6404
 6629SOL    HW131346   3.153   3.714   6.012  1.1906 -0.5875 -0.1803
 6629SOL    HW231347   3.032   3.699   6.072 -0.5234 -1.7437 -0.2204
 6630SOL     OW31348   2.873   3.049   0.710 -0.0819  0.1462 -0.3434
 6630SOL    HW131349   2.867   3.017   0.800  1.6112  0.5762 -0.0836
 6630SOL    HW231350   2.847   2.974   0.656 -1.3672 -0.6485  1.3753
 6631SOL     OW31351   1.416   4.657   8.206 -0.2914  0.8562 -0.4348
 6631SOL    HW131352   1.335   4.691   8.169 -0.6611  0.6697  0.2164
 6631SOL    HW231353   1.470   0.013   8.214  1.2198 -0.3114  0.9611
 6632SOL     OW31354   1.875   2.058   3.261 -0.6978 -0.3059 -0.1489
 6632SOL    HW131355   1.827   2.102   3.331  0.3154  0.8939 -0.2018
 6632SOL    HW231356   1.808   1.996   3.233 -1.2682  0.6017 -0.8022
 6633SOL     OW31357   3.826   4.709   9.755  0.1993 -0.0043 -0.2591
 6633SOL    HW131358   3.830   4.637   9.818 -1.0978  0.8447  0.7910
 6633SOL    HW231359   3.809   4.653   9.680  0.5950 -1.0576  0.4281
 6634SOL     OW31360   4.646   0.784   0.558 -0.4078 -0.2942 -0.3306
 6634SOL    HW131361   4.665   0.834   0.478 -1.6565 -0.6410 -0.8555
 6634SOL    HW231362   4.562   0.750   0.525 -0.3041  0.7690 -1.6932
 6635SOL     OW31363   4.580   3.706   9.049 -0.2540  0.3134 -0.2416
 6635SOL    HW131364   4.652   3.758   9.084 -1.4706  1.3077  0.7401
 6635SOL    HW231365   4.542   3.666   9.127 -1.1227  0.7433 -0.4465
 6636SOL     OW31366   4.486   3.737   4.497 -0.0189 -0.2254  0.3743
 6636SOL    HW131367   4.467   3.729   4.404 -0.1554  1.3832  0.2592
 6636SOL    HW231368   4.570   3.693   4.493  0.3245  0.5435 -0.6901
 6637SOL     OW31369   1.479   0.269   2.269  0.1221  0.1030 -0.3337
 6637SOL    HW131370   1.491   0.176   2.289  0.6524  0.0373 -0.9854
 6637SOL    HW231371   1.486   0.279   2.174  0.3519 -1.6936 -0.5140
 6638SOL     OW31372   1.532   0.212   8.311  0.3749 -0.2957 -0.1354
 6638SOL    HW131373   1.452   0.195   8.360 -1.4781  1.6055 -2.5034
 6638SOL    HW231374   1.598   0.165   8.362 -0.9315  0.2743  2.0596
 6639SOL     OW31375   2.636   1.271  13.315  0.3628 -0.1183  0.0933
 6639SOL    HW131376   2.655   1.308  13.229 -2.1806  0.5034 -0.2207
 6639SOL    HW231377   2.573   1.336  13.346  1.7656  0.8350  0.9265
 6640SOL     OW31378   1.410   3.736   1.299 -0.3412  0.2179 -0.1304
 6640SOL    HW131379   1.382   3.678   1.228 -1.5869 -0.4801  0.9377
 6640SOL    HW231380   1.503   3.714   1.306 -0.0531  1.4038 -0.2437
 6641SOL     OW31381   0.795   1.424   3.787 -0.1743  0.2111  0.5167
 6641SOL    HW131382   0.887   1.446   3.802  0.3478 -1.0487 -0.8756
 6641SOL    HW231383   0.791   1.331   3.810 -3.0194  0.0058 -0.7355
 6642SOL     OW31384   2.546   3.311   7.820 -0.0244 -0.7828 -0.1611
 6642SOL    HW131385   2.454   3.319   7.795  0.7382  1.8724 -2.0804
 6642SOL    HW231386   2.589   3.385   7.778 -0.0266 -0.2430  0.7825
 6643SOL     OW31387   3.971   2.332   8.648 -0.0044  0.4368 -0.1032
 6643SOL    HW131388   4.012   2.389   8.713 -1.2600  2.6896 -1.2891
 6643SOL    HW231389   3.981   2.379   8.565  0.5003 -0.1854 -0.3976
 6644SOL     OW31390   2.907   1.769   4.813 -0.6763 -0.0768  0.6544
 6644SOL    HW131391   2.867   1.811   4.889 -0.0149  1.3771  0.1984
 6644SOL    HW231392   2.907   1.841   4.750 -1.3112 -0.1106  0.6152
 6645SOL     OW31393   0.878   2.823   5.282  0.7565 -0.6548 -0.1195
 6645SOL    HW131394   0.917   2.824   5.370  0.1705 -1.1594  0.1479
 6645SOL    HW231395   0.915   2.747   5.238  0.6598 -1.1930  0.7330
 6646SOL     OW31396   0.571   2.433   8.490  0.2318  0.3291  0.3185
 6646SOL    HW131397   0.661   2.406   8.508  0.2852  1.1260  1.2229
 6646SOL    HW231398   0.539   2.463   8.574 -0.9804  0.3843 -0.1651
 6647SOL     OW31399   0.568   2.016  10.602  0.4162  0.4517 -0.2139
 6647SOL    HW131400   0.601   2.100  10.572  2.0044 -0.4443 -0.9698
 6647SOL    HW231401   0.641   1.977  10.652  1.2456  0.2151 -1.6203
 6648SOL     OW31402   1.445   0.219  17.402  0.2181  0.1014  0.3367
 6648SOL    HW131403   1.530   0.176  17.412 -0.4074 -1.3085 -0.2954
 6648SOL    HW231404   1.461   0.311  17.422  0.3103  0.0268  0.5984
 6649SOL     OW31405   0.406   1.479   7.058 -0.0818  0.2994 -0.4076
 6649SOL    HW131406   0.349   1.473   7.135 -0.1719  0.5853 -0.4521
 6649SOL    HW231407   0.403   1.388   7.026  0.3567  0.2344 -0.2584
 6650SOL     OW31408   3.012   3.833   1.804 -0.0183 -0.0713  0.4186
 6650SOL    HW131409   3.087   3.780   1.779  0.1630 -0.0697  0.9642
 6650SOL    HW231410   3.036   3.863   1.891  2.7102 -0.6937 -0.1482
 6651SOL     OW31411   2.676   3.986   4.947 -0.0161  0.3565 -0.3228
 6651SOL    HW131412   2.584   3.986   4.974  0.0401  0.1763 -0.1313
 6651SOL    HW231413   2.707   4.073   4.970 -0.2796  0.8067 -1.6901
 6652SOL     OW31414   4.176   4.724  13.083  0.1550  0.1911  0.1290
 6652SOL    HW131415   4.167   0.068  13.150  0.8296 -0.2477  0.6571
 6652SOL    HW231416   4.177   0.060  13.008  0.4540 -1.0934 -0.8873
 6653SOL     OW31417   3.620   3.110   2.240  0.3525  0.1941  0.1194
 6653SOL    HW131418   3.532   3.118   2.278  1.5848  0.7863  2.8994
 6653SOL    HW231419   3.621   3.168   2.164 -0.0147 -2.4138 -1.8613
 6654SOL     OW31420   0.570   2.003   0.181 -0.0007 -0.5065  0.0242
 6654SOL    HW131421   0.627   1.991   0.105  0.6203 -1.0421  0.5721
 6654SOL    HW231422   0.555   1.909   0.196 -1.3480 -0.2454  0.2661
 6655SOL     OW31423   4.546   1.870  16.975 -0.2547 -0.3322 -0.5817
 6655SOL    HW131424   4.463   1.908  16.947  0.4195 -0.0398 -2.1773
 6655SOL    HW231425   4.606   1.941  16.998 -0.2826 -0.1549 -1.0558
 6656SOL     OW31426   0.197   4.002  13.392  0.0311 -0.3167 -0.3110
 6656SOL    HW131427   0.181   4.096  13.390  3.0692  0.1933 -0.6942
 6656SOL    HW231428   0.260   3.988  13.321  1.5649 -0.0413  0.9962
 6657SOL     OW31429   3.796   2.484   5.409 -0.1309  0.3292 -0.8056
 6657SOL    HW131430   3.790   2.569   5.366  1.8205  0.1704 -1.3952
 6657SOL    HW231431   3.873   2.499   5.463 -0.0991 -0.1869 -0.7084
 6658SOL     OW31432   3.951   2.061   5.870 -0.4461 -0.1054  0.3884
 6658SOL    HW131433   3.945   1.983   5.814  2.9519 -0.9174  1.2050
 6658SOL    HW231434   3.883   2.041   5.934 -1.7089  1.3238 -0.4832
 6659SOL     OW31435   1.857   2.291   7.116 -0.0575 -0.4163 -0.3246
 6659SOL    HW131436   1.913   2.367   7.098 -1.1888 -0.3064 -3.3280
 6659SOL    HW231437   1.772   2.330   7.135  0.4719 -0.1621  1.5168
 6660SOL     OW31438   3.326   4.431   7.002  0.0640  0.1760  0.3700
 6660SOL    HW131439   3.391   4.397   7.064  1.4532 -2.2268 -2.3660
 6660SOL    HW231440   3.329   4.523   7.026  0.2530  0.1383  0.4976
 6661SOL     OW31441   1.075   3.788   3.909 -0.3138  0.1715 -0.5241
 6661SOL    HW131442   1.054   3.706   3.866 -0.0732  0.4501 -1.1638
 6661SOL    HW231443   1.064   3.760   4.000  0.0163 -1.2297 -0.9132
 6662SOL     OW31444   0.195   1.812   5.771  0.6071 -0.3789 -0.2363
 6662SOL    HW131445   0.150   1.731   5.751 -4.4494  2.3260  0.3681
 6662SOL    HW231446   0.261   1.804   5.702  0.1970 -2.6516 -0.3552
 6663SOL     OW31447   0.555   3.368   0.434 -0.5189 -0.1139 -0.7623
 6663SOL    HW131448   0.491   3.374   0.506 -0.9164  0.5643 -1.1695
 6663SOL    HW231449   0.579   3.276   0.443  1.5706  0.5376  0.4021
 6664SOL     OW31450   2.929   0.456   4.187  0.3396  0.4341 -0.1749
 6664SOL    HW131451   2.855   0.395   4.189  2.0060 -1.5470  1.0458
 6664SOL    HW231452   2.984   0.415   4.121 -0.2599 -0.1331 -0.3254
 6665SOL     OW31453   1.311   3.724  17.309  0.7397 -0.2240  0.4030
 6665SOL    HW131454   1.219   3.745  17.326  0.5866 -0.6115  0.0657
 6665SOL    HW231455   1.308   3.629  17.320  0.0283 -0.3372 -0.7578
 6666SOL     OW31456   0.817   0.074   5.033 -0.0744 -0.4641  0.5268
 6666SOL    HW131457   0.828   0.143   5.098 -2.8859 -0.8358  1.3852
 6666SOL    HW231458   0.907   0.042   5.037  0.5060  0.9760 -1.1450
 6667SOL     OW31459   2.686   3.096   0.420 -0.5723  0.0102 -0.6754
 6667SOL    HW131460   2.763   3.046   0.393 -1.4488 -1.1810 -0.9701
 6667SOL    HW231461   2.727   3.181   0.435  0.8380 -0.3970 -2.1251
 6668SOL     OW31462   0.887   0.914   2.302 -0.4633 -0.4780  0.0538
 6668SOL    HW131463   0.982   0.910   2.292 -0.1894  1.3465  1.9359
 6668SOL    HW231464   0.883   1.006   2.278  1.1040 -1.1371 -2.7474
 6669SOL     OW31465   4.678   1.009   3.069  0.6351  0.1790  0.2754
 6669SOL    HW131466   4.590   0.973   3.057  0.6840  0.1940 -0.1115
 6669SOL    HW231467   4.691   0.976   3.158  2.8306 -0.5171 -0.2920
 6670SOL     OW31468   0.237   1.195   8.150 -0.1825  0.3120 -0.1798
 6670SOL    HW131469   0.237   1.213   8.244 -2.8495  0.1446 -0.1610
 6670SOL    HW231470   0.273   1.278   8.119 -0.1461  0.1701 -0.5195
 6671SOL     OW31471   3.275   1.650  13.344  0.0640 -0.0166 -0.3039
 6671SOL    HW131472   3.334   1.574  13.344  1.1885  0.8534 -0.8816
 6671SOL    HW231473   3.209   1.633  13.411  2.1298 -4.0826  0.7511
 6672SOL     OW31474   2.247   1.733   7.950 -0.0068 -0.0691 -0.6346
 6672SOL    HW131475   2.333   1.692   7.940 -1.5372 -2.8537 -2.2122
 6672SOL    HW231476   2.222   1.680   8.025  0.4177 -0.4205 -0.7372
 6673SOL     OW31477   4.504   0.158   9.617 -0.0323  0.4474  0.3480
 6673SOL    HW131478   4.426   0.211   9.634  0.0052  0.8189 -0.6368
 6673SOL    HW231479   4.556   0.222   9.568 -2.2566 -0.1743 -2.7961
 6674SOL     OW31480   2.213   0.309   5.323  0.4036 -0.5940  0.2816
 6674SOL    HW131481   2.156   0.385   5.314 -1.9744 -2.3251  0.8268
 6674SOL    HW231482   2.183   0.267   5.404 -1.1293 -0.2057 -0.0938
 6675SOL     OW31483   4.475   0.895   3.373  0.3567  0.3590  0.1273
 6675SOL    HW131484   4.415   0.913   3.301 -1.2941  1.2345  1.7537
 6675SOL    HW231485   4.532   0.828   3.334  0.6310  1.3208 -1.1247
 6676SOL     OW31486   1.482   3.914   2.281 -0.2734  0.6208 -0.3623
 6676SOL    HW131487   1.398   3.876   2.258 -0.2090  0.7772 -0.8645
 6676SOL    HW231488   1.499   3.959   2.198  0.7556  1.5482  0.3293
 6677SOL     OW31489   3.963   4.424   3.677  0.2883 -0.4333  0.2995
 6677SOL    HW131490   4.040   4.479   3.675  0.5106 -0.7705 -0.5990
 6677SOL    HW231491   3.998   4.337   3.657  0.5814 -0.6657  1.8107
 6678SOL     OW31492   0.842   0.674   6.693 -0.0288  0.3027  0.2036
 6678SOL    HW131493   0.878   0.725   6.765 -0.6895 -0.3793  1.0016
 6678SOL    HW231494   0.817   0.743   6.631 -1.9713 -1.4008 -0.9116
 6679SOL     OW31495   2.046   2.429   6.911  0.1334  0.4651 -0.3747
 6679SOL    HW131496   2.139   2.413   6.896  0.1159 -0.4196  0.4533
 6679SOL    HW231497   2.045   2.517   6.948 -0.2305 -0.9689  3.0016
 6680SOL     OW31498   2.741   0.691   2.800 -0.4916  0.1891  0.1024
 6680SOL    HW131499   2.646   0.689   2.800 -0.5362  2.2438 -0.4876
 6680SOL    HW231500   2.769   0.707   2.709 -0.1481  0.6166  0.2844
 6681SOL     OW31501   2.907   2.092   2.604 -0.0408 -0.0127  0.2926
 6681SOL    HW131502   2.922   2.026   2.672  0.5816  0.2541  0.4154
 6681SOL    HW231503   2.854   2.149   2.660  0.1742  0.2509  0.2327
 6682SOL     OW31504   3.344   4.221   6.096  0.5980 -0.6681 -0.2995
 6682SOL    HW131505   3.396   4.167   6.154 -0.0657 -0.9223  0.0581
 6682SOL    HW231506   3.266   4.168   6.076 -0.4187  0.6840  0.1004
 6683SOL     OW31507   3.031   1.084  13.478  0.0436 -0.8775  0.0843
 6683SOL    HW131508   3.010   1.008  13.423  1.1882 -1.6899  0.7869
 6683SOL    HW231509   2.947   1.130  13.481  0.5471 -0.0364  1.0364
 6684SOL     OW31510   2.963   2.388  15.056 -0.1989  0.0385  0.6235
 6684SOL    HW131511   3.046   2.363  15.015 -1.1382 -0.1731 -1.1525
 6684SOL    HW231512   2.947   2.469  15.008  1.1602  0.3981  0.7794
 6685SOL     OW31513   2.518   1.044  17.127 -0.1259  0.5717  0.2675
 6685SOL    HW131514   2.427   1.066  17.104 -0.3032  1.0953  1.4577
 6685SOL    HW231515   2.494   0.989  17.202 -0.8512 -0.3661 -0.6405
 6686SOL     OW31516   4.447   4.353   1.732  0.1818 -0.0281  0.0775
 6686SOL    HW131517   4.510   4.326   1.665 -0.6765  3.0344 -1.9546
 6686SOL    HW231518   4.491   4.423   1.780  0.7530 -0.5887  0.3748
 6687SOL     OW31519   2.032   0.227  14.449  0.2487 -0.1191 -0.0094
 6687SOL    HW131520   2.112   0.279  14.454 -0.1541  0.5400 -0.3283
 6687SOL    HW231521   2.066   0.148  14.407  0.1550 -0.6129  0.8577
 6688SOL     OW31522   3.992   1.106   2.004  0.2263  0.9267 -0.4147
 6688SOL    HW131523   3.976   1.193   2.043  1.2683  0.6854  0.5533
 6688SOL    HW231524   4.038   1.060   2.074 -0.7040  0.0118 -0.4033
 6689SOL     OW31525   0.497   3.307  10.302 -0.0933  0.3449  0.6808
 6689SOL    HW131526   0.557   3.337  10.234  2.8508 -1.8105  2.3496
 6689SOL    HW231527   0.542   3.333  10.382  0.5657  2.5155 -0.3982
 6690SOL     OW31528   2.565   2.010   3.749 -0.2772  0.5027 -0.1671
 6690SOL    HW131529   2.501   2.058   3.801  0.6297 -0.5071  1.8721
 6690SOL    HW231530   2.581   1.928   3.796  0.0701  0.8760  0.3567
 6691SOL     OW31531   1.557   2.214   4.473  0.2282  0.1602 -0.3368
 6691SOL    HW131532   1.625   2.254   4.528  0.3750 -0.3906 -0.1180
 6691SOL    HW231533   1.536   2.142   4.533  0.3767 -0.1760 -0.6882
 6692SOL     OW31534   4.271   2.968   5.436  0.1209  0.1061  0.0707
 6692SOL    HW131535   4.343   2.975   5.499 -0.7507 -1.1722  1.1953
 6692SOL    HW231536   4.242   3.057   5.455 -0.0894  0.3749 -1.4467
 6693SOL     OW31537   1.584   2.979  10.998  0.0162 -0.2931 -0.4154
 6693SOL    HW131538   1.538   2.997  11.079 -1.3522 -2.2360 -0.7528
 6693SOL    HW231539   1.671   2.950  11.026  0.9860  1.0638 -2.0193
 6694SOL     OW31540   4.545   1.692  12.901  0.3492  0.2034 -0.2328
 6694SOL    HW131541   4.467   1.748  12.904 -0.2604 -0.7173  0.9100
 6694SOL    HW231542   4.533   1.648  12.817 -0.3268  0.1906 -0.1357
 6695SOL     OW31543   1.526   2.000   9.175  1.0242  0.2448  0.0822
 6695SOL    HW131544   1.497   1.922   9.221 -0.4412  0.7920  0.0728
 6695SOL    HW231545   1.580   2.047   9.238 -0.6721  2.2816  0.0247
 6696SOL     OW31546   2.559   4.057   5.582 -0.3692 -0.9009 -0.2039
 6696SOL    HW131547   2.531   4.091   5.497 -2.4162 -0.8901  0.4727
 6696SOL    HW231548   2.655   4.062   5.574 -0.2333 -1.5990  0.9535
 6697SOL     OW31549   0.041   4.294   3.739 -0.1360 -0.2310 -0.0829
 6697SOL    HW131550   0.043   4.198   3.738  0.3202 -0.2610  2.7701
 6697SOL    HW231551   0.107   4.308   3.671  0.6077  2.5594  1.2157
 6698SOL     OW31552   1.101   1.930   1.076 -0.1526 -0.0195 -0.4611
 6698SOL    HW131553   1.179   1.974   1.110 -0.8765 -1.0018  2.4350
 6698SOL    HW231554   1.055   2.008   1.047 -1.4109  0.4697  2.8851
 6699SOL     OW31555   3.489   1.007   5.129 -0.2938  0.0896 -0.4462
 6699SOL    HW131556   3.562   1.024   5.189 -0.2647 -0.6195 -0.2759
 6699SOL    HW231557   3.485   0.911   5.136  1.3821  0.2057  2.3143
 6700SOL     OW31558   0.783   4.602   0.157  0.2129  0.0906  0.0866
 6700SOL    HW131559   0.831   4.656   0.094  0.5624 -0.7516 -0.3769
 6700SOL    HW231560   0.846   4.574   0.223 -0.0620 -1.7394 -0.4328
 6701SOL     OW31561   2.856   3.810   8.172 -0.0969  0.3801 -0.1613
 6701SOL    HW131562   2.776   3.848   8.209 -0.0330 -0.9822  1.3431
 6701SOL    HW231563   2.882   3.754   8.245  1.2261  0.3046 -0.6831
 6702SOL     OW31564   1.902   2.112   1.062  0.1074  0.0460 -0.1533
 6702SOL    HW131565   1.843   2.038   1.046  1.0923 -1.2210  2.0184
 6702SOL    HW231566   1.839   2.184   1.063 -1.1673 -1.0647 -1.4841
 6703SOL     OW31567   2.207   1.663   4.502 -0.1436 -0.0908  0.5899
 6703SOL    HW131568   2.116   1.667   4.473 -0.3565  0.4341  1.3426
 6703SOL    HW231569   2.224   1.569   4.502 -1.9920 -0.4290  2.2280
 6704SOL     OW31570   3.361   3.568   3.718  0.5774  0.3231  0.2958
 6704SOL    HW131571   3.426   3.511   3.677  0.5069 -0.9266  1.9223
 6704SOL    HW231572   3.310   3.598   3.642 -2.7446  0.2181  2.4958
 6705SOL     OW31573   1.822   4.308  17.689 -0.7570 -0.5142  0.5286
 6705SOL    HW131574   1.761   4.258  17.636 -0.2246 -0.8681  0.2456
 6705SOL    HW231575   1.762   4.324   0.066  0.6866  0.7526  1.4549
 6706SOL     OW31576   3.624   0.626  15.431 -0.4530  0.2257 -0.1277
 6706SOL    HW131577   3.648   0.559  15.494 -2.5947 -1.1452 -0.7817
 6706SOL    HW231578   3.600   0.699  15.488  0.9651  0.6488 -0.0694
 6707SOL     OW31579   0.207   3.418   8.192  0.2328  0.5015  0.2128
 6707SOL    HW131580   0.300   3.416   8.169  0.4729  6.0722  0.7185
 6707SOL    HW231581   0.183   3.510   8.202 -2.7503 -0.3759  0.9256
 6708SOL     OW31582   1.015   3.859   5.778 -0.1844 -0.0479 -0.6236
 6708SOL    HW131583   1.020   3.893   5.688 -2.5824  0.1280 -0.6977
 6708SOL    HW231584   0.919   3.852   5.782  0.0898 -1.3301  3.0459
 6709SOL     OW31585   2.624   0.340   2.889 -0.4893  0.0654 -0.7621
 6709SOL    HW131586   2.548   0.308   2.937 -0.6496 -1.7295 -2.1810
 6709SOL    HW231587   2.584   0.362   2.804 -0.7650 -0.2526 -0.7146
 6710SOL     OW31588   3.518   0.079   3.536  0.0599  0.5673 -1.0453
 6710SOL    HW131589   3.494   0.050   3.448 -1.6407  1.4882 -0.8769
 6710SOL    HW231590   3.606   0.042   3.549 -0.1931  0.0885 -0.7186
 6711SOL     OW31591   3.284   0.078  13.488  0.5196  0.3504  0.1227
 6711SOL    HW131592   3.315   0.084  13.398  1.3188 -4.4367  0.0867
 6711SOL    HW231593   3.347   0.127  13.541 -0.0164  2.7249 -1.4417
 6712SOL     OW31594   4.143   1.017   7.556  0.4178 -0.2137  0.1788
 6712SOL    HW131595   4.160   1.041   7.647 -3.5413 -2.4505  1.4901
 6712SOL    HW231596   4.118   0.925   7.567 -1.6296  0.2149 -0.9126
 6713SOL     OW31597   0.267   0.677   8.505  0.2857 -0.3808 -0.4189
 6713SOL    HW131598   0.245   0.766   8.534 -3.4478 -1.5590  0.3815
 6713SOL    HW231599   0.340   0.687   8.444  1.5244 -0.6085  1.0163
 6714SOL     OW31600   2.653   1.758   2.281 -0.0172  0.0791 -0.1353
 6714SOL    HW131601   2.704   1.826   2.324  1.2717 -2.0944  1.7426
 6714SOL    HW231602   2.720   1.694   2.259  0.6047  0.8783 -0.5895
 6715SOL     OW31603   2.960   2.480   6.378 -0.6655  0.0305 -0.0270
 6715SOL    HW131604   3.011   2.447   6.304  0.3660  2.6968 -0.4916
 6715SOL    HW231605   2.923   2.398   6.411  1.0803  0.5716  3.2515
 6716SOL     OW31606   4.016   3.496   4.116  0.5751  0.9672 -0.2675
 6716SOL    HW131607   4.015   3.517   4.210  1.4446  0.8631 -0.2296
 6716SOL    HW231608   4.061   3.411   4.112 -1.0706  0.0561  0.7331
 6717SOL     OW31609   2.717   0.750   7.504  0.3394  0.5234  0.0034
 6717SOL    HW131610   2.644   0.812   7.508  0.3456  0.6864 -2.3210
 6717SOL    HW231611   2.675   0.669   7.476 -0.3886  0.4164  1.4017
 6718SOL     OW31612   3.325   0.434   6.981  0.4986 -0.4073 -0.1136
 6718SOL    HW131613   3.386   0.395   6.918  1.1552  0.0527  0.2323
 6718SOL    HW231614   3.312   0.521   6.943  0.5677 -1.0307 -1.5470
 6719SOL     OW31615   2.630   2.286   6.406  0.0279 -0.3676  0.2167
 6719SOL    HW131616   2.598   2.211   6.457  1.3018 -3.7347 -3.9305
 6719SOL    HW231617   2.707   2.313   6.457  0.3591  1.9016 -1.5190
 6720SOL     OW31618   2.861   3.163   5.371  0.1358  0.2467 -0.6181
 6720SOL    HW131619   2.785   3.192   5.319  0.2621 -1.2626 -1.6387
 6720SOL    HW231620   2.875   3.243   5.423  1.5640  0.1460 -0.8556
 6721SOL     OW31621   0.977   1.183   7.561 -0.4602  0.5443  0.6764
 6721SOL    HW131622   0.943   1.103   7.601 -0.6308  1.1808  1.7979
 6721SOL    HW231623   1.068   1.155   7.553 -0.7609 -0.0357 -0.7936
 6722SOL     OW31624   3.703   4.453   8.157 -0.2225 -0.0996  0.4531
 6722SOL    HW131625   3.699   4.372   8.208  1.5008 -0.9532 -0.7558
 6722SOL    HW231626   3.740   4.509   8.225 -2.8913  2.0338  0.1596
 6723SOL     OW31627   3.962   0.885   3.094 -0.6684 -0.2902 -0.1889
 6723SOL    HW131628   3.929   0.816   3.151 -1.4638 -0.3155 -0.6761
 6723SOL    HW231629   3.978   0.957   3.155  2.6558 -1.5383  0.4080
 6724SOL     OW31630   2.035   4.139  12.800  0.2810 -0.2881  0.1757
 6724SOL    HW131631   2.112   4.135  12.744  0.0863 -0.6307 -0.0643
 6724SOL    HW231632   2.016   4.045  12.803  1.2532 -0.5259 -1.0933
 6725SOL     OW31633   1.043   0.516   1.783  0.1386 -0.1819 -0.2004
 6725SOL    HW131634   1.127   0.493   1.741  0.2782  0.3603 -0.2143
 6725SOL    HW231635   1.042   0.611   1.774 -3.5040 -0.2945 -0.9051
 6726SOL     OW31636   0.858   0.285   6.945  0.5507  0.2168  0.0219
 6726SOL    HW131637   0.898   0.357   6.896  2.8569 -0.5942  0.6977
 6726SOL    HW231638   0.809   0.229   6.886 -0.8962  1.2105  0.2767
 6727SOL     OW31639   0.644   4.344  15.313 -0.0235 -0.0194 -0.5835
 6727SOL    HW131640   0.647   4.420  15.370  1.0982 -1.9730  1.9412
 6727SOL    HW231641   0.694   4.282  15.366 -0.4049  0.2273  0.0646
 6728SOL     OW31642   1.324   2.022   1.233  0.0203  0.5053 -0.0879
 6728SOL    HW131643   1.245   2.039   1.285  0.0797  0.4272  0.0287
 6728SOL    HW231644   1.378   2.100   1.248  1.9962 -0.8173 -0.3567
 6729SOL     OW31645   2.361   0.913   3.143 -0.4012 -0.3988  0.2272
 6729SOL    HW131646   2.332   0.902   3.234 -0.6784  0.7916  0.2784
 6729SOL    HW231647   2.419   0.987   3.161 -0.0839 -0.4359 -0.6557
 6730SOL     OW31648   3.909   4.516   0.278  0.5000  0.2692  0.1827
 6730SOL    HW131649   3.818   4.547   0.280  0.7879  1.0896  0.6413
 6730SOL    HW231650   3.912   4.442   0.338 -2.8239  0.3853  0.5225
 6731SOL     OW31651   3.373   4.502  14.839  0.3447 -0.3286  0.0841
 6731SOL    HW131652   3.466   4.482  14.837  0.2200 -0.9022 -0.0424
 6731SOL    HW231653   3.377   4.598  14.835  1.1011 -0.4406 -1.4082
 6732SOL     OW31654   2.395   0.163   8.573 -0.0420 -0.2900 -0.7997
 6732SOL    HW131655   2.347   0.242   8.549  0.1248  0.2468  0.5967
 6732SOL    HW231656   2.331   0.137   8.639 -0.3981 -0.6197 -1.2787
 6733SOL     OW31657   0.996   2.321   9.204 -0.8640  0.0989  0.0984
 6733SOL    HW131658   0.986   2.406   9.245 -1.4881 -0.5984  1.3982
 6733SOL    HW231659   1.074   2.288   9.248  0.8476  3.3569 -0.5225
 6734SOL     OW31660   2.444   4.476  14.930  0.4381 -0.5306 -0.1895
 6734SOL    HW131661   2.411   4.414  14.995 -1.4147  0.4165 -0.2486
 6734SOL    HW231662   2.536   4.449  14.927  0.8220  0.5508  2.4279
 6735SOL     OW31663   0.476   2.294   9.909 -0.2199 -0.3053 -0.6549
 6735SOL    HW131664   0.434   2.210   9.893 -0.5928  0.0578 -1.6241
 6735SOL    HW231665   0.415   2.353   9.863  0.5739  0.5296 -0.6461
 6736SOL     OW31666   1.711   2.045  10.038  0.2847  0.7858  0.0573
 6736SOL    HW131667   1.628   2.018   9.999  0.8279 -1.1452  0.2256
 6736SOL    HW231668   1.688   2.103  10.111  0.9094  0.3645  0.5957
 6737SOL     OW31669   4.478   3.205   6.645 -0.0068 -0.2772 -1.2106
 6737SOL    HW131670   4.546   3.138   6.638 -0.3488 -0.7276 -0.2005
 6737SOL    HW231671   4.512   3.286   6.606 -1.2400  2.6763  3.7960
 6738SOL     OW31672   2.532   0.847   7.921  0.5782  0.2252 -0.2396
 6738SOL    HW131673   2.509   0.912   7.986  0.1227  1.2785 -1.4504
 6738SOL    HW231674   2.479   0.769   7.937 -1.1116  1.4409  0.0495
 6739SOL     OW31675   3.867   3.620   4.529  0.0049  0.3981  0.1743
 6739SOL    HW131676   3.888   3.536   4.487 -0.3316 -0.2478  1.3141
 6739SOL    HW231677   3.875   3.685   4.458 -1.9686 -0.3511 -0.7308
 6740SOL     OW31678   4.583   2.389   2.449 -0.2353  0.2440  0.4513
 6740SOL    HW131679   4.526   2.317   2.424  2.4054 -1.5094 -0.4508
 6740SOL    HW231680   4.532   2.453   2.398 -0.2717  0.5437  0.8580
 6741SOL     OW31681   0.173   4.197   6.053  0.6199  0.4005  0.0909
 6741SOL    HW131682   0.106   4.176   5.987 -1.1985  0.7012  1.8196
 6741SOL    HW231683   0.180   4.116   6.103  1.4106  0.0552 -0.5795
 6742SOL     OW31684   4.332   3.184   2.015  0.2084 -0.1748  0.0045
 6742SOL    HW131685   4.286   3.242   2.075 -0.0397  1.1257 -1.4688
 6742SOL    HW231686   4.412   3.162   2.063  0.6875  1.0413 -0.2454
 6743SOL     OW31687   4.180   0.120   4.329  0.2552  0.0202 -0.4254
 6743SOL    HW131688   4.216   0.209   4.327 -0.0109  0.1222 -0.8218
 6743SOL    HW231689   4.207   0.081   4.246 -1.2729  0.9615 -1.3826
 6744SOL     OW31690   1.443   1.711   0.413 -0.1587 -0.2466 -0.3705
 6744SOL    HW131691   1.367   1.762   0.442 -0.6565  0.2748 -2.6047
 6744SOL    HW231692   1.402   1.657   0.346 -2.2500  2.7394 -1.4782
 6745SOL     OW31693   3.273   4.718   5.497 -0.1478 -0.5621 -0.6002
 6745SOL    HW131694   3.291   0.027   5.408 -2.2321  1.2093 -0.3876
 6745SOL    HW231695   3.198   4.661   5.480  1.0742 -2.1882 -0.5071
 6746SOL     OW31696   4.243   3.420   2.145  0.7929  0.4376  0.0559
 6746SOL    HW131697   4.276   3.510   2.142 -1.9862  1.5437  2.1297
 6746SOL    HW231698   4.154   3.442   2.172 -0.0410 -0.1605 -2.2357
 6747SOL     OW31699   1.595   2.893   2.160 -0.2080 -0.1800  0.5303
 6747SOL    HW131700   1.589   2.977   2.204  0.4434  1.1143 -1.8441
 6747SOL    HW231701   1.519   2.886   2.102  0.2661  2.1347 -0.3650
 6748SOL     OW31702   2.787   0.738  17.321 -0.7656  0.0613  0.0550
 6748SOL    HW131703   2.788   0.736  17.417 -0.7731  3.0019  0.1184
 6748SOL    HW231704   2.770   0.644  17.314  0.7643 -0.2200  0.2698
 6749SOL     OW31705   0.063   2.570  14.727  0.5224  0.0591 -0.0662
 6749SOL    HW131706   0.099   2.650  14.766  0.8977  0.5496 -1.4304
 6749SOL    HW231707   0.024   2.530  14.806 -0.9782  0.2382 -0.7204
 6750SOL     OW31708   0.137   1.065   7.822  0.3746 -0.8412 -0.4800
 6750SOL    HW131709   0.218   1.074   7.872  0.2953 -0.2222 -0.4617
 6750SOL    HW231710   0.089   1.147   7.834  3.2460  0.8573 -0.7676
 6751SOL     OW31711   2.441   0.934   5.027  0.0328  0.1563 -0.0111
 6751SOL    HW131712   2.481   0.998   5.086 -0.2269  1.4122 -1.2035
 6751SOL    HW231713   2.491   0.952   4.947  1.8851 -2.3715  0.5634
 6752SOL     OW31714   0.812   2.595  16.630 -0.6629 -0.1583 -0.0557
 6752SOL    HW131715   0.772   2.672  16.589 -1.1659  0.6106  1.8942
 6752SOL    HW231716   0.772   2.531  16.570  2.5728 -1.4130 -0.8496
 6753SOL     OW31717   2.958   4.112   2.947  0.0636 -0.3817  0.3803
 6753SOL    HW131718   3.004   4.073   2.874  1.1707  0.6976  0.4986
 6753SOL    HW231719   2.867   4.107   2.919  0.9268 -0.6218 -2.2913
 6754SOL     OW31720   4.694   2.956   5.332  0.2669  0.0774  0.2446
 6754SOL    HW131721   4.697   2.867   5.297  1.2838  0.0107  0.4937
 6754SOL    HW231722   0.061   2.985   5.343  0.4234 -0.4279  0.2738
 6755SOL     OW31723   0.573   1.086   0.719  0.0712  0.7554  0.5313
 6755SOL    HW131724   0.548   1.143   0.792  1.6247  1.1945  0.7352
 6755SOL    HW231725   0.636   1.147   0.681 -4.0019  3.0240 -2.4847
 6756SOL     OW31726   2.536   2.608  11.250 -0.0503 -0.1004 -0.5845
 6756SOL    HW131727   2.594   2.604  11.174 -0.0214  1.5564 -0.6408
 6756SOL    HW231728   2.587   2.559  11.315 -0.5753  0.2506  0.0937
 6757SOL     OW31729   1.608   0.174  15.293 -0.5044 -0.0674  0.0372
 6757SOL    HW131730   1.535   0.116  15.315 -0.4515 -0.0432  0.2803
 6757SOL    HW231731   1.628   0.229  15.370  0.4711  1.2953 -1.1889
 6758SOL     OW31732   3.329   3.325   7.143 -0.2868 -0.4137  0.1555
 6758SOL    HW131733   3.290   3.246   7.179  1.0892 -0.7768  0.8433
 6758SOL    HW231734   3.267   3.390   7.177 -2.1050 -2.0663 -0.0039
 6759SOL     OW31735   0.874   4.439   7.278 -0.2927 -0.2581  0.2780
 6759SOL    HW131736   0.830   4.451   7.362  0.8409 -1.2400  1.0203
 6759SOL    HW231737   0.964   4.454   7.307 -0.0489  2.1800 -1.7590
 6760SOL     OW31738   1.047   4.550   2.640 -0.0935  0.0273 -0.0759
 6760SOL    HW131739   0.964   4.585   2.671 -0.3414 -2.4178  1.9605
 6760SOL    HW231740   1.048   4.467   2.687 -0.3542  0.0331 -0.0580
 6761SOL     OW31741   0.239   4.357   6.945  0.4094  0.2142  0.5959
 6761SOL    HW131742   0.270   4.399   7.025 -1.0448  4.2466 -0.9515
 6761SOL    HW231743   0.224   4.265   6.966 -2.3093  0.3291 -0.7709
 6762SOL     OW31744   1.671   3.447   2.312 -0.7197 -0.1834 -0.4725
 6762SOL    HW131745   1.701   3.538   2.322  1.8800 -0.7517 -3.0774
 6762SOL    HW231746   1.649   3.431   2.403  1.0894  3.3004  0.5742
 6763SOL     OW31747   3.045   1.433  16.122  0.7482 -0.2259 -1.0236
 6763SOL    HW131748   2.976   1.462  16.062  1.9809  1.7433 -1.4938
 6763SOL    HW231749   2.978   1.444  16.189 -0.3075  0.0187 -2.1297
 6764SOL     OW31750   1.640   3.427  14.472  0.3005 -0.0910  0.4981
 6764SOL    HW131751   1.714   3.383  14.430  1.2864  2.5026 -0.5456
 6764SOL    HW231752   1.576   3.361  14.497  1.7287 -1.0830  1.5139
 6765SOL     OW31753   3.445   4.511   5.363  0.0673  0.3355 -0.7148
 6765SOL    HW131754   3.422   4.509   5.455  0.5794 -0.7114 -0.6063
 6765SOL    HW231755   3.540   4.505   5.354  0.3662  1.4633  1.7069
 6766SOL     OW31756   2.211   1.175  14.752  0.9644  0.1917  0.0327
 6766SOL    HW131757   2.260   1.116  14.809  0.7989  1.1193  1.1202
 6766SOL    HW231758   2.195   1.248  14.811  1.8301  0.8404 -0.5272
 6767SOL     OW31759   1.208   1.631  12.359  0.3562  0.3354 -0.1755
 6767SOL    HW131760   1.192   1.656  12.450  1.0302  1.0771 -0.2683
 6767SOL    HW231761   1.266   1.701  12.330 -0.8828  0.6327 -1.9119
 6768SOL     OW31762   2.633   4.322   8.916 -0.8924  0.4175  0.0438
 6768SOL    HW131763   2.723   4.349   8.934 -2.2455  2.6623  3.2797
 6768SOL    HW231764   2.632   4.290   8.825  0.0191  0.7990 -0.0960
 6769SOL     OW31765   2.166   1.992   1.031  0.1123  0.6186 -0.0860
 6769SOL    HW131766   2.218   1.991   0.950  1.5332 -1.5445  0.8793
 6769SOL    HW231767   2.075   2.006   1.003 -0.4098 -2.0652  0.3329
 6770SOL     OW31768   1.979   1.435   9.976 -0.2020  0.0886  0.0924
 6770SOL    HW131769   1.973   1.466  10.067 -1.8246  1.3717 -0.4400
 6770SOL    HW231770   1.959   1.342   9.988  0.4337  0.1641  1.7938
 6771SOL     OW31771   2.464   2.119   1.156  0.2410 -0.2826 -0.0451
 6771SOL    HW131772   2.420   2.124   1.072  2.0583  0.5665 -0.9410
 6771SOL    HW231773   2.535   2.057   1.138  0.6831  0.8458 -2.0943
 6772SOL     OW31774   3.472   0.632   4.400 -0.0870  0.3630 -0.1925
 6772SOL    HW131775   3.420   0.602   4.325  0.4831 -0.3229 -0.3113
 6772SOL    HW231776   3.460   0.726   4.388  1.1449  0.6052  0.4889
 6773SOL     OW31777   1.362   4.528  12.520  0.1980 -0.8055  0.5974
 6773SOL    HW131778   1.297   4.487  12.463 -0.7363  1.3308  0.1249
 6773SOL    HW231779   1.394   4.454  12.573  1.3660 -0.8267 -0.1190
 6774SOL     OW31780   2.745   3.099   3.562  0.0878 -0.4183  0.4871
 6774SOL    HW131781   2.807   3.031   3.537  1.4016  0.7620  0.5342
 6774SOL    HW231782   2.759   3.162   3.491 -1.6201 -0.4815  0.0829
 6775SOL     OW31783   2.021   1.610   6.051 -0.0223 -0.2515 -0.3003
 6775SOL    HW131784   1.968   1.538   6.016  0.8842 -1.5951  1.0755
 6775SOL    HW231785   2.090   1.621   5.987  0.3385  0.3195  0.1894
 6776SOL     OW31786   4.181   1.747   7.569  0.0954 -0.2184  0.1673
 6776SOL    HW131787   4.248   1.803   7.530 -0.0636 -1.3045 -1.6808
 6776SOL    HW231788   4.141   1.716   7.487 -0.0998 -0.6903  0.4423
 6777SOL     OW31789   2.146   2.357   3.290 -0.1445  0.5497 -0.0108
 6777SOL    HW131790   2.210   2.289   3.268 -0.4233 -0.2234  1.5794
 6777SOL    HW231791   2.095   2.299   3.347 -0.4757  0.8185 -0.0341
 6778SOL     OW31792   0.220   4.564   4.164 -0.0422 -0.4217  0.1426
 6778SOL    HW131793   0.283   4.499   4.195 -0.9926 -1.3761  0.0378
 6778SOL    HW231794   0.226   4.550   4.070  0.4360  0.2528  0.0672
 6779SOL     OW31795   1.205   2.556  10.296 -0.0005  0.3755  0.0347
 6779SOL    HW131796   1.129   2.608  10.270  0.4272  0.8734 -0.2219
 6779SOL    HW231797   1.182   2.560  10.389 -1.5911  0.0084 -0.3482
 6780SOL     OW31798   3.220   1.692   1.165  0.3016  0.5434 -0.2192
 6780SOL    HW131799   3.181   1.642   1.094  1.7328 -0.6227 -0.1949
 6780SOL    HW231800   3.233   1.635   1.241  1.5645  0.6183 -0.3718
 6781SOL     OW31801   0.493   4.196   7.883 -0.0880 -0.7509 -0.1680
 6781SOL    HW131802   0.455   4.276   7.847  0.0090 -0.3972  0.5131
 6781SOL    HW231803   0.416   4.142   7.902 -0.1617 -0.7822 -0.5514
 6782SOL     OW31804   1.344   3.923   3.379 -0.3206  0.4443 -0.3332
 6782SOL    HW131805   1.381   3.970   3.305 -0.2103  0.1611 -0.4605
 6782SOL    HW231806   1.305   3.843   3.343  0.8736 -0.7662  1.0436
 6783SOL     OW31807   1.938   3.995   1.598 -0.0165  0.4061 -0.0448
 6783SOL    HW131808   2.006   3.970   1.536 -0.6034  0.0264 -0.5370
 6783SOL    HW231809   1.861   3.998   1.542  0.2371  0.7341 -0.3760
 6784SOL     OW31810   0.733   1.372   6.012 -0.0596  0.2948  0.0976
 6784SOL    HW131811   0.801   1.317   6.050 -0.6116  0.8431  1.8596
 6784SOL    HW231812   0.656   1.362   6.068  0.8563 -3.4775  0.7157
 6785SOL     OW31813   1.140   3.158   7.140  0.8728  0.7425 -0.6846
 6785SOL    HW131814   1.052   3.121   7.134  1.5065 -0.6927 -1.0235
 6785SOL    HW231815   1.168   3.117   7.222 -1.2402  0.3497 -0.1634
 6786SOL     OW31816   2.691   1.830  14.717 -0.0251 -0.3846 -0.1142
 6786SOL    HW131817   2.638   1.834  14.638 -0.4798  0.1632  0.2155
 6786SOL    HW231818   2.649   1.757  14.762 -0.8022  0.7513  0.9868
 6787SOL     OW31819   2.842   0.642   8.047 -0.0082 -0.5306 -0.1046
 6787SOL    HW131820   2.899   0.641   8.125  0.7452 -0.9733 -0.6603
 6787SOL    HW231821   2.861   0.718   7.992  1.0138 -1.2934 -0.7962
 6788SOL     OW31822   2.497   1.491   0.778  0.5013 -0.0057  0.3121
 6788SOL    HW131823   2.569   1.486   0.715  0.2314 -2.3022  0.1827
 6788SOL    HW231824   2.519   1.561   0.840  3.6181 -0.4804 -0.2585
 6789SOL     OW31825   0.967   3.624  10.534 -0.7610  0.0535 -0.3229
 6789SOL    HW131826   1.049   3.602  10.489 -0.7361  0.4820 -0.4851
 6789SOL    HW231827   1.006   3.638  10.620 -3.2364 -1.9519  1.0929
 6790SOL     OW31828   4.618   0.965   4.300 -0.7374  0.0234 -0.4499
 6790SOL    HW131829   4.683   0.895   4.293 -0.1640  0.4239  0.9644
 6790SOL    HW231830   4.615   0.993   4.391 -1.6446  1.7712 -1.0142
 6791SOL     OW31831   3.193   1.875   5.940  0.1185 -0.8873  0.3654
 6791SOL    HW131832   3.204   1.967   5.916  2.2841 -1.7784 -2.1479
 6791SOL    HW231833   3.218   1.884   6.032  1.2366 -1.0071  0.0750
 6792SOL     OW31834   0.182   4.357   3.076 -0.1199  0.6196 -0.0331
 6792SOL    HW131835   0.180   4.401   2.991 -2.1199  0.9588  0.1929
 6792SOL    HW231836   0.203   4.432   3.132 -2.3587 -0.5500  2.4169
 6793SOL     OW31837   3.989   3.886   4.152 -0.0284 -0.2166  0.1730
 6793SOL    HW131838   4.023   3.856   4.067 -1.6878  0.3712 -0.6937
 6793SOL    HW231839   4.014   3.816   4.212  1.4346 -0.4316 -0.6817
 6794SOL     OW31840   0.049   2.249   4.548 -0.2241 -0.2136  0.0631
 6794SOL    HW131841   4.714   2.173   4.553  0.6179 -1.0012 -2.2066
 6794SOL    HW231842   4.718   2.314   4.504  2.4800  3.5011  2.2229
 6795SOL     OW31843   1.590   4.608   5.525  0.0709  0.3449  0.3084
 6795SOL    HW131844   1.665   4.561   5.487  0.7137  0.6457  1.2032
 6795SOL    HW231845   1.561   4.637   5.439 -1.2897 -1.4869  0.1480
 6796SOL     OW31846   3.389   4.617   7.298 -0.4025  0.1653 -0.7107
 6796SOL    HW131847   3.312   4.672   7.285 -0.7391 -0.5259 -1.7081
 6796SOL    HW231848   3.394   4.627   7.393 -0.0573 -0.8778 -0.6165
 6797SOL     OW31849   2.945   4.056   4.052 -0.3241 -0.0829 -0.2964
 6797SOL    HW131850   3.018   4.074   4.111 -1.4539  0.0453  1.0783
 6797SOL    HW231851   2.988   4.054   3.966  1.5050 -1.3518  0.6403
 6798SOL     OW31852   0.794   3.832  17.679  0.1417 -0.1900 -0.4959
 6798SOL    HW131853   0.760   3.796   0.065 -0.6430  3.4677  0.7883
 6798SOL    HW231854   0.714   3.871  17.642 -1.1495 -0.2274  2.2427
 6799SOL     OW31855   3.433   2.381   7.407 -0.0586  0.2660  0.2436
 6799SOL    HW131856   3.436   2.405   7.500  0.5944 -0.1675  0.3272
 6799SOL    HW231857   3.457   2.289   7.409 -0.4897  0.1507  0.1287
 6800SOL     OW31858   4.105   3.497   7.060 -0.2647 -0.6332  0.7036
 6800SOL    HW131859   4.087   3.584   7.024  1.0583 -0.8300 -0.4131
 6800SOL    HW231860   4.020   3.461   7.087  0.2247 -0.7687  2.0779
 6801SOL     OW31861   1.853   3.680   5.201  0.0246 -0.2468  0.9098
 6801SOL    HW131862   1.927   3.638   5.244  1.3991 -0.8366 -1.9909
 6801SOL    HW231863   1.852   3.762   5.251 -0.7067  1.4642 -1.8683
 6802SOL     OW31864   0.413   3.211  16.515 -0.0013 -0.3971  0.6949
 6802SOL    HW131865   0.487   3.253  16.470 -1.1803  0.7211 -0.2263
 6802SOL    HW231866   0.364   3.291  16.535  0.6803 -0.1344  1.2777
 6803SOL     OW31867   0.833   2.507   1.955 -0.8606 -0.2141 -0.0181
 6803SOL    HW131868   0.880   2.565   2.015  1.1486 -1.7219 -0.1002
 6803SOL    HW231869   0.900   2.472   1.896  0.2240 -1.2198  1.7825
 6804SOL     OW31870   1.680   4.027   3.895  0.2536  0.2744  0.1844
 6804SOL    HW131871   1.753   3.983   3.938  1.0965  1.3958 -0.1005
 6804SOL    HW231872   1.691   3.998   3.805 -2.1000  1.9515 -0.6556
 6805SOL     OW31873   0.444   1.843   5.023  0.1596  0.3598 -0.5395
 6805SOL    HW131874   0.529   1.800   5.032  1.0419  2.7128  2.2653
 6805SOL    HW231875   0.477   1.915   4.969  1.3762 -0.3032 -0.6891
 6806SOL     OW31876   2.392   3.812   2.597 -0.3497  0.0454  0.3301
 6806SOL    HW131877   2.335   3.751   2.551 -1.2593  3.4465 -3.0232
 6806SOL    HW231878   2.369   3.893   2.553 -0.4967 -0.7942 -1.1317
 6807SOL     OW31879   0.754   1.293   4.478  0.7484 -0.1539  0.4383
 6807SOL    HW131880   0.844   1.327   4.473  1.2318 -1.4671  0.2547
 6807SOL    HW231881   0.769   1.202   4.501 -0.8297 -0.5012  0.0639
 6808SOL     OW31882   3.883   2.831  13.715  0.5554 -0.2014  0.2629
 6808SOL    HW131883   3.976   2.854  13.721  0.3629  0.2431  1.5386
 6808SOL    HW231884   3.847   2.886  13.646  1.4718  1.7237  1.3216
 6809SOL     OW31885   4.109   2.415   9.080  0.1703  0.2418  0.2779
 6809SOL    HW131886   4.081   2.470   9.154 -1.5887 -1.8399  1.1477
 6809SOL    HW231887   4.088   2.326   9.109 -0.3648  0.6968  1.2876
 6810SOL     OW31888   2.080   2.835   5.842  0.1183  0.0107  0.2445
 6810SOL    HW131889   2.055   2.869   5.929 -0.9468 -1.2812  0.4389
 6810SOL    HW231890   2.170   2.866   5.832  0.0631  0.1133  0.0663
 6811SOL     OW31891   2.450   0.777   7.018 -0.9745  0.3283 -0.4186
 6811SOL    HW131892   2.530   0.812   7.059  0.6995 -2.6609 -1.1479
 6811SOL    HW231893   2.393   0.782   7.095 -2.6195  1.1688 -1.7152
 6812SOL     OW31894   2.342   4.668   2.175 -0.5658  0.1593 -0.2330
 6812SOL    HW131895   2.425   4.647   2.133  0.1034 -0.6112  1.4986
 6812SOL    HW231896   2.318   4.579   2.200 -2.2775  0.2799 -1.4335
 6813SOL     OW31897   2.399   4.194  10.261  0.2058 -0.3642  0.5194
 6813SOL    HW131898   2.342   4.264  10.293  2.3899  0.6389  2.2572
 6813SOL    HW231899   2.478   4.220  10.309  0.5191 -1.9632  0.8798
 6814SOL     OW31900   0.976   0.768   9.614  0.4715 -0.2836 -0.0197
 6814SOL    HW131901   0.936   0.690   9.576 -1.6529  0.7659  0.0273
 6814SOL    HW231902   0.902   0.799   9.666 -0.1602 -0.1152 -1.0158
 6815SOL     OW31903   2.639   4.390  13.514  0.7476 -0.2108 -0.4996
 6815SOL    HW131904   2.682   4.459  13.564 -0.0690  1.8437 -2.6629
 6815SOL    HW231905   2.705   4.321  13.516  1.7706  0.8228  2.7023
 6816SOL     OW31906   2.315   0.217   2.823 -0.1507 -0.1950 -0.9521
 6816SOL    HW131907   2.301   0.133   2.780  0.7053 -1.4845  1.2465
 6816SOL    HW231908   2.359   0.265   2.753  1.0707 -0.8776 -0.6627
 6817SOL     OW31909   1.865   2.711   3.366 -0.0235  0.3195  0.1886
 6817SOL    HW131910   1.960   2.705   3.381  0.0550 -2.0258 -1.2154
 6817SOL    HW231911   1.824   2.640   3.415 -1.1990  0.7059 -0.2436
 6818SOL     OW31912   4.599   4.157   2.941 -0.4002 -0.2591  0.0211
 6818SOL    HW131913   4.574   4.158   3.034 -1.6690  0.7290 -0.3253
 6818SOL    HW231914   4.600   4.251   2.925 -2.2198 -0.5972 -2.0823
 6819SOL     OW31915   0.702   0.504   4.705 -0.2421  0.2037  0.2780
 6819SOL    HW131916   0.692   0.455   4.623 -0.0665 -1.4756  1.2761
 6819SOL    HW231917   0.684   0.594   4.677  1.0497  0.2802 -0.3156
 6820SOL     OW31918   2.567   4.246   2.476  0.7648 -0.1208  0.3041
 6820SOL    HW131919   2.653   4.267   2.440  0.0419  2.5601  0.1525
 6820SOL    HW231920   2.528   4.221   2.393 -0.4426  0.4317  0.7041
 6821SOL     OW31921   1.795   4.708   7.997 -0.0633 -0.1245  0.2011
 6821SOL    HW131922   1.876   4.707   7.946  0.6301  0.6391  1.2745
 6821SOL    HW231923   1.774   4.614   8.002 -1.0036  0.1662  1.5595
 6822SOL     OW31924   2.208   2.263   8.760  0.6716 -0.4165 -0.5785
 6822SOL    HW131925   2.263   2.184   8.765  1.0964 -0.1307 -0.7650
 6822SOL    HW231926   2.244   2.331   8.817  1.5561 -0.8685 -0.5841
 6823SOL     OW31927   1.745   3.013   4.988 -0.5230 -0.5153 -0.0478
 6823SOL    HW131928   1.767   2.993   4.897 -0.4682 -3.1217  0.5628
 6823SOL    HW231929   1.787   3.096   5.012 -0.9495  0.1131 -1.4806
 6824SOL     OW31930   1.908   3.359   3.818 -0.0467 -0.1075 -0.5307
 6824SOL    HW131931   1.909   3.340   3.912 -3.1286  0.2342 -0.4358
 6824SOL    HW231932   1.926   3.278   3.770 -0.8299 -1.2233  1.0458
 6825SOL     OW31933   3.876   4.003   5.133  0.4486  0.0208  0.2483
 6825SOL    HW131934   3.862   3.958   5.216 -0.8991 -1.1921 -0.6402
 6825SOL    HW231935   3.856   3.933   5.071  0.3125  0.9026 -0.7108
 6826SOL     OW31936   2.044   4.097   4.818  0.2423 -0.6830 -0.4296
 6826SOL    HW131937   2.026   4.102   4.724  1.5023  0.8939 -0.5873
 6826SOL    HW231938   2.134   4.065   4.817 -0.2280 -2.0368  0.9126
 6827SOL     OW31939   4.244   2.644  10.690 -0.1409 -0.3479 -0.2470
 6827SOL    HW131940   4.248   2.739  10.683  1.0772 -0.5073 -1.6160
 6827SOL    HW231941   4.303   2.634  10.765 -0.1666 -1.6110 -0.3878
 6828SOL     OW31942   4.391   3.702  15.284 -0.0942 -0.0742  0.0611
 6828SOL    HW131943   4.443   3.711  15.364  1.4365 -1.5151 -0.7821
 6828SOL    HW231944   4.431   3.771  15.232  1.0375 -1.0761 -0.4057
 6829SOL     OW31945   4.449   3.359   8.307 -0.0799  0.4400 -0.9993
 6829SOL    HW131946   4.520   3.342   8.370 -0.6083 -0.5072 -0.6473
 6829SOL    HW231947   4.419   3.269   8.291 -0.6534  0.4772 -0.1635
 6830SOL     OW31948   1.120   4.026  12.316  0.0301  0.0227 -0.5999
 6830SOL    HW131949   1.210   4.038  12.346 -0.4322  0.5913  0.5616
 6830SOL    HW231950   1.070   4.077  12.380  2.5588  2.2883 -0.4418
 6831SOL     OW31951   1.884   3.236   1.665 -0.2756  0.1607  0.0893
 6831SOL    HW131952   1.897   3.167   1.729  0.0218 -0.8830 -1.0893
 6831SOL    HW231953   1.805   3.208   1.618 -0.9671 -0.6098  1.7258
 6832SOL     OW31954   4.007   1.153  12.295  0.4590 -0.0811 -0.2143
 6832SOL    HW131955   3.999   1.136  12.201 -1.3808  2.9526 -0.5831
 6832SOL    HW231956   4.034   1.245  12.290 -1.9149  0.6263  0.1331
 6833SOL     OW31957   0.702   3.473   3.768 -0.4734  0.2699 -0.1357
 6833SOL    HW131958   0.671   3.413   3.700 -1.6250 -0.3584  0.9352
 6833SOL    HW231959   0.795   3.469   3.750 -0.5362  0.0710 -0.4214
 6834SOL     OW31960   0.225   4.082   7.831 -0.0209  0.3178 -0.2355
 6834SOL    HW131961   0.283   4.069   7.757 -2.1287  2.5367 -2.2832
 6834SOL    HW231962   0.149   4.123   7.789 -1.0011 -0.9330  0.2952
 6835SOL     OW31963   3.651   3.939  15.645  0.1977  0.0983 -0.1133
 6835SOL    HW131964   3.707   3.941  15.568  1.7218  1.5776  1.0468
 6835SOL    HW231965   3.678   3.860  15.693  0.0538 -0.0219 -0.2303
 6836SOL     OW31966   2.457   3.089   3.011  0.4579  0.4216 -0.0616
 6836SOL    HW131967   2.477   3.179   3.035 -0.6706  0.8022 -0.5487
 6836SOL    HW231968   2.541   3.048   2.990 -0.8887 -1.9083 -0.9653
 6837SOL     OW31969   3.122   2.600   9.663  0.0204 -0.1864 -0.2195
 6837SOL    HW131970   3.187   2.587   9.732 -0.9525  1.1939  0.9775
 6837SOL    HW231971   3.092   2.510   9.652  0.9314 -0.5303  0.1043
 6838SOL     OW31972   2.148   4.013  12.185 -0.1985  0.0530 -0.2556
 6838SOL    HW131973   2.198   4.081  12.140 -0.6742  0.2343 -0.5203
 6838SOL    HW231974   2.095   3.969  12.118 -0.3284 -0.6748  0.3193
 6839SOL     OW31975   2.939   2.156   8.949  0.3820  0.6844  0.1258
 6839SOL    HW131976   2.987   2.078   8.976 -0.3499 -0.2065 -1.1532
 6839SOL    HW231977   2.996   2.222   8.988  0.6714  0.5102  0.0011
 6840SOL     OW31978   1.712   1.665   1.775 -0.0164  0.0464  0.2252
 6840SOL    HW131979   1.689   1.743   1.825 -1.4774 -0.5496  0.4681
 6840SOL    HW231980   1.633   1.613   1.790  0.3059 -0.4400  0.2773
 6841SOL     OW31981   1.414   3.612  16.212  0.6225  0.1113  0.2627
 6841SOL    HW131982   1.364   3.694  16.202  0.3915 -0.0466  0.1251
 6841SOL    HW231983   1.448   3.590  16.125 -0.9860  0.5596 -0.4746
 6842SOL     OW31984   4.218   4.164   0.745 -0.2278  0.0449  0.4104
 6842SOL    HW131985   4.282   4.190   0.679 -0.3028 -0.3240  0.1917
 6842SOL    HW231986   4.277   4.116   0.804  1.1499  2.6696  1.1487
 6843SOL     OW31987   1.289   4.179   3.545  0.0958  0.1631  0.3542
 6843SOL    HW131988   1.314   4.212   3.632  1.7104 -2.4881  0.8702
 6843SOL    HW231989   1.317   4.089   3.556  0.3744 -0.0014 -1.7065
 6844SOL     OW31990   2.795   3.667  11.646  0.9638  0.1220 -0.3653
 6844SOL    HW131991   2.866   3.731  11.644 -0.8162  2.1513  3.1978
 6844SOL    HW231992   2.750   3.662  11.562 -1.6995  0.7794  1.0381
 6845SOL     OW31993   3.344   3.711   5.237  0.0974  0.2224 -0.5061
 6845SOL    HW131994   3.312   3.781   5.294  2.1759  0.4053  0.4362
 6845SOL    HW231995   3.268   3.688   5.184 -1.5512  0.9166  1.5570
 6846SOL     OW31996   0.636   0.706   4.093  0.2980  0.3165  0.8350
 6846SOL    HW131997   0.633   0.787   4.042 -0.3156  0.7761  1.6018
 6846SOL    HW231998   0.721   0.676   4.060 -1.0262 -1.2100 -1.2145
 6847SOL     OW31999   1.274   0.351   8.788  0.1144 -0.4239  0.0412
 6847SOL    HW132000   1.332   0.397   8.849 -0.9177 -1.0362  1.4813
 6847SOL    HW232001   1.228   0.298   8.853  1.6838 -1.6694  0.1521
 6848SOL     OW32002   0.396   2.523  11.708 -0.8418 -0.5382  0.4118
 6848SOL    HW132003   0.347   2.446  11.681 -0.1432 -0.5840 -0.7494
 6848SOL    HW232004   0.488   2.501  11.691 -0.5556  1.1117 -0.1863
 6849SOL     OW32005   0.483   0.977   5.329 -0.0495 -0.0425 -0.0100
 6849SOL    HW132006   0.549   1.046   5.322 -0.4132 -0.1476 -4.8001
 6849SOL    HW232007   0.466   0.958   5.421 -0.9630  0.7982 -0.0014
 6850SOL     OW32008   0.050   1.851   4.546 -0.0014  0.1595  0.4601
 6850SOL    HW132009   0.048   1.806   4.462 -0.3234  2.0875 -0.5711
 6850SOL    HW232010   4.698   1.909   4.538  1.1015  1.2013 -2.6247
 6851SOL     OW32011   2.848   2.056   7.933 -0.1230 -0.1256  0.0988
 6851SOL    HW132012   2.884   1.984   7.985  1.2756  0.5855  0.1380
 6851SOL    HW232013   2.895   2.134   7.965  0.5216 -1.1985  1.7772
 6852SOL     OW32014   2.630   2.001   1.988  0.3824 -0.2906  0.0989
 6852SOL    HW132015   2.717   1.962   2.000 -0.0039 -0.8939  0.8745
 6852SOL    HW232016   2.582   1.920   2.003 -0.2682  0.0316 -0.2723
 6853SOL     OW32017   0.163   3.849   4.356 -0.5609 -0.0205 -0.1851
 6853SOL    HW132018   0.126   3.905   4.288  1.5222  0.8875 -0.5923
 6853SOL    HW232019   0.255   3.839   4.329 -0.4169 -2.0543  0.9950
 6854SOL     OW32020   0.155   4.721  10.143 -0.0283  0.1737  0.7821
 6854SOL    HW132021   0.225   0.014  10.206  2.0247  0.1286 -1.5023
 6854SOL    HW232022   0.111   4.645  10.182  0.8221 -0.0616  1.2847
 6855SOL     OW32023   4.392   4.617  17.040 -0.0996  0.1073  0.0532
 6855SOL    HW132024   4.433   4.698  17.071  1.8024 -1.0766  0.6383
 6855SOL    HW232025   4.416   4.552  17.106 -2.7636  0.1571  1.0863
 6856SOL     OW32026   0.147   0.268   2.020 -0.0426 -0.3886 -0.1706
 6856SOL    HW132027   0.132   0.252   1.927 -1.3726 -1.3186  0.1864
 6856SOL    HW232028   0.072   0.217   2.053  0.2388 -0.4895  0.3195
 6857SOL     OW32029   1.210   2.774   5.073  0.5232 -0.3828 -0.4403
 6857SOL    HW132030   1.216   2.824   4.992  1.4024 -0.2080 -0.2646
 6857SOL    HW232031   1.230   2.839   5.141 -0.3533  0.7652 -1.2752
 6858SOL     OW32032   3.348   0.255   2.701 -0.2483 -0.3312 -0.1007
 6858SOL    HW132033   3.281   0.322   2.707 -0.3657 -0.6713  2.5327
 6858SOL    HW232034   3.305   0.186   2.753 -0.1369 -0.2469  0.1011
 6859SOL     OW32035   3.086   1.426  13.772 -0.0016  0.1064 -0.4519
 6859SOL    HW132036   3.040   1.471  13.843  0.0303  0.1541 -0.4617
 6859SOL    HW232037   3.082   1.334  13.798  0.1887  0.6471  1.5435
 6860SOL     OW32038   3.708   0.048  10.074  0.4370  0.4502 -0.0318
 6860SOL    HW132039   3.778   4.712  10.046 -0.5879 -0.7312 -0.0720
 6860SOL    HW232040   3.752   0.132  10.060  0.3000  0.8376  1.9171
 6861SOL     OW32041   3.524   3.489   6.651  0.3134 -0.6032 -0.0450
 6861SOL    HW132042   3.591   3.477   6.719  1.5120 -0.4649 -1.2030
 6861SOL    HW232043   3.565   3.436   6.583 -1.4300 -0.9784 -0.7936
 6862SOL     OW32044   1.074   0.109   9.516 -0.4704  0.5173 -0.2721
 6862SOL    HW132045   1.111   0.165   9.585  2.3789 -2.7026  0.7921
 6862SOL    HW232046   1.010   0.072   9.577  0.1658 -0.4384 -0.1907
 6863SOL     OW32047   4.675   2.229   8.385 -0.3112 -0.1700 -0.5439
 6863SOL    HW132048   0.008   2.157   8.357 -0.9779 -0.7335 -0.4383
 6863SOL    HW232049   4.594   2.179   8.384  0.0129 -0.7007 -0.5516
 6864SOL     OW32050   1.006   4.672   7.552 -0.3439 -0.2632 -0.1116
 6864SOL    HW132051   1.048   4.589   7.531  2.4216  0.6372  1.8272
 6864SOL    HW232052   0.927   4.654   7.603 -0.3545  1.1707  0.3887
 6865SOL     OW32053   1.818   1.314   8.885 -0.3863 -0.2403 -0.4334
 6865SOL    HW132054   1.748   1.330   8.948 -0.2315  2.1449 -0.8957
 6865SOL    HW232055   1.877   1.388   8.874 -0.8467  0.1486 -0.2251
 6866SOL     OW32056   4.023   3.754   8.440 -0.0092 -0.2984 -0.1248
 6866SOL    HW132057   3.958   3.705   8.389 -0.6667 -0.1471  0.5659
 6866SOL    HW232058   4.100   3.759   8.383 -0.6963 -0.8072 -1.1091
 6867SOL     OW32059   0.628   1.095  14.866  0.1465 -0.2470  0.4797
 6867SOL    HW132060   0.678   1.073  14.944  0.5196 -2.4428 -0.3496
 6867SOL    HW232061   0.578   1.168  14.902 -0.9496  0.1058 -1.7367
 6868SOL     OW32062   4.317   0.531  11.353  0.3151 -0.1484 -0.5022
 6868SOL    HW132063   4.408   0.550  11.377  0.9150 -3.4902 -0.1028
 6868SOL    HW232064   4.282   0.529  11.442  2.4376  0.3154  0.3591
 6869SOL     OW32065   3.535   1.618  13.574 -0.1231  0.5710 -0.1612
 6869SOL    HW132066   3.482   1.539  13.567  0.2005  0.3189  0.2226
 6869SOL    HW232067   3.487   1.654  13.649  1.5925  0.6967  0.8883
 6870SOL     OW32068   2.889   1.279   6.343 -0.5722  0.2065  0.3632
 6870SOL    HW132069   2.849   1.246   6.424 -3.0524  0.1303 -0.8995
 6870SOL    HW232070   2.828   1.346   6.314 -1.3550  0.7447  3.2494
 6871SOL     OW32071   0.456   2.311   5.818  0.1983  0.0828 -0.2973
 6871SOL    HW132072   0.416   2.227   5.796 -2.6117  1.0896  0.9725
 6871SOL    HW232073   0.503   2.277   5.894  0.3228  1.9615  0.4765
 6872SOL     OW32074   0.987   2.968   7.950  0.2062  0.0103  0.2706
 6872SOL    HW132075   0.957   2.897   8.007  2.0971 -0.2471  0.9433
 6872SOL    HW232076   1.080   2.951   7.937  0.1095 -0.0439 -0.3400
 6873SOL     OW32077   3.233   3.411   6.496 -0.0672  0.4520  0.0365
 6873SOL    HW132078   3.235   3.331   6.549  2.0970  0.2477 -0.3398
 6873SOL    HW232079   3.275   3.468   6.561  1.7169  0.4096 -1.0646
 6874SOL     OW32080   1.420   4.161  10.469 -0.3874  0.0460  0.0656
 6874SOL    HW132081   1.483   4.096  10.438 -0.5315  0.3017 -0.7610
 6874SOL    HW232082   1.403   4.220  10.395 -0.0030 -0.4216 -0.3887
 6875SOL     OW32083   1.657   3.172   5.989 -0.3281  0.0783 -0.2139
 6875SOL    HW132084   1.729   3.121   5.952 -0.8264 -2.0752  1.7424
 6875SOL    HW232085   1.586   3.153   5.928  0.5101  0.9093 -1.4480
 6876SOL     OW32086   3.543   4.421   0.983  0.9078 -0.3816  0.6233
 6876SOL    HW132087   3.453   4.439   0.958  1.5740 -0.2882 -1.6609
 6876SOL    HW232088   3.582   4.467   0.909 -2.0364  1.7439  0.4322
 6877SOL     OW32089   3.340   4.108   6.904 -0.3512  0.4177  0.2603
 6877SOL    HW132090   3.317   4.070   6.989  1.1901  0.1472  0.5645
 6877SOL    HW232091   3.434   4.123   6.909 -0.7866  2.8960  0.9195
 6878SOL     OW32092   4.027   4.446   3.003  0.0821 -0.5053 -0.3437
 6878SOL    HW132093   4.072   4.525   2.972  0.7938  0.7702  3.8021
 6878SOL    HW232094   3.984   4.484   3.081  0.9275 -0.6606  0.1948
 6879SOL     OW32095   1.988   3.972   1.123 -0.4096 -0.5374  0.1496
 6879SOL    HW132096   1.914   3.986   1.182  0.4416  1.0082  0.8815
 6879SOL    HW232097   1.934   3.957   1.046 -1.0121 -1.8777  0.8420
 6880SOL     OW32098   0.728   4.235   8.055 -0.1826  0.0933 -0.6325
 6880SOL    HW132099   0.644   4.200   8.025  0.2620 -1.3073 -0.2690
 6880SOL    HW232100   0.699   4.277   8.136  2.9278 -0.3336  0.6947
 6881SOL     OW32101   4.238   0.743   8.179  0.2084 -0.3508 -0.0805
 6881SOL    HW132102   4.288   0.779   8.252 -1.3656 -0.7722  1.2001
 6881SOL    HW232103   4.202   0.827   8.150  2.1593  0.0535 -1.3595
 6882SOL     OW32104   4.591   2.577   4.975 -0.5773  0.4962  0.0189
 6882SOL    HW132105   4.550   2.611   4.895  1.0410  2.6277  0.1058
 6882SOL    HW232106   4.666   2.531   4.937  0.9963  1.1586  2.3569
 6883SOL     OW32107   2.549   2.890  13.396  0.0756  0.0198 -0.0966
 6883SOL    HW132108   2.567   2.849  13.311 -0.3106  0.9262 -0.6144
 6883SOL    HW232109   2.483   2.831  13.434 -1.0900  0.3763 -1.5725
 6884SOL     OW32110   1.317   4.125   4.800 -0.4255  0.6750  0.0485
 6884SOL    HW132111   1.237   4.152   4.845 -0.5773  1.1208 -0.4878
 6884SOL    HW232112   1.361   4.063   4.858 -1.5748 -1.2029 -1.0967
 6885SOL     OW32113   3.027   4.207   8.285  0.0079  0.7036 -0.5755
 6885SOL    HW132114   2.968   4.270   8.245  0.3160  0.5636 -1.2563
 6885SOL    HW232115   2.971   4.159   8.346  0.0646  0.8044 -0.4463
 6886SOL     OW32116   0.096   4.124   1.609  0.2421 -0.5087  0.1579
 6886SOL    HW132117   0.086   4.165   1.695  0.8516  0.3540 -0.1885
 6886SOL    HW232118   0.170   4.169   1.567  0.3307 -0.4529  0.3761
 6887SOL     OW32119   2.098   2.291   4.633  0.3618  0.5531 -0.0183
 6887SOL    HW132120   2.104   2.221   4.568  2.4144  1.4125 -0.7431
 6887SOL    HW232121   2.174   2.343   4.607  0.4964 -0.4533 -1.6809
 6888SOL     OW32122   4.703   3.286   7.399 -0.2620 -0.2365 -0.1226
 6888SOL    HW132123   4.701   3.278   7.494  1.5940  1.9309  0.0984
 6888SOL    HW232124   4.681   3.199   7.365  0.5049 -0.0882 -0.9996
 6889SOL     OW32125   2.345   0.648   8.005 -0.4978  0.5791 -0.0512
 6889SOL    HW132126   2.359   0.572   7.948 -0.8941 -1.0198  1.9704
 6889SOL    HW232127   2.378   0.607   8.085 -1.8096 -0.0156  0.1822
 6890SOL     OW32128   1.167   0.765   5.188 -0.2103  0.2268 -0.1111
 6890SOL    HW132129   1.183   0.801   5.275 -0.7322  1.3870 -0.4949
 6890SOL    HW232130   1.097   0.702   5.208 -0.4273  1.2959  2.4982
 6891SOL     OW32131   3.739   2.880   4.483  0.3601  0.2556 -0.5145
 6891SOL    HW132132   3.723   2.929   4.564 -0.1653  1.3717 -1.2994
 6891SOL    HW232133   3.666   2.910   4.430 -0.8125  0.2022  1.0726
 6892SOL     OW32134   1.605   1.722   6.108 -0.1524  0.3910 -0.4547
 6892SOL    HW132135   1.675   1.774   6.069 -1.0251  1.6315 -0.3524
 6892SOL    HW232136   1.639   1.677   6.186 -4.0920  1.6031  1.9582
 6893SOL     OW32137   4.029   2.850   5.873  0.3651  0.1119 -0.2764
 6893SOL    HW132138   4.004   2.890   5.956  1.3598  2.1219 -0.9460
 6893SOL    HW232139   3.946   2.805   5.859  0.7677 -0.3999 -1.0638
 6894SOL     OW32140   0.047   1.613   4.699 -0.3411  0.4080  0.2191
 6894SOL    HW132141   0.000   1.666   4.634 -0.9374 -0.3172  0.0505
 6894SOL    HW232142   0.038   1.673   4.773  0.3255 -0.4748  1.0072
 6895SOL     OW32143   1.558   3.129   9.127  0.3558  0.0395  0.7376
 6895SOL    HW132144   1.467   3.159   9.119  0.3280 -0.8956 -2.3790
 6895SOL    HW232145   1.566   3.138   9.222  0.1169  1.3375  0.6406
 6896SOL     OW32146   4.268   2.006   8.698  0.2243  0.2869  0.3448
 6896SOL    HW132147   4.325   2.013   8.774  1.0963  1.1054 -0.3791
 6896SOL    HW232148   4.332   2.000   8.627  0.9556 -0.4951  1.0665
 6897SOL     OW32149   3.675   1.106  14.782  0.2013 -0.3971  0.2543
 6897SOL    HW132150   3.682   1.200  14.766  0.3373  0.0572  2.9534
 6897SOL    HW232151   3.630   1.102  14.867 -3.7599  1.7470 -1.7136
 6898SOL     OW32152   2.682   1.452   3.325  0.0074 -0.3457  0.0717
 6898SOL    HW132153   2.619   1.461   3.253 -1.0973 -0.9420  0.9512
 6898SOL    HW232154   2.665   1.534   3.371 -0.3442 -0.4621  0.1540
 6899SOL     OW32155   1.795   3.210  11.209  0.4341 -0.3854  0.2212
 6899SOL    HW132156   1.879   3.221  11.164  0.5834 -0.3274  0.5138
 6899SOL    HW232157   1.740   3.252  11.142  1.6248 -1.6265 -1.5376
 6900SOL     OW32158   1.805   1.295   5.622 -1.3200  0.5245  0.1855
 6900SOL    HW132159   1.864   1.245   5.567 -2.1688  1.6403 -1.7465
 6900SOL    HW232160   1.716   1.272   5.592 -0.5935  0.5733 -2.0027
 6901SOL     OW32161   2.738   1.831   8.733 -0.5200  0.1101 -0.1304
 6901SOL    HW132162   2.659   1.781   8.712 -0.7757  0.3978  0.1491
 6901SOL    HW232163   2.702   1.885   8.804  0.9852  0.0852  0.6593
 6902SOL     OW32164   4.648   0.098   2.121  0.1751 -0.1294  0.3648
 6902SOL    HW132165   4.572   0.134   2.167  0.1183 -1.4178  1.2706
 6902SOL    HW232166   4.678   0.043   2.193 -0.9249  0.0181  0.9343
 6903SOL     OW32167   2.813   0.995   8.317 -0.6660  0.3295 -0.0079
 6903SOL    HW132168   2.854   0.940   8.385 -1.3299  1.2844  1.1646
 6903SOL    HW232169   2.719   0.989   8.331 -0.9824 -1.1029 -2.8771
 6904SOL     OW32170   2.892   0.004   2.598  0.6678 -0.6637 -0.3151
 6904SOL    HW132171   2.829   0.074   2.578 -0.6733 -1.0121  2.5945
 6904SOL    HW232172   2.838   4.655   2.567 -1.9385  1.0427  0.1356
 6905SOL     OW32173   3.341   0.294  16.537 -0.2941  0.1816  0.1479
 6905SOL    HW132174   3.396   0.276  16.461 -0.9794 -2.3019  0.2268
 6905SOL    HW232175   3.314   0.203  16.554  0.3900  0.2760  1.7569
 6906SOL     OW32176   0.903   0.109   1.874 -0.6375 -0.2477 -0.2167
 6906SOL    HW132177   0.879   0.027   1.918  0.3726 -0.8694 -0.8334
 6906SOL    HW232178   0.852   0.096   1.794 -1.2201  0.2671  0.0700
 6907SOL     OW32179   3.738   2.052  15.793  0.2325 -0.6981 -0.1642
 6907SOL    HW132180   3.689   2.060  15.712 -0.5515 -1.1644  0.2713
 6907SOL    HW232181   3.751   2.141  15.826 -0.1631 -0.3100 -1.0643
 6908SOL     OW32182   1.602   3.784   2.612  0.1702  0.1578  0.4448
 6908SOL    HW132183   1.631   3.704   2.654  1.9139 -0.1957 -1.4510
 6908SOL    HW232184   1.594   3.752   2.522  2.7113 -0.6525  0.5186
 6909SOL     OW32185   2.742   1.431   2.068 -0.2680 -0.5948  0.0887
 6909SOL    HW132186   2.790   1.498   2.115 -1.9315  0.5218  0.1903
 6909SOL    HW232187   2.815   1.400   2.014  1.2513  0.5808  1.4923
 6910SOL     OW32188   1.628   3.155   9.811  0.2140  0.8229  0.2514
 6910SOL    HW132189   1.562   3.086   9.804 -0.3453  1.2154  1.6982
 6910SOL    HW232190   1.711   3.107   9.809 -0.1804  0.1914 -0.9146
 6911SOL     OW32191   3.802   0.307   0.717  0.0169 -0.6467  0.1929
 6911SOL    HW132192   3.833   0.276   0.802 -0.1112  1.4357  0.9828
 6911SOL    HW232193   3.770   0.394   0.739  0.6253 -0.2279 -0.5947
 6912SOL     OW32194   3.276   1.206  15.986  0.2345  0.0993  0.3236
 6912SOL    HW132195   3.333   1.132  15.965 -2.0629 -1.2394 -1.0384
 6912SOL    HW232196   3.302   1.277  15.927  1.8042 -1.1168 -0.4558
 6913SOL     OW32197   0.153   3.858  13.881 -0.1734  0.0037  0.4230
 6913SOL    HW132198   0.146   3.777  13.933  1.7124  0.0589  0.7632
 6913SOL    HW232199   0.248   3.864  13.874 -0.1998  1.1959  1.0487
 6914SOL     OW32200   2.658   2.325  15.319  0.1058 -0.7390  0.5543
 6914SOL    HW132201   2.632   2.415  15.337  1.0448 -0.3119 -0.2818
 6914SOL    HW232202   2.746   2.324  15.357 -0.0647  0.8713  0.9812
 6915SOL     OW32203   1.416   2.252  17.043  0.2203 -0.0136  0.0797
 6915SOL    HW132204   1.491   2.204  17.007 -1.0786  0.3283 -3.0763
 6915SOL    HW232205   1.457   2.338  17.049 -1.3455  0.8693 -2.0915
 6916SOL     OW32206   3.967   3.586   1.936  0.0859  0.0039  0.4897
 6916SOL    HW132207   3.964   3.588   1.840 -3.8604 -0.0773  0.6314
 6916SOL    HW232208   4.061   3.583   1.956 -0.0827  3.1584  1.8208
 6917SOL     OW32209   2.901   0.870  16.816  0.0518  0.0978 -0.1971
 6917SOL    HW132210   2.932   0.792  16.862 -2.2753 -0.5245  0.3001
 6917SOL    HW232211   2.838   0.907  16.877 -1.8988 -1.9768 -0.9731
 6918SOL     OW32212   2.180   1.612  16.745  0.3464  0.4045 -0.3878
 6918SOL    HW132213   2.118   1.678  16.776 -1.1480 -0.7022 -1.0254
 6918SOL    HW232214   2.238   1.617  16.821 -1.7896  0.7813  1.2466
 6919SOL     OW32215   0.956   1.760   3.903  0.0978  0.2204  0.1794
 6919SOL    HW132216   1.032   1.817   3.892  1.2463 -1.3611 -0.0061
 6919SOL    HW232217   0.970   1.689   3.841  0.4233  1.3609 -1.0505
 6920SOL     OW32218   1.719   3.257   6.775 -0.4454  0.2695 -0.2623
 6920SOL    HW132219   1.707   3.166   6.746 -0.1939 -0.0105  0.4979
 6920SOL    HW232220   1.780   3.288   6.709  0.5478  0.0608  0.5569
 6921SOL     OW32221   1.838   4.411   8.018 -0.2554  0.6878 -0.5203
 6921SOL    HW132222   1.878   4.342   8.071  1.8752  1.8929 -0.5794
 6921SOL    HW232223   1.750   4.412   8.056 -0.1835 -2.0810 -0.2169
 6922SOL     OW32224   3.564   2.077   5.155 -0.0654  0.4102 -0.1906
 6922SOL    HW132225   3.555   2.066   5.249  0.4203  1.8219  0.0290
 6922SOL    HW232226   3.519   1.996   5.130  0.1120  0.5031 -0.8255
 6923SOL     OW32227   3.458   3.759   0.735 -0.4646 -0.1161  0.7269
 6923SOL    HW132228   3.429   3.727   0.649 -1.1396 -1.2946  1.3890
 6923SOL    HW232229   3.376   3.741   0.782 -0.7143 -0.9175  0.0029
 6924SOL     OW32230   1.380   2.841   3.313 -0.1717 -0.1426 -0.1035
 6924SOL    HW132231   1.292   2.874   3.336 -0.2869 -1.5240  1.4312
 6924SOL    HW232232   1.365   2.795   3.230 -2.5874 -0.3448  0.4247
 6925SOL     OW32233   2.771   2.126  17.593  0.4936 -0.2579  0.1937
 6925SOL    HW132234   2.704   2.085  17.538  0.8405  0.9262 -1.0968
 6925SOL    HW232235   2.836   2.154  17.529  0.9875  0.4303  0.9927
 6926SOL     OW32236   1.287   1.338   3.714 -0.6633  0.0032  0.1640
 6926SOL    HW132237   1.332   1.269   3.762  1.0611  0.4308 -0.8333
 6926SOL    HW232238   1.359   1.389   3.677 -0.9473 -0.1788 -0.6569
 6927SOL     OW32239   3.077   0.742   3.056 -0.1365  0.0476 -0.2886
 6927SOL    HW132240   3.109   0.658   3.089  0.1688 -1.0574 -3.3610
 6927SOL    HW232241   3.134   0.748   2.979 -0.7979  1.3746 -0.6793
 6928SOL     OW32242   1.446   4.016   8.023  0.2303 -0.8028  0.0376
 6928SOL    HW132243   1.516   4.069   8.062 -0.2629  0.2595 -0.5207
 6928SOL    HW232244   1.489   3.931   8.035  1.3167 -0.2289  0.2798
 6929SOL     OW32245   4.127   1.648   7.331 -0.1359  0.3871  0.2705
 6929SOL    HW132246   4.089   1.573   7.285  2.4809 -2.1380  2.1938
 6929SOL    HW232247   4.200   1.665   7.271 -0.8371  2.0968 -0.0811
 6930SOL     OW32248   2.442   2.303   5.569  0.2209  0.1300  0.0736
 6930SOL    HW132249   2.448   2.345   5.654  0.5968  1.5554 -0.6527
 6930SOL    HW232250   2.459   2.215   5.601 -2.7139 -0.8905 -1.1644
 6931SOL     OW32251   0.860   3.882   4.195  0.0913  0.1191  0.5928
 6931SOL    HW132252   0.914   3.809   4.225 -0.5159 -0.6000 -0.0992
 6931SOL    HW232253   0.823   3.915   4.277 -1.3084 -2.3266  0.9243
 6932SOL     OW32254   2.451   4.386   4.400  0.3427  0.0935 -0.6945
 6932SOL    HW132255   2.510   4.330   4.451 -1.1075 -1.3879 -0.6168
 6932SOL    HW232256   2.511   4.457   4.380  0.6999 -0.5392 -1.8646
 6933SOL     OW32257   1.913   0.900   6.147 -0.4422  0.3920  0.4114
 6933SOL    HW132258   1.915   0.972   6.210 -0.9388  0.4549  0.3525
 6933SOL    HW232259   2.002   0.864   6.154 -0.6957 -0.2530  0.3243
 6934SOL     OW32260   3.816   4.435   7.902  0.0150  0.1341  0.2597
 6934SOL    HW132261   3.781   4.427   7.991  2.6361  4.6757  1.7379
 6934SOL    HW232262   3.742   4.421   7.844  0.1224 -0.2175  0.2092
 6935SOL     OW32263   0.129   3.213   6.573 -0.0492  0.6177 -0.7665
 6935SOL    HW132264   0.193   3.179   6.510  0.7697  1.5087 -0.4139
 6935SOL    HW232265   0.110   3.301   6.542  0.6331  1.2086  0.5025
 6936SOL     OW32266   2.568   2.971   4.983  0.2829 -0.0176 -0.2569
 6936SOL    HW132267   2.510   2.919   4.928 -0.2309 -0.2030  0.4631
 6936SOL    HW232268   2.604   3.033   4.919  1.1980 -0.0974  0.1778
 6937SOL     OW32269   1.537   1.321   8.166 -0.6991 -0.1659  0.7709
 6937SOL    HW132270   1.527   1.416   8.153  0.4923 -0.1612 -0.0185
 6937SOL    HW232271   1.531   1.303   8.073  3.5248  0.3986  0.4133
 6938SOL     OW32272   3.116   3.499  17.331  0.4597 -0.7248  0.6686
 6938SOL    HW132273   3.200   3.478  17.371  0.1806 -0.2703  1.5028
 6938SOL    HW232274   3.146   3.493  17.240 -0.5471  1.8396  0.1616
 6939SOL     OW32275   4.605   1.520   4.167  0.6695  0.3758 -0.0399
 6939SOL    HW132276   4.572   1.436   4.199 -0.6379 -0.1916 -2.8494
 6939SOL    HW232277   4.540   1.538   4.099 -0.8505  0.4954  1.4461
 6940SOL     OW32278   1.055   0.301   5.924 -0.1706 -0.6376 -0.0772
 6940SOL    HW132279   1.085   0.282   5.835  2.3061 -0.8997  0.8127
 6940SOL    HW232280   0.985   0.237   5.942 -0.5640  0.6775  3.0324
 6941SOL     OW32281   2.939   0.616   8.758 -0.3748  0.1979 -0.2346
 6941SOL    HW132282   3.002   0.615   8.830  0.2927 -1.1587 -0.8193
 6941SOL    HW232283   2.876   0.681   8.788  0.9439  0.3660  2.1532
 6942SOL     OW32284   0.247   1.972   1.860 -0.3765 -0.3936 -0.1660
 6942SOL    HW132285   0.224   2.064   1.872  0.9631 -0.2538  1.3388
 6942SOL    HW232286   0.233   1.932   1.946 -0.2105 -2.5209 -1.1099
 6943SOL     OW32287   1.954   3.947  14.533  0.0206 -0.1143 -0.2687
 6943SOL    HW132288   2.009   3.869  14.545 -1.0954 -1.4106 -3.2994
 6943SOL    HW232289   1.971   3.984  14.619  0.8287  0.5693 -0.7224
 6944SOL     OW32290   2.506   1.936   3.506  0.2150 -0.2324  0.4152
 6944SOL    HW132291   2.535   1.953   3.596  0.9548  0.4036  0.0560
 6944SOL    HW232292   2.412   1.954   3.503  0.2141 -0.1815  0.7945
 6945SOL     OW32293   1.880   1.820   4.923 -0.1582 -0.0295  0.2430
 6945SOL    HW132294   1.894   1.898   4.870  0.3466 -0.0914  0.2785
 6945SOL    HW232295   1.788   1.804   4.902  0.2413 -2.4846  0.3869
 6946SOL     OW32296   3.582   3.566   1.257  0.1651  0.1221 -0.2433
 6946SOL    HW132297   3.523   3.507   1.210  1.0376 -0.3637 -0.7153
 6946SOL    HW232298   3.637   3.579   1.180  1.6217 -0.6875  0.6716
 6947SOL     OW32299   3.721   0.207   8.129 -0.7600  0.0302 -0.1226
 6947SOL    HW132300   3.815   0.222   8.141 -0.6627 -2.0289  1.7324
 6947SOL    HW232301   3.702   0.235   8.040 -0.4774  0.0410 -0.1801
 6948SOL     OW32302   3.915   0.695   5.792  0.2123 -0.0207 -0.0020
 6948SOL    HW132303   3.899   0.711   5.885 -1.2954  0.4966 -0.3488
 6948SOL    HW232304   3.833   0.664   5.754 -1.2016  3.2870  0.3960
 6949SOL     OW32305   4.274   4.547   8.307  0.3407  1.0447  0.4076
 6949SOL    HW132306   4.228   4.609   8.364  2.7467  3.0439  0.1612
 6949SOL    HW232307   4.253   4.470   8.359  1.3269  0.2153 -0.4108
 6950SOL     OW32308   3.405   3.031   8.652 -0.1718  0.2464 -0.2006
 6950SOL    HW132309   3.405   2.984   8.735  1.5822 -0.7504 -0.7759
 6950SOL    HW232310   3.320   3.013   8.611  0.0512 -1.2833  0.0178
 6951SOL     OW32311   2.041   1.243   6.714  0.1904  0.7273 -0.2274
 6951SOL    HW132312   1.946   1.256   6.717  0.0728 -0.0335 -0.7523
 6951SOL    HW232313   2.046   1.159   6.669 -0.3281  0.2906  0.5113
 6952SOL     OW32314   1.354   1.186  17.388  0.7205 -0.4677  0.5174
 6952SOL    HW132315   1.381   1.177  17.296 -0.4275 -0.8413  0.2164
 6952SOL    HW232316   1.344   1.092  17.405 -1.5278 -0.3703 -0.2761
 6953SOL     OW32317   4.485   4.187   4.424  0.0242 -0.2853 -0.1275
 6953SOL    HW132318   4.461   4.153   4.338 -1.3579  1.3836 -0.4138
 6953SOL    HW232319   4.403   4.235   4.434  0.4703 -0.1455  2.8927
 6954SOL     OW32320   0.298   3.160   3.455  0.3070 -0.0898 -0.1294
 6954SOL    HW132321   0.332   3.105   3.383 -0.9129 -1.5079  0.3746
 6954SOL    HW232322   0.324   3.248   3.430  0.2361  0.7101  2.7476
 6955SOL     OW32323   1.984   4.476   6.441 -0.1826 -0.1743  0.1522
 6955SOL    HW132324   2.020   4.423   6.512  2.1502  0.4688 -0.5677
 6955SOL    HW232325   1.898   4.485   6.482 -1.2051 -1.1564 -1.7937
 6956SOL     OW32326   3.739   3.665   0.534 -0.1007  0.0034  0.4918
 6956SOL    HW132327   3.667   3.603   0.530  0.8680 -1.0411 -0.8764
 6956SOL    HW232328   3.751   3.692   0.625  3.8850  0.3647 -0.1056
 6957SOL     OW32329   0.401   1.812  10.495  0.1225  0.0478 -0.1113
 6957SOL    HW132330   0.464   1.742  10.508 -0.4901 -0.7512 -1.4489
 6957SOL    HW232331   0.442   1.883  10.545  1.1324  0.5726 -1.7048
 6958SOL     OW32332   2.173   3.610   6.179 -0.0109 -0.6263  0.3982
 6958SOL    HW132333   2.154   3.696   6.215 -0.7931 -1.0396  0.9750
 6958SOL    HW232334   2.224   3.632   6.101 -0.6640 -1.5401 -0.2906
 6959SOL     OW32335   4.665   4.077   3.412 -0.1410 -0.5629 -0.2389
 6959SOL    HW132336   4.723   4.059   3.485  2.5790  0.8743 -2.0572
 6959SOL    HW232337   4.601   4.006   3.420 -1.7236  0.6464 -2.1271
 6960SOL     OW32338   1.134   3.363   7.674 -0.9600 -0.4749  0.1431
 6960SOL    HW132339   1.047   3.402   7.687 -0.5851  0.0129  1.1889
 6960SOL    HW232340   1.180   3.418   7.738 -1.0808  0.2974 -0.4215
 6961SOL     OW32341   2.610   0.865   8.510 -0.1972  0.1978 -0.1802
 6961SOL    HW132342   2.621   0.818   8.427  0.6637 -0.4106  0.2815
 6961SOL    HW232343   2.693   0.849   8.554  0.5764  1.4768 -1.1531
 6962SOL     OW32344   4.094   2.967   7.045 -0.0888 -0.0884  0.7469
 6962SOL    HW132345   4.072   3.000   7.132  2.4003 -0.4680  1.5078
 6962SOL    HW232346   4.113   2.875   7.057  0.8166  0.4944  3.5791
 6963SOL     OW32347   0.315   0.941   1.582  0.1725 -0.4418  0.3730
 6963SOL    HW132348   0.374   0.916   1.654  0.5065  0.5133  0.4281
 6963SOL    HW232349   0.316   1.036   1.573  0.0542 -0.3387  1.4511
 6964SOL     OW32350   2.893   1.031   6.128  0.2022 -0.2574  0.1551
 6964SOL    HW132351   2.918   1.000   6.041  1.2997 -3.3062  1.5625
 6964SOL    HW232352   2.921   1.122   6.135  1.5375 -0.6368 -0.2958
 6965SOL     OW32353   3.766   4.651   6.007  0.0425  0.3293  0.0969
 6965SOL    HW132354   3.681   4.610   5.990 -0.1614  0.2502  1.3079
 6965SOL    HW232355   3.749   0.020   6.024 -1.5388  0.1723 -0.5806
 6966SOL     OW32356   3.283   0.903   7.844 -0.3092  0.4161 -0.2960
 6966SOL    HW132357   3.253   0.879   7.756 -2.0751 -0.5577  0.5857
 6966SOL    HW232358   3.288   0.815   7.881 -2.3562  0.6858  0.5608
 6967SOL     OW32359   0.701   3.581   2.672 -0.4308  0.1019 -0.3228
 6967SOL    HW132360   0.643   3.506   2.657  1.1536 -1.0685 -0.6020
 6967SOL    HW232361   0.783   3.536   2.653  0.3548  1.2395  0.3615
 6968SOL     OW32362   0.667   0.881  11.891  0.2046 -0.3552 -0.0691
 6968SOL    HW132363   0.706   0.953  11.842  1.7797 -1.9092 -1.1061
 6968SOL    HW232364   0.577   0.897  11.863  0.4592  0.6772 -0.2799
 6969SOL     OW32365   4.286   4.228   8.021  0.0179  0.2403  0.5928
 6969SOL    HW132366   4.323   4.229   8.109 -0.4888  2.3657  0.7809
 6969SOL    HW232367   4.193   4.218   8.040  0.2804 -1.8999  0.8009
 6970SOL     OW32368   3.984   3.803   6.262  0.7854  0.3255  0.6199
 6970SOL    HW132369   4.033   3.831   6.339  0.4418  0.1133  0.9170
 6970SOL    HW232370   3.936   3.729   6.301  1.9416 -0.7076  0.0699
 6971SOL     OW32371   1.736   3.423   5.712 -0.4674  0.5290  0.7582
 6971SOL    HW132372   1.652   3.383   5.733 -1.0863  0.0468 -2.6246
 6971SOL    HW232373   1.748   3.496   5.772 -2.2920  1.3129  0.1801
 6972SOL     OW32374   4.717   2.312  11.880 -0.0163  0.2270  0.0060
 6972SOL    HW132375   4.627   2.326  11.848  0.0414 -0.3450 -0.4016
 6972SOL    HW232376   0.025   2.279  11.796 -0.3229 -0.3700  0.1216
 6973SOL     OW32377   4.556   1.344   8.945 -0.8399 -0.7346 -0.0710
 6973SOL    HW132378   4.607   1.412   8.989  0.1228  1.3463 -4.4992
 6973SOL    HW232379   4.471   1.380   8.971 -1.4107 -1.9693 -0.2325
 6974SOL     OW32380   3.495   2.930   1.928 -0.2644  0.2885  0.4559
 6974SOL    HW132381   3.412   2.972   1.950 -0.2062  0.5017  0.2580
 6974SOL    HW232382   3.488   2.916   1.834  1.0678  1.3683  0.1962
 6975SOL     OW32383   3.317   2.572   6.400  0.4938  0.0429 -0.3829
 6975SOL    HW132384   3.346   2.568   6.491  2.7064  0.3901 -1.0643
 6975SOL    HW232385   3.255   2.499   6.404  1.8496 -1.1206 -0.5836
 6976SOL     OW32386   3.224   4.403   9.338  0.5144 -0.1052  0.0291
 6976SOL    HW132387   3.139   4.444   9.327  0.5242  0.0242  0.4220
 6976SOL    HW232388   3.234   4.336   9.270 -1.2941 -2.3087  1.9265
 6977SOL     OW32389   1.647   4.082  13.457 -0.3285  0.2956  0.4254
 6977SOL    HW132390   1.727   4.115  13.415 -0.8067  0.8290 -0.0798
 6977SOL    HW232391   1.587   4.157  13.454 -1.1239 -0.3668 -0.2095
 6978SOL     OW32392   3.668   2.313   8.555 -0.5790  0.1671  0.6639
 6978SOL    HW132393   3.752   2.291   8.595 -0.4644  2.4169  1.6955
 6978SOL    HW232394   3.615   2.254   8.608  0.4615  0.4779  2.0565
 6979SOL     OW32395   2.848   0.452   2.581  0.3652 -0.2365 -0.6183
 6979SOL    HW132396   2.920   0.486   2.529 -0.1731  0.9562 -0.5769
 6979SOL    HW232397   2.861   0.516   2.651 -0.7853 -0.6292 -0.0412
 6980SOL     OW32398   0.381   1.671   3.650  0.2160 -0.2603 -0.4031
 6980SOL    HW132399   0.392   1.577   3.634  0.1228 -0.1169 -1.3027
 6980SOL    HW232400   0.469   1.693   3.681  0.4970  1.2216 -2.2664
 6981SOL     OW32401   1.753   4.435   6.593 -0.3223 -0.0582 -0.0912
 6981SOL    HW132402   1.711   4.405   6.674  0.0507 -0.2081  0.0454
 6981SOL    HW232403   1.756   4.530   6.604 -0.6199  0.0772 -1.1460
 6982SOL     OW32404   0.639   2.128   8.650  0.0068  0.2218 -0.1533
 6982SOL    HW132405   0.627   2.158   8.740  3.0592  0.8702  0.0437
 6982SOL    HW232406   0.727   2.160   8.631 -0.2896  0.3453 -1.3084
 6983SOL     OW32407   3.899   4.051   9.489 -0.6256  0.1413  0.3672
 6983SOL    HW132408   3.874   4.089   9.574 -1.1095  3.2035 -1.1449
 6983SOL    HW232409   3.973   4.109   9.474 -2.4656  1.7930 -2.3141
 6984SOL     OW32410   2.517   1.531  13.689 -0.6314 -0.9325  0.1676
 6984SOL    HW132411   2.524   1.484  13.773 -0.1317 -1.0606  0.0578
 6984SOL    HW232412   2.502   1.624  13.706  1.8702 -0.9110  2.2496
 6985SOL     OW32413   3.245   0.208  14.154 -0.1372  0.1039 -0.1468
 6985SOL    HW132414   3.177   0.233  14.092  0.0259  0.8188 -0.0307
 6985SOL    HW232415   3.320   0.242  14.105 -0.5168  2.1395  0.7067
 6986SOL     OW32416   0.325   0.653   6.095 -0.5144  0.1199 -0.4344
 6986SOL    HW132417   0.399   0.673   6.038 -1.8580  1.0365 -1.8274
 6986SOL    HW232418   0.326   0.726   6.158 -2.7107  0.5703 -0.9317
 6987SOL     OW32419   2.952   1.485   4.227  0.4455 -0.2899  0.1452
 6987SOL    HW132420   2.931   1.476   4.320  1.8506  2.9556  0.7605
 6987SOL    HW232421   3.047   1.486   4.236  0.4387 -2.7105  0.5030
 6988SOL     OW32422   1.107   1.307   2.158  0.5567  0.1405  0.2044
 6988SOL    HW132423   1.082   1.370   2.091 -0.6808 -0.4256  0.1385
 6988SOL    HW232424   1.199   1.326   2.179  0.9397 -0.1990 -1.1284
 6989SOL     OW32425   1.799   4.406   2.641 -0.8489 -0.1440 -0.7187
 6989SOL    HW132426   1.713   4.418   2.601 -1.7748  0.4228  1.4670
 6989SOL    HW232427   1.804   4.310   2.637 -1.0544 -0.1197 -1.7213
 6990SOL     OW32428   4.521   2.596   7.002 -0.2295  0.6333 -0.5280
 6990SOL    HW132429   4.590   2.530   7.015 -0.8894  0.1167  0.3646
 6990SOL    HW232430   4.557   2.639   6.925 -0.7589  0.5375 -0.8276
 6991SOL     OW32431   1.737   1.190   8.314  0.4611  0.0521  0.0734
 6991SOL    HW132432   1.805   1.232   8.366  0.8942 -0.5572  0.0038
 6991SOL    HW232433   1.700   1.263   8.265 -2.8822 -1.3797  0.4050
 6992SOL     OW32434   0.911   2.594   5.131  0.1992 -0.1566 -0.3941
 6992SOL    HW132435   0.927   2.514   5.181 -1.6161  0.9991  2.0292
 6992SOL    HW232436   0.825   2.564   5.103 -0.3428  0.2642  0.8047
 6993SOL     OW32437   3.678   3.763   7.460  0.3016 -0.5302  0.1969
 6993SOL    HW132438   3.678   3.736   7.552  0.8965 -0.5703  0.1860
 6993SOL    HW232439   3.773   3.776   7.451 -0.0683  1.2029 -1.0667
 6994SOL     OW32440   2.909   2.797  15.321  0.2604 -0.4160  0.4240
 6994SOL    HW132441   2.991   2.772  15.278 -0.6068 -2.8459  0.1449
 6994SOL    HW232442   2.915   2.892  15.314  0.3492 -0.6104 -1.9558
 6995SOL     OW32443   2.969   1.827   3.313  0.3651 -0.1637 -0.1916
 6995SOL    HW132444   3.005   1.775   3.385 -2.8183 -2.2481 -0.0911
 6995SOL    HW232445   3.040   1.822   3.250  0.6043  0.6643  0.0090
 6996SOL     OW32446   2.819   2.885   0.935  0.1539  0.1809  0.3055
 6996SOL    HW132447   2.851   2.892   1.025  2.3659 -1.9367 -0.3357
 6996SOL    HW232448   2.728   2.873   0.963 -0.2956  1.0029 -0.7933
 6997SOL     OW32449   1.017   4.534   3.129  0.6253  0.8955 -0.2172
 6997SOL    HW132450   0.953   4.463   3.134  1.1180  0.4730  0.1794
 6997SOL    HW232451   1.091   4.496   3.082 -0.0436 -1.1552  0.3862
 6998SOL     OW32452   2.849   4.101   3.465  0.1923  0.3768 -0.2624
 6998SOL    HW132453   2.910   4.048   3.414 -0.8245 -2.4997  1.4917
 6998SOL    HW232454   2.788   4.034   3.497 -0.4415  0.5091 -1.1731
 6999SOL     OW32455   1.517   1.545   7.714  0.4815 -0.0960 -0.1831
 6999SOL    HW132456   1.521   1.460   7.670  2.9491  0.2243 -0.5945
 6999SOL    HW232457   1.490   1.608   7.647 -3.5528 -2.1567 -0.5053
 7000SOL     OW32458   2.970   3.913   3.701 -0.4985  0.1760 -0.1140
 7000SOL    HW132459   2.879   3.916   3.729 -0.4135  0.0758  0.1749
 7000SOL    HW232460   2.983   3.819   3.688 -3.3564 -0.3564  0.9252
 7001SOL     OW32461   0.488   2.534   8.248  0.0751 -0.8765 -0.0191
 7001SOL    HW132462   0.560   2.594   8.231 -1.9824  0.3400 -4.3627
 7001SOL    HW232463   0.520   2.497   8.331 -1.2787  0.7855  1.2361
 7002SOL     OW32464   1.087   3.806   6.045 -0.1634  0.2888 -0.4131
 7002SOL    HW132465   1.070   3.856   5.965 -0.2041  3.4254  1.5663
 7002SOL    HW232466   1.177   3.779   6.027 -0.7468 -2.5690  0.8996
 7003SOL     OW32467   1.175   2.488   5.178  0.0939 -0.0729  0.0751
 7003SOL    HW132468   1.163   2.582   5.162  1.4075  0.7589  3.7658
 7003SOL    HW232469   1.200   2.492   5.271 -0.5586 -0.2921  0.2563
 7004SOL     OW32470   4.651   0.978  15.809  0.2081  0.2367 -0.5238
 7004SOL    HW132471   4.637   1.072  15.823  1.4338  0.3114  0.1642
 7004SOL    HW232472   0.023   0.989  15.808  0.2454  0.1180  1.9676
 7005SOL     OW32473   3.268   3.346   2.079  0.5677  0.0789  0.5214
 7005SOL    HW132474   3.280   3.435   2.111  3.5566  0.0995 -0.6639
 7005SOL    HW232475   3.173   3.356   2.083  0.4986 -0.4780  0.3333
 7006SOL     OW32476   3.341   2.173  11.814 -0.4472 -0.3299 -0.1100
 7006SOL    HW132477   3.369   2.220  11.892 -2.2985  3.3588 -1.6294
 7006SOL    HW232478   3.330   2.081  11.839  4.3935 -0.6686  0.6957
 7007SOL     OW32479   0.389   3.763   7.244 -0.8239 -0.1452  0.0182
 7007SOL    HW132480   0.304   3.802   7.263 -1.1466 -0.5402 -0.6043
 7007SOL    HW232481   0.429   3.758   7.331 -1.4433  1.2086  0.3811
 7008SOL     OW32482   1.440   4.352   9.372  0.1162 -0.1004 -0.1524
 7008SOL    HW132483   1.375   4.281   9.377  0.8261 -0.8358 -1.4211
 7008SOL    HW232484   1.431   4.395   9.457 -1.1443 -0.2790 -0.1996
 7009SOL     OW32485   3.902   3.387  12.489  0.3964  0.3993 -0.5170
 7009SOL    HW132486   3.916   3.300  12.451 -0.9116 -0.5391  1.1334
 7009SOL    HW232487   3.810   3.384  12.514  0.3234  0.2769 -0.8094
 7010SOL     OW32488   3.201   4.694   2.481  0.1547 -0.1641 -0.1808
 7010SOL    HW132489   3.122   4.693   2.427 -0.2685 -0.3417  0.4388
 7010SOL    HW232490   3.250   4.636   2.422 -0.2685  0.1337 -0.8235
 7011SOL     OW32491   1.865   0.465   8.857 -0.3196  0.2224  0.1673
 7011SOL    HW132492   1.794   0.516   8.897 -0.9012 -0.4091 -0.0538
 7011SOL    HW232493   1.849   0.389   8.913  1.1507 -0.3260 -0.1759
 7012SOL     OW32494   0.187   0.541   1.563 -0.0988  0.5754  0.0365
 7012SOL    HW132495   0.191   0.448   1.541 -0.3326  0.8034 -0.9715
 7012SOL    HW232496   0.281   0.559   1.566 -0.0805  0.3797  0.8561
 7013SOL     OW32497   1.605   0.676   7.118  0.0653 -0.3312  0.3163
 7013SOL    HW132498   1.581   0.585   7.097  0.0577  0.4345 -3.0432
 7013SOL    HW232499   1.614   0.675   7.213  0.1298 -1.9899  0.2924
 7014SOL     OW32500   3.701   1.983   6.065 -0.1421  0.2285  1.0308
 7014SOL    HW132501   3.784   1.952   6.101  0.4265  0.5534 -0.0123
 7014SOL    HW232502   3.641   1.910   6.078 -0.9535  1.1446  2.4302
 7015SOL     OW32503   2.039   2.690  15.430  1.0316  0.0251 -0.0664
 7015SOL    HW132504   1.973   2.698  15.361 -0.3929 -1.4436  1.1413
 7015SOL    HW232505   2.008   2.757  15.491 -1.4043  0.1403 -1.4208
 7016SOL     OW32506   4.358   2.286   6.336 -0.3416 -0.0430 -0.5772
 7016SOL    HW132507   4.273   2.248   6.316 -0.3746  0.2866 -1.0427
 7016SOL    HW232508   4.372   2.354   6.271  1.2292  0.1456 -0.0636
 7017SOL     OW32509   2.552   0.435   8.466 -0.3610 -0.2577 -1.0900
 7017SOL    HW132510   2.531   0.505   8.528  1.1183 -1.5794  0.9022
 7017SOL    HW232511   2.578   0.354   8.510  0.1314  1.8692  2.5927
 7018SOL     OW32512   2.389   3.595   5.925 -0.8375 -0.0020 -0.0113
 7018SOL    HW132513   2.405   3.614   6.017 -2.1698  3.2497 -0.4443
 7018SOL    HW232514   2.466   3.544   5.901 -0.7531 -0.9579  2.2627
 7019SOL     OW32515   2.386   3.713  11.130  0.5956  0.4599 -0.1977
 7019SOL    HW132516   2.433   3.781  11.178  0.4665  0.3219  0.1315
 7019SOL    HW232517   2.458   3.653  11.111 -0.0501 -0.5374  0.4393
 7020SOL     OW32518   2.373   2.413   0.701  0.2524 -0.1685  0.5644
 7020SOL    HW132519   2.327   2.329   0.690  0.8029 -0.4463  0.3660
 7020SOL    HW232520   2.352   2.459   0.620 -1.7029 -0.8298  0.7070
 7021SOL     OW32521   1.355   1.306   1.173  0.7565 -0.4853  0.4752
 7021SOL    HW132522   1.410   1.358   1.115  0.7807 -1.2892 -0.2266
 7021SOL    HW232523   1.310   1.241   1.119 -1.0081  1.2879 -0.2204
 7022SOL     OW32524   3.858   1.900  11.322 -0.1351  0.6374  0.4135
 7022SOL    HW132525   3.947   1.929  11.340  1.2705 -0.7979 -4.0505
 7022SOL    HW232526   3.812   1.956  11.384  0.4234 -0.3339  1.7136
 7023SOL     OW32527   2.490   2.687   0.375 -0.2006  0.0908  0.1899
 7023SOL    HW132528   2.479   2.782   0.379 -0.6826  0.0723 -0.6055
 7023SOL    HW232529   2.542   2.670   0.297  0.1564  0.4386  0.3559
 7024SOL     OW32530   4.502   3.206   3.571  0.0493 -0.3494  0.5168
 7024SOL    HW132531   4.508   3.222   3.665 -0.0763  3.0994 -0.0743
 7024SOL    HW232532   4.438   3.136   3.586  1.1025 -1.5215 -0.4411
 7025SOL     OW32533   2.660   3.069   4.077 -0.1748  0.4933 -0.0478
 7025SOL    HW132534   2.604   2.991   4.075  1.7586 -0.9088  1.7610
 7025SOL    HW232535   2.716   3.033   4.145  0.5525 -2.3136 -2.1459
 7026SOL     OW32536   4.265   2.826   5.723 -0.1905 -0.0351  0.0381
 7026SOL    HW132537   4.190   2.830   5.783 -0.0806  0.5387  0.1355
 7026SOL    HW232538   4.227   2.806   5.637  0.8462  1.0829 -0.6716
 7027SOL     OW32539   0.552   0.226   9.280  0.5513 -0.5566 -0.4135
 7027SOL    HW132540   0.621   0.248   9.219 -0.9393  0.9337 -1.5544
 7027SOL    HW232541   0.478   0.273   9.242  1.3406 -0.9577 -2.4074
 7028SOL     OW32542   2.804   3.349  10.113 -0.3260  0.5219 -0.3675
 7028SOL    HW132543   2.839   3.382  10.196  0.2293 -1.4731  0.1926
 7028SOL    HW232544   2.885   3.347  10.062 -0.7456 -0.8994 -0.9851
 7029SOL     OW32545   3.498   3.294   5.844  0.0020 -0.2726  0.1563
 7029SOL    HW132546   3.504   3.263   5.934  1.9219 -0.0400  0.1083
 7029SOL    HW232547   3.439   3.369   5.843 -0.1922 -0.4135  1.2531
 7030SOL     OW32548   4.306   3.275  12.983 -0.0939  0.1508  0.0200
 7030SOL    HW132549   4.265   3.242  12.903 -0.4834  1.4453 -0.3091
 7030SOL    HW232550   4.394   3.243  12.962 -0.0789  0.4846 -0.4219
 7031SOL     OW32551   3.056   0.923  12.528 -0.2366  0.4215  0.3494
 7031SOL    HW132552   3.026   1.011  12.505  1.0705  1.4046  2.3676
 7031SOL    HW232553   3.138   0.918  12.480 -0.4390 -0.1112  0.0582
 7032SOL     OW32554   3.515   4.205   1.974 -0.3384 -0.2524 -0.2075
 7032SOL    HW132555   3.583   4.144   1.946 -0.2313 -0.8932  1.4232
 7032SOL    HW232556   3.432   4.163   1.956 -0.8483  0.6647  0.0165
 7033SOL     OW32557   2.910   2.846   8.526 -0.0020  0.3806 -0.6084
 7033SOL    HW132558   2.886   2.807   8.442  1.0196  2.1795 -1.7239
 7033SOL    HW232559   2.855   2.925   8.525  1.5431  1.4800  0.4861
 7034SOL     OW32560   2.189   4.029   3.733  0.3274 -0.0689  0.5080
 7034SOL    HW132561   2.176   3.964   3.664 -0.8168  0.2329  0.4421
 7034SOL    HW232562   2.208   3.980   3.813  1.8006  2.8189  1.9255
 7035SOL     OW32563   2.292   3.203   4.181  0.8499 -0.1153  0.1997
 7035SOL    HW132564   2.309   3.158   4.098 -0.8933  1.1522 -0.8620
 7035SOL    HW232565   2.268   3.289   4.145  0.0306 -0.6496 -0.5341
 7036SOL     OW32566   2.866   1.494   4.525 -0.7115 -0.5676  0.0678
 7036SOL    HW132567   2.873   1.586   4.500 -1.5901 -0.6461 -0.4424
 7036SOL    HW232568   2.849   1.496   4.619 -0.4433  0.9186  0.0952
 7037SOL     OW32569   1.846   0.912   0.700 -0.6631 -0.6179  0.1556
 7037SOL    HW132570   1.908   0.874   0.763  1.2276 -1.2732 -2.1007
 7037SOL    HW232571   1.829   0.987   0.757  1.0121 -0.0964 -0.0385
 7038SOL     OW32572   2.576   3.557   6.192  0.1929  0.2948 -0.0853
 7038SOL    HW132573   2.534   3.625   6.245  0.5632 -0.5084  1.2327
 7038SOL    HW232574   2.668   3.573   6.211 -0.0461 -1.1982  2.2141
 7039SOL     OW32575   1.181   4.282   1.648 -0.1472 -0.4344  0.0309
 7039SOL    HW132576   1.237   4.357   1.665 -2.3853  1.7445 -2.1624
 7039SOL    HW232577   1.117   4.291   1.719 -0.6035 -2.2753 -0.1327
 7040SOL     OW32578   4.365   0.424   4.365  0.3882 -0.3059 -0.4078
 7040SOL    HW132579   4.339   0.396   4.453 -0.0557  2.7835  0.4513
 7040SOL    HW232580   4.460   0.436   4.376  0.5395 -1.5001 -0.4307
 7041SOL     OW32581   2.125   2.285   2.312 -0.3581  0.4561  0.3492
 7041SOL    HW132582   2.102   2.277   2.219  0.3626 -0.8615  0.2883
 7041SOL    HW232583   2.100   2.209   2.363  2.5792 -0.2013  0.8204
 7042SOL     OW32584   1.121   4.008  15.369 -0.1167 -0.3347 -0.2802
 7042SOL    HW132585   1.145   4.034  15.280 -2.1786  0.4943 -0.5975
 7042SOL    HW232586   1.038   4.055  15.376 -0.8664 -1.9796  1.9682
 7043SOL     OW32587   1.683   1.169   3.333  0.6277  0.5691  0.0723
 7043SOL    HW132588   1.769   1.144   3.300 -0.5361 -1.1139 -1.7458
 7043SOL    HW232589   1.689   1.264   3.335 -0.2095  0.6248  0.2448
 7044SOL     OW32590   4.593   1.864  15.095  0.1142 -0.3430  0.1534
 7044SOL    HW132591   4.629   1.889  15.010  0.5336  2.2176  1.0660
 7044SOL    HW232592   4.632   1.779  15.117  0.3306 -0.0003  1.1216
 7045SOL     OW32593   1.406   1.566   3.071  0.1821  0.4833 -0.1688
 7045SOL    HW132594   1.466   1.516   3.015 -0.2740 -0.1833 -0.0546
 7045SOL    HW232595   1.394   1.509   3.147  0.6400 -2.8741 -2.6103
 7046SOL     OW32596   3.756   2.507   4.617  0.6094  0.3658  0.4836
 7046SOL    HW132597   3.781   2.429   4.667  0.4948  0.7188  1.0900
 7046SOL    HW232598   3.756   2.576   4.682  1.0166  0.4533  0.3912
 7047SOL     OW32599   0.945   1.923   2.980  0.6495  0.4794 -0.3620
 7047SOL    HW132600   0.917   1.983   2.911  0.3149 -0.1128 -0.7420
 7047SOL    HW232601   0.886   1.849   2.961  0.7962  0.6556 -1.4581
 7048SOL     OW32602   4.721   0.694   2.867  0.1338 -0.7468 -0.3970
 7048SOL    HW132603   0.041   0.675   2.784 -0.5176  3.9359 -1.8225
 7048SOL    HW232604   0.060   0.649   2.924 -0.7382 -1.1827  0.2162
 7049SOL     OW32605   1.482   4.655   6.991  0.1747 -0.5797  0.4099
 7049SOL    HW132606   1.466   4.570   7.034 -2.2270 -0.6619 -0.6321
 7049SOL    HW232607   1.577   4.655   6.986  0.1778  3.6327  0.2704
 7050SOL     OW32608   2.636   0.040   4.771 -0.1707  0.3266  0.2663
 7050SOL    HW132609   2.726   0.059   4.745  0.8438 -2.5106  1.7582
 7050SOL    HW232610   2.582   0.117   4.749 -3.4283 -1.8363  0.7579
 7051SOL     OW32611   0.434   1.547   7.532 -0.4530  0.2289  0.7173
 7051SOL    HW132612   0.369   1.488   7.569 -0.4619  0.6745  1.4079
 7051SOL    HW232613   0.377   1.610   7.487 -0.9621  0.9412  2.3842
 7052SOL     OW32614   4.420   0.513   8.664 -0.0735  0.3411  0.5975
 7052SOL    HW132615   4.389   0.517   8.573 -0.2930  1.4805  0.7256
 7052SOL    HW232616   4.451   0.423   8.672 -0.8850 -0.0340 -0.3705
 7053SOL     OW32617   2.566   2.800   6.330 -0.3168  0.4661 -0.5183
 7053SOL    HW132618   2.547   2.770   6.419  0.1073 -0.4415 -0.7398
 7053SOL    HW232619   2.625   2.726   6.316 -1.1449 -0.8260  2.7155
 7054SOL     OW32620   0.552   2.633   7.387 -0.7791  0.3672 -0.1150
 7054SOL    HW132621   0.480   2.607   7.445 -0.4181 -0.5915 -0.0912
 7054SOL    HW232622   0.630   2.618   7.440 -1.7600  0.6633  1.4457
 7055SOL     OW32623   1.879   4.058   3.351 -0.0323  0.1425  0.3732
 7055SOL    HW132624   1.952   4.120   3.358  0.4399 -0.5229  1.2597
 7055SOL    HW232625   1.913   3.989   3.296  1.2664  2.3833 -1.6334
 7056SOL     OW32626   3.632   4.254   5.723 -0.7710  0.1233  0.1103
 7056SOL    HW132627   3.668   4.334   5.683 -0.8762  0.1995  0.1689
 7056SOL    HW232628   3.703   4.229   5.781  0.4904  0.3117 -1.3498
 7057SOL     OW32629   2.554   1.986   8.383 -0.7005 -0.4957  0.1592
 7057SOL    HW132630   2.490   1.986   8.312 -0.8657 -1.5955  0.3011
 7057SOL    HW232631   2.522   1.913   8.436  1.8009 -1.4394  0.3899
 7058SOL     OW32632   1.081   3.161   6.205  0.0173  0.3457 -0.2645
 7058SOL    HW132633   1.111   3.188   6.291 -0.7763  2.8971 -0.7941
 7058SOL    HW232634   1.166   3.160   6.161  0.8689  2.2552  1.3837
 7059SOL     OW32635   0.056   2.997   8.340 -1.2221 -0.1407  0.4539
 7059SOL    HW132636   0.075   3.068   8.401  3.8954 -1.0435 -0.1342
 7059SOL    HW232637   4.695   3.022   8.303 -1.4021 -0.1638  0.8501
 7060SOL     OW32638   2.852   1.358  17.415 -0.1484 -0.2817  0.3372
 7060SOL    HW132639   2.922   1.416  17.384  1.3541 -2.3248 -0.0845
 7060SOL    HW232640   2.803   1.426  17.462 -1.1491  0.9108 -2.4069
 7061SOL     OW32641   1.766   2.905   7.186 -0.3548  0.5334 -0.2769
 7061SOL    HW132642   1.811   2.969   7.131 -1.4006 -0.1058 -1.8877
 7061SOL    HW232643   1.716   2.856   7.121  0.0214  2.1136 -1.7771
 7062SOL     OW32644   0.337   3.665  12.204  0.0221 -0.0628  0.1163
 7062SOL    HW132645   0.244   3.683  12.216  0.0043  0.1365 -0.2987
 7062SOL    HW232646   0.359   3.594  12.265  0.0107 -0.0919  0.0867
 7063SOL     OW32647   2.529   2.863  13.119 -0.5999  0.0178 -0.1174
 7063SOL    HW132648   2.557   2.953  13.104 -1.8329  0.6334  1.2351
 7063SOL    HW232649   2.531   2.821  13.033 -0.1869 -0.0844 -0.0562
 7064SOL     OW32650   4.464   0.180   2.307 -0.6356 -0.0926 -0.5096
 7064SOL    HW132651   4.455   0.271   2.334 -1.1679 -0.8035  1.7565
 7064SOL    HW232652   4.397   0.135   2.359 -0.0800 -2.3317 -1.6940
 7065SOL     OW32653   3.663   1.512   6.857 -0.0029  0.1140  0.1657
 7065SOL    HW132654   3.663   1.428   6.903 -0.5770  0.1154  0.1611
 7065SOL    HW232655   3.696   1.489   6.770 -1.4593 -0.7890 -0.1481
 7066SOL     OW32656   2.925   2.248  12.907  0.3025 -0.3052 -0.0528
 7066SOL    HW132657   2.979   2.270  12.983 -0.2049 -2.8230  1.0269
 7066SOL    HW232658   2.937   2.154  12.916 -2.7488 -0.6101  0.9195
 7067SOL     OW32659   3.409   0.042   5.007  0.4591 -0.2547 -0.0764
 7067SOL    HW132660   3.408   4.679   4.965 -1.6660  0.0146 -0.6058
 7067SOL    HW232661   3.437   0.092   4.930  1.6086 -1.3302 -0.3612
 7068SOL     OW32662   3.050   4.396   5.621 -0.3859  0.3187 -0.2947
 7068SOL    HW132663   3.136   4.409   5.581 -0.3844 -1.4791 -0.8896
 7068SOL    HW232664   3.000   4.449   5.559  1.1681  1.8259 -0.2505
 7069SOL     OW32665   3.459   4.660   6.194 -0.1911  0.1897  0.3359
 7069SOL    HW132666   3.422   0.020   6.223 -0.3963  0.6145 -1.1237
 7069SOL    HW232667   3.411   4.641   6.113 -0.7236  2.8963 -0.0022
 7070SOL     OW32668   0.557   0.796   3.458 -0.2855 -0.0660 -0.6000
 7070SOL    HW132669   0.490   0.730   3.438  0.8122 -0.6385 -2.3984
 7070SOL    HW232670   0.556   0.791   3.553  2.6627  1.9315 -0.5065
 7071SOL     OW32671   2.336   2.091   6.252  0.5737 -0.7468  0.4568
 7071SOL    HW132672   2.292   2.096   6.337 -1.4210  1.1429 -0.6762
 7071SOL    HW232673   2.277   2.059   6.184 -1.3176  1.6116  1.0167
 7072SOL     OW32674   2.154   1.787  17.450  0.5870 -0.8496  0.2306
 7072SOL    HW132675   2.091   1.755  17.385  1.6664  1.1852 -1.7984
 7072SOL    HW232676   2.185   1.867  17.408  1.4303 -0.6322  1.2841
 7073SOL     OW32677   0.512   0.364   8.088  0.0150 -0.3214 -0.1503
 7073SOL    HW132678   0.477   0.427   8.026 -2.6305 -0.8729  0.7716
 7073SOL    HW232679   0.459   0.379   8.166 -1.1200 -1.8221 -0.6217
 7074SOL     OW32680   1.449   2.545  11.918  0.2218  0.4048  0.4448
 7074SOL    HW132681   1.443   2.511  12.007  0.4549  1.1845  0.7632
 7074SOL    HW232682   1.390   2.485  11.874  1.2961 -2.1347  2.4791
 7075SOL     OW32683   0.002   1.820   5.537  0.1566 -0.6234  0.5279
 7075SOL    HW132684   4.640   1.863   5.543  0.7587  0.5729  0.4172
 7075SOL    HW232685   4.719   1.752   5.605 -2.4008 -0.4792  0.4221
 7076SOL     OW32686   1.116   4.193   3.130  0.3309 -0.2105  0.2963
 7076SOL    HW132687   1.024   4.168   3.122  0.8602 -2.1977  0.4083
 7076SOL    HW232688   1.124   4.191   3.226  1.3313  2.1047  0.2615
 7077SOL     OW32689   3.899   4.587   6.228 -0.1487 -0.4691 -0.1795
 7077SOL    HW132690   3.950   4.509   6.205  0.5560 -0.4263  1.2284
 7077SOL    HW232691   3.870   4.619   6.142  1.5065  0.3728 -0.4377
 7078SOL     OW32692   2.120   4.576   9.359  0.3032 -0.2026  0.1884
 7078SOL    HW132693   2.048   4.635   9.383  0.4376 -0.7641  1.9625
 7078SOL    HW232694   2.161   4.576   9.446  1.0281 -0.1048 -0.1612
 7079SOL     OW32695   2.042   0.514   6.563 -0.0684 -0.5054  0.3124
 7079SOL    HW132696   2.129   0.509   6.603 -0.2679  2.2817  1.0986
 7079SOL    HW232697   2.015   0.423   6.546  1.9861 -1.0816  0.0818
 7080SOL     OW32698   0.480   4.385  12.744 -0.2368 -0.1091 -0.5376
 7080SOL    HW132699   0.446   4.311  12.795 -1.3715  1.1050  0.4985
 7080SOL    HW232700   0.541   4.348  12.681 -0.1186 -0.8059 -0.0063
 7081SOL     OW32701   1.490   1.931   1.518  0.2106 -0.1063 -0.0261
 7081SOL    HW132702   1.433   1.963   1.588 -1.2055 -0.8966 -0.8342
 7081SOL    HW232703   1.444   1.853   1.489 -2.0340  1.1152  0.2452
 7082SOL     OW32704   4.266   4.488   2.745 -0.7392  0.1613  0.2579
 7082SOL    HW132705   4.224   4.565   2.708  0.4834  0.7898  0.1646
 7082SOL    HW232706   4.303   4.530   2.823  0.7133 -0.4071 -0.1254
 7083SOL     OW32707   1.315   2.907   9.781 -0.3638 -0.3531  0.5439
 7083SOL    HW132708   1.298   2.879   9.691 -1.4964  0.1850  0.5943
 7083SOL    HW232709   1.237   2.880   9.828  0.1271 -0.5942  1.2275
 7084SOL     OW32710   3.923   0.904   2.573  0.3852  0.2349  0.4245
 7084SOL    HW132711   3.839   0.933   2.610 -1.0913 -2.1327 -0.9965
 7084SOL    HW232712   3.927   0.817   2.613 -0.1225  1.5282  3.2578
 7085SOL     OW32713   1.772   0.212   2.837 -0.2152  0.1576  0.6887
 7085SOL    HW132714   1.831   0.145   2.871  0.0146 -0.0772 -0.1558
 7085SOL    HW232715   1.733   0.243   2.918  1.3539  2.1974  0.6552
 7086SOL     OW32716   4.680   4.544   0.222 -0.3072  0.2831 -0.5461
 7086SOL    HW132717   4.606   4.510   0.172 -0.1257  0.0387 -0.6466
 7086SOL    HW232718   4.671   4.638   0.207 -0.4289  0.3697  0.0547
 7087SOL     OW32719   3.053   3.741  15.644  0.2253  0.3969 -0.0734
 7087SOL    HW132720   3.125   3.732  15.582  0.6780  1.4002  0.3048
 7087SOL    HW232721   3.009   3.817  15.606  0.7983  2.4552  3.4059
 7088SOL     OW32722   4.487   1.339   9.311 -0.1270  0.0757 -0.6509
 7088SOL    HW132723   4.531   1.254   9.311 -0.9269 -0.3343  0.8017
 7088SOL    HW232724   4.554   1.389   9.265 -1.4983  2.0330 -0.5139
 7089SOL     OW32725   2.568   4.572   7.523  0.0473 -0.1421 -0.3268
 7089SOL    HW132726   2.569   4.499   7.461  4.3258 -0.6980  0.3898
 7089SOL    HW232727   2.491   4.621   7.495 -0.3500 -2.1157 -2.6456
 7090SOL     OW32728   1.951   0.894   4.933 -0.1721 -0.0411  0.4422
 7090SOL    HW132729   2.019   0.905   4.999  0.6073  0.3475 -0.4235
 7090SOL    HW232730   1.915   0.983   4.935 -0.0307  0.0052  0.8416
 7091SOL     OW32731   1.047   3.557  11.768 -0.4882  0.8037  0.3189
 7091SOL    HW132732   1.008   3.596  11.846  2.3600  0.0668  2.0866
 7091SOL    HW232733   1.056   3.627  11.703  0.6057 -0.3927 -0.8183
 7092SOL     OW32734   2.710   1.467   8.874  0.0025 -0.4961 -0.2591
 7092SOL    HW132735   2.694   1.424   8.790 -0.5980  0.1333 -0.4694
 7092SOL    HW232736   2.630   1.516   8.894  1.7521  2.2387  0.1593
 7093SOL     OW32737   0.304   1.928   3.507  0.3200  0.2434 -0.2062
 7093SOL    HW132738   0.310   1.907   3.414  0.9229 -0.2702 -0.0518
 7093SOL    HW232739   0.322   1.842   3.545  0.2844  1.5353  2.7825
 7094SOL     OW32740   1.053   3.654  10.812 -1.0339 -0.7246 -0.7570
 7094SOL    HW132741   1.071   3.742  10.779 -0.9484 -0.3305  0.3272
 7094SOL    HW232742   1.133   3.610  10.782  0.8986  1.1903  1.5858
 7095SOL     OW32743   2.423   2.015  11.719  0.0780 -0.1343 -0.3854
 7095SOL    HW132744   2.507   2.056  11.741 -0.3468  0.4420  0.1619
 7095SOL    HW232745   2.455   1.931  11.687  0.1640 -0.0944 -0.4050
 7096SOL     OW32746   3.100   1.131  17.241  0.0449  0.0543  0.2407
 7096SOL    HW132747   3.167   1.085  17.292 -0.0323 -0.1150  0.1888
 7096SOL    HW232748   3.022   1.105  17.291  0.5357  1.2780  1.6501
 7097SOL     OW32749   0.151   1.897  16.099 -0.0269  0.1465 -0.1340
 7097SOL    HW132750   0.145   1.802  16.112 -0.6275  0.1558 -0.3675
 7097SOL    HW232751   0.107   1.926  16.179  0.4180  1.3879 -0.3475
 7098SOL     OW32752   0.970   1.760   2.105 -0.5558  0.3182 -0.0683
 7098SOL    HW132753   1.034   1.729   2.170 -0.5330 -1.6968 -1.0548
 7098SOL    HW232754   0.965   1.850   2.136 -0.6842  0.3781 -0.2615
 7099SOL     OW32755   4.649   0.739   7.255 -0.4338  0.1362  0.5096
 7099SOL    HW132756   4.704   0.726   7.178 -0.9142 -0.1199  0.2084
 7099SOL    HW232757   4.642   0.834   7.261  1.6077  0.3060  0.2229
 7100SOL     OW32758   4.460   4.552   6.886  0.1075  0.2304 -0.1556
 7100SOL    HW132759   4.525   4.497   6.930  1.0109  0.6207 -1.0294
 7100SOL    HW232760   4.493   4.636   6.916  1.3921 -0.9547  1.7517
 7101SOL     OW32761   4.375   1.345   0.380  0.2804 -0.2718  0.1493
 7101SOL    HW132762   4.356   1.335   0.473  1.3295 -0.2602  0.3590
 7101SOL    HW232763   4.439   1.274   0.374  0.1048 -0.2020 -2.5997
 7102SOL     OW32764   2.926   1.976   6.710  0.3120  0.7410  0.5111
 7102SOL    HW132765   2.948   1.912   6.778  1.7296 -0.5032 -1.1265
 7102SOL    HW232766   2.846   2.009   6.752  0.5129  1.7957  0.0642
 7103SOL     OW32767   1.366   0.383   6.587 -0.6184 -0.2954  0.7366
 7103SOL    HW132768   1.342   0.462   6.539  0.5821 -0.5194 -0.2104
 7103SOL    HW232769   1.325   0.311   6.538  0.3633 -0.4422  0.1517
 7104SOL     OW32770   1.169   2.142   2.374  0.1462  0.4087  0.3173
 7104SOL    HW132771   1.258   2.158   2.344 -0.3949  1.9892 -0.4311
 7104SOL    HW232772   1.183   2.097   2.457 -0.4704  0.0411  0.2278
 7105SOL     OW32773   3.302   1.161  13.182 -0.2852 -0.0093  0.5110
 7105SOL    HW132774   3.220   1.161  13.132  0.0709  0.9886 -0.0660
 7105SOL    HW232775   3.291   1.082  13.236 -0.5422 -0.9107 -0.8559
 7106SOL     OW32776   4.099   1.740   6.906 -0.1074 -0.1705 -0.1843
 7106SOL    HW132777   4.176   1.739   6.963 -1.2016  1.5953  1.3608
 7106SOL    HW232778   4.030   1.726   6.971 -1.7024  1.0270 -1.6166
 7107SOL     OW32779   3.319   0.910   8.137 -0.5066 -0.0054  0.0809
 7107SOL    HW132780   3.310   1.005   8.151 -1.0443 -0.3483  1.9985
 7107SOL    HW232781   3.255   0.894   8.068 -1.1172  0.0664  0.6257
 7108SOL     OW32782   3.432   3.988   5.803 -0.5532 -0.0998  0.4212
 7108SOL    HW132783   3.414   4.006   5.711  0.6496  0.6956  0.3446
 7108SOL    HW232784   3.520   4.021   5.822 -0.1716 -0.2485 -1.0727
 7109SOL     OW32785   4.681   2.194  16.273  0.5289 -0.3679  0.3984
 7109SOL    HW132786   4.652   2.159  16.189 -1.1264 -0.3808  0.9658
 7109SOL    HW232787   0.007   2.118  16.301 -0.9542 -2.4917 -2.8009
 7110SOL     OW32788   3.025   2.102  17.491  0.1780  0.3074  0.2579
 7110SOL    HW132789   3.064   2.128  17.574 -1.1905 -0.5793  1.1637
 7110SOL    HW232790   3.100   2.067  17.443  1.9350  0.7804  2.6722
 7111SOL     OW32791   3.075   1.950   5.000 -0.5166  0.0962 -0.4933
 7111SOL    HW132792   3.123   1.904   4.931  1.7707  0.9207  0.5558
 7111SOL    HW232793   3.132   2.026   4.995 -1.5072  0.8834  0.1468
 7112SOL     OW32794   2.396   1.627   3.860 -0.1924 -0.1483  0.2015
 7112SOL    HW132795   2.346   1.573   3.922 -2.4954  0.9678 -0.6999
 7112SOL    HW232796   2.329   1.663   3.803 -1.5786 -2.3175  0.4489
 7113SOL     OW32797   1.279   2.680  14.597 -0.1016 -0.6225  0.1694
 7113SOL    HW132798   1.208   2.660  14.659 -1.2168  2.2739 -0.1513
 7113SOL    HW232799   1.358   2.698  14.649  0.4982 -2.0085 -0.2721
 7114SOL     OW32800   2.950   0.040   8.688  0.1455  0.5464  1.1718
 7114SOL    HW132801   2.936   0.115   8.630 -0.4927 -0.6882 -0.2781
 7114SOL    HW232802   3.001   0.083   8.757 -0.4739 -1.2122  2.7323
 7115SOL     OW32803   3.207   0.030   3.572  0.2406  0.6539  0.1280
 7115SOL    HW132804   3.248   0.036   3.485 -0.1230 -0.4070 -0.1164
 7115SOL    HW232805   3.269   4.702   3.623  1.6067  4.1648  2.0076
 7116SOL     OW32806   0.377   1.579  16.951 -0.0157 -0.2469  0.3427
 7116SOL    HW132807   0.317   1.580  16.877 -0.3308 -0.1659  0.6028
 7116SOL    HW232808   0.431   1.651  16.917  0.0857 -0.6449 -0.3325
 7117SOL     OW32809   3.552   1.528  14.230 -0.5147  0.3718 -0.3323
 7117SOL    HW132810   3.487   1.544  14.161 -3.7105 -0.0264  2.6109
 7117SOL    HW232811   3.632   1.534  14.177 -0.5745  2.1240 -0.2192
 7118SOL     OW32812   3.902   3.275   0.505 -0.5522 -0.5077 -0.1711
 7118SOL    HW132813   3.934   3.208   0.445  0.3216 -2.1153  2.1011
 7118SOL    HW232814   3.909   3.350   0.446  0.7482 -1.0825 -0.7396
 7119SOL     OW32815   1.072   1.432   4.105  0.0429 -0.1857  0.0646
 7119SOL    HW132816   1.064   1.453   4.012 -0.2450 -3.2725 -0.6078
 7119SOL    HW232817   0.991   1.383   4.121 -1.8511  3.0762  0.4724
 7120SOL     OW32818   0.998   3.757   5.166  0.5124  0.0781  0.6531
 7120SOL    HW132819   1.023   3.811   5.091  0.4916  0.6310  1.0397
 7120SOL    HW232820   0.919   3.716   5.131  1.3089 -0.6576 -0.2835
 7121SOL     OW32821   3.752   1.933   8.357  0.0051  0.4333  0.4608
 7121SOL    HW132822   3.837   1.975   8.341 -0.4887  1.1498 -0.2909
 7121SOL    HW232823   3.760   1.953   8.450 -0.8855  0.3671  0.5485
 7122SOL     OW32824   1.505   3.207   7.374 -0.3276 -0.2724  0.0717
 7122SOL    HW132825   1.422   3.248   7.399  0.2177  0.0271  1.3995
 7122SOL    HW232826   1.489   3.114   7.394 -2.4523  0.2411  0.7423
 7123SOL     OW32827   4.166   4.629   9.492 -0.3238 -0.2566 -0.1638
 7123SOL    HW132828   4.146   4.669   9.577 -2.6837 -0.9997 -0.3677
 7123SOL    HW232829   4.225   4.689   9.446 -1.7365  1.0361 -0.2966
 7124SOL     OW32830   3.805   3.565   6.895  0.1327  0.0311 -0.3908
 7124SOL    HW132831   3.850   3.627   6.953 -0.0457 -2.0376  1.9617
 7124SOL    HW232832   3.731   3.550   6.954  1.8275  0.5655  1.8882
 7125SOL     OW32833   2.865   0.307   6.799 -0.0511  0.1493  0.5702
 7125SOL    HW132834   2.863   0.211   6.801  3.7252  0.0914  0.5425
 7125SOL    HW232835   2.801   0.312   6.870 -1.1332 -2.1459 -0.2282
 7126SOL     OW32836   4.387   1.208  11.433  0.0343  0.1258  0.1792
 7126SOL    HW132837   4.439   1.196  11.354 -0.2501 -0.2986  0.0599
 7126SOL    HW232838   4.453   1.256  11.484 -0.5851  1.0131  0.1430
 7127SOL     OW32839   4.323   4.682   3.451  0.5337 -0.3252 -0.1363
 7127SOL    HW132840   4.266   4.627   3.398  0.1388  0.5387 -0.5994
 7127SOL    HW232841   4.346   0.027   3.389 -1.3905 -0.0164 -0.5261
 7128SOL     OW32842   1.546   4.536  16.457  0.2174  0.3241 -0.7615
 7128SOL    HW132843   1.584   4.623  16.459 -0.1231  0.4485  0.3885
 7128SOL    HW232844   1.465   4.545  16.406 -0.2319  1.1345  0.1129
 7129SOL     OW32845   0.733   1.500   6.426  1.0353  0.8196  0.2047
 7129SOL    HW132846   0.711   1.586   6.392 -2.1106 -0.2713 -0.5038
 7129SOL    HW232847   0.663   1.494   6.491  0.6326 -2.0990 -0.4799
 7130SOL     OW32848   0.502   0.869   9.408 -0.5669  0.4604 -0.4792
 7130SOL    HW132849   0.546   0.954   9.412 -1.7471  1.0378  0.0778
 7130SOL    HW232850   0.537   0.819   9.482  0.1244 -1.6541 -2.2389
 7131SOL     OW32851   1.409   0.276   7.689 -0.3101 -0.0821 -0.2518
 7131SOL    HW132852   1.330   0.274   7.634  1.0371 -2.1186 -2.1017
 7131SOL    HW232853   1.457   0.343   7.639 -1.9195 -0.7232 -2.6996
 7132SOL     OW32854   1.226   1.886   8.195  0.2259  0.0500  0.4907
 7132SOL    HW132855   1.245   1.975   8.224  0.9305 -0.4357  1.5462
 7132SOL    HW232856   1.131   1.878   8.204 -0.1679  0.2474 -3.6353
 7133SOL     OW32857   3.210   0.130  17.288 -0.2723  0.0749  0.0455
 7133SOL    HW132858   3.140   0.124  17.223  0.9876  1.7041 -1.4774
 7133SOL    HW232859   3.244   0.040  17.295 -2.3707 -0.6839  0.2677
 7134SOL     OW32860   3.578   2.340   5.386  0.1303 -0.4864 -0.1693
 7134SOL    HW132861   3.646   2.406   5.398  1.1258 -1.3399 -1.0767
 7134SOL    HW232862   3.576   2.334   5.290 -1.2843 -1.6313 -0.0535
 7135SOL     OW32863   3.355   1.333   4.890  0.2188 -0.4559  0.2322
 7135SOL    HW132864   3.313   1.329   4.975 -1.8586  0.8238 -0.7399
 7135SOL    HW232865   3.374   1.427   4.884  3.0660 -1.0564 -0.3872
 7136SOL     OW32866   3.506   1.583   7.760  0.0330 -0.1159 -0.3161
 7136SOL    HW132867   3.498   1.568   7.854  2.0260 -0.4575 -0.2014
 7136SOL    HW232868   3.516   1.494   7.726 -0.2007 -0.5465  0.7670
 7137SOL     OW32869   1.961   1.764  13.880 -0.1261 -0.2346  0.1140
 7137SOL    HW132870   1.884   1.821  13.885  0.2077  0.1360  1.0285
 7137SOL    HW232871   2.022   1.806  13.819  2.7787 -0.6722  2.6983
 7138SOL     OW32872   2.926   2.549  13.730  0.0456  0.0247 -0.1457
 7138SOL    HW132873   3.020   2.561  13.722  0.2016  0.0724  1.8797
 7138SOL    HW232874   2.895   2.638  13.711 -0.0670  0.3770  1.7132
 7139SOL     OW32875   0.449   3.026   5.043  0.2493  0.6784  0.4168
 7139SOL    HW132876   0.503   2.974   4.983 -1.2116  0.8945 -1.0984
 7139SOL    HW232877   0.384   3.057   4.980  0.1904 -0.3510 -0.0457
 7140SOL     OW32878   0.374   4.373  13.381 -0.2713 -0.7172 -0.1043
 7140SOL    HW132879   0.410   4.462  13.387  0.6306 -1.2008  1.5104
 7140SOL    HW232880   0.457   4.329  13.361  0.6706  0.7466  0.5386
 7141SOL     OW32881   0.366   1.258  14.698  0.2182  0.4348 -0.3663
 7141SOL    HW132882   0.272   1.277  14.700 -0.2086 -2.2450  2.9375
 7141SOL    HW232883   0.374   1.206  14.777 -1.7029 -0.5147 -0.7986
 7142SOL     OW32884   4.127   3.932   6.746 -0.2989 -0.0145 -0.2329
 7142SOL    HW132885   4.145   3.910   6.654 -2.7279  0.8464 -0.9183
 7142SOL    HW232886   4.033   3.917   6.744 -0.4065  0.3813  2.2165
 7143SOL     OW32887   2.835   2.124   7.398  0.3305  0.9937  0.0561
 7143SOL    HW132888   2.821   2.143   7.490 -2.3583 -0.5864 -0.0020
 7143SOL    HW232889   2.924   2.089   7.402 -1.1813 -3.0500 -1.1873
 7144SOL     OW32890   3.526   0.855   9.597 -0.8065  0.3644  0.0020
 7144SOL    HW132891   3.618   0.838   9.577 -0.1557  2.4204  1.2173
 7144SOL    HW232892   3.502   0.765   9.619 -2.0646  0.5065 -0.8090
 7145SOL     OW32893   2.277   0.008   6.274  0.6391 -1.1240 -0.2012
 7145SOL    HW132894   2.189   0.017   6.310  0.7010 -0.7596 -0.1452
 7145SOL    HW232895   2.310   0.095   6.295  0.6957 -1.2607  0.2865
 7146SOL     OW32896   3.121   0.266   2.482 -0.3138 -0.2173  0.1081
 7146SOL    HW132897   3.079   0.209   2.547  0.3831 -0.6239  0.2091
 7146SOL    HW232898   3.080   0.351   2.492  1.6691  0.7661 -0.0850
 7147SOL     OW32899   4.232   3.222   4.313 -0.1624  0.2898  0.1407
 7147SOL    HW132900   4.171   3.164   4.359  0.8466 -1.3740 -0.6312
 7147SOL    HW232901   4.156   3.246   4.261  0.2457  0.8289 -0.2018
 7148SOL     OW32902   1.072   1.043   2.526  0.3613 -0.3932  0.2310
 7148SOL    HW132903   0.999   0.987   2.550 -1.0904  0.9686 -1.0528
 7148SOL    HW232904   1.086   1.011   2.437  0.6436  0.6392 -0.0976
 7149SOL     OW32905   0.817   3.537   6.794 -0.4922  0.5596 -0.4011
 7149SOL    HW132906   0.850   3.447   6.792 -0.6589  0.4466  1.5289
 7149SOL    HW232907   0.749   3.529   6.728 -0.2237 -0.1135 -0.5942
 7150SOL     OW32908   1.090   1.523   9.398  0.0693 -0.9470 -0.2599
 7150SOL    HW132909   1.053   1.566   9.321 -0.9248 -1.0572  0.1513
 7150SOL    HW232910   1.178   1.510   9.363 -0.0492 -1.1815 -0.4683
 7151SOL     OW32911   1.124   1.849  10.202 -0.7667 -0.4226  0.3024
 7151SOL    HW132912   1.109   1.943  10.204  0.6161 -0.1517 -1.8779
 7151SOL    HW232913   1.033   1.826  10.182 -0.0351 -0.9169 -2.4772
 7152SOL     OW32914   0.911   4.608  15.762  0.6989 -0.3273  0.3108
 7152SOL    HW132915   0.900   4.519  15.795  1.4444 -0.0272  1.3400
 7152SOL    HW232916   1.001   4.599  15.733 -0.2211 -1.0279 -2.3573
 7153SOL     OW32917   4.223   4.514   0.000  0.0333 -0.3981  0.3572
 7153SOL    HW132918   4.148   4.572   0.009  0.1831  0.0695 -1.4359
 7153SOL    HW232919   4.182   4.464  17.625 -1.0274  0.8655  0.0805
 7154SOL     OW32920   3.122   3.550   1.574  0.1649 -0.0307  0.0546
 7154SOL    HW132921   3.168   3.594   1.645 -0.3211 -0.4369  0.6328
 7154SOL    HW232922   3.157   3.601   1.501  0.7311  1.1188  1.1484
 7155SOL     OW32923   0.151   0.571  15.623  0.2374 -0.2270 -0.5449
 7155SOL    HW132924   0.098   0.618  15.558  1.6318 -1.3983 -2.4919
 7155SOL    HW232925   0.142   0.487  15.580 -0.5007 -0.4595  0.0552
 7156SOL     OW32926   2.266   1.905   4.977  0.7332 -0.3466 -0.4585
 7156SOL    HW132927   2.215   1.853   5.039 -1.9608 -0.9198 -3.1776
 7156SOL    HW232928   2.330   1.931   5.043 -1.0876  0.3540  1.0291
 7157SOL     OW32929   1.419   0.189   2.935  0.3647  0.2473 -0.4455
 7157SOL    HW132930   1.356   0.124   2.965  0.6693 -0.3390 -1.0897
 7157SOL    HW232931   1.471   0.145   2.868 -0.8388 -1.5116 -0.2198
 7158SOL     OW32932   2.082   1.749  10.356  0.4228 -0.5423  0.0083
 7158SOL    HW132933   2.024   1.775  10.284 -1.2880 -2.0028  0.8870
 7158SOL    HW232934   2.048   1.805  10.426  0.0748  0.4802 -0.9781
 7159SOL     OW32935   3.194   2.849   4.232 -0.0735  0.0444  0.1289
 7159SOL    HW132936   3.260   2.780   4.226  0.0063  0.3721 -2.8490
 7159SOL    HW232937   3.111   2.809   4.207  0.9113 -1.6280 -0.4655
 7160SOL     OW32938   1.212   3.010   2.854  0.5662 -0.3356 -0.0030
 7160SOL    HW132939   1.185   2.953   2.782  0.5926  0.6257 -0.7780
 7160SOL    HW232940   1.142   2.998   2.918 -0.3975 -0.0067 -1.0083
 7161SOL     OW32941   4.376   3.090   7.918  0.3212  0.1351 -0.5469
 7161SOL    HW132942   4.337   3.173   7.890  1.4404  0.2188 -1.8776
 7161SOL    HW232943   4.295   3.064   7.963 -0.8514  0.3683 -2.4992
 7162SOL     OW32944   2.123   4.211   3.322 -0.2722 -0.0277 -0.3928
 7162SOL    HW132945   2.058   4.272   3.286  1.4384  3.1989  1.9506
 7162SOL    HW232946   2.189   4.228   3.254  0.3475 -1.6152 -0.1880
 7163SOL     OW32947   4.366   4.433  11.148  0.2355 -0.1860  0.0921
 7163SOL    HW132948   4.367   4.363  11.082  2.3154 -0.0388 -0.0379
 7163SOL    HW232949   4.410   4.506  11.104 -2.4955  2.1459  1.2301
 7164SOL     OW32950   3.365   2.531   6.665 -0.5184  0.5330  0.5608
 7164SOL    HW132951   3.414   2.602   6.706  0.8415  0.3597 -0.7944
 7164SOL    HW232952   3.410   2.458   6.708 -1.7474 -0.1946  0.6176
 7165SOL     OW32953   2.912   2.882  13.588  0.3299 -0.1140  0.1306
 7165SOL    HW132954   2.829   2.857  13.629  0.8041 -2.2168 -0.1660
 7165SOL    HW232955   2.890   2.957  13.533  3.0395 -0.8040 -1.8851
 7166SOL     OW32956   4.517   1.396  15.004  0.1046 -0.1765 -0.6671
 7166SOL    HW132957   4.610   1.401  14.983  0.7042 -1.3481  1.7144
 7166SOL    HW232958   4.483   1.323  14.953 -1.2592  0.4747 -0.7053
 7167SOL     OW32959   4.358   1.190   6.655 -0.3880  0.3306 -0.0420
 7167SOL    HW132960   4.398   1.198   6.569  1.2747  1.0785  0.7974
 7167SOL    HW232961   4.275   1.235   6.643  0.6797  2.5171  0.9378
 7168SOL     OW32962   0.954   0.727   3.675  0.1638 -0.4846  0.5786
 7168SOL    HW132963   1.042   0.707   3.705  0.1033  1.3232  1.9504
 7168SOL    HW232964   0.917   0.642   3.651 -2.3807  0.5319  0.8729
 7169SOL     OW32965   0.426   1.305   6.357  0.4335 -0.0414 -0.2207
 7169SOL    HW132966   0.507   1.291   6.309  0.8545  1.6670 -0.0058
 7169SOL    HW232967   0.394   1.222   6.391 -0.1994  0.2534 -0.0850
 7170SOL     OW32968   2.240   1.978   3.478 -0.0777  0.6477  0.0328
 7170SOL    HW132969   2.182   2.052   3.497 -0.7101  0.8378 -2.6786
 7170SOL    HW232970   2.212   1.959   3.389  1.1505  3.6871 -0.9945
 7171SOL     OW32971   2.613   2.339   7.733 -0.0818 -0.3324 -0.8900
 7171SOL    HW132972   2.575   2.387   7.807  0.5273 -2.2073  0.6497
 7171SOL    HW232973   2.639   2.412   7.677 -1.1885  0.8623  0.1641
 7172SOL     OW32974   1.242   3.835  16.159  0.3600  0.2780  0.1674
 7172SOL    HW132975   1.297   3.858  16.084  0.1763  1.7731  0.4876
 7172SOL    HW232976   1.162   3.878  16.128 -0.4457  0.1211  1.9827
 7173SOL     OW32977   2.006   4.303   6.654  0.3616  0.2624  0.0185
 7173SOL    HW132978   2.082   4.246   6.664  0.0571 -0.3450 -1.0936
 7173SOL    HW232979   1.975   4.288   6.743 -1.1884  1.7617 -0.2675
 7174SOL     OW32980   3.359   0.637  17.056  0.2911  0.0499 -0.1650
 7174SOL    HW132981   3.435   0.582  17.077 -0.2175 -0.3546  0.5851
 7174SOL    HW232982   3.393   0.717  17.096 -0.8364  1.3077 -1.7350
 7175SOL     OW32983   3.835   2.157   1.945 -0.2036 -0.1266 -0.3685
 7175SOL    HW132984   3.762   2.161   2.007 -1.1600  0.7870 -1.5804
 7175SOL    HW232985   3.788   2.177   1.864 -0.5157  1.3748  0.1880
 7176SOL     OW32986   1.240   2.322   1.606  0.4528  0.6918  0.2105
 7176SOL    HW132987   1.330   2.296   1.590  0.3996 -0.8268  2.3057
 7176SOL    HW232988   1.236   2.377   1.528 -4.7846 -2.1963 -1.5347
 7177SOL     OW32989   0.083   4.710   4.324 -0.1264 -0.0324  0.4909
 7177SOL    HW132990   0.146   4.660   4.272  0.6588 -2.4928  3.7619
 7177SOL    HW232991   0.046   4.634   4.368  1.5170  0.7621  3.2579
 7178SOL     OW32992   3.352   1.370  13.345  0.1940 -0.4447 -0.3045
 7178SOL    HW132993   3.286   1.324  13.399 -1.6902  1.1283 -1.2714
 7178SOL    HW232994   3.356   1.308  13.272  3.7152  0.6022 -0.9639
 7179SOL     OW32995   2.166   4.616  10.510  0.4542  0.3125 -0.3634
 7179SOL    HW132996   2.165   4.551  10.580 -0.5322  0.0378 -0.6222
 7179SOL    HW232997   2.071   4.627  10.499  0.2128  0.9604  2.4477
 7180SOL     OW32998   1.615   4.364   0.153  0.4171  0.1122 -0.4322
 7180SOL    HW132999   1.548   4.424   0.120 -1.0356 -0.9101  0.6632
 7180SOL    HW233000   1.565   4.344   0.232 -0.1379 -1.4651 -1.1773
 7181SOL     OW33001   0.335   1.860  17.662  0.1377 -0.0645 -0.1606
 7181SOL    HW133002   0.385   1.790   0.008 -0.2759 -0.2425  0.0317
 7181SOL    HW233003   0.279   1.884   0.040 -0.5588 -0.5117 -0.5388
 7182SOL     OW33004   3.930   4.024   8.472  0.1527 -0.1146 -0.1686
 7182SOL    HW133005   3.856   4.014   8.412 -1.6849 -1.7872  2.3268
 7182SOL    HW233006   3.967   3.935   8.475 -0.2431 -0.2137  1.9517
 7183SOL     OW33007   2.397   2.606  13.218  0.4096 -0.3519  0.4179
 7183SOL    HW133008   2.445   2.660  13.155 -1.3421 -0.3424 -0.9151
 7183SOL    HW233009   2.440   2.521  13.208  1.7873  0.2318  1.3804
 7184SOL     OW33010   0.822   3.907   6.543 -0.2932  0.0024 -0.5542
 7184SOL    HW133011   0.826   4.001   6.561 -0.6203 -0.4410  1.9149
 7184SOL    HW233012   0.739   3.877   6.580 -1.6960  2.1900 -1.9225
 7185SOL     OW33013   2.033   3.373  14.811  0.1963  0.7563  0.4170
 7185SOL    HW133014   1.944   3.348  14.784  0.6425 -1.8499  1.3418
 7185SOL    HW233015   2.079   3.298  14.773 -1.1721  0.6946 -1.1077
 7186SOL     OW33016   0.863   1.066   6.719  0.0708 -0.6062  0.0730
 7186SOL    HW133017   0.825   1.154   6.726 -0.2333 -0.6926 -0.4769
 7186SOL    HW233018   0.869   1.050   6.625 -1.6825 -1.1624  0.0481
 7187SOL     OW33019   0.487   3.212   7.942 -0.1687  0.2287 -0.5583
 7187SOL    HW133020   0.453   3.234   7.855  0.0395  1.7346 -0.2565
 7187SOL    HW233021   0.541   3.138   7.914  0.2124  0.3779 -0.2187
 7188SOL     OW33022   4.308   0.536   9.399  1.2554  0.0626 -0.1117
 7188SOL    HW133023   4.243   0.592   9.358 -0.7835 -2.0616  0.2191
 7188SOL    HW233024   4.256   0.459   9.422 -0.3395  1.2564  0.2554
 7189SOL     OW33025   2.705   1.181  15.252 -0.2536  0.3396  0.0771
 7189SOL    HW133026   2.694   1.210  15.342  0.4174 -1.4950  0.7501
 7189SOL    HW233027   2.710   1.266  15.208  0.7391  0.5434  0.5745
 7190SOL     OW33028   4.482   2.399   9.906 -0.2904 -0.1622 -0.6985
 7190SOL    HW133029   4.558   2.445   9.941  0.2943 -0.8106 -1.1395
 7190SOL    HW233030   4.507   2.307   9.916 -0.6462 -0.1521  0.3198
 7191SOL     OW33031   0.569   2.229   1.297  0.0298  0.1370 -0.2069
 7191SOL    HW133032   0.479   2.258   1.314 -0.1422 -0.5421  0.0470
 7191SOL    HW233033   0.563   2.136   1.319  0.9186  0.1753  0.1930
 7192SOL     OW33034   3.938   4.219   7.810  0.2315  0.2637 -0.3638
 7192SOL    HW133035   3.958   4.184   7.896 -0.9691  2.1562  0.7005
 7192SOL    HW233036   3.912   4.308   7.834  2.0199  0.2561  1.5518
 7193SOL     OW33037   4.268   2.564   3.837 -0.4052  0.3906 -0.7619
 7193SOL    HW133038   4.181   2.529   3.816 -0.7799 -0.0679  1.6122
 7193SOL    HW233039   4.238   2.623   3.906  0.1646  0.4772 -0.5929
 7194SOL     OW33040   2.771   3.866   4.056  0.5565  0.1786  0.6148
 7194SOL    HW133041   2.793   3.829   3.970 -1.7208  2.4034 -0.9378
 7194SOL    HW233042   2.837   3.935   4.062 -0.5638  1.5692 -2.7246
 7195SOL     OW33043   2.959   3.680   4.756  0.0411  0.2762  0.1298
 7195SOL    HW133044   2.999   3.617   4.698 -1.8949 -0.0411 -0.8729
 7195SOL    HW233045   2.928   3.631   4.832 -1.4777  2.2079  0.7779
 7196SOL     OW33046   2.376   4.036   6.613  0.6911  0.4475 -0.2456
 7196SOL    HW133047   2.442   4.021   6.546  0.2735  2.4346 -1.1084
 7196SOL    HW233048   2.428   4.098   6.664 -2.8100  2.6525  0.6510
 7197SOL     OW33049   1.305   2.833   7.004 -0.5425 -0.2367  0.3318
 7197SOL    HW133050   1.362   2.910   7.002  0.9319 -1.3656 -0.9963
 7197SOL    HW233051   1.286   2.825   6.911 -1.2169  0.5735  0.4003
 7198SOL     OW33052   0.254   2.407   0.547  0.2273 -0.2160  0.3993
 7198SOL    HW133053   0.186   2.469   0.572 -0.9437  0.0154 -3.3648
 7198SOL    HW233054   0.274   2.439   0.459  0.7242  0.7774  0.8780
 7199SOL     OW33055   4.448   4.528   4.480  0.2442 -0.7397  0.1746
 7199SOL    HW133056   4.544   4.526   4.481  0.2336 -1.0816  0.5145
 7199SOL    HW233057   4.433   4.538   4.574 -2.2344  0.7638 -0.3686
 7200SOL     OW33058   0.035   4.352   5.501  0.0253 -0.6645 -0.0804
 7200SOL    HW133059   0.124   4.350   5.465 -1.5231  0.1838 -4.0165
 7200SOL    HW233060   0.037   4.269   5.549  0.3198 -1.1796 -0.9621
 7201SOL     OW33061   3.861   1.188   8.947 -0.2859 -0.2951  0.2965
 7201SOL    HW133062   3.766   1.200   8.941 -0.0421  0.3433 -2.0937
 7201SOL    HW233063   3.870   1.170   9.041  1.5227  0.0751  0.2028
 7202SOL     OW33064   0.713   1.739   5.081 -0.4912 -0.1226  0.8399
 7202SOL    HW133065   0.662   1.676   5.030  0.0269  1.1302 -1.2612
 7202SOL    HW233066   0.803   1.728   5.050  0.1436  1.5373  2.1055
 7203SOL     OW33067   3.393   2.034   1.111 -1.0038 -0.3005 -0.0528
 7203SOL    HW133068   3.474   1.984   1.114 -1.5894 -1.4541 -3.4455
 7203SOL    HW233069   3.409   2.072   1.025 -0.0728  0.7893  0.6012
 7204SOL     OW33070   3.677   2.354   6.632  0.3137  0.0638 -0.2527
 7204SOL    HW133071   3.752   2.300   6.606  0.0435 -0.6001  0.3582
 7204SOL    HW233072   3.652   2.386   6.545  1.1601  2.4356  0.3536
 7205SOL     OW33073   1.029   4.413   5.777 -0.1099 -0.7596 -0.0151
 7205SOL    HW133074   1.094   4.368   5.723 -0.7224 -1.9582  0.2558
 7205SOL    HW233075   1.020   4.359   5.855 -2.1176  1.1495  1.0777
 7206SOL     OW33076   0.148   1.711   2.291 -0.4072  0.0535  0.3701
 7206SOL    HW133077   0.210   1.745   2.355  0.9688 -0.9073 -0.4779
 7206SOL    HW233078   0.177   1.766   2.219 -1.3233  0.7270  0.5159
 7207SOL     OW33079   1.880   2.368   6.055 -0.5205  0.3138 -0.1578
 7207SOL    HW133080   1.901   2.460   6.071 -1.0284  0.1643  1.3240
 7207SOL    HW233081   1.963   2.337   6.019  1.0701  1.2024  2.7369
 7208SOL     OW33082   1.198   3.220  16.162  0.0821  0.4284  0.3186
 7208SOL    HW133083   1.166   3.238  16.074 -3.1729  1.1294  1.6333
 7208SOL    HW233084   1.263   3.154  16.137 -0.3502 -0.0177  0.3784
 7209SOL     OW33085   1.699   4.135  11.544  0.4785 -0.5685 -0.8024
 7209SOL    HW133086   1.741   4.049  11.532 -2.6825 -2.3795  1.0614
 7209SOL    HW233087   1.665   4.127  11.633  1.1028  0.7573 -0.4564
 7210SOL     OW33088   0.240   3.156   8.100  0.8414 -0.5865  0.4007
 7210SOL    HW133089   0.306   3.191   8.039 -0.9555  1.8814 -0.1584
 7210SOL    HW233090   0.227   3.230   8.160 -0.7412 -0.2979 -0.2819
 7211SOL     OW33091   2.910   3.604   7.769 -0.2323  0.2963 -0.3241
 7211SOL    HW133092   2.871   3.624   7.855 -1.8083 -2.4889 -0.3870
 7211SOL    HW233093   2.999   3.576   7.789  1.0564  1.9696 -3.7397
 7212SOL     OW33094   1.955   0.292   8.675  1.0898 -0.5312  0.3655
 7212SOL    HW133095   1.945   0.357   8.745 -1.0041  0.8124 -1.2132
 7212SOL    HW233096   1.899   0.224   8.712 -0.3547 -0.0055 -0.9044
 7213SOL     OW33097   2.946   1.848  10.942  0.4302  0.2789  0.4901
 7213SOL    HW133098   2.995   1.784  10.890 -2.2448 -1.8497  0.5863
 7213SOL    HW233099   2.994   1.930  10.951 -2.1641  1.6597  1.5444
 7214SOL     OW33100   2.817   1.031   0.029 -0.5240 -0.2105  0.6770
 7214SOL    HW133101   2.782   1.119   0.023 -0.8766 -0.4777 -1.4304
 7214SOL    HW233102   2.842   1.032   0.121  1.5624  0.4458  0.1121
 7215SOL     OW33103   2.747   0.262   9.850  0.5382 -0.1413  0.1177
 7215SOL    HW133104   2.804   0.226   9.782 -2.3232 -0.1459 -2.2982
 7215SOL    HW233105   2.665   0.224   9.818  0.4536 -1.1904  1.5845
 7216SOL     OW33106   0.541   3.331   8.635 -0.7318 -0.2603 -0.0158
 7216SOL    HW133107   0.478   3.373   8.693 -0.4015  1.6416 -1.0400
 7216SOL    HW233108   0.590   3.410   8.614  0.9599 -0.7973  1.8310
 7217SOL     OW33109   1.828   1.793  14.658 -0.4903 -0.8237 -0.6603
 7217SOL    HW133110   1.740   1.818  14.632 -0.2627 -0.2808 -0.9103
 7217SOL    HW233111   1.877   1.839  14.589 -1.2361  1.7087  0.5111
 7218SOL     OW33112   4.631   2.340   7.072 -0.3219 -0.1009 -0.1021
 7218SOL    HW133113   4.670   2.352   7.159 -1.0779 -1.8009  0.4818
 7218SOL    HW233114   4.678   2.262   7.041 -0.3980 -1.0320  2.0729
 7219SOL     OW33115   2.299   0.344  14.332 -0.6902 -0.4014 -0.3917
 7219SOL    HW133116   2.384   0.371  14.366 -1.8755  3.4835 -0.5080
 7219SOL    HW233117   2.336   0.261  14.303  1.7585  0.2559  0.8553
 7220SOL     OW33118   2.283   3.697   5.048  0.0156  0.5063 -0.5483
 7220SOL    HW133119   2.224   3.737   5.111  0.3677 -2.1967  1.4930
 7220SOL    HW233120   2.254   3.607   5.059  1.9960 -0.1960 -1.0579
 7221SOL     OW33121   3.417   2.261  15.974  0.0767 -0.0280 -0.2854
 7221SOL    HW133122   3.376   2.331  15.924  0.1806 -0.8232 -1.4877
 7221SOL    HW233123   3.428   2.298  16.061 -0.5703  0.8366 -0.5677
 7222SOL     OW33124   3.817   4.137  12.292 -0.9212 -0.2656  0.0595
 7222SOL    HW133125   3.896   4.188  12.278 -1.0115 -0.0341  0.3877
 7222SOL    HW233126   3.825   4.080  12.215 -0.9246 -0.6637  0.3524
 7223SOL     OW33127   2.719   0.063   2.296  0.2589  0.1447 -0.0504
 7223SOL    HW133128   2.710   0.100   2.384 -0.9047  0.7124 -0.4031
 7223SOL    HW233129   2.746   0.138   2.243  0.8206  0.5401  0.7928
 7224SOL     OW33130   0.450   2.192  12.865  0.5483 -0.0622 -0.2525
 7224SOL    HW133131   0.470   2.101  12.844  1.3466 -0.4457  2.2397
 7224SOL    HW233132   0.366   2.183  12.910  2.0558  0.8284  2.7109
 7225SOL     OW33133   2.132   4.355   0.191  0.0802 -0.3376 -0.1997
 7225SOL    HW133134   2.061   4.388   0.247  0.7120 -2.4195  1.8347
 7225SOL    HW233135   2.189   4.432   0.194  1.7798 -1.6652  1.9026
 7226SOL     OW33136   2.860   3.355   5.571 -0.5195 -0.1220  0.1051
 7226SOL    HW133137   2.778   3.327   5.611  0.8253 -1.4507  1.9630
 7226SOL    HW233138   2.861   3.443   5.609  1.1678 -0.0691 -0.0764
 7227SOL     OW33139   1.820   1.872  16.385  0.3108  0.7781 -0.4497
 7227SOL    HW133140   1.858   1.926  16.315  1.5798  0.8965  0.3398
 7227SOL    HW233141   1.904   1.849  16.425 -1.1305 -0.6550  1.7349
 7228SOL     OW33142   0.173   0.853   8.243  0.4355 -0.7423  0.3096
 7228SOL    HW133143   0.225   0.854   8.163 -1.4935  0.6487 -0.9144
 7228SOL    HW233144   0.221   0.906   8.306 -1.9426  0.6402  0.9452
 7229SOL     OW33145   4.039   0.749   5.134  0.1163  0.2098 -0.0359
 7229SOL    HW133146   3.965   0.790   5.180  0.9649  1.4092  0.2633
 7229SOL    HW233147   4.104   0.816   5.154  1.1134 -0.8350  0.2296
 7230SOL     OW33148   3.464   4.642  13.683 -0.4071  0.7309 -0.7557
 7230SOL    HW133149   3.416   4.568  13.720 -1.1075  1.0740 -0.9918
 7230SOL    HW233150   3.449   4.613  13.593 -0.1119  0.0181 -0.5809
 7231SOL     OW33151   0.939   3.559   2.880 -0.3646  0.1725  0.2056
 7231SOL    HW133152   1.002   3.630   2.896  1.1736 -0.7730 -1.7817
 7231SOL    HW233153   0.956   3.531   2.790  0.8577 -0.3849  0.6068
 7232SOL     OW33154   4.487   3.264   1.505  0.0492 -0.5839 -0.1716
 7232SOL    HW133155   4.438   3.222   1.575  1.3914 -2.3945 -0.3097
 7232SOL    HW233156   4.426   3.253   1.432  0.6604  3.1163 -1.2187
 7233SOL     OW33157   3.462   2.647   1.259  0.0982 -0.0850  0.4067
 7233SOL    HW133158   3.391   2.584   1.249 -0.7152  1.2421 -2.1614
 7233SOL    HW233159   3.516   2.617   1.186 -1.0846  0.4036 -0.6500
 7234SOL     OW33160   2.553   3.374   9.343 -0.0294  0.8269 -0.1493
 7234SOL    HW133161   2.530   3.466   9.359 -3.1791  0.1716 -0.9797
 7234SOL    HW233162   2.648   3.376   9.353  0.2105 -0.9704 -2.1546
 7235SOL     OW33163   1.900   2.835   7.820  0.6191 -0.2064 -0.2911
 7235SOL    HW133164   1.924   2.820   7.729 -1.9095  0.9984 -1.1672
 7235SOL    HW233165   1.924   2.926   7.835 -0.1638 -0.1250  0.4881
 7236SOL     OW33166   3.602   4.323   4.820 -0.2604  0.1011 -0.2430
 7236SOL    HW133167   3.634   4.394   4.765 -2.4160  0.7830 -0.6027
 7236SOL    HW233168   3.619   4.367   4.903 -2.3207 -1.9674  1.2954
 7237SOL     OW33169   4.639   2.493  11.525  0.2775 -0.4998  0.1920
 7237SOL    HW133170   4.600   2.547  11.456 -0.0757 -1.6684 -0.5242
 7237SOL    HW233171   4.626   2.542  11.607  3.1602 -0.2588  0.4998
 7238SOL     OW33172   2.948   1.202  14.059  0.3295  0.3268 -0.5996
 7238SOL    HW133173   2.889   1.221  13.986  1.8779  0.9008 -1.7065
 7238SOL    HW233174   2.984   1.120  14.025  2.1710  1.9151 -2.4534
 7239SOL     OW33175   4.030   4.397   2.158  0.1101 -0.1960  0.1700
 7239SOL    HW133176   4.034   4.316   2.209  0.3268 -0.1776  0.1843
 7239SOL    HW233177   3.937   4.414   2.148 -0.0456 -0.0460  1.8935
 7240SOL     OW33178   1.380   0.465  14.983  0.6410  0.6053  0.2326
 7240SOL    HW133179   1.294   0.466  14.942  1.7622 -2.8910 -2.2326
 7240SOL    HW233180   1.430   0.475  14.901 -0.9949  2.5066 -0.5160
 7241SOL     OW33181   1.968   0.064   3.556 -0.0196  0.2330 -0.0730
 7241SOL    HW133182   1.955   4.694   3.574 -2.3484  1.0093  2.2677
 7241SOL    HW233183   1.901   0.083   3.490 -1.4469 -0.2443  1.2535
 7242SOL     OW33184   3.320   3.623  11.559  0.2742  0.7536 -0.3208
 7242SOL    HW133185   3.297   3.627  11.652 -1.7362 -0.2470 -0.7686
 7242SOL    HW233186   3.238   3.593  11.521 -0.8946  1.1609  1.9048
 7243SOL     OW33187   2.316   3.991   2.447  0.1799 -0.1900  0.2863
 7243SOL    HW133188   2.309   4.086   2.461  0.3516  0.1637 -2.1134
 7243SOL    HW233189   2.335   3.985   2.353 -2.2276 -1.8915 -0.0916
 7244SOL     OW33190   1.878   0.229   2.434 -0.0972  0.7368  0.4412
 7244SOL    HW133191   1.907   0.298   2.374 -1.7427 -0.3538 -1.6022
 7244SOL    HW233192   1.858   0.167   2.364  0.9294  0.4787  0.3750
 7245SOL     OW33193   0.620   0.706   1.162  0.1779  0.0897  0.0455
 7245SOL    HW133194   0.530   0.739   1.158 -0.0050 -0.3162  0.9706
 7245SOL    HW233195   0.672   0.784   1.180  2.2712 -1.2817  0.0144
 7246SOL     OW33196   3.170   2.974   0.355 -0.3351  0.0773  0.2331
 7246SOL    HW133197   3.256   2.935   0.338  0.0358  0.2374  1.7574
 7246SOL    HW233198   3.152   2.941   0.443  0.1393  1.6163  0.8985
 7247SOL     OW33199   4.395   3.797  14.731 -0.1063 -0.9515  0.4398
 7247SOL    HW133200   4.407   3.718  14.783 -3.0923 -0.8266  1.3447
 7247SOL    HW233201   4.299   3.802  14.736 -0.1688 -1.5966 -0.2327
 7248SOL     OW33202   0.184   1.251   3.162 -0.1536 -0.1367  0.3703
 7248SOL    HW133203   0.112   1.188   3.169  0.3453 -0.6766  0.5634
 7248SOL    HW233204   0.213   1.245   3.071  0.7867  3.1677  0.4682
 7249SOL     OW33205   0.135   3.080   8.893  0.6247 -0.1685  0.7501
 7249SOL    HW133206   0.059   3.114   8.939 -2.1710 -3.0504 -1.7605
 7249SOL    HW233207   0.189   3.159   8.902  1.5026 -0.8898  1.7511
 7250SOL     OW33208   4.106   4.224   9.458 -0.0523  0.4393 -0.0392
 7250SOL    HW133209   4.180   4.179   9.415 -0.5752 -0.1605 -0.3142
 7250SOL    HW233210   4.104   4.304   9.406 -1.9004  1.2050  1.2201
 7251SOL     OW33211   3.705   0.655   4.802 -0.5441  0.5413  0.3231
 7251SOL    HW133212   3.716   0.615   4.716 -1.1892 -0.8536  0.8887
 7251SOL    HW233213   3.611   0.642   4.812 -0.2649  0.0144  2.2333
 7252SOL     OW33214   0.907   4.051  15.153  0.3538  0.2018 -0.4975
 7252SOL    HW133215   0.917   3.956  15.158 -3.1696 -0.1761 -0.3575
 7252SOL    HW233216   0.886   4.087  15.239 -0.7608  1.7018 -1.3985
 7253SOL     OW33217   0.368   3.629   5.885  0.5888  0.4774  0.0651
 7253SOL    HW133218   0.401   3.548   5.922  1.4624  0.1592 -1.3958
 7253SOL    HW233219   0.296   3.599   5.830  0.7022 -0.6681  0.5491
 7254SOL     OW33220   1.557   1.625   5.841  0.1336  0.2353  0.0512
 7254SOL    HW133221   1.554   1.653   5.932  0.2135  0.1174  0.0913
 7254SOL    HW233222   1.631   1.678   5.812  1.1479 -1.2009 -0.0178
 7255SOL     OW33223   4.006   1.578   8.921  0.0702 -0.3754 -0.3189
 7255SOL    HW133224   4.044   1.666   8.910 -0.9679  0.3907  2.2593
 7255SOL    HW233225   4.035   1.556   9.010  0.8411 -0.5614 -0.6156
 7256SOL     OW33226   1.338   0.197   8.493 -0.5081  0.1470 -0.2279
 7256SOL    HW133227   1.322   0.105   8.512 -0.2918  0.5221  1.8118
 7256SOL    HW233228   1.304   0.238   8.573  1.1475  2.3825 -0.6833
 7257SOL     OW33229   0.786   1.110  11.753 -0.2550 -0.1920  0.4894
 7257SOL    HW133230   0.823   1.169  11.818 -0.5288 -0.1392  0.5980
 7257SOL    HW233231   0.731   1.165  11.696 -2.5436 -0.3192  2.6050
 7258SOL     OW33232   1.803   2.136   8.586  0.1987  0.2315 -0.5937
 7258SOL    HW133233   1.876   2.135   8.649 -0.5697  2.1936  0.3247
 7258SOL    HW233234   1.838   2.091   8.509 -0.4352  1.5322 -1.6367
 7259SOL     OW33235   3.312   0.562   2.140 -0.0341 -0.1582 -0.7064
 7259SOL    HW133236   3.373   0.590   2.071  0.8606  0.1726  0.2145
 7259SOL    HW233237   3.255   0.506   2.088 -0.5374  0.1196 -0.4549
 7260SOL     OW33238   1.241   3.285   3.549  0.5063  0.0801 -0.4713
 7260SOL    HW133239   1.288   3.353   3.502 -0.0785 -1.1461 -2.8601
 7260SOL    HW233240   1.282   3.203   3.521 -1.0380 -1.8121  2.8303
 7261SOL     OW33241   2.610   4.564  14.581  0.0225  0.3438 -0.3476
 7261SOL    HW133242   2.590   4.592  14.492  1.9574  0.3849 -0.7564
 7261SOL    HW233243   2.536   4.503  14.591 -1.0625  1.6352 -0.5284
 7262SOL     OW33244   1.816   1.973  12.366 -0.4055 -0.5133  0.1628
 7262SOL    HW133245   1.753   1.926  12.311  0.1803  0.0426 -0.9989
 7262SOL    HW233246   1.852   1.909  12.427  0.0695 -1.8303 -1.4764
 7263SOL     OW33247   2.477   3.345  17.294 -0.3878  0.6126  0.2044
 7263SOL    HW133248   2.520   3.339  17.208 -0.0886 -3.0902  0.5738
 7263SOL    HW233249   2.497   3.437  17.312  0.1855  0.7220 -0.9745
 7264SOL     OW33250   0.456   2.351   4.260 -0.0447  0.6902  0.2260
 7264SOL    HW133251   0.379   2.295   4.276 -0.2049  0.8082 -0.1420
 7264SOL    HW233252   0.453   2.424   4.322 -1.7424 -1.7045  3.0008
 7265SOL     OW33253   0.486   1.455   6.573  0.7671  0.2918  0.4137
 7265SOL    HW133254   0.452   1.384   6.520 -0.6635  1.3027 -0.0245
 7265SOL    HW233255   0.418   1.463   6.639  1.3061  0.5832  0.9440
 7266SOL     OW33256   3.563   1.391   3.619  0.2009  0.3285  0.2186
 7266SOL    HW133257   3.603   1.435   3.694  0.3098  0.7592 -0.0927
 7266SOL    HW233258   3.526   1.464   3.570 -1.3396 -1.5856 -1.4414
 7267SOL     OW33259   0.176   0.833  13.967 -0.9870 -0.2841 -0.0629
 7267SOL    HW133260   0.210   0.911  13.923 -1.5629 -1.4593 -2.5927
 7267SOL    HW233261   0.101   0.849  14.024  0.0346 -0.0770  1.2258
 7268SOL     OW33262   0.978   0.863  16.319  0.5583 -0.4648 -0.1197
 7268SOL    HW133263   0.988   0.864  16.414 -1.6485 -1.6100  0.1344
 7268SOL    HW233264   0.892   0.826  16.297  1.0985 -2.6227  1.3837
 7269SOL     OW33265   1.170   0.072   9.982 -0.2236 -0.0468  0.0356
 7269SOL    HW133266   1.247   0.017   9.991  0.8351  1.0119 -2.4741
 7269SOL    HW233267   1.102   0.025  10.029  0.4847 -2.3400 -1.2545
 7270SOL     OW33268   4.639   2.124   5.304 -0.1691 -0.5929  0.1955
 7270SOL    HW133269   4.607   2.067   5.374 -1.4859  0.1585  0.2050
 7270SOL    HW233270   4.563   2.174   5.277 -0.9297 -1.5147  0.6306
 7271SOL     OW33271   3.172   3.738   0.270 -0.0310  0.2133  0.4039
 7271SOL    HW133272   3.089   3.777   0.297  1.5622  2.5060  2.0077
 7271SOL    HW233273   3.136   3.654   0.240 -0.2881  1.2089 -2.0758
 7272SOL     OW33274   0.800   1.802   8.766  0.5884  0.1769 -0.0695
 7272SOL    HW133275   0.815   1.893   8.741  1.4478 -0.1927 -0.8820
 7272SOL    HW233276   0.841   1.798   8.853  0.8539  2.6433 -0.0733
 7273SOL     OW33277   3.582   1.063  17.065  0.7647  0.4632 -0.3584
 7273SOL    HW133278   3.644   1.003  17.106 -0.3980  0.0318  0.7889
 7273SOL    HW233279   3.634   1.096  16.992  0.9257 -0.9964 -0.9026
 7274SOL     OW33280   3.433   1.869   4.553 -0.1607 -0.4467  0.2415
 7274SOL    HW133281   3.436   1.878   4.458 -2.4221  0.0308  0.2011
 7274SOL    HW233282   3.447   1.775   4.559  1.2629 -0.2002  0.6813
 7275SOL     OW33283   2.003   2.045   9.691 -0.2548 -0.0959  0.3481
 7275SOL    HW133284   2.043   2.129   9.712  2.2193 -1.4705  1.1175
 7275SOL    HW233285   2.067   1.990   9.737  0.0343 -1.2184 -1.3968
 7276SOL     OW33286   2.734   3.850   2.809  0.6712 -0.1300 -0.0708
 7276SOL    HW133287   2.810   3.805   2.773  0.1311  0.2334 -1.6570
 7276SOL    HW233288   2.751   3.849   2.904 -0.7029 -0.3293  0.1713
 7277SOL     OW33289   1.700   4.594   7.655 -0.3960 -0.4202 -1.0102
 7277SOL    HW133290   1.673   4.624   7.569 -2.6453  0.7490  0.1052
 7277SOL    HW233291   1.624   4.627   7.702  1.6194 -0.2961  2.1700
 7278SOL     OW33292   1.056   3.711   6.418  0.5450 -0.2534 -0.1688
 7278SOL    HW133293   1.011   3.723   6.501  0.1624  3.8635 -0.9410
 7278SOL    HW233294   0.989   3.660   6.373 -0.2008  1.1358 -0.6282
 7279SOL     OW33295   1.542   3.271   4.799  0.1743 -0.1147  0.7647
 7279SOL    HW133296   1.508   3.346   4.847  0.0056  0.5159 -0.3470
 7279SOL    HW233297   1.584   3.220   4.868 -2.0923 -2.1943  0.6036
 7280SOL     OW33298   1.378   0.278  15.186 -0.4296 -0.4788  0.4959
 7280SOL    HW133299   1.464   0.259  15.223 -1.2125 -0.2521  2.4312
 7280SOL    HW233300   1.404   0.312  15.100  1.0722 -0.1820  1.0814
 7281SOL     OW33301   2.394   4.031  11.975  0.1727  0.2685 -0.2527
 7281SOL    HW133302   2.357   3.949  11.942 -0.3041  0.8865 -1.2653
 7281SOL    HW233303   2.481   3.995  11.989 -0.3985 -0.6765  0.8307
 7282SOL     OW33304   2.788   2.644  10.758  0.1806  0.4538  0.3706
 7282SOL    HW133305   2.731   2.720  10.774  0.5246  0.1167  3.1264
 7282SOL    HW233306   2.859   2.686  10.709  0.1868  0.6753  0.5668
 7283SOL     OW33307   3.337   1.900   1.704  0.3825  0.1400 -0.1717
 7283SOL    HW133308   3.310   1.980   1.660 -1.6064  0.2665  1.2878
 7283SOL    HW233309   3.268   1.840   1.676 -0.7872  2.2759 -1.7682
 7284SOL     OW33310   3.895   0.876   5.352 -0.4331  0.0285 -0.6468
 7284SOL    HW133311   3.952   0.929   5.408 -1.4406  0.4354 -0.0101
 7284SOL    HW233312   3.832   0.945   5.331  0.6931  1.4057  0.4723
 7285SOL     OW33313   0.810   4.692  11.446  0.3692 -0.4907 -0.2203
 7285SOL    HW133314   0.749   0.020  11.500 -0.8049 -2.5288  0.4341
 7285SOL    HW233315   0.753   4.672  11.371  0.1768 -0.3722 -0.1078
 7286SOL     OW33316   3.877   4.451   4.618  0.6320  0.2149  0.0865
 7286SOL    HW133317   3.876   4.530   4.565 -0.5045 -0.3054 -0.6674
 7286SOL    HW233318   3.812   4.478   4.683  0.5807 -0.2163  0.2189
 7287SOL     OW33319   1.916   1.628   6.335 -0.4777 -0.2961  0.3436
 7287SOL    HW133320   1.964   1.601   6.257  0.3071  1.0911  0.3470
 7287SOL    HW233321   1.890   1.719   6.324 -0.5413 -0.1791  1.4628
 7288SOL     OW33322   0.409   2.580   6.948  0.3844 -0.5130 -0.3351
 7288SOL    HW133323   0.457   2.574   6.865  1.9417  1.0371  0.4623
 7288SOL    HW233324   0.477   2.622   7.000 -0.5715  3.3063 -2.1408
 7289SOL     OW33325   4.708   2.226   7.560 -0.7431  0.3148  0.5701
 7289SOL    HW133326   4.708   2.300   7.620  0.7998  1.9858 -1.4780
 7289SOL    HW233327   4.708   2.151   7.620  1.3595 -0.2623 -0.1455
 7290SOL     OW33328   0.810   1.391   4.206 -0.3454  0.2162  0.1335
 7290SOL    HW133329   0.748   1.321   4.185  0.3108 -0.0911 -0.7851
 7290SOL    HW233330   0.775   1.414   4.292  0.3603 -0.3671  0.5840
 7291SOL     OW33331   3.591   4.030  12.445 -0.2998 -0.1882  0.0011
 7291SOL    HW133332   3.509   4.055  12.402 -1.0506 -0.9796  0.9938
 7291SOL    HW233333   3.660   4.056  12.383 -0.4077 -0.5556 -0.2761
 7292SOL     OW33334   0.587   3.860  10.718  0.1089  0.6436 -0.0136
 7292SOL    HW133335   0.617   3.770  10.700 -1.3246  0.3400 -0.9122
 7292SOL    HW233336   0.657   3.915  10.682 -0.1104 -0.3737 -2.0551
 7293SOL     OW33337   4.054   0.154   0.003  0.1285  0.3407 -0.0739
 7293SOL    HW133338   4.073   0.066  17.668  0.2702  0.2770  0.1957
 7293SOL    HW233339   3.960   0.150   0.019  0.4991 -1.6512  1.5483
 7294SOL     OW33340   1.059   2.714   1.823  0.2905  0.0148 -0.5472
 7294SOL    HW133341   1.010   2.650   1.772  1.0076  0.0353 -1.2568
 7294SOL    HW233342   1.041   2.798   1.779  1.0152 -0.3440 -1.5302
 7295SOL     OW33343   3.103   2.883  15.598 -0.6911 -0.1561 -0.2236
 7295SOL    HW133344   3.161   2.928  15.537  1.1420 -1.8651  0.2490
 7295SOL    HW233345   3.022   2.932  15.588 -0.5102 -0.1089 -1.3903
 7296SOL     OW33346   3.016   1.871   8.699 -0.0191 -0.2018  0.0236
 7296SOL    HW133347   2.924   1.861   8.673 -0.5327  1.0990  1.3433
 7296SOL    HW233348   3.043   1.962   8.683 -0.2824  0.0543  1.0486
 7297SOL     OW33349   3.570   2.892  12.461 -0.0129  0.0764  0.2540
 7297SOL    HW133350   3.488   2.842  12.463  0.4023 -0.5834  0.5038
 7297SOL    HW233351   3.632   2.836  12.505 -0.0292 -1.0340 -1.1199
 7298SOL     OW33352   2.077   4.184   8.021 -0.8636 -0.4407 -0.1983
 7298SOL    HW133353   2.115   4.263   7.983 -1.9268  0.3007  0.2891
 7298SOL    HW233354   2.058   4.206   8.112  1.8473  1.9737 -0.2160
 7299SOL     OW33355   0.183   3.344   2.489  0.0586  0.5132  0.3492
 7299SOL    HW133356   0.165   3.437   2.502 -1.6034  0.0072  1.6998
 7299SOL    HW233357   0.108   3.308   2.537  0.0954  1.0028  0.7666
 7300SOL     OW33358   0.556   0.601   5.046 -0.7107 -0.7274  0.0512
 7300SOL    HW133359   0.633   0.638   5.003 -0.2878 -1.0254  0.5548
 7300SOL    HW233360   0.602   0.554   5.115  0.5772  0.9976  0.3672
 7301SOL     OW33361   2.184   2.476   4.368  0.6333 -0.0669  0.5018
 7301SOL    HW133362   2.234   2.432   4.299  1.8263  2.2652 -0.0976
 7301SOL    HW233363   2.192   2.566   4.337 -0.5442 -1.1881 -3.0579
 7302SOL     OW33364   3.274   3.674   1.379  0.0559  0.0111 -0.8112
 7302SOL    HW133365   3.286   3.618   1.302  2.5872  0.2030 -0.5520
 7302SOL    HW233366   3.274   3.763   1.342  0.3525 -0.6549 -2.4199
 7303SOL     OW33367   3.694   1.692  11.359  0.4423 -0.1912  0.6639
 7303SOL    HW133368   3.746   1.772  11.349  0.3316 -0.1736  0.2288
 7303SOL    HW233369   3.695   1.686  11.454 -1.1016  0.8213  0.7560
 7304SOL     OW33370   3.086   0.654  17.405  0.0788  0.2667 -0.0093
 7304SOL    HW133371   3.157   0.711  17.436 -0.6817  1.4825 -0.4660
 7304SOL    HW233372   3.016   0.718  17.390 -0.1611 -0.0483 -0.2441
 7305SOL     OW33373   2.108   4.044   5.371 -0.3349  0.3199 -0.1990
 7305SOL    HW133374   2.129   4.056   5.463 -1.7394  1.9739 -0.0785
 7305SOL    HW233375   2.184   4.092   5.336  1.7529 -3.0163 -0.1678
 7306SOL     OW33376   4.507   0.495   6.543  0.0182  0.2268  0.0476
 7306SOL    HW133377   4.497   0.415   6.595 -1.1709 -1.5413 -2.9488
 7306SOL    HW233378   4.588   0.519   6.589 -1.3645  1.9429  1.5753
 7307SOL     OW33379   1.126   1.969   3.851 -0.1834 -0.5157  0.5556
 7307SOL    HW133380   1.198   1.905   3.862 -0.0135 -0.6651 -1.4151
 7307SOL    HW233381   1.183   2.045   3.844 -1.9438  0.5146 -2.0088
 7308SOL     OW33382   2.934   1.941   4.628 -0.4877  0.4122 -0.8228
 7308SOL    HW133383   3.028   1.951   4.617 -0.4312  0.3582 -0.3630
 7308SOL    HW233384   2.911   1.891   4.549  0.2010  1.3231 -1.5941
 7309SOL     OW33385   1.530   1.230   2.667  0.1472  0.3503  0.3945
 7309SOL    HW133386   1.487   1.238   2.752  0.3125  1.1318  0.4036
 7309SOL    HW233387   1.467   1.186   2.611  0.0627 -1.2262  1.7263
 7310SOL     OW33388   2.098   0.214  12.368 -0.3577  0.9158  0.2377
 7310SOL    HW133389   2.034   0.148  12.343 -2.6897  3.3218 -0.1136
 7310SOL    HW233390   2.129   0.251  12.286  0.3414  1.7661  0.8755
 7311SOL     OW33391   3.708   1.122  16.571  0.5214 -0.5486  0.3463
 7311SOL    HW133392   3.793   1.164  16.556  0.6625 -0.9524  0.0107
 7311SOL    HW233393   3.691   1.084  16.485 -1.2162  1.4752 -0.2102
 7312SOL     OW33394   1.280   3.535   1.505 -0.2599 -0.4567 -0.2866
 7312SOL    HW133395   1.336   3.605   1.473 -0.4350 -0.2437 -0.1263
 7312SOL    HW233396   1.196   3.578   1.521 -1.2510 -2.3094 -0.5113
 7313SOL     OW33397   3.768   3.023  13.968 -0.0978 -0.2486 -0.3424
 7313SOL    HW133398   3.739   2.946  14.017  1.1718 -1.1760 -1.0536
 7313SOL    HW233399   3.842   2.987  13.919  1.3729  3.2590 -0.7044
 7314SOL     OW33400   3.160   1.173   2.857 -0.4063 -0.1331 -0.0217
 7314SOL    HW133401   3.066   1.153   2.853 -0.7520  1.2418  1.1814
 7314SOL    HW233402   3.185   1.095   2.907 -0.0433  1.4155  2.2078
 7315SOL     OW33403   1.339   4.037  14.344  0.2217 -0.0315  0.3909
 7315SOL    HW133404   1.415   4.081  14.381 -0.3668  3.0523 -2.0482
 7315SOL    HW233405   1.378   3.951  14.330  1.9447  0.6387  1.0364
 7316SOL     OW33406   3.149   2.260   5.602  0.1326  0.0947  0.0215
 7316SOL    HW133407   3.233   2.281   5.643 -0.6313  1.4433  0.9106
 7316SOL    HW233408   3.189   2.182   5.564  1.2372  0.3666  0.6189
 7317SOL     OW33409   4.612   0.127  14.709 -0.0406  0.3992 -0.7458
 7317SOL    HW133410   4.669   0.067  14.756 -0.0531  0.9060 -0.0957
 7317SOL    HW233411   4.545   0.141  14.776 -0.1103 -0.9618 -0.5215
 7318SOL     OW33412   1.811   1.188   2.613  1.1389 -0.5526  0.4908
 7318SOL    HW133413   1.716   1.204   2.611  1.3058  0.4045 -0.0064
 7318SOL    HW233414   1.821   1.167   2.706  2.8273 -2.8824 -0.2122
 7319SOL     OW33415   1.282   3.560   8.239 -0.0831  0.6097 -0.0597
 7319SOL    HW133416   1.196   3.570   8.279 -0.3621  0.1119 -0.5313
 7319SOL    HW233417   1.257   3.623   8.171 -1.7130  0.5656  0.4941
 7320SOL     OW33418   0.632   1.505   6.892  0.2938 -0.3302 -0.0577
 7320SOL    HW133419   0.580   1.493   6.972 -1.1160  1.4141 -0.7143
 7320SOL    HW233420   0.620   1.600   6.896 -1.8363 -0.7351  3.5263
 7321SOL     OW33421   4.544   0.918   2.826  0.0056 -0.3350  0.2690
 7321SOL    HW133422   4.562   0.859   2.754 -2.8694 -1.4901  0.5048
 7321SOL    HW233423   4.625   0.904   2.876 -0.0640  0.3540  0.5894
 7322SOL     OW33424   1.217   0.386   2.073 -0.1960 -0.1242  0.2599
 7322SOL    HW133425   1.152   0.357   2.137  0.2340  0.1895  0.8393
 7322SOL    HW233426   1.239   0.463   2.125 -2.2873  1.0253 -0.5204
 7323SOL     OW33427   3.227   0.672   2.842  0.0417  0.4909  0.4867
 7323SOL    HW133428   3.280   0.610   2.893 -0.7424 -1.7516 -1.4368
 7323SOL    HW233429   3.249   0.653   2.751 -2.8468 -0.5874  0.0358
 7324SOL     OW33430   1.864   3.287   9.250  0.3129 -0.2365  0.0655
 7324SOL    HW133431   1.782   3.325   9.282  0.2385 -0.9299  0.7253
 7324SOL    HW233432   1.860   3.306   9.157  0.2895  1.0472  0.3338
 7325SOL     OW33433   4.329   2.137   6.870 -0.1201  0.2710 -0.6384
 7325SOL    HW133434   4.294   2.215   6.913 -0.7897 -0.5638  0.3366
 7325SOL    HW233435   4.357   2.176   6.787  1.2450  0.5847 -0.0281
 7326SOL     OW33436   4.714   1.266   7.885 -0.2844  0.3633 -0.3202
 7326SOL    HW133437   0.006   1.330   7.955 -0.8659  0.5367 -0.3495
 7326SOL    HW233438   4.698   1.327   7.813 -0.3435  2.5643  1.5441
 7327SOL     OW33439   0.370   3.886   1.848  0.2470  0.0287 -0.2316
 7327SOL    HW133440   0.341   3.874   1.939 -1.5991  0.9973 -0.6965
 7327SOL    HW233441   0.285   3.876   1.804 -0.3800  1.4293  0.6429
 7328SOL     OW33442   1.617   4.003   1.805  0.7002  0.1373  0.0650
 7328SOL    HW133443   1.640   3.967   1.719 -0.4806  1.3024 -0.7265
 7328SOL    HW233444   1.581   4.084   1.770 -0.7959 -0.4973  0.1602
 7329SOL     OW33445   1.666   4.656   5.829  0.3295  0.0328 -0.2805
 7329SOL    HW133446   1.749   4.609   5.827  0.2962 -0.1102  1.4766
 7329SOL    HW233447   1.654   4.680   5.737 -2.2592 -0.0964  0.0198
 7330SOL     OW33448   1.026   1.972  11.519  0.4537  0.0776  0.4926
 7330SOL    HW133449   1.046   1.879  11.504  1.2651 -0.0347  2.2648
 7330SOL    HW233450   0.949   1.958  11.575 -0.4961 -2.1091 -1.3512
 7331SOL     OW33451   2.930   3.011   3.187  0.2894 -0.2335  0.5534
 7331SOL    HW133452   2.926   2.979   3.276  0.6772 -0.2751  0.5541
 7331SOL    HW233453   2.850   2.971   3.153  0.3184  0.4989 -0.4116
 7332SOL     OW33454   2.323   1.492   8.684  0.5502 -0.0580 -0.3027
 7332SOL    HW133455   2.379   1.529   8.752 -2.7795  1.5762  1.5255
 7332SOL    HW233456   2.393   1.497   8.618  1.2423  2.5252  0.6281
 7333SOL     OW33457   1.016   4.450  13.657 -0.0659 -0.2230  0.6353
 7333SOL    HW133458   0.994   4.476  13.747 -0.4715  2.5260 -0.2549
 7333SOL    HW233459   0.938   4.482  13.612  0.1511  0.3314  0.6464
 7334SOL     OW33460   2.664   2.810  15.461  0.3218 -0.4777  0.1530
 7334SOL    HW133461   2.736   2.776  15.409  1.1398  3.4050 -1.2724
 7334SOL    HW233462   2.703   2.887  15.501 -1.7197 -0.7230  2.6088
 7335SOL     OW33463   2.662   1.571   3.045 -0.5067 -0.0877  0.1905
 7335SOL    HW133464   2.707   1.648   3.078  1.1944 -0.3194 -1.5849
 7335SOL    HW233465   2.725   1.527   2.988  0.8507  1.6070  0.3949
 7336SOL     OW33466   2.295   1.013  12.054  0.5720  0.4593 -1.0878
 7336SOL    HW133467   2.236   0.965  11.995 -1.3414  1.7183 -0.2126
 7336SOL    HW233468   2.303   0.955  12.129  0.1649  0.0614 -1.3530
 7337SOL     OW33469   3.071   2.817  13.076  0.1797 -0.0823 -0.1382
 7337SOL    HW133470   3.131   2.745  13.056  0.4397  0.2155 -0.4190
 7337SOL    HW233471   3.072   2.822  13.171 -1.1544 -0.6380 -0.0929
 7338SOL     OW33472   0.879   4.701   4.409 -0.0959 -0.0081 -0.1162
 7338SOL    HW133473   0.928   0.056   4.384  2.5758 -1.3600  0.8410
 7338SOL    HW233474   0.880   4.650   4.327  2.9166  0.2175 -0.2195
 7339SOL     OW33475   0.471   2.872   3.763  0.4936 -0.2460  0.4014
 7339SOL    HW133476   0.411   2.946   3.757  3.1296  1.8204 -0.8257
 7339SOL    HW233477   0.495   2.855   3.672  2.0273  0.9659  0.5659
 7340SOL     OW33478   3.903   0.566  11.048  0.4346 -0.0187 -0.1206
 7340SOL    HW133479   3.817   0.532  11.073  0.5739  0.3747  0.8654
 7340SOL    HW233480   3.884   0.656  11.022  1.0596  1.0113  3.1080
 7341SOL     OW33481   2.509   3.780  17.168  0.2364 -0.5876 -0.4608
 7341SOL    HW133482   2.569   3.705  17.178  1.6496  0.6643  0.3389
 7341SOL    HW233483   2.565   3.839  17.118 -0.6870 -0.2465 -1.0901
 7342SOL     OW33484   1.471   2.430   8.733 -0.0346 -0.1262  0.1357
 7342SOL    HW133485   1.376   2.420   8.729 -0.2863  1.4621  2.2530
 7342SOL    HW233486   1.502   2.340   8.724  0.9770  0.1301  1.0320
 7343SOL     OW33487   0.159   4.120   7.102 -0.3164 -0.0059  0.0068
 7343SOL    HW133488   0.110   4.197   7.129 -1.4825 -0.3020 -1.3087
 7343SOL    HW233489   0.186   4.084   7.187 -0.6987 -1.6116 -0.5526
 7344SOL     OW33490   4.624   3.805   3.207 -0.3306 -0.6060 -0.1025
 7344SOL    HW133491   4.637   3.758   3.125  1.7556 -2.4907  1.3043
 7344SOL    HW233492   4.543   3.855   3.193  0.8103  1.4242  0.5045
 7345SOL     OW33493   1.747   2.108   6.888  0.2789  0.3924 -0.1429
 7345SOL    HW133494   1.707   2.164   6.821 -4.9280 -0.0193  2.5657
 7345SOL    HW233495   1.791   2.174   6.941 -1.0845  1.0827  0.1492
 7346SOL     OW33496   3.020   0.161  12.124  1.1724 -0.4781  0.3188
 7346SOL    HW133497   2.931   0.177  12.093  0.8170 -1.4568  0.8594
 7346SOL    HW233498   3.065   0.200  12.049 -0.1210 -2.3905 -1.4535
 7347SOL     OW33499   3.411   2.494   2.834 -0.2335  0.6327 -0.3077
 7347SOL    HW133500   3.383   2.586   2.835 -0.7388  0.4685  0.7770
 7347SOL    HW233501   3.396   2.463   2.923  2.6124 -0.5457 -0.2365
 7348SOL     OW33502   4.402   0.913   8.693 -0.3178 -0.8714  0.3841
 7348SOL    HW133503   4.392   1.003   8.723  3.9998 -0.5249  0.7055
 7348SOL    HW233504   4.459   0.876   8.760 -1.1894 -1.1046  0.9965
 7349SOL     OW33505   3.713   1.066  12.919 -0.1397  0.8248 -0.3700
 7349SOL    HW133506   3.765   1.120  12.860  2.6452 -0.3735  1.0212
 7349SOL    HW233507   3.763   0.985  12.921 -0.5832  0.5865  1.1439
 7350SOL     OW33508   2.899   4.272  14.005 -0.4369 -0.5432 -0.8996
 7350SOL    HW133509   2.873   4.180  13.997 -1.4580 -0.2167 -1.3323
 7350SOL    HW233510   2.978   4.273  14.059 -1.5474 -0.8551  0.7217
 7351SOL     OW33511   0.537   3.609   2.955 -0.6362  0.1867  0.2421
 7351SOL    HW133512   0.553   3.634   3.047  2.0986 -1.0851  0.0856
 7351SOL    HW233513   0.612   3.558   2.926 -0.7039  0.9708 -1.3287
 7352SOL     OW33514   3.631   3.542   1.766  0.0962  0.0551 -0.4914
 7352SOL    HW133515   3.571   3.476   1.800  0.6240  0.1128  0.5422
 7352SOL    HW233516   3.591   3.563   1.681 -2.5634 -0.1483  0.6992
 7353SOL     OW33517   4.529   0.936  11.471  0.2003  0.4925 -0.3306
 7353SOL    HW133518   4.552   0.853  11.429  0.5527  0.0086  0.8162
 7353SOL    HW233519   4.542   0.998  11.400 -0.6106  0.8952 -0.1299
 7354SOL     OW33520   4.026   4.280   8.088  0.0485 -0.1589 -0.1166
 7354SOL    HW133521   3.985   4.210   8.139  1.8848 -0.7878  0.5398
 7354SOL    HW233522   3.978   4.352   8.128 -1.1033 -0.3600 -1.1670
 7355SOL     OW33523   1.646   2.430   4.171 -0.2865 -0.8182  0.8478
 7355SOL    HW133524   1.551   2.429   4.179 -0.0670  0.1352  3.6225
 7355SOL    HW233525   1.659   2.524   4.162  0.8358 -0.8693  1.8986
 7356SOL     OW33526   1.061   0.007   6.839 -0.4839 -0.3709  0.0428
 7356SOL    HW133527   1.111   0.078   6.879  1.7020 -0.3182 -2.7373
 7356SOL    HW233528   1.114   4.686   6.772  0.0879  1.0352 -0.4383
 7357SOL     OW33529   1.000   3.037   6.762  0.0516  0.2961 -0.0904
 7357SOL    HW133530   0.974   3.123   6.797 -0.1001 -0.3055  1.2662
 7357SOL    HW233531   0.937   2.984   6.811  0.4864  0.0483  0.2005
 7358SOL     OW33532   2.755   2.548   2.558 -0.3826 -0.5171 -0.0712
 7358SOL    HW133533   2.797   2.554   2.644 -0.3646 -2.9073  0.1008
 7358SOL    HW233534   2.789   2.464   2.527 -0.5046 -0.2887 -0.8010
 7359SOL     OW33535   4.709   2.469  14.468 -0.1072  0.3395  0.6623
 7359SOL    HW133536   0.003   2.380  14.498 -0.0162  0.5214  1.1426
 7359SOL    HW233537   0.022   2.518  14.542  0.9070  0.7394 -0.1026
 7360SOL     OW33538   3.184   0.172  13.817  0.8297 -0.4708 -0.3788
 7360SOL    HW133539   3.165   0.252  13.768  0.9831  0.6771  1.4379
 7360SOL    HW233540   3.139   0.100  13.773 -0.5961 -0.7707  1.6003
 7361SOL     OW33541   2.474   3.652  16.303 -0.2534 -0.5089 -0.2002
 7361SOL    HW133542   2.536   3.603  16.249  1.6016  0.9168  0.6118
 7361SOL    HW233543   2.446   3.723  16.245  2.0651 -0.2906 -1.0498
 7362SOL     OW33544   1.690   1.920   6.667 -0.5800 -0.5085  0.2852
 7362SOL    HW133545   1.752   1.854   6.697  0.6076 -0.0225 -1.0824
 7362SOL    HW233546   1.712   1.995   6.721  0.0145  0.3276 -1.1019
 7363SOL     OW33547   1.869   0.823  14.703  0.5550  0.3350 -0.0978
 7363SOL    HW133548   1.940   0.886  14.691 -0.0527  0.7717 -1.3417
 7363SOL    HW233549   1.801   0.870  14.751  0.5180  0.1281  0.0494
 7364SOL     OW33550   0.073   1.624   3.367  0.1218  0.1457 -0.0918
 7364SOL    HW133551   0.015   1.691   3.402 -1.8942 -2.0384  0.7680
 7364SOL    HW233552   0.057   1.552   3.429 -0.9803  1.7319  1.4712
 7365SOL     OW33553   0.703   3.081   3.609  0.1356 -0.0541 -0.5166
 7365SOL    HW133554   0.652   3.162   3.613 -1.1744 -0.8836 -0.4318
 7365SOL    HW233555   0.785   3.112   3.648 -0.7372 -1.2026  2.1788
 7366SOL     OW33556   2.081   4.312   9.005  0.4858 -0.7825  0.1115
 7366SOL    HW133557   2.111   4.259   9.079  3.6615  1.0352  0.1306
 7366SOL    HW233558   2.008   4.252   8.987 -0.1867 -0.2907  1.1590
 7367SOL     OW33559   1.561   2.885   8.958 -0.7200 -0.1239 -0.0313
 7367SOL    HW133560   1.536   2.930   9.039  0.1967  1.3397 -0.5712
 7367SOL    HW233561   1.653   2.871   8.979 -0.5036  0.2112 -0.7650
 7368SOL     OW33562   1.260   1.909   0.494  0.0456  0.0359 -0.2182
 7368SOL    HW133563   1.271   1.997   0.531  1.7505 -0.3888  0.2453
 7368SOL    HW233564   1.205   1.926   0.417 -3.3464 -1.0630  1.9280
 7369SOL     OW33565   0.548   4.670   9.251 -0.0778 -0.9655  0.3552
 7369SOL    HW133566   0.578   4.677   9.342  1.6456 -0.5107 -0.2398
 7369SOL    HW233567   0.532   0.040   9.242  0.1236 -1.1265 -1.6751
 7370SOL     OW33568   2.846   3.549   1.549  0.3709  0.0854 -0.3271
 7370SOL    HW133569   2.814   3.480   1.492  1.7275 -0.0724 -0.8981
 7370SOL    HW233570   2.942   3.548   1.551  0.3203 -2.5007  0.7464
 7371SOL     OW33571   0.379   0.332  15.421 -0.0746  0.4187  0.0529
 7371SOL    HW133572   0.307   0.319  15.483  1.7265  0.8554  2.2496
 7371SOL    HW233573   0.353   0.270  15.354  1.8611  1.1890 -1.4129
 7372SOL     OW33574   4.032   1.040   5.502 -0.5752  0.2177 -0.3565
 7372SOL    HW133575   4.123   1.035   5.531 -0.1893  1.8055 -1.2628
 7372SOL    HW233576   3.991   1.084   5.577  1.6294 -0.1152  1.0305
 7373SOL     OW33577   3.512   2.979   4.379  0.2344  0.3801 -0.5142
 7373SOL    HW133578   3.453   2.939   4.442  2.2188 -0.2962  0.9206
 7373SOL    HW233579   3.499   3.073   4.386 -0.8325  0.2148 -0.4047
 7374SOL     OW33580   1.452   4.031   4.540  0.5836 -0.2646 -0.1254
 7374SOL    HW133581   1.534   3.982   4.538  0.2912 -0.7354 -0.2961
 7374SOL    HW233582   1.454   4.090   4.616 -2.8636 -1.1585  0.6421
 7375SOL     OW33583   2.530   2.721   8.065 -0.3940 -0.2376  0.4179
 7375SOL    HW133584   2.437   2.741   8.057 -0.2988 -0.0773 -0.2622
 7375SOL    HW233585   2.567   2.713   7.977 -2.4061  0.4843 -0.4926
 7376SOL     OW33586   2.910   0.905   7.634 -0.6464 -0.8310  0.6455
 7376SOL    HW133587   2.851   0.855   7.578 -3.1120  2.3253  0.3590
 7376SOL    HW233588   2.882   0.885   7.724  0.1033  1.9485  1.5083
 7377SOL     OW33589   0.528   2.796   6.448 -0.2829  0.1001 -0.4591
 7377SOL    HW133590   0.614   2.837   6.453  0.0679 -1.0445  2.5121
 7377SOL    HW233591   0.518   2.782   6.354 -0.1734 -0.6695 -0.3520
 7378SOL     OW33592   0.753   2.900  10.054 -0.0285  0.1398  0.0192
 7378SOL    HW133593   0.718   2.831  10.110  1.7696 -1.6712 -1.0855
 7378SOL    HW233594   0.781   2.953  10.129 -1.9543 -0.3676  1.0954
 7379SOL     OW33595   2.383   2.313   1.343 -0.3075 -0.2824  0.3673
 7379SOL    HW133596   2.314   2.343   1.284 -1.8522 -1.2287  1.6913
 7379SOL    HW233597   2.401   2.230   1.301  3.4438  0.1869  1.0213
 7380SOL     OW33598   2.098   1.324   4.068  0.6264 -0.5201  0.3423
 7380SOL    HW133599   2.070   1.415   4.058  0.5337 -0.8030 -2.0629
 7380SOL    HW233600   2.027   1.284   4.118  0.7186 -1.4834 -0.2911
 7381SOL     OW33601   4.216   3.968   7.393  0.1948 -0.2190  0.1785
 7381SOL    HW133602   4.174   3.892   7.353  0.5367 -0.4060  0.1743
 7381SOL    HW233603   4.158   4.035   7.356 -0.0314  0.5867  1.9855
 7382SOL     OW33604   0.675   0.928   4.807  0.1989  0.4658 -0.0891
 7382SOL    HW133605   0.592   0.964   4.838  1.4753  2.2552  1.2269
 7382SOL    HW233606   0.698   0.866   4.876  0.9019  0.7322 -0.0779
 7383SOL     OW33607   3.749   2.584  13.849  0.5766 -0.0623 -0.3236
 7383SOL    HW133608   3.781   2.660  13.898  0.9523 -0.2126 -0.3338
 7383SOL    HW233609   3.671   2.561  13.900 -0.0136  2.4129 -0.1388
 7384SOL     OW33610   1.606   1.416   2.953 -0.0945 -0.0795 -0.2121
 7384SOL    HW133611   1.683   1.422   3.010 -0.9755 -0.1875  0.9887
 7384SOL    HW233612   1.594   1.325   2.926 -2.2299  0.1187  0.1079
 7385SOL     OW33613   3.847   3.292   4.497 -0.4677 -0.1526  0.1893
 7385SOL    HW133614   3.762   3.315   4.458 -0.3781  1.0616  0.7290
 7385SOL    HW233615   3.833   3.320   4.587  1.0871 -1.0055  0.6831
 7386SOL     OW33616   3.625   1.775   9.551  0.3737 -0.0929  0.1555
 7386SOL    HW133617   3.696   1.757   9.614 -0.0743  0.5823  0.8524
 7386SOL    HW233618   3.563   1.704   9.569  1.9222 -1.7015 -0.7386
 7387SOL     OW33619   4.157   1.633   2.059 -0.2810 -0.4714 -0.2243
 7387SOL    HW133620   4.235   1.666   2.015 -0.0352 -0.4398  0.2354
 7387SOL    HW233621   4.209   1.623   2.139 -0.2731  0.3360 -0.1232
 7388SOL     OW33622   0.226   1.879  12.952 -0.5603 -0.1409 -0.3762
 7388SOL    HW133623   0.231   1.837  13.037  0.9414  1.5648  0.3733
 7388SOL    HW233624   0.196   1.800  12.906  1.8054 -0.5697 -1.1755
 7389SOL     OW33625   2.715   4.110   2.728 -0.4371 -0.4401 -0.1419
 7389SOL    HW133626   2.775   4.101   2.654 -2.4147 -0.5389 -1.7323
 7389SOL    HW233627   2.727   4.016   2.746  1.6836 -0.2975 -0.8067
 7390SOL     OW33628   1.930   1.730   4.420  0.3180 -0.5271 -0.2274
 7390SOL    HW133629   1.884   1.646   4.410  0.5734 -0.8683  1.2943
 7390SOL    HW233630   1.861   1.786   4.454 -0.2706  0.0654 -2.4354
 7391SOL     OW33631   3.593   2.946   5.558 -0.4996 -0.5544  0.2129
 7391SOL    HW133632   3.514   2.940   5.612 -0.8524  0.0474 -0.2434
 7391SOL    HW233633   3.577   3.030   5.516 -0.2821 -1.1962 -1.1607
 7392SOL     OW33634   3.666   3.142   4.946 -0.2494  0.4145 -0.0545
 7392SOL    HW133635   3.757   3.152   4.972 -0.7873  1.0157  1.5848
 7392SOL    HW233636   3.626   3.135   5.033  1.4175 -0.0847  0.6595
 7393SOL     OW33637   3.537   2.003   8.754  0.1191 -0.2503  0.3392
 7393SOL    HW133638   3.551   2.030   8.845 -0.3220 -0.1004  0.3641
 7393SOL    HW233639   3.627   1.985   8.730 -0.2944 -0.6463 -0.9456
 7394SOL     OW33640   3.925   1.862  15.836  0.5075  0.0702  0.1481
 7394SOL    HW133641   3.863   1.932  15.855 -2.1872 -1.9113 -1.4364
 7394SOL    HW233642   3.982   1.901  15.769 -0.0355 -0.4017 -0.5948
 7395SOL     OW33643   0.735   2.295  10.616 -0.0206 -0.2422 -0.2859
 7395SOL    HW133644   0.738   2.377  10.567 -1.6324 -0.3114 -0.5006
 7395SOL    HW233645   0.686   2.309  10.697  1.7925 -1.4569  1.0193
 7396SOL     OW33646   1.697   1.976   1.328  0.2379 -0.4916 -0.1533
 7396SOL    HW133647   1.770   1.930   1.369 -0.9376 -2.7717 -0.6198
 7396SOL    HW233648   1.633   1.963   1.398 -2.0213 -0.6633 -2.2106
 7397SOL     OW33649   3.779   3.638   8.361 -0.2557  0.2838  0.5511
 7397SOL    HW133650   3.752   3.606   8.446  0.0143 -0.6925  0.2627
 7397SOL    HW233651   3.700   3.687   8.338 -1.5493 -2.5142 -0.9993
 7398SOL     OW33652   4.451   2.724  14.236 -0.0813  0.6331 -0.1972
 7398SOL    HW133653   4.424   2.707  14.326  0.0477  1.3451 -0.0246
 7398SOL    HW233654   4.522   2.661  14.227 -1.4918 -1.1020  1.0014
 7399SOL     OW33655   2.862   3.342   7.168  0.0579  0.0529  0.4539
 7399SOL    HW133656   2.797   3.291   7.216  0.4858  0.1538  1.1379
 7399SOL    HW233657   2.889   3.405   7.235  1.2346  0.1424 -0.1013
 7400SOL     OW33658   1.203   4.071  12.643 -0.7803  0.3647 -0.5289
 7400SOL    HW133659   1.200   4.152  12.694  2.1990  1.9611 -2.8787
 7400SOL    HW233660   1.262   4.104  12.575  0.8817 -0.9358  0.2813
 7401SOL     OW33661   1.915   0.406   6.163  0.6891  1.0772 -0.0704
 7401SOL    HW133662   1.824   0.435   6.169 -0.3395 -2.0465 -0.3818
 7401SOL    HW233663   1.900   0.312   6.157  3.1593  0.7577 -1.1919
 7402SOL     OW33664   2.096   1.917   7.553  0.8692  0.2191 -0.9094
 7402SOL    HW133665   2.014   1.940   7.511  0.2302  0.8543  0.6854
 7402SOL    HW233666   2.125   2.003   7.583 -2.8583  1.8912 -2.1603
 7403SOL     OW33667   0.647   1.097  13.276 -0.8348  0.4967  0.0457
 7403SOL    HW133668   0.636   1.052  13.360  4.2269 -2.4795 -0.9011
 7403SOL    HW233669   0.636   1.190  13.297  0.8383  0.3242  1.6789
 7404SOL     OW33670   3.865   0.119   5.194 -0.5888 -0.6945  0.0647
 7404SOL    HW133671   3.911   0.064   5.258  1.5170 -0.1218 -0.9653
 7404SOL    HW233672   3.922   0.195   5.186 -2.2860  0.2546 -3.2757
 7405SOL     OW33673   1.766   4.447   5.402  0.4674  0.1895  0.1218
 7405SOL    HW133674   1.753   4.357   5.373 -0.0952  0.2386  0.2260
 7405SOL    HW233675   1.751   4.488   5.316 -2.5979  0.5661  0.8381
 7406SOL     OW33676   3.158   3.842   4.586  0.1722 -0.2212 -0.5535
 7406SOL    HW133677   3.104   3.844   4.507  0.0356  2.3134 -0.3772
 7406SOL    HW233678   3.087   3.813   4.644  2.0236 -1.8923  0.8664
 7407SOL     OW33679   2.412   0.764   6.058 -0.0931  0.8214  0.0090
 7407SOL    HW133680   2.319   0.788   6.058 -0.2308  0.2889 -1.8608
 7407SOL    HW233681   2.437   0.757   6.150 -0.5069 -0.4729  0.0201
 7408SOL     OW33682   1.281   3.593   1.108  0.0681  0.3438 -0.4746
 7408SOL    HW133683   1.318   3.507   1.087  1.1181  1.1504 -1.9996
 7408SOL    HW233684   1.252   3.626   1.023  1.0085  0.8832 -0.5939
 7409SOL     OW33685   0.613   2.294   6.985  0.1795 -0.4753 -0.5488
 7409SOL    HW133686   0.608   2.317   7.078  0.1947  0.0944 -0.6883
 7409SOL    HW233687   0.643   2.203   6.990 -0.2872 -0.6466 -0.8483
 7410SOL     OW33688   4.686   3.094  15.884 -0.2453 -0.4035 -0.5216
 7410SOL    HW133689   4.631   3.105  15.961  0.1447 -0.5211 -0.2275
 7410SOL    HW233690   4.661   3.007  15.854 -0.0538 -0.3363 -0.8793
 7411SOL     OW33691   0.827   4.305   4.388 -0.0975 -0.0403  0.1460
 7411SOL    HW133692   0.818   4.244   4.315  1.9005  0.1558 -0.2646
 7411SOL    HW233693   0.916   4.292   4.421 -0.2675 -3.1099 -0.5806
 7412SOL     OW33694   1.576   2.632   6.253 -0.3703 -0.1368 -0.0531
 7412SOL    HW133695   1.627   2.713   6.260 -1.2158  0.2453  1.3934
 7412SOL    HW233696   1.485   2.653   6.233 -0.8921 -0.8768  1.6388
 7413SOL     OW33697   2.501   2.083  14.605  0.1361  0.2572 -0.2879
 7413SOL    HW133698   2.550   2.002  14.592 -0.2130 -0.0458  0.3155
 7413SOL    HW233699   2.509   2.096  14.699  0.7939 -1.1175 -0.1466
 7414SOL     OW33700   2.126   0.102   2.241 -0.8775 -0.2219 -0.6596
 7414SOL    HW133701   2.129   0.081   2.334 -2.6511  0.7637 -0.3780
 7414SOL    HW233702   2.203   0.054   2.211 -0.5926 -0.0173 -0.2561
 7415SOL     OW33703   2.425   3.876   1.213  0.3488 -0.1985 -0.5529
 7415SOL    HW133704   2.362   3.896   1.144 -1.8254  0.5297  1.6626
 7415SOL    HW233705   2.447   3.962   1.248  1.9915 -0.0547 -1.9271
 7416SOL     OW33706   3.718   1.798   7.291 -0.1210 -0.7908  0.3569
 7416SOL    HW133707   3.707   1.879   7.240  1.3531 -1.1018 -0.4552
 7416SOL    HW233708   3.791   1.760   7.242  0.1944 -1.8311  1.6534
 7417SOL     OW33709   3.427   0.929   7.218  0.2846  0.2454  0.1438
 7417SOL    HW133710   3.418   0.873   7.295 -0.2907 -1.0715 -0.8921
 7417SOL    HW233711   3.339   0.967   7.216  0.3562  0.3723 -0.4648
 7418SOL     OW33712   3.014   3.284   1.111  0.3346 -0.3464 -0.3332
 7418SOL    HW133713   2.959   3.308   1.186  1.7457 -0.0180  0.6036
 7418SOL    HW233714   2.953   3.221   1.074  1.3366 -1.8502  0.5598
 7419SOL     OW33715   1.436   2.690   9.225 -0.1026  0.6097 -0.0981
 7419SOL    HW133716   1.436   2.733   9.139  0.1131  0.7411 -0.0325
 7419SOL    HW233717   1.524   2.655   9.240  0.9801  2.9552 -0.9567
 7420SOL     OW33718   1.438   0.467   2.464 -0.0924  0.2741  0.1845
 7420SOL    HW133719   1.496   0.430   2.530  0.6166  1.6017  0.3118
 7420SOL    HW233720   1.481   0.440   2.383 -1.9431 -0.4917 -0.5299
 7421SOL     OW33721   4.179   3.705   7.227 -0.2881  0.4475 -0.2432
 7421SOL    HW133722   4.159   3.627   7.176 -1.4535  0.5271  0.1036
 7421SOL    HW233723   4.256   3.744   7.185 -0.1346  0.5517  0.1323
 7422SOL     OW33724   2.448   4.677   8.272 -0.2224 -0.1810  0.6940
 7422SOL    HW133725   2.435   4.585   8.293 -0.3323 -0.4929 -0.7906
 7422SOL    HW233726   2.540   4.690   8.294  0.6961 -2.7152 -1.8671
 7423SOL     OW33727   1.330   2.653   2.007  0.3442  0.5108  0.1485
 7423SOL    HW133728   1.277   2.627   1.931  1.6545  2.4916 -1.4620
 7423SOL    HW233729   1.336   2.748   1.995  0.0103  0.3222 -1.5606
 7424SOL     OW33730   3.284   1.553   6.822  0.1449 -0.4865  0.6830
 7424SOL    HW133731   3.335   1.473   6.812 -0.2135 -0.1672 -3.6143
 7424SOL    HW233732   3.195   1.521   6.805  0.5589 -1.3006  0.0976
 7425SOL     OW33733   0.455   0.421  16.527  0.0404 -0.1378 -0.5532
 7425SOL    HW133734   0.411   0.346  16.567 -0.5224 -0.1136 -1.1162
 7425SOL    HW233735   0.443   0.389  16.437  0.5537  0.4309 -0.8222
 7426SOL     OW33736   0.821   2.376  10.333 -0.2332 -0.0430 -0.0168
 7426SOL    HW133737   0.871   2.458  10.328  0.8931 -0.8087 -1.1092
 7426SOL    HW233738   0.791   2.365  10.243 -1.1780  0.3993  0.2416
 7427SOL     OW33739   3.371   0.154   9.463  0.1228  0.7043 -1.0114
 7427SOL    HW133740   3.339   0.158   9.553 -0.2359 -0.4006 -1.0977
 7427SOL    HW233741   3.385   0.060   9.452  0.0099  0.6859 -0.9993
 7428SOL     OW33742   1.637   3.242   4.537 -0.1698  0.3044 -0.3869
 7428SOL    HW133743   1.581   3.254   4.613  0.6220 -0.0413  0.2456
 7428SOL    HW233744   1.718   3.219   4.583  0.4407  1.4150 -0.9006
 7429SOL     OW33745   0.547   3.260  12.516  0.2771 -0.0578 -0.2915
 7429SOL    HW133746   0.527   3.276  12.608 -0.2423  0.9605 -0.5739
 7429SOL    HW233747   0.474   3.301  12.470  1.7485  0.1621 -2.4408
 7430SOL     OW33748   3.738   0.321   7.881  0.4674  0.0206  0.4725
 7430SOL    HW133749   3.646   0.329   7.854  0.5495 -1.5427 -0.2907
 7430SOL    HW233750   3.777   0.346   7.797 -2.8498  1.2397 -0.7102
 7431SOL     OW33751   1.763   2.166   9.769  0.6685 -0.3542 -0.5404
 7431SOL    HW133752   1.764   2.134   9.860 -2.3039 -0.5864 -0.5828
 7431SOL    HW233753   1.828   2.103   9.739  1.7815 -0.4749  2.1234
 7432SOL     OW33754   3.192   3.692   2.411  0.1903  0.0185 -0.1414
 7432SOL    HW133755   3.099   3.673   2.415  0.1533  0.7193  2.1926
 7432SOL    HW233756   3.183   3.787   2.416  2.2470  0.2148  0.0199
 7433SOL     OW33757   1.365   2.951   2.020 -0.4767 -0.3214  0.1109
 7433SOL    HW133758   1.349   3.040   1.988  0.7453 -0.6494 -1.3849
 7433SOL    HW233759   1.340   2.961   2.112  1.0392 -0.9369  0.5961
 7434SOL     OW33760   2.929   0.769  13.074  0.2284 -0.6441 -0.2890
 7434SOL    HW133761   2.837   0.763  13.101  0.5549 -2.1156  0.4998
 7434SOL    HW233762   2.924   0.699  13.009 -1.1803  0.0786 -0.9743
 7435SOL     OW33763   0.657   3.842   9.293 -0.1566 -0.4608 -0.2800
 7435SOL    HW133764   0.569   3.804   9.291 -0.0614 -0.6736 -0.3219
 7435SOL    HW233765   0.661   3.858   9.388 -0.9015 -1.9569 -0.0045
 7436SOL     OW33766   3.922   3.682   4.783  0.4347  0.9080 -0.0137
 7436SOL    HW133767   3.952   3.773   4.780  1.2166  0.6721  1.0200
 7436SOL    HW233768   3.903   3.676   4.689 -1.8517 -0.2507  0.5376
 7437SOL     OW33769   2.348   4.447   6.695 -0.7960 -0.2772 -0.1547
 7437SOL    HW133770   2.253   4.463   6.695 -1.2044 -2.6669  0.9815
 7437SOL    HW233771   2.367   4.443   6.602 -0.4172  0.9746 -0.1327
 7438SOL     OW33772   0.255   0.949  11.663  0.3607  0.1989 -0.2282
 7438SOL    HW133773   0.250   1.005  11.585  0.5107 -0.6233 -0.8264
 7438SOL    HW233774   0.164   0.953  11.693 -0.3331 -1.3766 -2.1232
 7439SOL     OW33775   2.726   0.277   2.126  0.3195  0.1407 -0.0053
 7439SOL    HW133776   2.645   0.254   2.082 -0.3354  0.1403  1.2038
 7439SOL    HW233777   2.705   0.356   2.176 -1.1345 -0.2645  0.0161
 7440SOL     OW33778   0.936   2.654   5.727  0.4187  0.1358  0.5067
 7440SOL    HW133779   0.980   2.702   5.656  2.6059 -2.0678  0.3607
 7440SOL    HW233780   0.968   2.701   5.804  0.3520 -0.5218  0.9356
 7441SOL     OW33781   3.325   3.990   1.997 -0.2674 -0.3291 -0.6154
 7441SOL    HW133782   3.389   3.941   1.946  1.1521  0.7070  0.1405
 7441SOL    HW233783   3.271   3.918   2.029 -0.9598 -0.1241 -1.3358
 7442SOL     OW33784   3.924   4.167   4.334  0.3999  0.2801  0.2216
 7442SOL    HW133785   3.972   4.249   4.342  0.8595  0.2845 -2.6528
 7442SOL    HW233786   3.965   4.115   4.265 -1.2000  1.3408 -1.5215
 7443SOL     OW33787   3.070   2.364   0.808  0.0455  0.0687 -0.0803
 7443SOL    HW133788   3.010   2.434   0.783 -0.2235 -0.8493 -2.0253
 7443SOL    HW233789   3.136   2.414   0.855 -2.4521  1.7112  1.7124
 7444SOL     OW33790   0.822   0.310   5.402 -0.4543 -0.6596  0.2534
 7444SOL    HW133791   0.875   0.237   5.434  0.5769  0.3800  0.9120
 7444SOL    HW233792   0.782   0.353   5.477  1.8151 -0.2135  1.1886
 7445SOL     OW33793   0.017   1.807   6.361 -0.6217  0.1877  0.4503
 7445SOL    HW133794   0.021   1.900   6.385 -2.0315 -0.0047  1.4459
 7445SOL    HW233795   0.091   1.771   6.410  0.4899 -0.7669 -1.9633
 7446SOL     OW33796   0.166   0.199   1.752 -0.0714  0.0478  0.1445
 7446SOL    HW133797   0.147   0.272   1.695  3.0174  0.8645  0.1500
 7446SOL    HW233798   0.175   0.142   1.676  0.4819  0.4072 -0.0565
 7447SOL     OW33799   2.888   2.871  12.015  0.2649 -0.0451  0.0615
 7447SOL    HW133800   2.935   2.814  12.076  0.3061 -1.0268 -0.8741
 7447SOL    HW233801   2.908   2.959  12.048  1.6828 -0.0620 -0.7511
 7448SOL     OW33802   1.271   2.306   7.463 -0.1648 -0.3492  0.0711
 7448SOL    HW133803   1.303   2.292   7.374  1.7099  0.3303  0.6311
 7448SOL    HW233804   1.352   2.313   7.515  0.8882 -3.1703 -1.1983
 7449SOL     OW33805   1.587   1.232   7.894  0.6366 -0.2510  0.3115
 7449SOL    HW133806   1.592   1.324   7.867  0.9167 -0.2816  0.2673
 7449SOL    HW233807   1.678   1.215   7.917  0.6236 -2.0101 -0.8565
 7450SOL     OW33808   2.124   4.056   6.476 -0.2682  0.2567 -0.4196
 7450SOL    HW133809   2.206   4.046   6.524 -0.3640  0.6314 -0.1801
 7450SOL    HW233810   2.053   4.036   6.536  2.4509 -3.9742  1.4138
 7451SOL     OW33811   3.094   0.431   7.791  0.4210  0.5925  0.1149
 7451SOL    HW133812   3.010   0.457   7.752 -0.1516  0.8690  1.5423
 7451SOL    HW233813   3.151   0.429   7.714 -0.3212 -1.3865 -0.3856
 7452SOL     OW33814   0.607   1.375   3.424 -0.2589 -0.2907 -0.0774
 7452SOL    HW133815   0.514   1.381   3.402 -0.1481  1.1191 -0.1394
 7452SOL    HW233816   0.628   1.283   3.405 -0.2313 -0.3697  0.3537
 7453SOL     OW33817   1.226   2.204   9.325  0.4609 -0.3601  0.5770
 7453SOL    HW133818   1.292   2.225   9.390  0.1457  1.4759  0.3134
 7453SOL    HW233819   1.184   2.136   9.376  1.6332 -0.4451  1.4254
 7454SOL     OW33820   2.982   1.439   3.210  0.4303  0.3367  0.0724
 7454SOL    HW133821   2.897   1.469   3.243  1.2458  1.1168  1.4736
 7454SOL    HW233822   2.965   1.350   3.180 -0.4224  0.6570 -0.4083
 7455SOL     OW33823   2.019   2.932   0.829 -0.3519 -0.2140  0.3654
 7455SOL    HW133824   2.091   2.957   0.770  0.8615 -2.3905  0.9229
 7455SOL    HW233825   1.961   3.006   0.811 -0.2666 -0.5545 -1.2920
 7456SOL     OW33826   1.219   3.118   1.747 -0.0827  0.4725 -0.0528
 7456SOL    HW133827   1.183   3.176   1.680 -0.3885  1.6291  1.1405
 7456SOL    HW233828   1.257   3.171   1.817 -0.5871  1.2651 -0.3880
 7457SOL     OW33829   2.252   3.669   1.106  0.0746 -0.7621 -0.2908
 7457SOL    HW133830   2.302   3.722   1.168 -0.9475 -1.2640  0.9748
 7457SOL    HW233831   2.174   3.639   1.152 -0.0833  0.9129  0.5489
 7458SOL     OW33832   3.384   4.087   3.387 -0.2101  0.1534  0.0411
 7458SOL    HW133833   3.417   4.153   3.447 -0.7338 -0.4461  0.9903
 7458SOL    HW233834   3.296   4.070   3.422  0.7613 -0.9315  1.9458
 7459SOL     OW33835   3.456   4.545  12.889  0.0294  0.0008 -0.4770
 7459SOL    HW133836   3.529   4.557  12.949 -1.6722 -0.5881  1.6851
 7459SOL    HW233837   3.503   4.525  12.807  0.2653  2.7525 -1.0416
 7460SOL     OW33838   2.106   0.769   2.967  0.4527 -0.0574 -0.0504
 7460SOL    HW133839   2.071   0.796   2.883 -1.2871  1.3865  1.1392
 7460SOL    HW233840   2.107   0.849   3.019  0.3502  2.0166 -3.2755
 7461SOL     OW33841   0.271   3.505   2.931  0.2731 -0.3159 -0.5658
 7461SOL    HW133842   0.234   3.421   2.904  1.5092 -1.0294 -0.0489
 7461SOL    HW233843   0.361   3.487   2.906  0.6319 -0.5153  0.8931
 7462SOL     OW33844   0.853   3.500   7.595 -0.2889  0.0012  0.5730
 7462SOL    HW133845   0.791   3.445   7.547  0.3647 -0.8772  0.7381
 7462SOL    HW233846   0.890   3.545   7.519  0.5911 -0.3536  0.7920
 7463SOL     OW33847   2.961   4.381   3.038 -0.0622  0.1067  0.5316
 7463SOL    HW133848   2.968   4.449   2.971  0.9055 -2.6910 -2.2371
 7463SOL    HW233849   2.939   4.309   2.978  0.3416 -0.1531  0.6965
 7464SOL     OW33850   1.158   1.411   3.253  1.0027  0.2775  0.8731
 7464SOL    HW133851   1.132   1.503   3.250 -1.1060 -0.3137  1.0133
 7464SOL    HW233852   1.118   1.383   3.336 -1.8123 -0.4894 -0.7388
 7465SOL     OW33853   4.510   0.662   3.744  0.5417 -0.0143  0.1094
 7465SOL    HW133854   4.543   0.702   3.825  1.7657 -0.8281  0.0151
 7465SOL    HW233855   4.525   0.577   3.785  0.1127 -0.9366 -1.6924
 7466SOL     OW33856   1.060   3.426   5.192 -0.4751 -0.0203  0.0859
 7466SOL    HW133857   0.984   3.482   5.179 -1.3513 -2.0455 -3.6621
 7466SOL    HW233858   1.014   3.352   5.231  3.4035 -0.9856  2.8809
 7467SOL     OW33859   0.712   2.407   0.332  0.0231  0.6382  0.7438
 7467SOL    HW133860   0.785   2.466   0.317 -0.0822  0.8475  1.0671
 7467SOL    HW233861   0.739   2.337   0.272 -2.9147  1.2006 -1.2436
 7468SOL     OW33862   3.529   0.443   9.441 -0.1881 -0.8114 -0.1269
 7468SOL    HW133863   3.575   0.417   9.361 -0.7065 -0.1619 -0.6399
 7468SOL    HW233864   3.466   0.371   9.450 -0.6514 -0.3379  0.3754
 7469SOL     OW33865   4.649   2.286   6.355 -0.2876  0.5484 -0.5878
 7469SOL    HW133866   4.623   2.357   6.414 -3.1798  1.1593 -2.6220
 7469SOL    HW233867   4.567   2.248   6.325  0.6905 -1.9600 -0.0880
 7470SOL     OW33868   0.343   3.420  10.039 -0.3689 -0.1059 -0.4145
 7470SOL    HW133869   0.311   3.337  10.004 -0.6763  0.3687 -1.2626
 7470SOL    HW233870   0.262   3.463  10.068 -0.2475 -1.6803  2.2407
 7471SOL     OW33871   3.666   2.313  15.844 -0.2479  0.4539 -0.5592
 7471SOL    HW133872   3.660   2.318  15.748 -0.5316  0.0480 -0.5674
 7471SOL    HW233873   3.584   2.275  15.877  0.7576 -2.1196 -1.0459
 7472SOL     OW33874   4.278   1.378   5.186  0.3851 -0.0864  0.1610
 7472SOL    HW133875   4.373   1.382   5.194  0.2214  1.6031  1.0874
 7472SOL    HW233876   4.268   1.345   5.096 -1.5594 -0.0001  0.3364
 7473SOL     OW33877   1.656   3.948  14.541 -0.6129 -0.0288 -0.1689
 7473SOL    HW133878   1.647   4.012  14.471  1.0135  0.8748  0.4756
 7473SOL    HW233879   1.750   3.948  14.556 -0.1006 -1.0420 -3.1763
 7474SOL     OW33880   2.058   3.337   7.244 -0.1961  0.1864 -0.3236
 7474SOL    HW133881   2.059   3.405   7.311  0.5232 -0.1347 -0.0106
 7474SOL    HW233882   1.968   3.306   7.229  0.1619 -1.6570  1.4278
 7475SOL     OW33883   1.617   4.313   3.648 -0.2697 -0.5465 -0.1396
 7475SOL    HW133884   1.637   4.406   3.644 -0.1188 -0.6918 -2.7063
 7475SOL    HW233885   1.539   4.325   3.702  0.8627  0.3042  1.2929
 7476SOL     OW33886   1.317   1.875  17.617 -0.1118  0.0178 -0.0856
 7476SOL    HW133887   1.365   1.910  17.542 -1.0676 -0.3616 -0.8788
 7476SOL    HW233888   1.386   1.852  17.680  0.6187  0.7795 -0.6174
 7477SOL     OW33889   3.331   2.497   9.837  0.4261  0.4867  0.7403
 7477SOL    HW133890   3.280   2.470   9.914  0.3124 -0.1002  0.4568
 7477SOL    HW233891   3.395   2.427   9.828  0.3979  0.8893 -2.6544
 7478SOL     OW33892   4.236   3.266   5.453 -0.0551  0.2899 -0.4974
 7478SOL    HW133893   4.204   3.333   5.392  0.2812  0.2527 -0.7143
 7478SOL    HW233894   4.310   3.311   5.493 -0.2873 -0.1777  0.4715
 7479SOL     OW33895   0.415   3.765  13.454 -0.6536 -0.2966 -0.0362
 7479SOL    HW133896   0.443   3.838  13.509  0.6042  0.8565 -2.2393
 7479SOL    HW233897   0.320   3.773  13.466 -0.5093  1.5817 -0.0866
 7480SOL     OW33898   1.110   2.821   5.869 -0.5849 -0.7088 -0.4444
 7480SOL    HW133899   1.180   2.775   5.915  0.5103  0.9297 -0.4884
 7480SOL    HW233900   1.155   2.887   5.816 -0.2846 -0.5360  0.0312
 7481SOL     OW33901   2.618   4.038   6.927  0.1134 -0.0059 -0.3236
 7481SOL    HW133902   2.571   4.100   6.871 -2.0971  0.2392  1.8124
 7481SOL    HW233903   2.571   3.958   6.904 -2.2104  1.5048 -0.7904
 7482SOL     OW33904   1.125   1.050   6.168  0.6641  0.0697  0.6759
 7482SOL    HW133905   1.128   1.093   6.253  1.4546  1.4784 -0.0586
 7482SOL    HW233906   1.071   0.972   6.184  1.3534 -0.2386  1.4937
 7483SOL     OW33907   0.978   4.138   9.502 -0.5602 -0.3906  0.2591
 7483SOL    HW133908   0.977   4.075   9.573 -0.1673 -1.3796 -0.6066
 7483SOL    HW233909   0.925   4.203   9.548 -1.0502 -0.7124  0.1483
 7484SOL     OW33910   3.271   0.578   3.358 -0.0457  0.2148  0.1452
 7484SOL    HW133911   3.322   0.497   3.367  0.3315  0.2438 -1.8077
 7484SOL    HW233912   3.225   0.546   3.280  0.4120 -0.1874  0.0425
 7485SOL     OW33913   1.821   3.589   6.740  0.1098  0.3442 -0.1825
 7485SOL    HW133914   1.827   3.650   6.666 -0.2892  1.2015  0.4847
 7485SOL    HW233915   1.728   3.602   6.756 -0.0446  1.2092 -1.8444
 7486SOL     OW33916   0.270   1.354   7.630  0.3557 -0.0074  0.0240
 7486SOL    HW133917   0.203   1.297   7.592  1.6247  0.7214 -3.3607
 7486SOL    HW233918   0.349   1.303   7.611  1.9107  0.5566  4.9016
 7487SOL     OW33919   0.707   1.133   3.830 -0.0579  0.0285 -0.0626
 7487SOL    HW133920   0.779   1.111   3.890  0.0298  0.4230 -0.0176
 7487SOL    HW233921   0.745   1.092   3.752 -1.8888 -2.1485  0.2063
 7488SOL     OW33922   1.171   3.361   3.798 -0.3051 -0.2661  0.2146
 7488SOL    HW133923   1.153   3.280   3.846  0.3034 -0.2931  0.4088
 7488SOL    HW233924   1.220   3.323   3.725  0.5481 -0.3075  0.8057
 7489SOL     OW33925   4.071   1.628   4.422 -0.7233  0.6913 -0.2595
 7489SOL    HW133926   4.053   1.604   4.512  1.9540 -1.4401 -0.3268
 7489SOL    HW233927   4.155   1.585   4.409 -1.1645  0.2041 -1.5409
 7490SOL     OW33928   1.649   2.843   3.794  0.0591 -0.1166  0.3134
 7490SOL    HW133929   1.641   2.915   3.731 -1.1789 -1.3722 -0.9407
 7490SOL    HW233930   1.561   2.840   3.832  0.6662  0.9648  1.8184
 7491SOL     OW33931   1.512   2.598   9.872  0.3285 -0.7252  0.0392
 7491SOL    HW133932   1.425   2.584   9.911  0.2219 -1.8827 -0.5985
 7491SOL    HW233933   1.500   2.568   9.782 -0.7138 -0.2392  0.0178
 7492SOL     OW33934   1.417   0.596   5.745  0.2533  0.4021 -0.3327
 7492SOL    HW133935   1.468   0.516   5.747  1.4628  1.1740  0.0915
 7492SOL    HW233936   1.351   0.569   5.809  0.5764  2.0029  0.6731
 7493SOL     OW33937   1.157   0.544   8.013  0.1542  0.4169  0.5990
 7493SOL    HW133938   1.233   0.487   7.996 -0.1990  1.0625 -3.1488
 7493SOL    HW233939   1.098   0.471   7.996 -1.1462  1.3898  0.9866
 7494SOL     OW33940   4.706   2.835   6.394 -0.2825 -0.0503  0.3389
 7494SOL    HW133941   4.657   2.764   6.353 -1.8201 -1.0200  3.8317
 7494SOL    HW233942   0.059   2.840   6.337 -0.6335 -1.0475 -0.2079
 7495SOL     OW33943   4.323   0.097   7.533 -0.0270 -0.2329  0.1879
 7495SOL    HW133944   4.278   0.143   7.462  2.5837  1.2483 -0.5110
 7495SOL    HW233945   4.251   0.092   7.597 -1.1354  2.2318 -0.8598
 7496SOL     OW33946   2.511   3.302   6.599  0.1456 -0.2224  0.1703
 7496SOL    HW133947   2.437   3.335   6.548 -0.8995  0.4724  2.1459
 7496SOL    HW233948   2.552   3.258   6.525 -0.8657  0.4893 -0.8011
 7497SOL     OW33949   3.787   1.968   0.496  0.1476 -0.8258  0.0011
 7497SOL    HW133950   3.695   1.971   0.521 -0.1351  1.2300 -1.2901
 7497SOL    HW233951   3.802   2.061   0.477 -2.6942 -0.2000  0.7517
 7498SOL     OW33952   1.851   4.231   4.505 -0.2278 -0.3976  0.4571
 7498SOL    HW133953   1.815   4.168   4.443 -2.8853  0.7205  0.8240
 7498SOL    HW233954   1.923   4.173   4.529 -1.0290 -0.1625  3.4853
 7499SOL     OW33955   1.362   3.822  10.455  0.0148 -0.1497  0.7124
 7499SOL    HW133956   1.396   3.807  10.367  3.1356  0.2914  1.8239
 7499SOL    HW233957   1.439   3.792  10.504  0.1502  0.0413  0.6155
 7500SOL     OW33958   4.406   0.301   2.806  0.2488  0.0656 -0.0646
 7500SOL    HW133959   4.326   0.310   2.755  0.0210 -0.5559  0.1924
 7500SOL    HW233960   4.434   0.393   2.816 -0.4961  0.0467  2.1047
 7501SOL     OW33961   3.453   4.438   7.910 -0.2323  0.3593  0.0877
 7501SOL    HW133962   3.389   4.460   7.843  0.5371 -0.2427 -0.8395
 7501SOL    HW233963   3.528   4.422   7.852 -1.6240 -1.2140 -1.2899
 7502SOL     OW33964   3.014   2.058  13.319  0.4539 -0.0198  0.4377
 7502SOL    HW133965   3.056   1.986  13.274  0.1972  0.6863 -0.9299
 7502SOL    HW233966   2.923   2.030  13.333 -0.7299  2.1675 -2.8776
 7503SOL     OW33967   1.919   4.118   9.206  0.1980 -0.1754 -0.0182
 7503SOL    HW133968   1.828   4.140   9.225 -0.1578 -2.5732  1.0346
 7503SOL    HW233969   1.926   4.036   9.254 -0.7246  0.4203  1.1435
 7504SOL     OW33970   2.823   2.933   4.727 -0.7290 -0.4143  0.0739
 7504SOL    HW133971   2.831   2.991   4.803 -2.0562  0.5619 -0.5307
 7504SOL    HW233972   2.833   2.844   4.761  4.1424  0.8897  2.0864
 7505SOL     OW33973   4.485   3.525   5.117 -0.2677  0.3644  0.6442
 7505SOL    HW133974   4.478   3.581   5.194 -1.2857 -0.3897  1.0971
 7505SOL    HW233975   4.471   3.587   5.045  0.0769  1.3525  1.4341
 7506SOL     OW33976   4.670   2.970  15.262 -0.1729 -0.2870 -0.3873
 7506SOL    HW133977   4.650   3.063  15.254  2.3810  0.3271  0.2814
 7506SOL    HW233978   4.608   2.945  15.331  0.1410 -0.1023 -0.0425
 7507SOL     OW33979   3.524   0.038  17.111  0.3160 -0.0536 -0.0994
 7507SOL    HW133980   3.515   0.022  17.205  0.1315 -2.0605 -0.4597
 7507SOL    HW233981   3.567   0.123  17.109 -1.1837  0.6961 -1.2089
 7508SOL     OW33982   0.401   0.245   7.734  0.2459  0.6068 -0.0279
 7508SOL    HW133983   0.403   0.327   7.686  1.6840  1.7184  1.9139
 7508SOL    HW233984   0.328   0.258   7.795  1.4127 -1.3252  1.7961
 7509SOL     OW33985   1.970   4.121   2.269  0.4819  1.1213 -0.2058
 7509SOL    HW133986   2.027   4.048   2.246 -1.1192 -0.5009  0.9294
 7509SOL    HW233987   1.904   4.137   2.201  0.7441 -0.4032 -0.8054
 7510SOL     OW33988   2.392   2.414   7.140 -0.1696 -0.4888  0.1833
 7510SOL    HW133989   2.381   2.368   7.057 -1.0723 -1.6493  0.9313
 7510SOL    HW233990   2.433   2.349   7.197 -1.6791 -0.2883  1.5131
 7511SOL     OW33991   3.485   3.178   3.824 -0.2292  0.2179 -0.0949
 7511SOL    HW133992   3.531   3.195   3.742 -0.6193  2.0252  0.0543
 7511SOL    HW233993   3.557   3.201   3.883  0.8829  0.3394 -1.5073
 7512SOL     OW33994   2.543   2.701   0.653 -0.4917  0.3653 -0.5289
 7512SOL    HW133995   2.498   2.688   0.570 -1.0619  1.1829 -0.3493
 7512SOL    HW233996   2.486   2.668   0.723 -0.8978  3.2039  0.4738
 7513SOL     OW33997   1.646   0.075   0.560 -0.2228 -0.6512  0.1613
 7513SOL    HW133998   1.708   0.142   0.529 -1.4645 -0.0920 -1.0928
 7513SOL    HW233999   1.699   0.029   0.625  2.0328  2.2843  0.4304
 7514SOL     OW34000   3.594   1.297   8.650  0.7103  0.0508 -0.7070
 7514SOL    HW134001   3.569   1.270   8.562  3.1546 -2.7072 -0.5671
 7514SOL    HW234002   3.508   1.323   8.683  1.4436 -0.4187  1.5470
 7515SOL     OW34003   2.742   3.783   9.426  0.0972  0.3112  0.1224
 7515SOL    HW134004   2.667   3.723   9.425  0.0775  0.3425 -1.6034
 7515SOL    HW234005   2.732   3.834   9.345  1.6958  0.0803 -0.2160
 7516SOL     OW34006   3.945   0.181   7.524  0.4144 -0.3164  0.0787
 7516SOL    HW134007   4.013   0.180   7.591 -0.3223  0.7713  0.8315
 7516SOL    HW234008   3.867   0.153   7.573  0.5324  1.2324  1.1330
 7517SOL     OW34009   1.729   0.446   0.482  0.4005 -0.1325  0.2392
 7517SOL    HW134010   1.652   0.412   0.436  0.2589  0.4749  0.0399
 7517SOL    HW234011   1.729   0.391   0.560  0.3414 -0.4664  0.0051
 7518SOL     OW34012   3.805   4.105   7.367  0.1584  0.4273  0.0364
 7518SOL    HW134013   3.829   4.187   7.326  2.1843 -0.8789 -1.3751
 7518SOL    HW234014   3.843   4.034   7.315 -1.8700 -1.8609  1.6217
 7519SOL     OW34015   3.479   1.764   2.021 -0.1755  0.1438 -0.2918
 7519SOL    HW134016   3.425   1.691   2.053  0.2148  0.8488  1.9428
 7519SOL    HW234017   3.410   1.828   2.010 -1.0323 -0.3233  2.4120
 7520SOL     OW34018   0.998   0.834   7.133 -0.3054 -0.7824 -0.1373
 7520SOL    HW134019   0.959   0.921   7.126  0.5843 -0.3341  0.5094
 7520SOL    HW234020   1.085   0.851   7.168  0.3321  0.6082 -2.4237
 7521SOL     OW34021   2.094   4.390   4.742 -0.8826 -0.2115  0.0548
 7521SOL    HW134022   2.120   4.480   4.723 -0.2063 -0.7226 -1.4499
 7521SOL    HW234023   2.044   4.410   4.821 -1.3718 -0.9685 -0.0681
 7522SOL     OW34024   0.320   0.793  15.623  0.1328  0.5970 -0.1787
 7522SOL    HW134025   0.266   0.725  15.665  1.3407  0.6631  1.5114
 7522SOL    HW234026   0.273   0.791  15.540 -1.1980 -0.4697  0.6021
 7523SOL     OW34027   2.232   4.722  15.037  0.3003 -0.0342 -0.3969
 7523SOL    HW134028   2.156   0.034  14.990  0.9785  2.5643  0.4441
 7523SOL    HW234029   2.288   4.715  14.960 -0.5863 -2.0148 -0.8565
 7524SOL     OW34030   4.526   4.654   1.632  0.1598 -0.1429 -0.4426
 7524SOL    HW134031   4.576   4.575   1.612 -0.5021 -0.3802 -1.1566
 7524SOL    HW234032   4.580   4.705   1.693 -0.5632  0.3722 -0.2252
 7525SOL     OW34033   1.235   3.101   0.586  0.0233  0.3090  0.0874
 7525SOL    HW134034   1.318   3.112   0.540 -0.5628  0.0152 -1.0221
 7525SOL    HW234035   1.247   3.022   0.640 -0.9353 -1.0947 -1.7746
 7526SOL     OW34036   1.849   2.488   5.345 -0.2720  0.3283  0.2003
 7526SOL    HW134037   1.918   2.554   5.336 -1.1751  1.5605  2.4485
 7526SOL    HW234038   1.810   2.540   5.415  0.0848 -1.3993  1.6870
 7527SOL     OW34039   2.299   2.477   8.196 -0.2399 -0.0089  0.0362
 7527SOL    HW134040   2.251   2.411   8.145 -1.0682 -0.5926  1.5931
 7527SOL    HW234041   2.376   2.429   8.224  0.5188  1.6255  0.7693
 7528SOL     OW34042   1.112   1.060   6.807  0.4313  0.0460 -0.4685
 7528SOL    HW134043   1.021   1.058   6.779  1.0995  0.4377 -2.6668
 7528SOL    HW234044   1.111   1.089   6.899 -1.7082  3.2010 -1.4700
 7529SOL     OW34045   0.732   0.709   2.195  0.0697  0.8322 -0.7034
 7529SOL    HW134046   0.795   0.768   2.235 -0.3932  0.6189  0.3526
 7529SOL    HW234047   0.782   0.639   2.152  1.8210  1.7772 -0.1732
 7530SOL     OW34048   4.502   1.959   5.499 -0.3681 -0.0020  0.0821
 7530SOL    HW134049   4.487   1.999   5.584  1.2963 -1.3790  1.0242
 7530SOL    HW234050   4.440   2.008   5.445  1.3803  0.6847 -1.3061
 7531SOL     OW34051   0.868   3.212  13.835  0.1589 -0.0568 -1.3745
 7531SOL    HW134052   0.796   3.162  13.796 -1.4337  0.6393  0.6650
 7531SOL    HW234053   0.820   3.266  13.899  0.5709 -0.3722 -0.7968
 7532SOL     OW34054   1.057   1.483   5.236 -0.1246  0.4139 -0.2131
 7532SOL    HW134055   1.048   1.576   5.217 -0.7551  0.4352  0.1629
 7532SOL    HW234056   1.017   1.449   5.156  0.5383 -1.2877  0.1668
 7533SOL     OW34057   0.020   2.182   0.228 -0.1509 -0.4138  0.5694
 7533SOL    HW134058   0.026   2.183   0.133  2.1851  2.0679  0.7319
 7533SOL    HW234059   0.094   2.127   0.255  0.9319  0.5269 -0.4673
 7534SOL     OW34060   2.277   3.846  14.750 -0.4089  0.5079  0.2793
 7534SOL    HW134061   2.228   3.916  14.793 -1.7905  0.9865 -2.1170
 7534SOL    HW234062   2.366   3.882  14.753  0.3898 -1.2843 -1.5605
 7535SOL     OW34063   2.461   2.048   7.067 -0.1868 -0.0129  0.1074
 7535SOL    HW134064   2.512   2.014   7.140  0.3617  0.0854 -0.2298
 7535SOL    HW234065   2.535   2.084   7.020  0.0987 -1.4078 -0.5228
 7536SOL     OW34066   4.056   1.599   6.176 -0.1565  0.2259 -0.1194
 7536SOL    HW134067   4.052   1.624   6.084 -0.3663 -2.6650 -0.9217
 7536SOL    HW234068   4.152   1.603   6.183 -0.2791  0.6006  1.3343
 7537SOL     OW34069   0.580   0.858   0.571 -0.1929  0.0892  0.0536
 7537SOL    HW134070   0.511   0.795   0.590 -0.4264  0.9024  1.9247
 7537SOL    HW234071   0.558   0.928   0.633  1.2385 -0.2235  0.9159
 7538SOL     OW34072   1.053   2.515   6.047 -0.3756 -0.3556  0.1845
 7538SOL    HW134073   0.977   2.494   5.993  1.0538  0.1331 -2.0150
 7538SOL    HW234074   1.011   2.577   6.107 -2.4560  0.6461 -2.3239
 7539SOL     OW34075   4.245   4.617   5.467  0.5263 -0.3851 -0.1583
 7539SOL    HW134076   4.273   4.695   5.419 -0.1517  1.2579  2.1551
 7539SOL    HW234077   4.288   4.548   5.417  1.1474 -0.8735  1.0538
 7540SOL     OW34078   1.623   1.875  12.139  0.5638  0.3035  0.1924
 7540SOL    HW134079   1.707   1.888  12.095  0.7944 -1.0858  0.2043
 7540SOL    HW234080   1.572   1.890  12.059  0.4016 -0.7064  0.1073
 7541SOL     OW34081   1.230   1.117  10.287 -0.4387 -0.3689  0.0191
 7541SOL    HW134082   1.173   1.156  10.221 -2.2631 -3.5439 -0.2823
 7541SOL    HW234083   1.192   1.143  10.370 -0.4669 -0.3914  0.0131
 7542SOL     OW34084   2.812   0.715   0.174  0.1240 -0.3212 -0.4205
 7542SOL    HW134085   2.835   0.792   0.225 -1.8653 -0.2024  0.2845
 7542SOL    HW234086   2.836   0.645   0.235  0.2977  2.8154  3.1135
 7543SOL     OW34087   3.969   0.985   7.863 -0.6468  0.4577  0.2934
 7543SOL    HW134088   3.926   0.974   7.947 -1.3234 -1.9423 -0.3598
 7543SOL    HW234089   4.062   1.002   7.881 -0.9816  1.3316  1.1775
 7544SOL     OW34090   4.257   4.265   7.385 -0.1860 -0.0584 -0.6365
 7544SOL    HW134091   4.256   4.345   7.438  0.6659 -1.1851  1.0784
 7544SOL    HW234092   4.232   4.196   7.446 -0.1383 -0.6358 -1.2689
 7545SOL     OW34093   1.018   2.017   7.742 -0.4968  0.3214 -0.1340
 7545SOL    HW134094   0.993   2.090   7.798 -0.0376 -0.0844  0.5965
 7545SOL    HW234095   0.929   1.992   7.717 -1.0199  1.4612  0.5700
 7546SOL     OW34096   1.218   0.403  16.606 -0.5087  1.0914 -0.1328
 7546SOL    HW134097   1.172   0.371  16.683  2.7242  0.5874  1.5885
 7546SOL    HW234098   1.295   0.429  16.656 -0.5836  3.0146 -0.9923
 7547SOL     OW34099   1.314   1.783  14.282  0.2245 -0.1629 -0.1199
 7547SOL    HW134100   1.371   1.856  14.302 -0.2486  0.1452  0.0832
 7547SOL    HW234101   1.235   1.794  14.335  0.2684 -0.9459  0.1165
 7548SOL     OW34102   0.530   1.168   2.560 -0.3853  0.0078 -0.4831
 7548SOL    HW134103   0.439   1.156   2.589 -0.6443  1.2143 -0.7815
 7548SOL    HW234104   0.520   1.138   2.470  0.8904 -0.9006 -0.3236
 7549SOL     OW34105   2.054   0.717   2.153 -0.1178 -0.1207 -0.1005
 7549SOL    HW134106   1.960   0.733   2.148  0.0589  0.4109 -1.6810
 7549SOL    HW234107   2.080   0.766   2.075 -2.1899 -0.7492 -1.1693
 7550SOL     OW34108   3.136   2.107   8.594  0.2560  0.3508 -0.5079
 7550SOL    HW134109   3.199   2.071   8.532 -1.1661 -0.5795 -1.4112
 7550SOL    HW234110   3.199   2.163   8.640 -2.8877  1.6316  2.2162
 7551SOL     OW34111   4.050   2.540   6.317 -0.4726  0.3086 -0.8910
 7551SOL    HW134112   4.127   2.595   6.332  1.0933 -1.8077 -1.1982
 7551SOL    HW234113   4.023   2.557   6.227 -0.2376  0.4933 -0.9286
 7552SOL     OW34114   0.954   2.397   5.740  0.3767  0.0127 -0.5174
 7552SOL    HW134115   0.894   2.378   5.812  2.8704 -0.7410  1.3452
 7552SOL    HW234116   0.953   2.490   5.719  1.1434 -0.0649 -0.8952
 7553SOL     OW34117   1.758   3.240   7.284  0.4950 -0.2720 -0.0014
 7553SOL    HW134118   1.670   3.204   7.295 -0.4247  1.8624 -0.3963
 7553SOL    HW234119   1.773   3.253   7.190 -3.5906 -2.5048 -0.9331
 7554SOL     OW34120   2.237   4.668   2.746 -0.3782  0.1759  0.3591
 7554SOL    HW134121   2.168   4.616   2.788  1.7551 -0.7064  2.7723
 7554SOL    HW234122   2.202   4.698   2.662 -3.2992 -0.9489  1.1425
 7555SOL     OW34123   4.211   3.895   7.740  0.3870  0.6174 -0.5944
 7555SOL    HW134124   4.185   3.961   7.675  2.4765  2.5427  0.5317
 7555SOL    HW234125   4.302   3.880   7.716  1.1092  3.4327  0.4541
 7556SOL     OW34126   1.297   0.938   2.900  0.4573 -0.3947  0.4809
 7556SOL    HW134127   1.268   0.992   2.974  0.8104  1.6672 -0.8762
 7556SOL    HW234128   1.243   0.859   2.903 -1.7828  1.1089 -0.3727
 7557SOL     OW34129   1.232   2.411   0.747 -0.1253  0.4982 -0.2318
 7557SOL    HW134130   1.197   2.426   0.835  1.2299 -1.0065  0.5555
 7557SOL    HW234131   1.149   2.389   0.704 -1.2852  0.2961  2.1003
 7558SOL     OW34132   4.153   0.403  16.093  0.2645  0.1186  0.7845
 7558SOL    HW134133   4.174   0.481  16.042  2.4039 -1.7521 -1.2250
 7558SOL    HW234134   4.121   0.342  16.027  0.8390 -0.5404  1.1116
 7559SOL     OW34135   1.596   3.868  15.044  0.5239  0.0711  0.5729
 7559SOL    HW134136   1.653   3.825  14.981  0.0261 -0.1629  0.2847
 7559SOL    HW234137   1.661   3.924  15.088  0.4999  0.8525 -0.3897
 7560SOL     OW34138   3.434   0.614   6.639  0.3469 -0.5481 -0.3080
 7560SOL    HW134139   3.440   0.695   6.589 -0.3483 -0.2798  0.0409
 7560SOL    HW234140   3.398   0.636   6.725 -0.4870  2.8169 -1.5491
 7561SOL     OW34141   3.895   3.687   5.900 -0.4905 -0.7459 -0.7167
 7561SOL    HW134142   3.829   3.688   5.969  0.8318 -0.9659  0.5509
 7561SOL    HW234143   3.922   3.595   5.904  1.4209 -0.1637 -0.3620
 7562SOL     OW34144   4.055   0.767   1.946  0.0195  0.1024  0.0836
 7562SOL    HW134145   4.009   0.750   2.028 -0.7710  0.8069 -0.2134
 7562SOL    HW234146   4.115   0.837   1.970  0.4813 -0.1932 -0.2219
 7563SOL     OW34147   0.711   4.256   7.705  0.2593 -0.8740  0.2152
 7563SOL    HW134148   0.666   4.268   7.789 -0.0006 -1.1827  0.1237
 7563SOL    HW234149   0.702   4.161   7.715 -0.7794 -0.8979 -0.8877
 7564SOL     OW34150   4.025   1.834  16.419 -0.2416 -0.7945 -0.2385
 7564SOL    HW134151   4.021   1.854  16.326 -1.6210  0.5620  0.1158
 7564SOL    HW234152   3.996   1.918  16.453 -0.7584 -1.5773  1.2781
 7565SOL     OW34153   4.344   3.071   8.271 -0.0549  0.3673 -0.2135
 7565SOL    HW134154   4.415   3.008   8.260 -1.1166 -0.8253 -0.2746
 7565SOL    HW234155   4.298   3.037   8.194 -0.0313  1.3996 -0.6775
 7566SOL     OW34156   1.313   2.034  14.008 -0.0745 -0.1985  0.7748
 7566SOL    HW134157   1.260   1.954  14.008 -2.6664  1.5455  0.2363
 7566SOL    HW234158   1.267   2.084  13.941  1.1030  2.4482  1.9476
 7567SOL     OW34159   1.182   0.209  17.089  0.5831 -0.5237  0.0137
 7567SOL    HW134160   1.142   0.164  17.164  1.9206 -3.8118 -1.2521
 7567SOL    HW234161   1.157   0.299  17.109 -1.5238 -0.7886 -1.4536
 7568SOL     OW34162   0.836   4.583  11.128 -0.1877 -0.6166 -0.2693
 7568SOL    HW134163   0.903   4.540  11.076 -0.6450  1.0989 -2.2548
 7568SOL    HW234164   0.849   4.675  11.107 -2.8599 -0.0939  0.3139
 7569SOL     OW34165   3.203   3.829  13.526 -0.4940  0.1461  0.5589
 7569SOL    HW134166   3.273   3.855  13.467 -2.4038  1.2000 -1.2597
 7569SOL    HW234167   3.160   3.914  13.537  1.7187  1.4850 -1.3289
 7570SOL     OW34168   1.260   3.093  12.834 -0.2376  0.2445 -0.9284
 7570SOL    HW134169   1.348   3.056  12.834 -0.2668  0.1608 -2.2802
 7570SOL    HW234170   1.293   3.183  12.832 -0.2373  0.3104  1.9097
 7571SOL     OW34171   4.229   4.548   6.255  0.0267  0.5374 -0.0594
 7571SOL    HW134172   4.169   4.477   6.233  1.0550  0.0860 -1.4777
 7571SOL    HW234173   4.232   4.530   6.349 -1.8825 -2.4465 -0.5454
 7572SOL     OW34174   2.520   3.067   6.998 -0.7818 -0.3494 -0.2448
 7572SOL    HW134175   2.557   3.067   7.086  1.7017  1.1637 -1.2836
 7572SOL    HW234176   2.559   3.149   6.966 -0.2599 -0.6450 -0.3633
 7573SOL     OW34177   1.089   2.897   4.260  0.3024  0.3179  0.2366
 7573SOL    HW134178   1.054   2.838   4.327  2.9645 -0.1436  1.2281
 7573SOL    HW234179   1.157   2.838   4.227 -0.1193 -0.6431  1.0828
 7574SOL     OW34180   1.198   0.202   2.317  0.0275 -0.0108  0.4816
 7574SOL    HW134181   1.281   0.245   2.294  0.1149 -0.5182 -0.1526
 7574SOL    HW234182   1.233   0.149   2.389  1.1349  0.2408  0.1362
 7575SOL     OW34183   0.764   3.032   9.831  0.0473 -0.0558 -0.0071
 7575SOL    HW134184   0.722   3.111   9.862 -0.9556  0.3646 -2.4197
 7575SOL    HW234185   0.769   2.985   9.914 -0.9696  1.9442  1.1764
 7576SOL     OW34186   4.002   1.905   4.720  0.2813 -0.2874 -0.6634
 7576SOL    HW134187   3.929   1.915   4.781  0.4949 -1.2773 -0.2371
 7576SOL    HW234188   3.965   1.960   4.651 -2.6461 -0.7888  0.4961
 7577SOL     OW34189   3.311   4.061   8.321  0.0990  0.5612 -0.3131
 7577SOL    HW134190   3.375   4.105   8.378  2.1814 -0.6344 -1.7149
 7577SOL    HW234191   3.287   3.991   8.382  0.4790  0.4451 -0.2988
 7578SOL     OW34192   2.264   3.562  11.752  0.4901 -0.8756  0.0498
 7578SOL    HW134193   2.263   3.474  11.791  2.1878 -1.3077 -0.8898
 7578SOL    HW234194   2.171   3.582  11.761  0.6743 -0.2507  0.5254
 7579SOL     OW34195   1.034   2.150   0.981  0.5831 -0.3356  0.4370
 7579SOL    HW134196   1.062   2.232   1.023  2.4750 -1.3147  1.0776
 7579SOL    HW234197   0.950   2.181   0.947  0.5702  0.7633  1.4591
 7580SOL     OW34198   0.665   3.955   9.553 -0.3380  0.1467  0.4520
 7580SOL    HW134199   0.660   4.040   9.509 -0.3905 -0.5309 -0.8398
 7580SOL    HW234200   0.693   3.983   9.640 -1.0366  0.5965  0.5355
 7581SOL     OW34201   2.321   3.324   6.409  0.0570 -0.4175  0.5933
 7581SOL    HW134202   2.266   3.397   6.437  0.6600 -0.3469  1.5997
 7581SOL    HW234203   2.255   3.267   6.370  0.7791  0.3372 -1.7353
 7582SOL     OW34204   2.213   1.234   1.912  0.0154 -0.1869  0.2268
 7582SOL    HW134205   2.303   1.252   1.940 -0.3279  0.7790  0.6786
 7582SOL    HW234206   2.230   1.184   1.832 -1.0860 -1.3484  0.7182
 7583SOL     OW34207   4.441   2.730   3.073 -0.6721 -0.5708  0.0412
 7583SOL    HW134208   4.523   2.781   3.073 -0.8037 -0.3603  0.6878
 7583SOL    HW234209   4.398   2.771   2.998 -0.5950 -0.6841 -0.0655
 7584SOL     OW34210   1.749   1.273   5.234 -0.2478  0.5254  0.1128
 7584SOL    HW134211   1.683   1.204   5.235  2.0587 -1.6670 -1.4465
 7584SOL    HW234212   1.813   1.227   5.288  0.1488  0.9960  0.0449
 7585SOL     OW34213   2.000   1.602   7.138 -0.6275 -0.2757  0.0253
 7585SOL    HW134214   2.057   1.592   7.062 -1.9860 -0.1571 -1.0047
 7585SOL    HW234215   2.068   1.635   7.197 -1.6721  0.1893  0.9631
 7586SOL     OW34216   0.272   0.803   5.729  0.3452  0.4525  0.4065
 7586SOL    HW134217   0.354   0.778   5.686 -0.2422 -1.1225  0.2000
 7586SOL    HW234218   0.238   0.720   5.762  2.6560 -2.1357 -3.7507
 7587SOL     OW34219   3.488   3.980  13.513  0.1237 -0.4396  0.2175
 7587SOL    HW134220   3.577   3.973  13.548  0.8590  0.3164 -1.4660
 7587SOL    HW234221   3.502   3.958  13.421  1.5388  3.0461 -0.4221
 7588SOL     OW34222   4.292   4.081   9.301 -0.1220  0.1936 -0.5332
 7588SOL    HW134223   4.359   4.120   9.245  1.9190 -1.8678  0.4929
 7588SOL    HW234224   4.267   4.000   9.256  0.4765 -0.3459  0.1198
 7589SOL     OW34225   3.761   1.585   8.203  0.4522  0.0573  0.0626
 7589SOL    HW134226   3.671   1.579   8.235  0.4069 -2.8482 -0.5494
 7589SOL    HW234227   3.737   1.565   8.113 -1.2207 -0.0552  0.5349
 7590SOL     OW34228   1.275   0.023  15.836 -0.2368  0.2007 -0.3945
 7590SOL    HW134229   1.233   4.685  15.776 -3.1587  0.3729  1.4355
 7590SOL    HW234230   1.205   0.038  15.900 -2.1468 -2.0528 -1.9322
 7591SOL     OW34231   0.155   2.393   0.951  0.0697 -0.1501 -0.3658
 7591SOL    HW134232   0.094   2.447   1.001  1.9848  2.0223 -0.4178
 7591SOL    HW234233   0.241   2.434   0.959  0.3200 -1.2533  2.4602
 7592SOL     OW34234   0.737   1.854   0.695 -0.4296  0.2044 -0.1603
 7592SOL    HW134235   0.828   1.857   0.724  0.1104 -1.5283 -1.6668
 7592SOL    HW234236   0.717   1.766   0.728  0.0818 -0.1799 -0.8611
 7593SOL     OW34237   0.039   3.123   4.299  0.4739 -0.2465 -0.0005
 7593SOL    HW134238   0.070   3.058   4.235 -0.3070 -0.9482  0.3329
 7593SOL    HW234239   0.044   3.085   4.386  2.5199 -1.6400 -0.7382
 7594SOL     OW34240   3.509   3.239   7.597  0.3964 -0.1210  0.2587
 7594SOL    HW134241   3.522   3.331   7.572  3.3178 -0.5930 -0.0201
 7594SOL    HW234242   3.586   3.229   7.652  0.7308 -0.6351 -0.3003
 7595SOL     OW34243   2.898   1.309  10.308  0.2901 -0.1200 -0.2041
 7595SOL    HW134244   2.836   1.321  10.379 -0.5438 -1.1998 -0.7592
 7595SOL    HW234245   2.857   1.344  10.229 -0.5955 -1.5280 -0.3521
 7596SOL     OW34246   0.014   4.329   5.094 -0.4777  0.0509 -0.0897
 7596SOL    HW134247   0.089   4.373   5.134 -0.4768  1.4987 -1.6724
 7596SOL    HW234248   4.667   4.368   5.145 -0.2965  1.5561 -0.9862
 7597SOL     OW34249   1.345   0.174   4.635 -0.3419 -0.0872 -0.3221
 7597SOL    HW134250   1.424   0.135   4.599  0.9004  1.3164  0.8504
 7597SOL    HW234251   1.399   0.216   4.703  1.3314 -2.0339 -0.4561
 7598SOL     OW34252   0.543   1.183   7.659 -0.1895  0.4016 -0.0733
 7598SOL    HW134253   0.627   1.229   7.670  1.0482 -1.3006 -2.4227
 7598SOL    HW234254   0.580   1.114   7.605  1.3784  1.0707  0.1278
 7599SOL     OW34255   0.412   3.001  10.864  0.7069 -0.3034 -0.2912
 7599SOL    HW134256   0.377   3.082  10.828  1.6076  0.9186  1.6404
 7599SOL    HW234257   0.399   2.937  10.794 -0.4335 -1.6599  1.1492
 7600SOL     OW34258   0.931   4.676  17.373 -0.4226 -0.9240 -0.0945
 7600SOL    HW134259   0.954   0.044  17.357  3.3666 -2.3939 -3.1715
 7600SOL    HW234260   0.944   4.650  17.282 -0.7173 -1.7991  0.1092
 7601SOL     OW34261   2.341   3.124  13.819 -0.2112  0.4179 -0.0094
 7601SOL    HW134262   2.389   3.206  13.808  0.2412  0.0254 -0.9318
 7601SOL    HW234263   2.407   3.069  13.778 -2.4010  0.1749 -3.2023
 7602SOL     OW34264   0.753   0.042  10.497 -0.2061  0.0609 -0.0420
 7602SOL    HW134265   0.740   4.678  10.533 -0.8744  0.8562  1.6808
 7602SOL    HW234266   0.807   0.081  10.566 -1.5454  0.6958  0.6481
 7603SOL     OW34267   4.092   1.630  10.041  0.1483 -0.4763  0.0994
 7603SOL    HW134268   4.114   1.694  10.109 -1.3126 -2.2581  2.2940
 7603SOL    HW234269   4.177   1.600  10.009 -0.1502 -0.2527 -0.8811
 7604SOL     OW34270   0.025   4.197   4.442  0.3399  0.5756 -0.0035
 7604SOL    HW134271   0.004   4.119   4.390  1.5031  0.5472 -0.4208
 7604SOL    HW234272   4.658   4.229   4.448 -0.4465 -1.0497 -2.7974
 7605SOL     OW34273   0.696   2.687  15.053 -0.0595  0.0489  0.1585
 7605SOL    HW134274   0.672   2.773  15.088  1.5023  0.2068  0.8578
 7605SOL    HW234275   0.626   2.665  14.992 -0.3505  0.3174  0.3910
 7606SOL     OW34276   2.552   4.062   6.406  0.8270  0.0228  0.6251
 7606SOL    HW134277   2.557   4.157   6.393 -1.5629 -0.2964 -2.5883
 7606SOL    HW234278   2.632   4.041   6.359  0.4047 -0.7756  0.2626
 7607SOL     OW34279   1.747   1.558   3.788  0.3892  0.0944  0.1023
 7607SOL    HW134280   1.734   1.466   3.767 -0.6265  0.5731 -1.3767
 7607SOL    HW234281   1.660   1.587   3.761  0.7241  1.6181  0.6626
 7608SOL     OW34282   0.916   2.058   5.762  0.0664  0.1906  0.7119
 7608SOL    HW134283   0.826   2.036   5.740  0.3708 -0.4253  0.1004
 7608SOL    HW234284   0.933   1.991   5.829  1.5438  0.1376  0.2708
 7609SOL     OW34285   4.696   2.369   7.336 -0.0062 -0.0289 -0.1903
 7609SOL    HW134286   4.652   2.319   7.404 -0.1782  0.5776  0.1438
 7609SOL    HW234287   0.064   2.350   7.357 -0.6458 -1.6813  1.1177
 7610SOL     OW34288   2.501   4.109   5.303  0.4743 -0.5330 -0.1093
 7610SOL    HW134289   2.485   4.033   5.246 -1.5945  1.0092 -1.5529
 7610SOL    HW234290   2.480   4.184   5.247 -0.8663 -1.0936 -0.3568
 7611SOL     OW34291   0.831   0.193   9.156 -0.1438  0.3383 -0.0044
 7611SOL    HW134292   0.825   0.139   9.077  1.3780  0.5863 -0.2825
 7611SOL    HW234293   0.871   0.128   9.214 -1.2994 -0.1519  0.2470
 7612SOL     OW34294   4.651   0.169   2.873 -0.1131 -0.2407 -0.3637
 7612SOL    HW134295   4.599   0.239   2.832 -1.4689 -1.2619 -0.4060
 7612SOL    HW234296   0.008   0.167   2.822  0.5485  2.3042  0.5718
 7613SOL     OW34297   2.302   4.717   4.110 -0.2403 -0.5194  0.1727
 7613SOL    HW134298   2.299   4.676   4.023  3.7234 -2.3666  0.9305
 7613SOL    HW234299   2.244   4.653   4.151  0.5991 -1.2614  0.1879
 7614SOL     OW34300   3.486   3.342  12.179 -0.0454  0.0677  0.1424
 7614SOL    HW134301   3.497   3.273  12.244 -0.2004 -0.2122 -0.1257
 7614SOL    HW234302   3.408   3.316  12.129 -0.6898  0.0453  1.1637
 7615SOL     OW34303   1.575   3.781   4.698  0.2686 -0.3527  0.2878
 7615SOL    HW134304   1.608   3.790   4.609  1.0857  1.5007  0.7935
 7615SOL    HW234305   1.500   3.723   4.684  1.5042 -1.7678 -0.4780
 7616SOL     OW34306   0.291   2.697   3.104  0.4806  0.2820  0.2302
 7616SOL    HW134307   0.287   2.677   3.011  1.0849 -0.6168  0.3993
 7616SOL    HW234308   0.367   2.650   3.137  1.1568  2.5061  1.8966
 7617SOL     OW34309   1.085   3.242   0.976  0.2953  0.3039 -0.5426
 7617SOL    HW134310   1.117   3.161   1.014  4.3605  0.6112 -3.3470
 7617SOL    HW234311   1.160   3.293   0.946 -0.0048  1.1845  0.2112
 7618SOL     OW34312   2.611   4.112  11.074  0.2924  0.1284 -0.2556
 7618SOL    HW134313   2.658   4.194  11.088  1.8798 -1.1241  1.7641
 7618SOL    HW234314   2.613   4.086  11.166 -2.6855 -0.0111 -0.2541
 7619SOL     OW34315   1.899   0.918  13.436  0.1257  0.0741  0.7299
 7619SOL    HW134316   1.819   0.866  13.444 -1.1612  1.7586 -1.2246
 7619SOL    HW234317   1.884   0.969  13.357 -0.5305  1.6593  1.8847
 7620SOL     OW34318   0.378   4.620   7.421  0.1568  0.1811 -0.6352
 7620SOL    HW134319   0.316   4.664   7.479  0.8749  0.4787 -0.0922
 7620SOL    HW234320   0.402   4.543   7.473  0.2183  0.2267 -0.5967
 7621SOL     OW34321   0.615   2.671  11.993 -0.2521 -0.5801  0.1545
 7621SOL    HW134322   0.656   2.756  12.010  0.1589 -0.8269  0.3767
 7621SOL    HW234323   0.553   2.658  12.064  1.5255  1.8620  2.1420
 7622SOL     OW34324   0.567   4.036   2.542  0.0296  0.0343  0.2508
 7622SOL    HW134325   0.594   3.989   2.621  0.0379 -0.2444  0.0817
 7622SOL    HW234326   0.652   4.077   2.524  0.3193  1.0705  3.9337
 7623SOL     OW34327   3.903   0.709   0.092  0.3898 -0.0898 -0.2047
 7623SOL    HW134328   3.981   0.764   0.099 -0.5506  1.3281 -1.0490
 7623SOL    HW234329   3.906   0.659   0.174 -1.8381 -0.5853 -0.4245
 7624SOL     OW34330   0.657   0.055   8.298 -0.2558  0.2546 -0.0967
 7624SOL    HW134331   0.651   0.038   8.204 -1.2919 -0.1682  0.0376
 7624SOL    HW234332   0.752   0.054   8.301 -0.3170 -1.8780  1.1000
 7625SOL     OW34333   3.206   1.836   3.186  0.3144 -0.1470 -0.1585
 7625SOL    HW134334   3.218   1.910   3.245  1.7803  1.3831 -2.3444
 7625SOL    HW234335   3.298   1.815   3.165 -0.0041 -1.1682 -0.5445
 7626SOL     OW34336   3.230   3.905   5.422 -1.1137  0.1213 -0.6003
 7626SOL    HW134337   3.165   3.912   5.353 -1.7334  0.1219 -0.0226
 7626SOL    HW234338   3.303   3.952   5.380 -0.2042  0.7449  1.6615
 7627SOL     OW34339   0.838   3.835   8.920 -0.0498 -0.5910  0.4381
 7627SOL    HW134340   0.914   3.787   8.954  1.1899 -0.2805 -1.9000
 7627SOL    HW234341   0.772   3.765   8.918 -0.7019  0.0655 -0.5934
 7628SOL     OW34342   0.239   3.450   5.489  0.0592 -0.1777  0.3420
 7628SOL    HW134343   0.233   3.480   5.399 -2.4526 -0.6350  0.3362
 7628SOL    HW234344   0.250   3.357   5.469  1.6518  0.0056  0.3743
 7629SOL     OW34345   2.551   2.259   2.540 -0.0791  0.7081  0.1605
 7629SOL    HW134346   2.625   2.254   2.601 -0.0797 -1.2747  0.0113
 7629SOL    HW234347   2.589   2.245   2.453  0.4058 -1.2190  0.6695
 7630SOL     OW34348   2.375   1.904   0.769  0.0790  0.3859  0.8132
 7630SOL    HW134349   2.304   1.847   0.799 -1.2065  1.4811 -0.0967
 7630SOL    HW234350   2.449   1.846   0.784 -1.2711 -1.8277 -1.1416
 7631SOL     OW34351   1.210   4.628   7.860 -0.4462 -0.2493  0.1140
 7631SOL    HW134352   1.276   4.679   7.813  1.1484 -0.8042  1.8093
 7631SOL    HW234353   1.210   4.682   7.939  3.5425  0.0895 -0.1470
 7632SOL     OW34354   1.065   1.181   6.420  0.0630  0.3068 -0.1937
 7632SOL    HW134355   1.110   1.239   6.482  1.5257 -0.3521 -0.6285
 7632SOL    HW234356   1.048   1.102   6.471 -1.7880  1.0685  0.3571
 7633SOL     OW34357   2.689   0.580   5.847  0.3047  0.2256 -0.4059
 7633SOL    HW134358   2.669   0.512   5.783 -1.1545 -2.1635  2.6017
 7633SOL    HW234359   2.616   0.640   5.830  0.5509  0.8701  0.8166
 7634SOL     OW34360   1.481   4.306   7.654  0.2156  0.0661 -0.4432
 7634SOL    HW134361   1.537   4.307   7.732  2.1822 -0.0244 -1.8489
 7634SOL    HW234362   1.412   4.260   7.702 -1.1551  1.4116 -1.1089
 7635SOL     OW34363   2.442   1.755   2.687  0.1419  0.4451  0.1065
 7635SOL    HW134364   2.419   1.710   2.605 -1.1426 -0.3660  0.9173
 7635SOL    HW234365   2.435   1.845   2.656 -2.5313  0.7295  1.4998
 7636SOL     OW34366   1.560   1.675   6.772  0.1778 -0.3948 -0.7926
 7636SOL    HW134367   1.646   1.677   6.813 -0.1579 -0.7771 -0.0765
 7636SOL    HW234368   1.548   1.767   6.746 -2.9263 -0.8694 -0.9808
 7637SOL     OW34369   2.506   2.205   4.274  0.0218 -0.2313  0.1311
 7637SOL    HW134370   2.546   2.232   4.357 -0.6794  1.5225 -0.0940
 7637SOL    HW234371   2.556   2.124   4.262 -0.1210 -0.0719 -1.4987
 7638SOL     OW34372   0.737   4.378  15.056  0.4040 -0.6693  0.2695
 7638SOL    HW134373   0.708   4.372  15.147 -0.1334  0.9449  0.1949
 7638SOL    HW234374   0.831   4.357  15.060  0.8152  0.6474 -2.3798
 7639SOL     OW34375   0.058   0.326   7.275 -0.6998 -0.0155  0.0752
 7639SOL    HW134376   0.082   0.417   7.294  0.0813  0.2324 -2.0768
 7639SOL    HW234377   0.136   0.279   7.304 -0.4599  0.0558 -0.4594
 7640SOL     OW34378   3.378   4.057   3.796  0.1031 -0.5708 -0.9146
 7640SOL    HW134379   3.284   4.076   3.805  0.4398  2.0614 -2.9023
 7640SOL    HW234380   3.417   4.144   3.810 -1.1112 -0.0569 -0.7157
 7641SOL     OW34381   0.699   1.365  10.644  0.4698 -0.4227 -0.0674
 7641SOL    HW134382   0.729   1.456  10.640  1.8831 -0.9718 -2.0427
 7641SOL    HW234383   0.751   1.323  10.575 -1.4131 -3.4065  0.3470
 7642SOL     OW34384   2.338   0.643   3.079  0.6164  0.4952 -0.1054
 7642SOL    HW134385   2.251   0.651   3.040  0.2875 -2.4659  0.0552
 7642SOL    HW234386   2.358   0.734   3.102 -1.8982  0.3807  2.6562
 7643SOL     OW34387   2.023   0.064  14.871  0.4106  0.1701 -0.1670
 7643SOL    HW134388   1.952   0.055  14.935  1.1683 -2.1590  0.3671
 7643SOL    HW234389   1.987   0.128  14.810  0.5780  0.8458  0.4509
 7644SOL     OW34390   0.263   1.351   3.949 -0.1888 -0.2635  0.0125
 7644SOL    HW134391   0.276   1.427   3.891  0.0315 -1.4484 -1.4789
 7644SOL    HW234392   0.326   1.356   4.021  1.9869  1.1659 -1.9756
 7645SOL     OW34393   3.733   2.650   5.180 -0.4684 -0.1444  0.5602
 7645SOL    HW134394   3.647   2.687   5.162  0.7100  0.8864 -2.8768
 7645SOL    HW234395   3.730   2.575   5.120 -3.5775  2.0524 -2.0109
 7646SOL     OW34396   1.817   0.940   6.630  0.0778  0.6438 -0.0696
 7646SOL    HW134397   1.862   0.919   6.712  1.4157  1.4395 -0.5920
 7646SOL    HW234398   1.871   0.898   6.563 -1.8165 -1.4534 -0.2389
 7647SOL     OW34399   1.681   4.625   4.700 -0.1732 -0.7872 -0.0289
 7647SOL    HW134400   1.636   4.550   4.739  0.2656 -0.5056  1.0091
 7647SOL    HW234401   1.724   4.670   4.773  1.3208  1.4516 -2.2686
 7648SOL     OW34402   0.226   0.520   1.203  0.1566  0.2568 -0.1290
 7648SOL    HW134403   0.279   0.450   1.242  1.3112  0.1983 -1.7931
 7648SOL    HW234404   0.247   0.600   1.252  0.6906 -0.3775  0.6808
 7649SOL     OW34405   2.638   2.228   3.563 -0.1313  0.1248 -0.9158
 7649SOL    HW134406   2.580   2.153   3.576  0.8831 -0.1837  1.8946
 7649SOL    HW234407   2.676   2.220   3.476  0.2667 -1.2757 -0.6075
 7650SOL     OW34408   2.600   3.216   2.150 -0.1525  0.4888 -0.1148
 7650SOL    HW134409   2.642   3.166   2.221 -0.9967  0.5128  0.4079
 7650SOL    HW234410   2.508   3.206   2.174  0.1914 -0.8319  0.6715
 7651SOL     OW34411   0.876   3.260   8.226  0.1016  0.6772  0.1143
 7651SOL    HW134412   0.801   3.287   8.173 -1.7271 -0.6205  2.0360
 7651SOL    HW234413   0.951   3.284   8.172  1.0295 -0.6038  0.8425
 7652SOL     OW34414   3.594   0.367   9.884 -0.0102  0.1746  0.2560
 7652SOL    HW134415   3.682   0.404   9.886  0.5207 -1.1080  0.6889
 7652SOL    HW234416   3.609   0.308   9.810 -3.1252 -0.2699  0.0112
 7653SOL     OW34417   0.582   2.748   6.769  0.2274 -0.0420 -0.2911
 7653SOL    HW134418   0.593   2.804   6.846 -1.5834  0.7178 -0.6063
 7653SOL    HW234419   0.675   2.736   6.748  0.3449  1.1432 -0.4563
 7654SOL     OW34420   1.810   1.869   3.581 -0.0682  0.7378  0.1929
 7654SOL    HW134421   1.767   1.929   3.641 -0.2546  1.6654 -0.8716
 7654SOL    HW234422   1.750   1.881   3.507  0.6103  2.1585 -0.1360
 7655SOL     OW34423   1.768   4.605   8.369 -0.3218  0.4787 -0.2424
 7655SOL    HW134424   1.696   4.543   8.382  2.8796 -3.2705 -0.1107
 7655SOL    HW234425   1.832   4.582   8.436 -0.4256 -0.1677 -0.3655
 7656SOL     OW34426   1.693   0.244   5.148 -0.0987 -0.2158 -0.2305
 7656SOL    HW134427   1.750   0.299   5.093 -0.1092 -0.0202 -0.0483
 7656SOL    HW234428   1.613   0.289   5.119  2.5998  4.1623 -0.8745
 7657SOL     OW34429   0.143   2.227   4.072  0.3569  0.2194 -0.0306
 7657SOL    HW134430   0.098   2.146   4.046 -1.4105  1.4820 -0.9353
 7657SOL    HW234431   0.183   2.188   4.150 -0.2371 -0.3462 -0.0016
 7658SOL     OW34432   3.502   1.789   6.105 -0.7454 -0.3836  0.3380
 7658SOL    HW134433   3.433   1.843   6.144  0.1750  0.5233  0.7300
 7658SOL    HW234434   3.452   1.708   6.110 -1.0794 -0.2416 -0.6298
 7659SOL     OW34435   2.955   4.468   8.675 -0.1691  0.3096  0.2678
 7659SOL    HW134436   2.979   4.558   8.654  0.3396 -0.3596 -2.0267
 7659SOL    HW234437   3.027   4.410   8.648 -0.8028  0.0194 -0.8073
 7660SOL     OW34438   2.049   2.186   2.043  0.1857 -0.1526 -0.0225
 7660SOL    HW134439   2.123   2.170   1.984  0.9053  0.7413  0.6382
 7660SOL    HW234440   2.048   2.282   2.038 -1.2340 -0.2931 -2.5973
 7661SOL     OW34441   0.553   1.868   9.072  0.0618 -0.1314 -0.1984
 7661SOL    HW134442   0.598   1.953   9.071  0.5502 -0.3900  0.0773
 7661SOL    HW234443   0.471   1.887   9.119  0.7045 -0.6057  1.1188
 7662SOL     OW34444   2.899   1.662   2.546  0.6870 -0.5195 -0.2495
 7662SOL    HW134445   2.846   1.596   2.501 -0.2112  0.5474 -0.7578
 7662SOL    HW234446   2.951   1.708   2.481 -1.4464  1.1293 -0.7996
 7663SOL     OW34447   3.531   0.404  17.686 -0.7248  0.0392  0.5629
 7663SOL    HW134448   3.604   0.355  17.648  0.3067  1.8484  0.2301
 7663SOL    HW234449   3.576   0.443   0.065 -2.0227  2.6267 -0.0099
 7664SOL     OW34450   4.176   3.161  13.203 -0.7332  0.3320 -0.4402
 7664SOL    HW134451   4.217   3.211  13.133  2.6586  0.9282  1.9869
 7664SOL    HW234452   4.200   3.213  13.278 -0.8546  0.3904 -0.4415
 7665SOL     OW34453   0.141   0.579   3.450  0.5110 -0.1118  0.3606
 7665SOL    HW134454   0.076   0.521   3.412 -0.8876  2.0686 -0.5370
 7665SOL    HW234455   0.087   0.633   3.507 -0.0965  0.5193 -0.8317
 7666SOL     OW34456   2.365   2.146   0.885 -0.0522 -0.0585 -0.5089
 7666SOL    HW134457   2.321   2.196   0.817 -0.6721 -1.9955 -1.5316
 7666SOL    HW234458   2.385   2.061   0.846  0.0857  0.9207 -2.5441
 7667SOL     OW34459   1.249   1.996   3.254  0.0924  0.2319  0.1995
 7667SOL    HW134460   1.162   2.025   3.281  0.2562  1.7244 -0.8754
 7667SOL    HW234461   1.234   1.902   3.246 -0.9548  0.0275  4.6866
 7668SOL     OW34462   1.920   3.569  16.378  0.3794  0.1668  0.0808
 7668SOL    HW134463   1.889   3.607  16.460 -0.1450  0.5415 -0.2890
 7668SOL    HW234464   1.834   3.540  16.349  0.4669 -1.1998  1.2335
 7669SOL     OW34465   2.835   0.774  10.938 -0.2769 -0.1633  0.0900
 7669SOL    HW134466   2.784   0.702  10.974  0.2291 -0.1993  0.7494
 7669SOL    HW234467   2.840   0.743  10.848 -0.1683  0.2441 -0.0481
 7670SOL     OW34468   2.887   0.618  16.147  0.3457  0.1363  0.8633
 7670SOL    HW134469   2.901   0.707  16.177  0.5975  0.0855  0.8915
 7670SOL    HW234470   2.845   0.631  16.062 -1.3947  0.9775  1.8661
 7671SOL     OW34471   3.797   1.621   4.341  0.1459  0.2152 -0.7648
 7671SOL    HW134472   3.787   1.660   4.255  1.3828 -0.9780 -1.4603
 7671SOL    HW234473   3.891   1.613   4.358 -0.7664 -1.1023  3.9071
 7672SOL     OW34474   4.389   1.112   7.978  0.2066 -0.4138  0.0319
 7672SOL    HW134475   4.408   1.202   8.001 -0.3619  0.2538 -2.1181
 7672SOL    HW234476   4.391   1.120   7.883  0.9491 -0.4363  0.0490
 7673SOL     OW34477   4.626   3.651   7.700 -0.3214  0.4573  0.1345
 7673SOL    HW134478   4.664   3.591   7.635  1.2166  3.3375 -1.6058
 7673SOL    HW234479   4.679   3.730   7.687  0.7858 -0.3747 -0.4375
 7674SOL     OW34480   1.129   0.074   9.268 -0.6959 -0.3022 -0.1095
 7674SOL    HW134481   1.182   4.719   9.251  0.3872 -0.0426  2.0062
 7674SOL    HW234482   1.122   0.076   9.364 -0.6592 -1.4028 -0.0799
 7675SOL     OW34483   4.288   3.689   2.085 -0.3045  0.8400 -0.1225
 7675SOL    HW134484   4.372   3.730   2.062  1.0150 -0.2531  2.8301
 7675SOL    HW234485   4.251   3.676   1.998  2.1478 -0.8366 -0.9361
 7676SOL     OW34486   4.197   0.329   0.212  0.7558 -0.2158 -0.4082
 7676SOL    HW134487   4.178   0.297   0.300 -0.3546  1.7824  0.0881
 7676SOL    HW234488   4.143   0.269   0.159 -1.0830  2.1858 -1.2833
 7677SOL     OW34489   1.698   3.718  11.323  0.4128  0.1514 -0.2063
 7677SOL    HW134490   1.669   3.631  11.295 -0.8366  0.6570 -0.4974
 7677SOL    HW234491   1.780   3.714  11.275  1.2739  0.9674  1.1936
 7678SOL     OW34492   4.296   3.867  11.331  0.0611  0.1645 -0.0288
 7678SOL    HW134493   4.308   3.798  11.395  1.4372 -0.0608 -0.5221
 7678SOL    HW234494   4.357   3.934  11.362 -1.2117  0.7197  1.2367
 7679SOL     OW34495   0.298   1.395   5.055  0.1369  0.0995  0.4069
 7679SOL    HW134496   0.261   1.448   4.984 -0.8069 -0.4153  0.5126
 7679SOL    HW234497   0.387   1.429   5.051 -0.5344  1.9022  0.7533
 7680SOL     OW34498   0.912   2.611   8.545  0.4545 -0.2168 -0.2184
 7680SOL    HW134499   0.859   2.690   8.554  1.2690  0.3876 -0.7049
 7680SOL    HW234500   0.943   2.588   8.633  0.4951  3.1997  0.6677
 7681SOL     OW34501   4.154   1.023   4.508  0.6334 -0.1422 -0.0101
 7681SOL    HW134502   4.066   0.998   4.534  0.9726  0.4233  1.6746
 7681SOL    HW234503   4.180   0.959   4.441  2.1138 -1.2265  1.6000
 7682SOL     OW34504   1.955   1.705   3.742 -0.1800 -0.1030  0.3492
 7682SOL    HW134505   1.893   1.758   3.692 -0.3432 -1.1515 -0.5608
 7682SOL    HW234506   1.885   1.639   3.751  2.2981 -2.3164  3.4395
 7683SOL     OW34507   1.348   4.132   8.498  0.7976  0.2601  0.3451
 7683SOL    HW134508   1.292   4.080   8.440  0.2807  2.4771 -1.1369
 7683SOL    HW234509   1.275   4.158   8.554  0.5213  0.9655 -0.3418
 7684SOL     OW34510   2.548   0.518   7.446 -0.1039  0.5588 -0.4020
 7684SOL    HW134511   2.563   0.458   7.519 -2.9111 -1.0644 -1.1570
 7684SOL    HW234512   2.461   0.551   7.470 -0.4223 -0.5882 -0.0001
 7685SOL     OW34513   0.219   0.057  15.326 -0.4923  0.8099 -0.0357
 7685SOL    HW134514   0.245   0.037  15.236 -2.8091  0.2760 -0.6039
 7685SOL    HW234515   0.132   0.094  15.313 -0.2366  0.3690 -3.2137
 7686SOL     OW34516   0.982   0.667  17.564 -0.0694 -0.2062  0.5319
 7686SOL    HW134517   0.963   0.701  17.651 -2.8010  1.3566 -0.6883
 7686SOL    HW234518   0.894   0.641  17.538  0.2954 -1.3721  0.4637
 7687SOL     OW34519   4.370   1.615  15.051 -0.3293  0.2391  0.2500
 7687SOL    HW134520   4.413   1.536  15.018 -1.9805 -0.3298 -0.5529
 7687SOL    HW234521   4.447   1.671  15.063  1.3181 -1.7677 -0.8085
 7688SOL     OW34522   2.929   2.340   2.194 -0.3865 -0.1540 -0.3129
 7688SOL    HW134523   2.864   2.358   2.126  1.4397  2.1763 -1.4458
 7688SOL    HW234524   2.984   2.273   2.154 -1.3001 -0.3999 -1.1408
 7689SOL     OW34525   3.340   3.452   0.293 -0.5037  0.0237 -0.6110
 7689SOL    HW134526   3.249   3.456   0.325 -0.1321  1.9290  0.2045
 7689SOL    HW234527   3.379   3.381   0.344  0.8684  1.4887  0.3761
 7690SOL     OW34528   0.708   4.549   9.588 -0.1160 -0.4726 -1.1645
 7690SOL    HW134529   0.744   4.634   9.613  1.4002 -1.1936 -0.9234
 7690SOL    HW234530   0.615   4.572   9.585 -0.4093 -1.3751  0.8826
 7691SOL     OW34531   0.594   2.032   2.017 -0.1074  0.6444 -0.1290
 7691SOL    HW134532   0.553   2.014   1.933  0.5552  2.0151 -0.7397
 7691SOL    HW234533   0.618   1.941   2.036 -2.6149 -0.2883 -1.5964
 7692SOL     OW34534   0.686   3.607   4.290  0.0066 -0.3563  0.0591
 7692SOL    HW134535   0.604   3.558   4.291  0.8312 -1.7401 -0.2547
 7692SOL    HW234536   0.718   3.610   4.200  1.6016 -0.0475  0.6414
 7693SOL     OW34537   4.115   1.896   4.330  0.0534 -0.1744  0.3316
 7693SOL    HW134538   4.118   1.898   4.234 -0.7054  3.2172  0.3960
 7693SOL    HW234539   4.089   1.806   4.350 -0.1504 -0.0778  0.5075
 7694SOL     OW34540   3.634   2.573   8.513  0.7114 -0.2356  0.4382
 7694SOL    HW134541   3.546   2.595   8.543 -0.1929 -0.8425 -1.7891
 7694SOL    HW234542   3.635   2.479   8.527 -0.7431  0.0989  2.7977
 7695SOL     OW34543   4.044   0.275  11.806 -0.0298 -0.2195  0.2068
 7695SOL    HW134544   4.013   0.290  11.717 -1.5685 -1.3283  0.5450
 7695SOL    HW234545   4.089   0.192  11.791  0.1405 -0.2835  1.0474
 7696SOL     OW34546   3.564   3.171  17.364 -0.1301 -0.0257 -0.1751
 7696SOL    HW134547   3.646   3.165  17.315 -0.1888 -0.3117 -0.2341
 7696SOL    HW234548   3.514   3.109  17.311 -0.0552  0.6387 -1.0359
 7697SOL     OW34549   0.097   0.365   9.723 -0.6976  0.4269  0.8008
 7697SOL    HW134550   0.088   0.319   9.807 -1.5289  3.0032  2.1134
 7697SOL    HW234551   0.083   0.299   9.655  1.1901  1.7486 -0.8481
 7698SOL     OW34552   0.605   1.885   9.385 -0.4245 -0.3874  0.5824
 7698SOL    HW134553   0.617   1.972   9.348 -4.1869  0.2222  0.8156
 7698SOL    HW234554   0.545   1.902   9.457 -1.7919  0.5922 -0.7934
 7699SOL     OW34555   0.402   0.382   5.011  0.3864 -0.0952  0.6112
 7699SOL    HW134556   0.478   0.337   4.973  0.8233  0.8890  0.3168
 7699SOL    HW234557   0.438   0.470   5.021 -1.6305  1.1857 -3.0226
 7700SOL     OW34558   2.950   2.906   9.079 -0.0189 -0.1103  0.2902
 7700SOL    HW134559   3.032   2.931   9.121  0.4719 -2.4594  0.7210
 7700SOL    HW234560   2.902   2.988   9.073  1.2090  0.5244 -0.9900
 7701SOL     OW34561   3.881   3.389  10.393 -0.3808 -0.4084 -0.3778
 7701SOL    HW134562   3.965   3.393  10.347  0.5313 -0.9877  1.2418
 7701SOL    HW234563   3.908   3.373  10.483 -0.3234 -0.5301 -0.4164
 7702SOL     OW34564   0.549   2.620   0.478  0.1763 -0.1661 -0.1799
 7702SOL    HW134565   0.538   2.582   0.391 -1.4058 -1.2941  0.5270
 7702SOL    HW234566   0.465   2.617   0.522 -0.6435  0.6334 -1.6907
 7703SOL     OW34567   2.842   2.063  10.648 -0.3305 -0.1640 -0.2531
 7703SOL    HW134568   2.817   2.156  10.651  1.6066  0.3986 -1.1355
 7703SOL    HW234569   2.887   2.046  10.730  0.7200  0.6078 -0.6655
 7704SOL     OW34570   1.269   0.590   7.238 -0.8335 -0.1917  0.0899
 7704SOL    HW134571   1.253   0.680   7.265 -2.0266 -0.1322 -0.8399
 7704SOL    HW234572   1.194   0.541   7.274  1.0916 -1.5045  2.3225
 7705SOL     OW34573   3.430   1.327   3.939  0.1799  0.2152  0.6401
 7705SOL    HW134574   3.480   1.403   3.908 -0.3578 -0.1526 -1.1254
 7705SOL    HW234575   3.496   1.258   3.947  0.8707  0.6164 -1.4761
 7706SOL     OW34576   1.310   2.098   0.811  0.4043  0.8438 -0.3881
 7706SOL    HW134577   1.351   2.164   0.867  2.1487 -1.4269  0.9997
 7706SOL    HW234578   1.239   2.070   0.869  0.7258  0.8311 -0.0028
 7707SOL     OW34579   3.042   2.294   7.039 -0.2626 -0.3940  0.1089
 7707SOL    HW134580   3.095   2.324   6.965  0.9858 -0.1884  1.0823
 7707SOL    HW234581   3.070   2.202   7.039  1.8012  0.2429 -0.6155
 7708SOL     OW34582   4.179   4.520   6.930  0.4441  0.0219  0.6946
 7708SOL    HW134583   4.155   4.487   7.017  0.5474 -1.2456  0.2410
 7708SOL    HW234584   4.274   4.534   6.935  0.7813 -0.9105 -2.9668
 7709SOL     OW34585   1.982   0.856   5.324 -0.0538  0.3263  0.3797
 7709SOL    HW134586   2.056   0.878   5.266  0.5243 -1.1832  0.5351
 7709SOL    HW234587   1.959   0.770   5.287 -1.3348  0.2736  1.2920
 7710SOL     OW34588   2.113   1.139   3.768  0.0750  0.1029 -0.0924
 7710SOL    HW134589   2.075   1.061   3.728  1.6908 -1.1272  0.7502
 7710SOL    HW234590   2.036   1.189   3.795  0.8433  0.8510  0.7360
 7711SOL     OW34591   0.066   1.370  12.348  0.4905 -0.5021  0.5953
 7711SOL    HW134592   4.705   1.411  12.364  1.9888  2.6318  0.4515
 7711SOL    HW234593   0.101   1.429  12.282  0.8484 -0.1440  1.1068
 7712SOL     OW34594   1.300   2.659  17.001  0.6630  0.2506  0.5424
 7712SOL    HW134595   1.294   2.682  17.094 -1.5645  1.7781  0.0177
 7712SOL    HW234596   1.363   2.588  17.008 -1.0199 -1.4273 -1.2898
 7713SOL     OW34597   1.205   3.507  10.313  0.2753 -0.4725  0.0777
 7713SOL    HW134598   1.261   3.583  10.297  0.4068 -0.2746  1.5296
 7713SOL    HW234599   1.252   3.448  10.253  0.3865 -1.3897  1.0735
 7714SOL     OW34600   3.979   2.088  16.543  0.3574  0.2541  0.0292
 7714SOL    HW134601   3.914   2.145  16.502 -2.0129 -1.3738  1.5354
 7714SOL    HW234602   4.033   2.161  16.574  1.0330 -0.7048  1.1084
 7715SOL     OW34603   2.789   1.241   4.458  0.1453 -0.4953 -0.4865
 7715SOL    HW134604   2.819   1.324   4.494  0.9161  0.0440 -2.3586
 7715SOL    HW234605   2.869   1.211   4.414  1.3729  1.7775  0.2276
 7716SOL     OW34606   3.284   2.052   9.123  0.7491 -0.7046 -0.6474
 7716SOL    HW134607   3.231   1.996   9.066 -1.9006 -0.6376  1.7070
 7716SOL    HW234608   3.246   2.138   9.105  1.5360 -0.0236  0.9805
 7717SOL     OW34609   3.985   3.551   6.679  0.0709 -0.0923 -0.0161
 7717SOL    HW134610   3.916   3.515   6.734 -0.7164 -1.4560 -1.8970
 7717SOL    HW234611   3.939   3.633   6.664  1.2203  0.6717  0.6438
 7718SOL     OW34612   0.119   0.030   4.725  0.4600 -0.2053 -0.5847
 7718SOL    HW134613   0.168   0.092   4.780 -0.7998  1.0036 -0.8264
 7718SOL    HW234614   0.034   0.072   4.735  1.0730  0.4913  1.7439
 7719SOL     OW34615   2.808   4.699   5.328 -0.2288  0.2391 -0.2108
 7719SOL    HW134616   2.788   4.722   5.237 -0.3719  0.7120 -0.0615
 7719SOL    HW234617   2.793   0.066   5.356  0.6373  0.2215  0.3337
 7720SOL     OW34618   2.945   2.395  16.161 -0.4132 -0.1877  0.3409
 7720SOL    HW134619   3.005   2.325  16.187  0.0653  0.0358 -0.1626
 7720SOL    HW234620   2.877   2.346  16.115 -0.4191 -0.3971  0.5728
 7721SOL     OW34621   0.936   0.058   5.438  0.4039 -0.2796  0.5186
 7721SOL    HW134622   0.942   0.014   5.522  0.8748 -0.0710  0.5963
 7721SOL    HW234623   0.889   4.714   5.389 -0.1062  2.1324 -2.3466
 7722SOL     OW34624   3.617   0.251   2.944 -0.2756  0.2622  0.1744
 7722SOL    HW134625   3.697   0.207   2.914 -0.3746 -1.5264  2.5310
 7722SOL    HW234626   3.594   0.307   2.870  3.8188  3.4467  1.3027
 7723SOL     OW34627   3.582   0.422  16.245  0.6452  0.7255  0.0339
 7723SOL    HW134628   3.538   0.346  16.282  1.8561 -1.2606 -2.5780
 7723SOL    HW234629   3.630   0.389  16.169 -1.9601  0.6401 -1.5441
 7724SOL     OW34630   2.971   0.108  15.432  0.1783  0.0317  0.1699
 7724SOL    HW134631   2.993   0.016  15.442 -2.5651 -0.5221  1.1280
 7724SOL    HW234632   2.894   0.103  15.375 -1.0898 -1.0661  1.9902
 7725SOL     OW34633   4.377   1.600   4.826 -0.0984 -0.4632  0.2919
 7725SOL    HW134634   4.437   1.570   4.894 -1.8190 -1.9395  1.1776
 7725SOL    HW234635   4.403   1.690   4.807  0.3445 -0.2873  1.7383
 7726SOL     OW34636   4.700   1.010   3.553 -0.0028 -0.4757  0.3727
 7726SOL    HW134637   4.634   0.958   3.509 -0.8220  0.0187  1.0100
 7726SOL    HW234638   4.646   1.082   3.585  0.1583  0.4679 -1.4798
 7727SOL     OW34639   4.122   2.004   8.452  0.5177 -0.1333  0.2795
 7727SOL    HW134640   4.036   2.012   8.494 -0.1726  2.4380 -1.5764
 7727SOL    HW234641   4.177   2.021   8.528 -0.7693  1.6271  0.8129
 7728SOL     OW34642   2.690   4.272  14.965  0.0935 -0.0872 -0.0194
 7728SOL    HW134643   2.708   4.231  15.050 -0.1263 -1.4750 -0.6333
 7728SOL    HW234644   2.772   4.317  14.946 -0.0167 -0.5350 -1.5306
 7729SOL     OW34645   0.357   4.325  13.022 -0.0583 -0.3062 -0.4177
 7729SOL    HW134646   0.355   4.403  12.967  0.8469 -0.5180 -0.7373
 7729SOL    HW234647   0.312   4.357  13.100  0.1356 -2.9997  0.8203
 7730SOL     OW34648   2.011   3.000   2.877  0.3082  0.0663  0.0201
 7730SOL    HW134649   1.964   3.064   2.825 -2.4338 -2.2350 -0.3117
 7730SOL    HW234650   1.938   2.949   2.911  1.8698 -0.7491  2.1758
 7731SOL     OW34651   2.858   4.552   6.285  0.7440  0.7478  0.6918
 7731SOL    HW134652   2.913   4.480   6.252  0.6662  1.3311 -0.7248
 7731SOL    HW234653   2.842   4.600   6.204  3.4921  1.7133  0.7146
 7732SOL     OW34654   0.476   4.066   5.908  0.4029  0.6047 -0.3692
 7732SOL    HW134655   0.390   4.029   5.890 -0.4485  2.7734 -0.7583
 7732SOL    HW234656   0.464   4.126   5.982  0.2521  0.6943 -0.4675
 7733SOL     OW34657   0.126   2.248   3.703 -0.1376 -0.1699  0.3823
 7733SOL    HW134658   0.196   2.186   3.723 -0.9631 -1.5711 -1.1079
 7733SOL    HW234659   0.164   2.329   3.669  0.8847 -0.4918  0.7741
 7734SOL     OW34660   0.418   3.659   5.576 -0.2397 -0.2174  0.1016
 7734SOL    HW134661   0.382   3.691   5.493 -2.1699  0.5820  1.2452
 7734SOL    HW234662   0.344   3.608   5.609  0.9543 -0.6152  2.1455
 7735SOL     OW34663   4.145   4.374  14.712  0.4187  0.0111  0.4758
 7735SOL    HW134664   4.128   4.356  14.804  2.6168 -1.1787  0.6620
 7735SOL    HW234665   4.210   4.308  14.687  0.1482 -0.5186  1.1678
 7736SOL     OW34666   0.023   2.273  10.466 -0.1414 -0.4878 -0.8816
 7736SOL    HW134667   0.106   2.228  10.481 -1.2048 -1.3846  2.1987
 7736SOL    HW234668   0.007   2.327  10.543  0.0630 -1.4827 -0.1387
 7737SOL     OW34669   2.102   1.802  12.790  0.5011 -0.5605  0.4032
 7737SOL    HW134670   2.118   1.763  12.876 -0.1241 -0.9267  0.3527
 7737SOL    HW234671   2.139   1.889  12.780 -0.0852 -0.2782  0.6829
 7738SOL     OW34672   1.420   4.175   8.953  0.5750  0.1386  0.0214
 7738SOL    HW134673   1.348   4.160   8.891  1.1071 -0.1778 -0.5138
 7738SOL    HW234674   1.364   4.185   9.031 -1.3687 -0.8793 -1.2372
 7739SOL     OW34675   4.198   3.755   6.934 -0.4705 -0.5381  0.1609
 7739SOL    HW134676   4.173   3.816   6.866  2.7828  0.2441 -0.3593
 7739SOL    HW234677   4.294   3.750   6.928 -0.4318  1.4020 -0.6887
 7740SOL     OW34678   1.875   1.546   8.222  0.2119 -0.0308  0.1689
 7740SOL    HW134679   1.917   1.598   8.290 -2.3279  1.8657  0.2784
 7740SOL    HW234680   1.783   1.573   8.226  0.1341 -0.2174 -0.3250
 7741SOL     OW34681   2.947   2.273   4.786 -0.1362  0.4154 -0.1782
 7741SOL    HW134682   3.006   2.209   4.826 -0.5563  1.2502  1.7530
 7741SOL    HW234683   2.999   2.296   4.708 -3.2797  0.3019 -2.2952
 7742SOL     OW34684   0.349   0.065   6.560 -0.5000 -0.3422 -0.2861
 7742SOL    HW134685   0.314   0.152   6.579 -0.3577  0.2792 -2.9143
 7742SOL    HW234686   0.403   0.063   6.639  2.3394 -1.1695 -2.2326
 7743SOL     OW34687   3.336   1.928  13.415  0.6488 -0.2113  0.1315
 7743SOL    HW134688   3.330   1.841  13.374 -0.3430  0.1905 -0.5970
 7743SOL    HW234689   3.275   1.923  13.488  0.2636  2.6500 -0.0274
 7744SOL     OW34690   1.240   2.610   7.609  0.1607 -0.1254 -0.0011
 7744SOL    HW134691   1.296   2.685   7.631 -0.2625  0.4501 -0.8567
 7744SOL    HW234692   1.276   2.595   7.521  0.2517  2.4146 -0.4196
 7745SOL     OW34693   4.723   4.509   6.658  0.0537 -0.1784  0.4577
 7745SOL    HW134694   0.067   4.544   6.599  0.7527 -1.2238  0.6559
 7745SOL    HW234695   0.027   4.547   6.741  0.8578 -1.2907  0.6865
 7746SOL     OW34696   3.320   2.740  12.560 -0.0379 -0.5153  0.1291
 7746SOL    HW134697   3.382   2.708  12.625 -0.3366 -0.0547  0.6414
 7746SOL    HW234698   3.236   2.715  12.598 -0.1831 -0.8010 -0.3842
 7747SOL     OW34699   3.432   1.480   2.454  0.4042  0.3626 -0.0664
 7747SOL    HW134700   3.404   1.478   2.546  1.3355 -0.3226  0.2124
 7747SOL    HW234701   3.447   1.386   2.445 -0.4993  0.4274 -2.2316
 7748SOL     OW34702   1.682   0.299   3.080 -0.2665  0.0945  0.2879
 7748SOL    HW134703   1.593   0.264   3.082 -0.1210 -0.3267 -0.5988
 7748SOL    HW234704   1.670   0.386   3.042  0.6978  0.9878  2.0330
 7749SOL     OW34705   1.377   4.443   8.693 -0.6470  0.3233 -0.8440
 7749SOL    HW134706   1.421   4.427   8.777 -1.6059  0.4910 -0.3067
 7749SOL    HW234707   1.387   4.367   8.636  0.8815  1.0421 -1.5168
 7750SOL     OW34708   3.650   2.315  16.692 -0.5232  0.3238  0.2077
 7750SOL    HW134709   3.584   2.384  16.698 -0.9612 -0.0756 -0.1385
 7750SOL    HW234710   3.597   2.236  16.702 -0.4495  0.1692 -0.6891
 7751SOL     OW34711   4.716   3.416   4.222  0.2646  0.3320  0.2224
 7751SOL    HW134712   0.014   3.323   4.234 -1.7302 -0.1031  0.5427
 7751SOL    HW234713   4.623   3.407   4.243 -0.3052 -0.0293 -2.5828
 7752SOL     OW34714   2.592   3.208   1.356 -0.2342 -0.0309  0.6293
 7752SOL    HW134715   2.502   3.184   1.380 -0.2199 -0.6699  0.0402
 7752SOL    HW234716   2.572   3.267   1.283 -2.1092 -1.0286  0.3309
 7753SOL     OW34717   1.447   0.774   8.366 -0.2432 -0.0158  0.2908
 7753SOL    HW134718   1.400   0.841   8.416  0.2086  0.2920  0.2933
 7753SOL    HW234719   1.528   0.824   8.370  0.6779 -1.4059 -1.2563
 7754SOL     OW34720   3.819   3.647   6.406  0.2480  0.2140  0.0019
 7754SOL    HW134721   3.750   3.582   6.417  1.2414 -0.7820  0.4104
 7754SOL    HW234722   3.829   3.691   6.491 -0.2432 -0.9645  0.6585
 7755SOL     OW34723   4.455   0.835   4.112  0.2696  0.4919  0.0129
 7755SOL    HW134724   4.481   0.913   4.161 -1.1255  2.7586 -2.8813
 7755SOL    HW234725   4.532   0.818   4.058 -0.4500 -1.1400 -0.4942
 7756SOL     OW34726   2.582   1.563   5.832 -0.4863 -0.4345  0.2002
 7756SOL    HW134727   2.538   1.529   5.911 -2.0648 -1.5863 -1.1798
 7756SOL    HW234728   2.634   1.625   5.882  1.6457 -0.2536 -2.2680
 7757SOL     OW34729   3.703   1.869   2.223  0.1956 -0.7677 -0.3830
 7757SOL    HW134730   3.694   1.799   2.288 -0.3979 -1.6420 -1.3978
 7757SOL    HW234731   3.620   1.842   2.181  0.1325 -0.5222 -0.4153
 7758SOL     OW34732   0.585   1.229   8.198 -0.3957  0.2128 -0.1974
 7758SOL    HW134733   0.543   1.145   8.215  1.9302 -0.7163  0.9775
 7758SOL    HW234734   0.648   1.228   8.270 -1.4268  0.4576  0.7115
 7759SOL     OW34735   0.767   3.598   4.043  0.1335 -0.1271 -0.1250
 7759SOL    HW134736   0.736   3.547   3.968  1.9873 -3.9846  1.7377
 7759SOL    HW234737   0.850   3.629   4.007  0.0790 -1.0812 -1.0714
 7760SOL     OW34738   0.613   0.248   4.907 -0.3647 -0.2321  0.1366
 7760SOL    HW134739   0.621   0.274   4.815 -0.8773  1.2694  0.5155
 7760SOL    HW234740   0.702   0.229   4.938 -0.0464  3.7671  1.6551
 7761SOL     OW34741   0.173   3.535   6.683  0.1519  0.6491 -0.2978
 7761SOL    HW134742   0.122   3.508   6.607  1.6946  0.7304 -1.3563
 7761SOL    HW234743   0.199   3.618   6.643 -0.8570 -0.0960 -2.4740
 7762SOL     OW34744   2.087   1.941   7.916 -0.3980  0.2450  0.2345
 7762SOL    HW134745   2.102   1.982   7.831 -2.5576  2.3444  0.8704
 7762SOL    HW234746   2.155   1.874   7.924 -1.8735 -1.1994  0.6696
 7763SOL     OW34747   1.648   0.295   8.925  0.1293  0.1301 -0.6000
 7763SOL    HW134748   1.628   0.208   8.962 -0.6068  0.3626 -0.4482
 7763SOL    HW234749   1.575   0.319   8.868 -1.9849 -0.6682  1.7612
 7764SOL     OW34750   1.565   2.900   8.114  0.4119  0.9893  0.0314
 7764SOL    HW134751   1.594   2.855   8.035 -1.9629 -2.0896  0.9211
 7764SOL    HW234752   1.557   2.829   8.178  1.3329  1.8726  1.1395
 7765SOL     OW34753   3.816   1.866  12.605 -0.1629  0.2442  1.0331
 7765SOL    HW134754   3.866   1.823  12.675  0.4164  0.0107  0.4730
 7765SOL    HW234755   3.726   1.833  12.610 -0.4856  1.0172  0.0908
 7766SOL     OW34756   0.788   3.829   2.354 -0.4729  1.0222  0.7378
 7766SOL    HW134757   0.702   3.792   2.377 -1.1714  1.5339 -1.0329
 7766SOL    HW234758   0.826   3.853   2.439 -2.8041  0.2559  2.0050
 7767SOL     OW34759   4.604   4.641   8.236  0.1629  0.6847 -0.7844
 7767SOL    HW134760   4.612   4.711   8.172 -4.3197  0.2715 -1.8145
 7767SOL    HW234761   4.546   4.581   8.189 -0.2152  0.7247 -0.3641
 7768SOL     OW34762   2.664   3.137   5.577 -0.4792  0.0656  0.2655
 7768SOL    HW134763   2.742   3.134   5.521  0.2575  0.7862  1.2481
 7768SOL    HW234764   2.693   3.089   5.654  0.5418  0.6732  0.2605
 7769SOL     OW34765   1.805   2.865   4.756  0.3089 -0.2132  0.1088
 7769SOL    HW134766   1.840   2.811   4.685  0.8442 -1.5012  1.3640
 7769SOL    HW234767   1.721   2.889   4.718  0.3936 -0.2810 -0.1265
 7770SOL     OW34768   4.284   0.881   6.716 -0.0607 -0.7408 -0.5097
 7770SOL    HW134769   4.297   0.897   6.810  0.9513 -1.3515 -0.5516
 7770SOL    HW234770   4.268   0.966   6.674 -0.8238 -0.4503  0.3593
 7771SOL     OW34771   3.701   1.766  11.634 -0.3708 -0.0861  0.1513
 7771SOL    HW134772   3.674   1.684  11.677  1.2913 -0.2945  0.8099
 7771SOL    HW234773   3.796   1.750  11.640  0.0788  1.9988 -1.6101
 7772SOL     OW34774   2.722   4.154  10.233 -0.2140 -0.8669  0.2112
 7772SOL    HW134775   2.693   4.072  10.274 -0.9392 -1.1802 -0.9173
 7772SOL    HW234776   2.687   4.220  10.293 -0.4903 -0.9633  0.1570
 7773SOL     OW34777   0.066   1.522  13.587  0.0162 -0.4642  0.5554
 7773SOL    HW134778   0.049   1.493  13.497  0.3565  1.2511 -0.0758
 7773SOL    HW234779   0.141   1.580  13.576 -1.1187  0.9505  0.1408
 7774SOL     OW34780   3.307   0.980   3.906 -0.0359  0.0100 -0.4119
 7774SOL    HW134781   3.398   1.004   3.889 -0.3524  2.0728  0.8555
 7774SOL    HW234782   3.329   0.913   3.971  0.5388 -0.4439 -1.0664
 7775SOL     OW34783   3.829   0.498   9.032  0.0585  0.3066  0.1533
 7775SOL    HW134784   3.752   0.480   9.086 -0.2129  1.3376  0.1096
 7775SOL    HW234785   3.837   0.592   9.045  1.9724  0.3620 -1.4934
 7776SOL     OW34786   1.917   1.532   6.584  0.0865  0.1453  0.0322
 7776SOL    HW134787   1.910   1.569   6.496  0.2549  2.9910  1.1845
 7776SOL    HW234788   1.875   1.448   6.573  1.9293 -0.5863 -1.4843
 7777SOL     OW34789   0.204   3.791   4.891 -0.3747  0.2219 -0.2629
 7777SOL    HW134790   0.154   3.728   4.839  0.4503  0.3584 -1.2185
 7777SOL    HW234791   0.159   3.875   4.877 -0.9718 -0.2307 -1.0359
 7778SOL     OW34792   4.436   3.900  11.627  0.2048  0.0725  0.2085
 7778SOL    HW134793   4.368   3.920  11.692  0.1018  0.6736 -0.0876
 7778SOL    HW234794   4.450   3.980  11.577  1.8899 -2.2731 -3.0449
 7779SOL     OW34795   1.200   2.897   3.942 -0.4099 -0.5139  0.3767
 7779SOL    HW134796   1.196   2.855   4.029 -1.7868 -1.5224 -0.1693
 7779SOL    HW234797   1.261   2.840   3.895 -1.2462 -1.4240  0.3797
 7780SOL     OW34798   3.676   4.337   4.479 -0.0192 -0.6590 -0.1821
 7780SOL    HW134799   3.742   4.370   4.539  0.5458  1.5078 -1.9947
 7780SOL    HW234800   3.677   4.242   4.493  0.3474 -0.4462  1.2701
 7781SOL     OW34801   0.853   4.482   9.935 -0.1440 -0.3939 -0.7416
 7781SOL    HW134802   0.783   4.540   9.963 -0.0112 -0.4106 -0.3743
 7781SOL    HW234803   0.926   4.517   9.987 -1.2687  0.3682  0.3057
 7782SOL     OW34804   2.301   1.145   6.148  0.1872  0.3303  0.1018
 7782SOL    HW134805   2.225   1.203   6.151 -0.8218 -1.0964  2.4156
 7782SOL    HW234806   2.283   1.109   6.061  0.0944 -3.0044  1.4978
 7783SOL     OW34807   1.827   0.186  14.259 -0.3964  0.3778  0.8762
 7783SOL    HW134808   1.898   0.215  14.316  0.5170  0.3100 -0.2355
 7783SOL    HW234809   1.861   0.229  14.181 -1.1875 -0.8044 -0.1199
 7784SOL     OW34810   3.718   2.125   1.291  0.6046 -1.1199 -0.1466
 7784SOL    HW134811   3.761   2.104   1.374  1.9755  0.0115 -0.5815
 7784SOL    HW234812   3.777   2.187   1.248 -0.0807 -1.9872 -2.3453
 7785SOL     OW34813   3.340   1.632   0.085 -0.6656  0.6879  0.6924
 7785SOL    HW134814   3.415   1.687   0.105  1.3106 -2.1518  1.0862
 7785SOL    HW234815   3.267   1.686   0.116 -0.9847  0.5873  0.1094
 7786SOL     OW34816   0.095   2.606   3.370 -0.0343 -0.1718 -0.0079
 7786SOL    HW134817   0.069   2.559   3.292  1.9356 -2.1091  0.5062
 7786SOL    HW234818   0.103   2.697   3.341  0.8645 -0.2725 -0.0776
 7787SOL     OW34819   4.123   2.653   2.255  0.6359 -0.5643  0.4842
 7787SOL    HW134820   4.207   2.614   2.231  0.0664 -0.5076 -1.5270
 7787SOL    HW234821   4.061   2.581   2.250  0.7789 -0.6408 -0.2022
 7788SOL     OW34822   1.211   2.005   2.688 -0.0321  0.1905  0.2434
 7788SOL    HW134823   1.141   1.941   2.674  0.5810 -0.5847  0.6927
 7788SOL    HW234824   1.276   1.958   2.741  0.3477 -1.0599 -1.3483
 7789SOL     OW34825   3.707   1.490   9.378 -0.8619  0.0501 -0.1448
 7789SOL    HW134826   3.712   1.565   9.319  0.5898 -0.2987 -0.4887
 7789SOL    HW234827   3.798   1.486   9.408 -0.3499  0.1693 -1.6822
 7790SOL     OW34828   3.192   2.324  13.344  0.3555 -0.0809 -0.0787
 7790SOL    HW134829   3.123   2.276  13.389 -0.9429 -0.0678 -2.0255
 7790SOL    HW234830   3.177   2.403  13.396 -1.7637  0.1849 -1.0894
 7791SOL     OW34831   2.890   1.527   6.993  0.1197 -0.3334 -0.4507
 7791SOL    HW134832   2.862   1.534   7.084  2.7775 -2.6524  0.5302
 7791SOL    HW234833   2.890   1.432   6.982 -1.0228 -0.2188 -1.5107
 7792SOL     OW34834   4.387   0.564   4.035  0.3662  0.4051 -0.8458
 7792SOL    HW134835   4.437   0.509   3.975  1.5655  2.0153 -1.3274
 7792SOL    HW234836   4.455   0.612   4.081  0.3019  0.7542 -1.1086
 7793SOL     OW34837   4.486   0.562   2.844 -0.3430  0.2492  0.5993
 7793SOL    HW134838   4.521   0.640   2.887 -0.1780  1.2050 -1.2856
 7793SOL    HW234839   4.544   0.571   2.768 -0.0453  1.1382  0.9358
 7794SOL     OW34840   0.592   4.056   1.790 -0.0663  0.4195 -0.0043
 7794SOL    HW134841   0.610   4.066   1.883  2.7181 -1.6223 -0.3387
 7794SOL    HW234842   0.520   3.993   1.789  1.2105 -1.0294  1.1080
 7795SOL     OW34843   0.417   2.671   4.879 -0.4379 -0.2200 -0.4182
 7795SOL    HW134844   0.502   2.715   4.870 -0.9198  0.5679 -1.1557
 7795SOL    HW234845   0.370   2.709   4.805 -0.7431 -1.6856 -0.9679
 7796SOL     OW34846   0.850   3.261   6.823  0.4870  0.2702  0.0765
 7796SOL    HW134847   0.763   3.231   6.796  0.3232  1.7146 -1.0066
 7796SOL    HW234848   0.834   3.284   6.915  0.7927 -2.3540  0.7741
 7797SOL     OW34849   1.918   1.468  12.228 -0.2949 -0.4503 -0.2112
 7797SOL    HW134850   1.998   1.444  12.181  0.7487  3.1208 -0.2421
 7797SOL    HW234851   1.867   1.387  12.227 -0.9985 -0.0076 -0.2359
 7798SOL     OW34852   1.210   1.236   3.012 -0.0884 -0.1833 -0.7294
 7798SOL    HW134853   1.169   1.151   3.000  0.3477 -0.4455 -0.3887
 7798SOL    HW234854   1.148   1.273   3.075  0.0185 -0.3289 -0.5377
 7799SOL     OW34855   0.674   4.048   8.967  0.1690 -0.1291  0.5668
 7799SOL    HW134856   0.699   4.113   8.902  1.9138  1.2155  2.6107
 7799SOL    HW234857   0.727   3.969   8.954 -1.9745 -1.1594 -1.9678
 7800SOL     OW34858   3.339   3.904   2.822 -0.2681 -0.2895  0.2676
 7800SOL    HW134859   3.412   3.880   2.879  0.1398  0.7788  0.2030
 7800SOL    HW234860   3.351   3.846   2.747  0.5609  0.8789 -0.5087
 7801SOL     OW34861   3.727   3.004   7.873 -1.0106 -0.3022  0.1832
 7801SOL    HW134862   3.756   3.081   7.825 -1.6141 -0.8649 -1.0919
 7801SOL    HW234863   3.782   3.016   7.950 -1.9680 -1.2523  1.0278
 7802SOL     OW34864   3.660   1.300   2.650 -0.0778  0.1308 -0.1182
 7802SOL    HW134865   3.586   1.296   2.589  2.0172 -3.0018 -2.3887
 7802SOL    HW234866   3.621   1.284   2.736  1.1575  1.3690  0.6681
 7803SOL     OW34867   2.718   0.894   4.011  0.0224  0.0735 -0.2327
 7803SOL    HW134868   2.770   0.824   4.049 -0.6055 -1.6689 -2.5950
 7803SOL    HW234869   2.643   0.883   4.069 -1.2271 -2.1717 -2.2758
 7804SOL     OW34870   1.825   1.713   5.758  0.2851 -0.3007  0.0190
 7804SOL    HW134871   1.832   1.706   5.663 -0.8122  1.5144 -0.1895
 7804SOL    HW234872   1.887   1.784   5.770 -0.6752  0.3450  1.2081
 7805SOL     OW34873   2.811   2.363   3.716  0.2541 -0.0449 -0.1592
 7805SOL    HW134874   2.767   2.297   3.662  1.6477 -1.2262  0.1400
 7805SOL    HW234875   2.800   2.325   3.803  0.3453  0.6352  0.1502
 7806SOL     OW34876   2.551   0.301  14.246 -0.4360  0.6622  0.3559
 7806SOL    HW134877   2.564   0.286  14.152  1.7823 -0.1371  0.7938
 7806SOL    HW234878   2.569   0.394  14.247  0.7533  0.3946  3.2789
 7807SOL     OW34879   0.742   3.300   7.076 -0.0252  0.0861 -0.0752
 7807SOL    HW134880   0.776   3.388   7.092  1.2424 -0.3151 -0.6210
 7807SOL    HW234881   0.656   3.301   7.118  0.1126  0.2789  0.2029
 7808SOL     OW34882   3.731   2.462  11.686 -0.1790  0.0183  0.6773
 7808SOL    HW134883   3.639   2.461  11.715 -1.0653  1.3131 -2.0453
 7808SOL    HW234884   3.769   2.524  11.749  4.0534 -1.1514 -0.8093
 7809SOL     OW34885   0.841   2.653   2.403  0.5141  0.0533  0.3497
 7809SOL    HW134886   0.858   2.565   2.369  1.1159  1.2883 -2.5619
 7809SOL    HW234887   0.866   2.699   2.323  1.1144  2.9319  2.1949
 7810SOL     OW34888   3.052   2.329   6.189  0.1279  0.3940  0.3585
 7810SOL    HW134889   3.147   2.328   6.186  0.2395  1.1692  3.1562
 7810SOL    HW234890   3.035   2.307   6.098  0.3384  0.3724  0.3263
 7811SOL     OW34891   1.946   3.461   3.164 -0.0181  0.4032  0.1861
 7811SOL    HW134892   2.019   3.457   3.226  1.5270 -0.7416 -1.6917
 7811SOL    HW234893   1.982   3.522   3.099 -0.9560 -0.8959 -1.5426
 7812SOL     OW34894   2.718   2.675  16.059 -0.3246  0.3983  0.2523
 7812SOL    HW134895   2.806   2.661  16.022 -0.6458 -2.5811  0.6798
 7812SOL    HW234896   2.719   2.753  16.114 -0.2399  0.5094  0.0961
 7813SOL     OW34897   1.714   0.993   3.793 -0.6074 -0.3142 -0.2601
 7813SOL    HW134898   1.793   0.974   3.743  1.2651 -1.9991  3.2907
 7813SOL    HW234899   1.672   1.051   3.730  1.6648  1.3340 -0.2328
 7814SOL     OW34900   2.196   2.965   4.301 -0.1770  0.3653 -0.0176
 7814SOL    HW134901   2.211   3.050   4.261 -0.2955 -0.4389 -1.7769
 7814SOL    HW234902   2.101   2.956   4.310 -0.1999 -0.5275 -1.1666
 7815SOL     OW34903   2.938   4.113   4.793 -0.0368  0.2860  0.2768
 7815SOL    HW134904   3.020   4.075   4.824 -0.3389 -0.1186  0.5875
 7815SOL    HW234905   2.886   4.108   4.873  0.2363 -0.1510  0.4256
 7816SOL     OW34906   2.772   3.466  12.502 -0.7821  0.1316  0.9808
 7816SOL    HW134907   2.688   3.485  12.462  0.2188  0.0242 -1.1939
 7816SOL    HW234908   2.757   3.380  12.542 -0.4009 -1.0630 -1.4113
 7817SOL     OW34909   3.410   3.230   9.030  0.2614  0.0190 -0.5786
 7817SOL    HW134910   3.435   3.250   9.120 -1.8764  0.7290 -0.1477
 7817SOL    HW234911   3.484   3.180   8.995  1.2734  1.1852 -0.0660
 7818SOL     OW34912   4.444   3.895   3.475 -0.1084  0.6367  0.2424
 7818SOL    HW134913   4.453   3.801   3.464 -0.1473  0.8846 -1.7822
 7818SOL    HW234914   4.398   3.906   3.559 -0.0727 -2.1245  0.6144
 7819SOL     OW34915   0.637   1.509  17.115 -0.2292  0.6210 -0.6405
 7819SOL    HW134916   0.692   1.585  17.094 -0.1738  0.1138 -2.3148
 7819SOL    HW234917   0.552   1.550  17.130  0.9227  1.9390  2.2360
 7820SOL     OW34918   2.891   2.089  15.345  0.5235 -0.4870 -0.5218
 7820SOL    HW134919   2.967   2.145  15.328  0.5046 -0.3116 -0.0154
 7820SOL    HW234920   2.843   2.100  15.262  0.1537  2.0495  0.0250
 7821SOL     OW34921   4.069   1.960   6.714 -0.5464 -0.4581  0.0113
 7821SOL    HW134922   4.062   1.982   6.807 -0.7641  0.6210 -0.2602
 7821SOL    HW234923   4.144   2.015   6.691 -0.3949  0.2707  2.2920
 7822SOL     OW34924   2.399   2.836  17.463 -0.9077 -0.7370  0.0886
 7822SOL    HW134925   2.490   2.855  17.438 -1.1538  1.9355  1.1767
 7822SOL    HW234926   2.415   2.821  17.557 -0.2942  0.0785  0.1198
 7823SOL     OW34927   0.807   1.222   0.126  0.1590 -0.4469 -0.1251
 7823SOL    HW134928   0.735   1.202   0.066 -1.3353 -0.2529  1.6125
 7823SOL    HW234929   0.846   1.134   0.124  1.3437  0.0772 -0.1776
 7824SOL     OW34930   0.843   2.444  14.805  0.5655  0.2002  0.0361
 7824SOL    HW134931   0.796   2.367  14.775  0.2473  0.0614  0.8851
 7824SOL    HW234932   0.817   2.519  14.751 -1.1785 -0.2637  0.2383
 7825SOL     OW34933   0.787   4.587  15.464 -0.1780  0.7013  0.2443
 7825SOL    HW134934   0.762   4.554  15.551 -0.6856 -0.8939 -0.5042
 7825SOL    HW234935   0.763   4.679  15.468 -0.4771  0.6410 -0.2381
 7826SOL     OW34936   3.275   2.059  14.670 -0.1601 -0.2759 -0.5682
 7826SOL    HW134937   3.369   2.044  14.677  0.1035  0.9966 -1.2049
 7826SOL    HW234938   3.236   1.973  14.661 -1.2997 -0.0576  2.3109
 7827SOL     OW34939   0.033   3.644  14.577 -0.7116  0.3165  0.5643
 7827SOL    HW134940   4.706   3.716  14.540  1.2163  0.9249 -0.8707
 7827SOL    HW234941   0.120   3.683  14.580 -1.3277  1.8516 -1.8365
 7828SOL     OW34942   1.473   3.031   6.866  0.1004 -0.2404 -0.2307
 7828SOL    HW134943   1.486   3.096   6.934 -0.0604 -0.3426 -0.1007
 7828SOL    HW234944   1.509   3.078   6.791 -1.0412  1.0792  0.0610
 7829SOL     OW34945   1.168   1.411   7.735 -0.2984  0.3708 -0.1481
 7829SOL    HW134946   1.187   1.330   7.689  0.0991  0.1618  0.3864
 7829SOL    HW234947   1.095   1.381   7.788 -0.2609  1.7331  0.6867
 7830SOL     OW34948   0.749   1.763   2.962 -0.3064  0.3739 -0.2341
 7830SOL    HW134949   0.707   1.696   2.908  0.3094 -1.1431  1.1827
 7830SOL    HW234950   0.749   1.722   3.048 -0.7149 -0.1087 -0.4631
 7831SOL     OW34951   1.099   4.262   8.560  1.0052  0.2812 -0.1934
 7831SOL    HW134952   1.114   4.343   8.511  2.0411  0.1875 -0.0140
 7831SOL    HW234953   1.033   4.222   8.502  0.2183 -0.0005  0.8993
 7832SOL     OW34954   2.484   4.598   9.281  0.5127 -0.2253 -0.0628
 7832SOL    HW134955   2.424   4.672   9.275 -1.6431 -2.0265 -0.3127
 7832SOL    HW234956   2.479   4.574   9.189 -1.6715  1.0799 -0.2686
 7833SOL     OW34957   3.632   2.712   8.852 -0.1021 -0.5603 -0.1388
 7833SOL    HW134958   3.597   2.658   8.781  1.0679  1.0925 -1.9737
 7833SOL    HW234959   3.710   2.659   8.866  0.4759 -0.1295 -1.7500
 7834SOL     OW34960   1.017   4.434   6.693  0.8341 -0.3421 -0.9991
 7834SOL    HW134961   1.001   4.479   6.776  0.5969 -0.1441 -1.1570
 7834SOL    HW234962   0.931   4.419   6.656  0.8394 -0.7633 -0.8508
 7835SOL     OW34963   4.317   4.541  12.562  0.5756  0.8033  0.9372
 7835SOL    HW134964   4.280   4.625  12.587 -1.3408 -0.6374  2.8943
 7835SOL    HW234965   4.292   4.483  12.634 -2.7730  1.9763  0.7275
 7836SOL     OW34966   1.176   3.918   4.592 -0.3635  0.3754 -0.0108
 7836SOL    HW134967   1.172   4.013   4.577  0.4029  0.5601  0.9418
 7836SOL    HW234968   1.266   3.914   4.625 -0.4483  1.4683  0.3762
 7837SOL     OW34969   3.549   2.059   9.051  0.2021  0.6021  0.0251
 7837SOL    HW134970   3.460   2.086   9.074 -0.0569  2.3339 -3.0167
 7837SOL    HW234971   3.595   2.140   9.073  0.1539  1.2554 -2.3307
 7838SOL     OW34972   0.365   3.249   7.429  0.0288 -0.2523  0.1106
 7838SOL    HW134973   0.342   3.286   7.344  0.3751  2.0723  1.0149
 7838SOL    HW234974   0.394   3.161   7.407 -1.7243 -0.8940  0.3283
 7839SOL     OW34975   1.429   4.291   1.830  0.0520  0.5088 -0.2717
 7839SOL    HW134976   1.427   4.371   1.777 -1.9330  1.2624  0.9475
 7839SOL    HW234977   1.486   4.326   1.898 -0.1738  0.8135 -0.2342
 7840SOL     OW34978   2.177   0.504   9.389  0.0021 -0.7315 -0.5988
 7840SOL    HW134979   2.092   0.525   9.350 -0.4791 -3.1894 -0.8947
 7840SOL    HW234980   2.233   0.480   9.315  1.7301  0.3328  0.3827
 7841SOL     OW34981   4.643   2.163  12.131 -0.5345 -0.2867 -0.1665
 7841SOL    HW134982   4.672   2.233  12.072  1.6163 -1.9948 -1.1406
 7841SOL    HW234983   0.006   2.128  12.150 -0.0432 -0.4078 -2.6236
 7842SOL     OW34984   2.272   1.615   9.010 -0.0547  0.1541 -0.7674
 7842SOL    HW134985   2.288   1.525   8.980  0.8169 -0.2504  0.8512
 7842SOL    HW234986   2.192   1.595   9.058  1.6320 -1.2770  1.5147
 7843SOL     OW34987   4.121   2.831   8.519  0.4940  0.1852  0.0203
 7843SOL    HW134988   4.174   2.752   8.515  1.0927  0.7339 -2.9823
 7843SOL    HW234989   4.048   2.800   8.572  0.6580  0.4150  0.3817
 7844SOL     OW34990   0.934   0.624   7.838 -0.1436 -0.2637 -0.3020
 7844SOL    HW134991   1.030   0.620   7.842 -0.1628 -0.7199 -0.2395
 7844SOL    HW234992   0.913   0.666   7.922  0.4133  0.4366 -0.5152
 7845SOL     OW34993   3.632   0.873   8.977 -0.2331 -0.0436 -0.0848
 7845SOL    HW134994   3.630   0.931   8.902  0.2284  1.5506  1.1357
 7845SOL    HW234995   3.727   0.866   8.984 -0.1333 -0.6825 -2.2296
 7846SOL     OW34996   2.982   1.473   8.830  0.0765 -0.1272 -0.0793
 7846SOL    HW134997   2.887   1.483   8.830  0.0393 -0.4627  0.2999
 7846SOL    HW234998   2.998   1.384   8.862  0.0538 -0.7270 -1.7335
 7847SOL     OW34999   3.579   3.725   3.811 -0.1558 -0.2891 -0.7250
 7847SOL    HW135000   3.548   3.733   3.720 -0.4059  0.7699 -0.5429
 7847SOL    HW235001   3.544   3.643   3.845 -2.7778  0.4577 -1.5980
 7848SOL     OW35002   3.114   2.898   7.744  0.2149 -0.5290  0.0649
 7848SOL    HW135003   3.033   2.927   7.702 -0.1240  1.6898  2.2868
 7848SOL    HW235004   3.184   2.931   7.688 -0.5185  1.4668  0.3274
 7849SOL     OW35005   1.218   2.041   2.112  0.3410  0.1018 -0.4290
 7849SOL    HW135006   1.215   2.002   2.199 -0.0478  0.1823 -0.4058
 7849SOL    HW235007   1.124   2.042   2.094  0.1693 -2.0668  0.3376
 7850SOL     OW35008   1.557   4.347  13.402 -0.2356  0.3752 -0.2066
 7850SOL    HW135009   1.552   4.435  13.366 -1.8036  0.1027 -0.6645
 7850SOL    HW235010   1.544   4.381  13.490 -0.2178  1.9693 -0.8291
 7851SOL     OW35011   2.137   4.511   4.216 -0.1210 -0.0619 -0.1517
 7851SOL    HW135012   2.057   4.491   4.168 -0.6086 -0.7738  0.9411
 7851SOL    HW235013   2.177   4.424   4.224 -2.6972 -1.5206 -3.3113
 7852SOL     OW35014   4.721   4.606   7.436 -0.3147  0.4486 -0.0606
 7852SOL    HW135015   0.020   4.660   7.511 -2.5989 -1.3661  1.9510
 7852SOL    HW235016   4.626   4.598   7.448 -0.5061 -1.0551 -2.5977
 7853SOL     OW35017   1.974   0.903   8.743  0.1336 -0.5160  0.3066
 7853SOL    HW135018   1.982   0.997   8.727  0.3504 -0.6090 -0.1247
 7853SOL    HW235019   1.880   0.890   8.725  0.5264 -0.7160 -1.5861
 7854SOL     OW35020   2.924   1.791  14.009  0.1736 -0.3364  0.1864
 7854SOL    HW135021   2.847   1.845  14.030  0.2940 -1.1152  2.5311
 7854SOL    HW235022   2.900   1.711  14.055  0.0043 -0.8563 -0.8132
 7855SOL     OW35023   0.693   3.692  11.601 -0.0473 -0.5070  0.1425
 7855SOL    HW135024   0.719   3.781  11.579 -1.5620  0.1500  1.0858
 7855SOL    HW235025   0.731   3.649  11.523  0.1343 -0.1533  0.0353
 7856SOL     OW35026   3.061   0.637  14.281  0.2241  0.6143  0.4538
 7856SOL    HW135027   3.121   0.703  14.316  1.1643 -0.6745  1.2645
 7856SOL    HW235028   2.995   0.621  14.349 -0.8386 -0.1676 -0.7458
 7857SOL     OW35029   3.300   0.006  16.597  0.7623 -0.5204  0.1446
 7857SOL    HW135030   3.287   0.042  16.685 -0.1866  0.0249 -0.2299
 7857SOL    HW235031   3.386   4.689  16.614  0.2511 -1.0130  1.6226
 7858SOL     OW35032   1.020   0.869   9.155  0.9715  0.2226 -0.0243
 7858SOL    HW135033   0.928   0.853   9.178  1.0740  0.5122  0.5837
 7858SOL    HW235034   1.065   0.799   9.201  1.3826  0.7782  0.4262
 7859SOL     OW35035   0.913   1.531   7.196 -0.2995  0.1253  0.3470
 7859SOL    HW135036   0.821   1.557   7.193  0.1000  1.4929 -0.1471
 7859SOL    HW235037   0.934   1.567   7.110  1.7013  1.1263  1.2439
 7860SOL     OW35038   0.461   1.240   0.910  0.6574  0.2038  0.0533
 7860SOL    HW135039   0.416   1.223   0.993  1.3053 -0.9802  0.1711
 7860SOL    HW235040   0.513   1.318   0.927  0.9532  0.2774 -1.1911
 7861SOL     OW35041   3.023   2.180   3.438 -0.1431 -0.0522  0.0490
 7861SOL    HW135042   3.029   2.162   3.532  2.1935  0.3548 -0.0269
 7861SOL    HW235043   2.943   2.132   3.416 -0.0346 -0.7733  1.2266
 7862SOL     OW35044   0.249   1.446   7.895  0.4070 -0.0941  0.1339
 7862SOL    HW135045   0.252   1.428   7.801 -1.1530  0.2205  0.0326
 7862SOL    HW235046   0.343   1.443   7.912  0.4187 -0.6186 -0.0287
 7863SOL     OW35047   0.983   0.968   5.029 -0.0465 -0.1359 -0.1265
 7863SOL    HW135048   0.995   1.046   5.082 -1.1071 -0.1016  0.0653
 7863SOL    HW235049   1.027   0.903   5.084  1.1213  0.6654 -0.1432
 7864SOL     OW35050   3.138   2.801   1.487 -0.0417 -0.1982 -0.1419
 7864SOL    HW135051   3.080   2.872   1.461 -1.2424 -1.2938 -0.4558
 7864SOL    HW235052   3.082   2.731   1.454  0.1857 -0.6685  0.4575
 7865SOL     OW35053   2.653   1.553   8.320 -0.0980  0.3674 -0.8799
 7865SOL    HW135054   2.629   1.608   8.394 -2.4192 -0.7228 -0.8317
 7865SOL    HW235055   2.749   1.556   8.312  0.3151 -3.8992  2.3737
 7866SOL     OW35056   1.741   4.452   3.014 -0.3800 -0.3723 -0.0891
 7866SOL    HW135057   1.682   4.460   3.088  0.4375  1.2637  0.3729
 7866SOL    HW235058   1.821   4.424   3.058 -1.2415  2.0711  2.9415
 7867SOL     OW35059   1.387   3.640  13.449  0.2709  0.5681  0.6409
 7867SOL    HW135060   1.369   3.734  13.449  0.5336  0.6180  0.5771
 7867SOL    HW235061   1.400   3.625  13.356  1.4270  0.5725  0.8045
 7868SOL     OW35062   0.892   3.167  14.388 -0.6715  0.0324  0.3575
 7868SOL    HW135063   0.830   3.194  14.456  0.5078  3.0260  0.2586
 7868SOL    HW235064   0.833   3.169  14.313  2.7294  2.5536 -2.2241
 7869SOL     OW35065   4.245   3.605   3.073 -0.2777 -0.4027 -0.4097
 7869SOL    HW135066   4.258   3.670   3.142 -2.4980 -1.7125  1.2377
 7869SOL    HW235067   4.152   3.619   3.057 -0.4078 -0.1984  0.5047
 7870SOL     OW35068   0.268   0.780   2.170 -0.3194  0.4862 -0.2825
 7870SOL    HW135069   0.342   0.841   2.172 -0.3175  0.5010 -0.8834
 7870SOL    HW235070   0.317   0.699   2.182 -3.9729 -1.5039  1.1347
 7871SOL     OW35071   3.035   1.136  16.942 -0.2637  0.0537  0.4736
 7871SOL    HW135072   3.043   1.141  17.037  1.4612  0.2460  0.3169
 7871SOL    HW235073   2.954   1.183  16.922  1.6437  4.1451  2.2692
 7872SOL     OW35074   4.099   2.372  12.279 -0.2353  0.0816 -0.0350
 7872SOL    HW135075   4.028   2.314  12.306 -0.6757  1.0048  0.8131
 7872SOL    HW235076   4.079   2.368  12.186 -0.5117 -0.4437  0.0509
 7873SOL     OW35077   2.002   1.926   2.115 -0.2619 -0.3153 -0.0233
 7873SOL    HW135078   2.085   1.939   2.160 -0.2187  1.9502 -0.7674
 7873SOL    HW235079   2.004   2.012   2.074  2.4776  0.2566  1.2916
 7874SOL     OW35080   1.298   1.539   8.904 -0.2920  0.7141  0.0348
 7874SOL    HW135081   1.317   1.593   8.827  0.5106  3.6134  2.3036
 7874SOL    HW235082   1.371   1.565   8.960 -1.4349  4.2810 -0.1507
 7875SOL     OW35083   0.649   0.934   2.861  0.1459 -0.1949  0.0801
 7875SOL    HW135084   0.674   0.856   2.910  0.9769 -0.7335 -1.2128
 7875SOL    HW235085   0.725   0.990   2.878 -0.0865  0.7469 -1.9930
 7876SOL     OW35086   2.197   0.408   2.490 -0.0254 -0.7088 -0.2124
 7876SOL    HW135087   2.202   0.498   2.458  1.2757 -0.6735  0.0782
 7876SOL    HW235088   2.286   0.387   2.462  0.8677  2.9324 -0.1974
 7877SOL     OW35089   4.264   0.927  15.938 -0.1694  0.0877 -0.2959
 7877SOL    HW135090   4.256   0.980  15.858 -0.6490 -0.9892 -0.9565
 7877SOL    HW235091   4.312   0.984  15.998  2.5689 -0.7687 -1.6631
 7878SOL     OW35092   4.313   2.044  17.169 -0.0767  0.4857  0.0532
 7878SOL    HW135093   4.220   2.062  17.185  0.9200  3.6561  2.1787
 7878SOL    HW235094   4.317   2.039  17.073  1.1252  2.5227  0.0057
 7879SOL     OW35095   2.801   4.212   7.368 -0.4492  0.3201 -0.3000
 7879SOL    HW135096   2.747   4.135   7.385  0.1193  0.3977  1.8565
 7879SOL    HW235097   2.756   4.248   7.292  1.1968 -0.9804 -1.8904
 7880SOL     OW35098   3.555   0.581   8.730  0.3749 -0.3025  0.1525
 7880SOL    HW135099   3.615   0.647   8.697  1.3624 -1.9836 -1.3670
 7880SOL    HW235100   3.553   0.516   8.660 -1.6319 -0.9179  0.7705
 7881SOL     OW35101   3.659   3.780   4.912 -0.2810  0.2764  0.4879
 7881SOL    HW135102   3.576   3.805   4.953 -1.1776  0.3057 -1.3121
 7881SOL    HW235103   3.688   3.868   4.890  0.9073  0.0249  1.0429
 7882SOL     OW35104   1.975   0.876   6.836 -0.0140 -0.1655 -0.0721
 7882SOL    HW135105   1.954   0.790   6.874 -1.5103  0.8296  1.3861
 7882SOL    HW235106   2.069   0.885   6.845 -0.1727  0.7314  0.7361
 7883SOL     OW35107   3.422   3.854   5.016 -0.0079 -0.2269  0.5270
 7883SOL    HW135108   3.407   3.816   5.102  0.4949  0.0370  0.7322
 7883SOL    HW235109   3.381   3.785   4.964  2.0973 -0.2925 -1.0596
 7884SOL     OW35110   2.619   0.631   1.092  0.0685  0.1394 -0.6288
 7884SOL    HW135111   2.710   0.600   1.088 -0.7028 -2.3025  0.7335
 7884SOL    HW235112   2.583   0.585   1.017  0.6345 -1.9317  0.3660
 7885SOL     OW35113   2.477   4.375   5.451  0.4110  0.3852  0.0876
 7885SOL    HW135114   2.465   4.336   5.537  1.8577 -0.7979 -0.2383
 7885SOL    HW235115   2.562   4.417   5.467  1.2519 -0.4307 -2.2391
 7886SOL     OW35116   0.625   2.700   7.111  0.0301 -0.4883  0.9107
 7886SOL    HW135117   0.577   2.675   7.190 -1.4661  1.9184  0.7419
 7886SOL    HW235118   0.657   2.787   7.132 -0.6659 -0.3220  1.2693
 7887SOL     OW35119   1.457   1.456  12.088 -0.0074 -0.3096  0.5832
 7887SOL    HW135120   1.430   1.539  12.048  1.5252  0.4783  1.1621
 7887SOL    HW235121   1.505   1.411  12.018  0.5783 -1.6534  1.8397
 7888SOL     OW35122   4.464   0.881   5.191  0.2697 -0.1343 -0.0525
 7888SOL    HW135123   4.375   0.915   5.187  0.6638  0.7838 -1.0613
 7888SOL    HW235124   4.486   0.882   5.098 -0.7847 -2.2445 -0.3232
 7889SOL     OW35125   3.951   0.918  16.891  0.6655  0.1443  0.1867
 7889SOL    HW135126   3.870   0.967  16.881  0.3116 -0.4322  0.2929
 7889SOL    HW235127   4.012   0.978  16.936 -1.2389  2.8983 -0.9190
 7890SOL     OW35128   1.626   1.803  15.778  0.0335 -0.0703 -0.1946
 7890SOL    HW135129   1.637   1.723  15.829 -2.7791  0.3961  1.1358
 7890SOL    HW235130   1.534   1.814  15.753 -0.3010 -1.2233  0.5696
 7891SOL     OW35131   4.363   2.374   5.832 -0.0482  0.9239 -0.2322
 7891SOL    HW135132   4.290   2.370   5.894  0.0665 -0.8279 -0.2343
 7891SOL    HW235133   4.389   2.466   5.836  0.8111  0.6161  1.1701
 7892SOL     OW35134   0.232   1.083   7.163 -0.8178 -0.1477  0.3937
 7892SOL    HW135135   0.215   1.169   7.201 -0.6327 -0.6649  1.6443
 7892SOL    HW235136   0.187   1.088   7.079 -0.8791  2.0687  0.5571
 7893SOL     OW35137   0.992   0.423   3.336 -0.5441  0.1243 -0.0082
 7893SOL    HW135138   1.029   0.385   3.416  0.5982  0.3003 -0.4467
 7893SOL    HW235139   0.990   0.518   3.351  0.4130  0.3308 -1.1884
 7894SOL     OW35140   1.045   0.203  17.357  0.3096 -0.0306 -0.0483
 7894SOL    HW135141   1.120   0.180  17.412  1.1278  1.0092 -0.7104
 7894SOL    HW235142   0.998   0.270  17.407 -0.8865 -0.3417 -0.7631
 7895SOL     OW35143   0.353   0.968   3.421  1.0418  0.2030  0.1078
 7895SOL    HW135144   0.438   0.927   3.401  0.4998  0.3195 -2.4798
 7895SOL    HW235145   0.389   1.056   3.438  1.4071  0.4876 -2.1351
 7896SOL     OW35146   4.080   4.081  11.476  0.0400  0.1077 -0.4931
 7896SOL    HW135147   4.154   4.112  11.425  0.7369 -1.0846 -0.2179
 7896SOL    HW235148   4.007   4.116  11.425  0.7047  1.8295 -0.2595
 7897SOL     OW35149   0.729   0.537   8.756 -0.4860 -0.5071 -0.8865
 7897SOL    HW135150   0.739   0.620   8.709 -0.3133  0.0264  0.1048
 7897SOL    HW235151   0.820   0.507   8.761 -0.4243 -0.2361 -0.4055
 7898SOL     OW35152   4.448   4.533   9.486 -0.1448  0.4110 -0.0358
 7898SOL    HW135153   4.353   4.540   9.499 -0.4338  0.4739 -2.0834
 7898SOL    HW235154   4.465   4.527   9.392 -0.1590  0.8181 -0.0629
 7899SOL     OW35155   0.763   4.556   4.175 -0.4070  0.5064  0.9254
 7899SOL    HW135156   0.756   4.497   4.100  2.7534  0.9940  0.2703
 7899SOL    HW235157   0.681   4.606   4.178 -2.0613 -1.9122 -3.6054
 7900SOL     OW35158   2.244   1.959   4.532  0.0519 -0.2048 -0.1415
 7900SOL    HW135159   2.313   1.974   4.597  0.0057 -0.7450  0.0331
 7900SOL    HW235160   2.250   1.865   4.518 -0.5420 -0.2750  0.0969
 7901SOL     OW35161   4.277   1.407  10.195  0.4764 -0.3992  0.5351
 7901SOL    HW135162   4.296   1.492  10.234  3.3853 -1.3719  1.2403
 7901SOL    HW235163   4.290   1.427  10.102 -4.3978 -0.1836 -0.1137
 7902SOL     OW35164   0.510   0.652   7.961 -0.0375 -0.3347  0.0192
 7902SOL    HW135165   0.545   0.671   8.048  2.6933 -0.2017 -1.0948
 7902SOL    HW235166   0.430   0.702   7.973 -0.5708 -1.3782  0.7024
 7903SOL     OW35167   4.074   4.295   2.731  0.1164  0.4997 -0.5106
 7903SOL    HW135168   4.093   4.320   2.822  2.2005  0.2815 -0.8926
 7903SOL    HW235169   4.143   4.351   2.695 -1.4165  2.3947 -0.5325
 7904SOL     OW35170   2.811   0.682  17.580 -0.2143 -0.8241 -0.0312
 7904SOL    HW135171   2.807   0.668  17.675  2.3076  0.0940  0.2062
 7904SOL    HW235172   2.903   0.670  17.560 -0.3296  0.5730 -1.3822
 7905SOL     OW35173   2.871   1.285   4.775 -0.0972  0.2315  0.3289
 7905SOL    HW135174   2.833   1.373   4.764 -0.5586  0.0579  0.5259
 7905SOL    HW235175   2.960   1.306   4.748  0.2014 -0.6111  0.6697
 7906SOL     OW35176   2.559   3.125   1.813  0.8792 -0.3414 -0.1007
 7906SOL    HW135177   2.576   3.122   1.907  0.0726 -0.3454  0.0440
 7906SOL    HW235178   2.522   3.213   1.804 -1.7921 -1.5158 -0.8867
 7907SOL     OW35179   1.514   2.119  10.263  0.4689 -0.2334 -0.1061
 7907SOL    HW135180   1.476   2.053  10.205 -2.2148  1.6186 -0.4476
 7907SOL    HW235181   1.446   2.187  10.261  0.8860  0.1322 -1.8598
 7908SOL     OW35182   2.664   2.111   1.697 -0.0952 -0.1351  0.0611
 7908SOL    HW135183   2.619   2.027   1.710  0.5316 -0.6955 -1.4258
 7908SOL    HW235184   2.745   2.082   1.739 -0.9585 -2.4424  0.1128
 7909SOL     OW35185   0.861   4.603   6.174 -0.4747  0.1017 -0.7494
 7909SOL    HW135186   0.923   4.530   6.167 -0.3027  0.2813 -1.0845
 7909SOL    HW235187   0.797   4.568   6.236  0.5841 -1.9450 -0.8105
 7910SOL     OW35188   0.041   2.266  11.520 -0.1052 -0.4084 -0.8100
 7910SOL    HW135189   0.007   2.356  11.511 -2.3306 -1.3730 -2.0888
 7910SOL    HW235190   4.689   2.209  11.510  0.0338 -0.7114 -0.0832
 7911SOL     OW35191   0.519   2.727  13.385  0.1053 -0.0280 -0.2436
 7911SOL    HW135192   0.597   2.769  13.349  0.8102 -0.5406  0.7201
 7911SOL    HW235193   0.501   2.660  13.319 -1.5530  0.3736 -0.2173
 7912SOL     OW35194   1.896   0.267   5.663 -0.7859 -0.7265  0.4667
 7912SOL    HW135195   1.820   0.209   5.655 -0.8392 -0.4609 -0.9584
 7912SOL    HW235196   1.850   0.349   5.679 -0.2847 -0.4828  0.6719
 7913SOL     OW35197   4.016   0.360   2.713  0.3281 -0.0449  0.2026
 7913SOL    HW135198   3.994   0.316   2.794 -1.4975  1.1595  0.3678
 7913SOL    HW235199   4.091   0.310   2.681  1.0649  1.8156 -0.9948
 7914SOL     OW35200   0.466   1.108   1.843  0.1645  0.2659  0.6146
 7914SOL    HW135201   0.432   1.019   1.838  1.2486 -0.0314 -1.8582
 7914SOL    HW235202   0.424   1.148   1.919 -0.2145 -0.5425  0.8316
 7915SOL     OW35203   1.050   2.174  13.517 -0.4203  0.2723  0.3193
 7915SOL    HW135204   0.991   2.102  13.494  0.3696 -0.8280  1.7162
 7915SOL    HW235205   1.091   2.149  13.600  0.6978 -3.2668 -1.2684
 7916SOL     OW35206   3.021   3.973   3.236 -0.8997  0.2499  0.2597
 7916SOL    HW135207   3.072   3.948   3.313  0.7975 -0.0240 -0.9510
 7916SOL    HW235208   3.065   3.929   3.163 -0.2548 -1.3864  1.6286
 7917SOL     OW35209   0.765   0.009  16.267  0.1822 -0.4318 -0.1560
 7917SOL    HW135210   0.794   0.020  16.176  0.2138 -2.8929 -0.4344
 7917SOL    HW235211   0.674   0.040  16.264  0.0473 -0.8592 -0.4236
 7918SOL     OW35212   4.621   0.112   4.190 -0.4987  0.1704  0.0590
 7918SOL    HW135213   4.690   0.070   4.240 -1.6851 -0.4845  1.1429
 7918SOL    HW235214   4.616   0.036   4.131 -1.2747 -0.7521  1.2994
 7919SOL     OW35215   4.239   1.482   3.093 -0.1504  0.1777  0.0309
 7919SOL    HW135216   4.173   1.426   3.053  1.3116 -2.8012  1.8175
 7919SOL    HW235217   4.313   1.480   3.033  1.6901  0.0229  2.3305
 7920SOL     OW35218   0.140   1.545   2.918  0.1024  0.0158  0.2298
 7920SOL    HW135219   0.105   1.508   2.838  0.2567 -0.2241  0.2735
 7920SOL    HW235220   0.070   1.530   2.981 -0.8463 -0.1513 -0.8775
 7921SOL     OW35221   4.368   2.779  11.283 -0.2971 -0.1416 -0.0527
 7921SOL    HW135222   4.444   2.836  11.298 -0.5109  0.4972 -1.3467
 7921SOL    HW235223   4.418   2.704  11.250 -1.3241 -0.6344 -0.4795
 7922SOL     OW35224   3.098   2.801  13.364  0.0323  0.1749 -0.1152
 7922SOL    HW135225   3.035   2.836  13.426 -0.3547  0.5475 -0.7161
 7922SOL    HW235226   3.125   2.730  13.421  0.3643  1.2055  1.0209
 7923SOL     OW35227   1.259   4.160   5.888  0.5315 -0.0854  0.0546
 7923SOL    HW135228   1.169   4.149   5.918  1.2590 -0.2411  2.1508
 7923SOL    HW235229   1.238   4.193   5.800 -0.6305 -0.7837  0.0664
 7924SOL     OW35230   0.598   0.552   7.469 -0.1780  0.3036  0.2920
 7924SOL    HW135231   0.616   0.541   7.563  3.1994 -0.0859 -0.4397
 7924SOL    HW235232   0.612   0.645   7.451  0.4617 -0.4030 -2.6755
 7925SOL     OW35233   4.677   2.329  16.522 -0.0282 -0.5151  1.0749
 7925SOL    HW135234   4.687   2.266  16.451  1.4141  1.2724 -0.3071
 7925SOL    HW235235   4.613   2.387  16.481 -0.5499 -2.6007 -1.1030
 7926SOL     OW35236   1.231   0.745   6.695  0.5976  0.1808  0.3368
 7926SOL    HW135237   1.309   0.778   6.740  0.9672 -2.0714  1.3434
 7926SOL    HW235238   1.172   0.722   6.767 -1.1305  2.8597 -0.2694
 7927SOL     OW35239   2.691   3.882   3.470 -0.0162 -0.4057 -0.5207
 7927SOL    HW135240   2.684   3.903   3.377  0.8591  0.1006 -0.4703
 7927SOL    HW235241   2.699   3.786   3.471 -3.2121 -0.6397  1.8015
 7928SOL     OW35242   3.713   0.225   5.831 -0.3684  0.1723  0.0551
 7928SOL    HW135243   3.666   0.154   5.787 -3.0345  1.1674  1.2668
 7928SOL    HW235244   3.654   0.295   5.802 -0.0317  0.2919 -0.3280
 7929SOL     OW35245   0.675   0.708  12.119  0.6632  0.2117 -0.4848
 7929SOL    HW135246   0.703   0.758  12.043 -3.5251  2.1331 -0.7347
 7929SOL    HW235247   0.612   0.765  12.162  0.6790 -0.8755  1.0055
 7930SOL     OW35248   0.659   2.879   4.537  0.0619 -0.1400  0.2547
 7930SOL    HW135249   0.634   2.890   4.446  0.6098 -1.4994 -0.0479
 7930SOL    HW235250   0.692   2.789   4.530 -2.0776 -0.9255  0.2699
 7931SOL     OW35251   2.806   3.221  10.590  0.2953 -0.0442 -0.5194
 7931SOL    HW135252   2.767   3.285  10.650 -0.9847 -1.1124 -0.2073
 7931SOL    HW235253   2.816   3.278  10.514  0.6409  0.3851 -0.1529
 7932SOL     OW35254   3.776   2.047   7.132  0.4995 -0.4413  0.2432
 7932SOL    HW135255   3.861   2.055   7.088  0.8616 -1.2657  0.7952
 7932SOL    HW235256   3.773   2.124   7.190  2.1966 -0.4829  0.3827
 7933SOL     OW35257   0.231   1.898   8.651  0.2585  0.0811  0.6628
 7933SOL    HW135258   0.198   1.824   8.599  1.1788 -0.2757  0.5857
 7933SOL    HW235259   0.301   1.856   8.700 -0.1537 -1.0989  0.2345
 7934SOL     OW35260   3.417   0.020  16.847  0.2890  0.3153 -0.1647
 7934SOL    HW135261   3.458   0.058  16.925 -1.5224 -2.1326  1.9899
 7934SOL    HW235262   3.412   4.651  16.872  1.8327  0.1407 -0.4552
 7935SOL     OW35263   2.482   1.079   3.720 -0.3615 -0.8816 -0.2841
 7935SOL    HW135264   2.521   1.155   3.765  0.0783 -0.0624 -2.0561
 7935SOL    HW235265   2.400   1.121   3.695  0.7712  0.0130 -2.4507
 7936SOL     OW35266   3.527   3.276  16.438 -0.6884 -0.3289  0.3006
 7936SOL    HW135267   3.511   3.237  16.352  2.4451 -2.0338  0.4807
 7936SOL    HW235268   3.488   3.362  16.422 -0.9172 -0.9919 -2.7990
 7937SOL     OW35269   1.190   2.781   6.493  0.5636 -0.0948 -0.3300
 7937SOL    HW135270   1.261   2.836   6.527 -0.9679  1.7550 -0.0993
 7937SOL    HW235271   1.134   2.770   6.570  0.8354  0.8652  0.0128
 7938SOL     OW35272   1.520   3.506   9.936 -0.4365  0.2204  0.0846
 7938SOL    HW135273   1.448   3.483   9.994  0.1196 -0.0392  0.6636
 7938SOL    HW235274   1.479   3.571   9.878  0.3819 -0.7186 -1.5600
 7939SOL     OW35275   0.654   2.647  14.195  0.6431 -0.4120  0.4642
 7939SOL    HW135276   0.632   2.571  14.140  0.0752  0.6045 -0.7096
 7939SOL    HW235277   0.565   2.680  14.209  0.9126  0.3625  0.3309
 7940SOL     OW35278   2.914   3.860  10.863 -0.0853  0.0637 -0.6707
 7940SOL    HW135279   3.006   3.840  10.874  0.5145  2.9498 -0.4587
 7940SOL    HW235280   2.905   3.826  10.774  4.8958  1.8557 -1.8324
 7941SOL     OW35281   2.103   3.801   1.430  0.0433 -0.1500  0.3273
 7941SOL    HW135282   2.097   3.707   1.412 -0.6483 -0.0700  0.1343
 7941SOL    HW235283   2.143   3.802   1.517 -2.7339 -2.0719  1.6219
 7942SOL     OW35284   4.520   2.524  11.234 -0.0978 -0.4631  0.0511
 7942SOL    HW135285   4.474   2.477  11.164 -0.5098 -0.8916  0.6129
 7942SOL    HW235286   4.602   2.476  11.225  0.1475 -0.5675  3.0117
 7943SOL     OW35287   1.774   2.193   3.491  0.3518 -0.4822  0.3991
 7943SOL    HW135288   1.735   2.222   3.574  1.1976  1.3428  0.1656
 7943SOL    HW235289   1.762   2.274   3.442 -1.0945  0.5132  2.4136
 7944SOL     OW35290   1.295   4.533  13.219  0.1505 -0.2111 -0.1109
 7944SOL    HW135291   1.364   4.571  13.275 -0.1183 -0.1529  0.1792
 7944SOL    HW235292   1.240   4.484  13.280  0.6653 -1.7140 -0.8561
 7945SOL     OW35293   1.820   3.464   0.399  0.2511  1.0948  0.2003
 7945SOL    HW135294   1.746   3.523   0.386  0.0111  1.1303  1.7391
 7945SOL    HW235295   1.885   3.527   0.367  0.5372 -0.1814 -1.7300
 7946SOL     OW35296   2.577   3.300  12.772  0.2366  0.2523  0.7119
 7946SOL    HW135297   2.661   3.254  12.785  0.7400  1.0184  0.1715
 7946SOL    HW235298   2.585   3.357  12.848 -1.7049  1.8808 -0.3041
 7947SOL     OW35299   4.040   1.261   0.665  0.1583  0.2202 -0.1967
 7947SOL    HW135300   4.107   1.259   0.733 -0.9953  3.1675  1.0235
 7947SOL    HW235301   3.958   1.276   0.711  0.4660 -2.0019  1.0728
 7948SOL     OW35302   4.473   4.593   4.779  0.6633  0.3587 -0.5626
 7948SOL    HW135303   4.545   4.530   4.768  0.8400  0.9442 -2.8992
 7948SOL    HW235304   4.505   4.651   4.848 -1.0762 -0.6358  1.0704
 7949SOL     OW35305   0.880   3.969   3.797 -0.5113  0.5329 -0.2811
 7949SOL    HW135306   0.941   3.957   3.870 -1.7211  0.2642  0.6876
 7949SOL    HW235307   0.921   3.906   3.739 -2.5385  0.9705 -2.2056
 7950SOL     OW35308   0.810   0.308   6.448 -0.4595  0.3732  0.3133
 7950SOL    HW135309   0.772   0.328   6.362 -0.5647 -0.0601  0.2584
 7950SOL    HW235310   0.823   0.214   6.433 -1.2980 -0.0004  2.0142
 7951SOL     OW35311   1.251   4.159   2.032  0.1584  0.4991 -0.1278
 7951SOL    HW135312   1.301   4.213   1.971  0.5276  0.6283  0.2897
 7951SOL    HW235313   1.318   4.095   2.056 -0.5451 -0.4954 -0.8289
 7952SOL     OW35314   1.930   2.959   4.293 -0.0831  0.2862  0.1532
 7952SOL    HW135315   1.905   2.880   4.341  1.6900 -0.3219  0.1028
 7952SOL    HW235316   1.881   2.944   4.213  0.2289  1.9968 -0.3453
 7953SOL     OW35317   1.754   2.882   0.308  0.0456  0.0696 -0.2836
 7953SOL    HW135318   1.735   2.949   0.374 -0.0488  1.0900 -1.3690
 7953SOL    HW235319   1.670   2.837   0.308  0.6494 -1.0549 -1.7054
 7954SOL     OW35320   1.733   3.124   8.929  0.0347  0.0828 -0.1021
 7954SOL    HW135321   1.683   3.114   9.010 -1.5718  4.3207 -0.5753
 7954SOL    HW235322   1.822   3.146   8.955 -0.4594  0.4185  1.3166
 7955SOL     OW35323   0.934   3.053   4.603 -0.1514  0.1869  0.3596
 7955SOL    HW135324   0.904   2.963   4.590 -0.4303  0.5508 -1.4006
 7955SOL    HW235325   1.013   3.040   4.657  1.4364 -0.4719 -2.1167
 7956SOL     OW35326   0.523   1.263  16.152 -0.3506 -0.2033 -0.4189
 7956SOL    HW135327   0.548   1.322  16.081 -2.6209  0.6802 -0.4591
 7956SOL    HW235328   0.594   1.274  16.215 -1.1242 -1.6794  0.7013
 7957SOL     OW35329   4.518   3.339   4.635 -0.5164  0.0481 -0.2030
 7957SOL    HW135330   4.597   3.336   4.689  0.2041  3.4002 -1.0694
 7957SOL    HW235331   4.450   3.305   4.692 -0.1797 -1.0751 -0.4660
 7958SOL     OW35332   2.256   4.364  10.400  0.2926  0.2941  0.1139
 7958SOL    HW135333   2.177   4.332  10.442 -0.2428  0.2018 -0.9667
 7958SOL    HW235334   2.257   4.455  10.429  0.0100  0.8003 -1.4883
 7959SOL     OW35335   3.903   3.150   6.317 -0.1313  0.2211  0.5628
 7959SOL    HW135336   3.817   3.187   6.337  0.1216  2.5171 -2.7129
 7959SOL    HW235337   3.957   3.207   6.372 -0.3440  0.1986  0.7960
 7960SOL     OW35338   0.967   2.665   3.921  0.2061 -0.4319  0.3020
 7960SOL    HW135339   1.032   2.734   3.908  1.3121 -1.0902  2.4880
 7960SOL    HW235340   0.883   2.703   3.893  0.4455 -1.0070 -1.1808
 7961SOL     OW35341   2.128   2.820   5.167 -0.0682 -0.5719  0.0042
 7961SOL    HW135342   2.174   2.870   5.100  1.3082 -1.1861  0.5039
 7961SOL    HW235343   2.051   2.876   5.178  0.4115 -0.3524  2.2634
 7962SOL     OW35344   2.720   1.101  10.790  0.2812 -0.1029  0.6029
 7962SOL    HW135345   2.711   1.006  10.791 -1.8090  0.0830 -0.1936
 7962SOL    HW235346   2.699   1.118  10.882 -0.1300 -1.1472  0.6988
 7963SOL     OW35347   3.533   2.006   4.309 -0.1000  0.4479 -0.9354
 7963SOL    HW135348   3.627   2.004   4.330 -0.6178  2.5587  1.5024
 7963SOL    HW235349   3.530   2.088   4.261  2.2049  1.0112 -0.1395
 7964SOL     OW35350   3.039   2.306  14.746 -0.0558 -0.2762 -0.2197
 7964SOL    HW135351   2.984   2.381  14.723  1.1778  1.0942  1.3334
 7964SOL    HW235352   2.976   2.234  14.740 -0.3879 -0.2005  2.2707
 7965SOL     OW35353   1.758   2.979  11.389 -0.1573  0.0984 -0.1243
 7965SOL    HW135354   1.787   3.004  11.301  0.2665 -1.1032 -0.3302
 7965SOL    HW235355   1.836   2.932  11.419 -1.8044 -2.8900 -0.4895
 7966SOL     OW35356   0.340   0.431   2.773  0.3996  0.2188 -0.8726
 7966SOL    HW135357   0.418   0.377   2.759  0.1017 -0.2844 -0.6289
 7966SOL    HW235358   0.275   0.377   2.728 -0.8435  3.0967 -2.4559
 7967SOL     OW35359   2.318   2.002  14.166 -0.0659 -0.3805  0.3949
 7967SOL    HW135360   2.353   2.083  14.203 -2.2218  1.0288 -0.6484
 7967SOL    HW235361   2.361   1.946  14.231  2.3806  0.5921 -0.3838
 7968SOL     OW35362   1.734   0.943   7.174  0.4311  0.1379  0.6812
 7968SOL    HW135363   1.773   0.913   7.256  1.3484  0.9847  0.5536
 7968SOL    HW235364   1.670   0.877   7.148  1.7490 -0.5536 -0.8734
 7969SOL     OW35365   1.721   0.829   8.686  0.5780 -0.1627  0.2972
 7969SOL    HW135366   1.698   0.759   8.747  0.9302 -0.3167  0.2568
 7969SOL    HW235367   1.670   0.900   8.723  1.9650 -0.3698  2.5740
 7970SOL     OW35368   1.206   4.468   7.287 -0.0070 -0.3383  0.2139
 7970SOL    HW135369   1.160   4.544   7.250  1.7783 -0.2785 -1.8873
 7970SOL    HW235370   1.252   4.505   7.362 -2.2858  1.3836  0.7713
 7971SOL     OW35371   4.248   3.465   8.164  0.1294 -0.2068  0.4835
 7971SOL    HW135372   4.320   3.425   8.213  0.2852  0.1841  0.5746
 7971SOL    HW235373   4.208   3.515   8.234  0.0212 -0.4782  0.6167
 7972SOL     OW35374   4.151   4.335   1.725  0.1755 -0.4123 -0.1945
 7972SOL    HW135375   4.237   4.347   1.683 -1.0158 -0.0180 -2.4817
 7972SOL    HW235376   4.182   4.340   1.815 -1.0193 -0.8393  0.2362
 7973SOL     OW35377   0.177   2.789   9.783  0.0632  0.7909 -0.2815
 7973SOL    HW135378   0.257   2.752   9.747 -0.2949  0.3502 -0.6339
 7973SOL    HW235379   0.119   2.717   9.756  0.1609  0.4430  0.4345
 7974SOL     OW35380   3.641   1.943   1.101  0.2779  0.7081 -0.0848
 7974SOL    HW135381   3.644   2.027   1.145 -1.5774  0.1730  1.0586
 7974SOL    HW235382   3.713   1.954   1.039 -0.7668  1.1558 -1.2100
 7975SOL     OW35383   1.341   2.985  11.871 -0.1222 -0.3694 -0.2364
 7975SOL    HW135384   1.369   2.913  11.928 -2.6607 -0.9518  0.2640
 7975SOL    HW235385   1.259   3.002  11.917 -0.7512  0.1037 -1.5140
 7976SOL     OW35386   3.296   1.045   2.635  0.0324  0.3069  0.4985
 7976SOL    HW135387   3.255   1.106   2.696 -0.1038  1.6382 -0.9415
 7976SOL    HW235388   3.226   0.980   2.637  0.0587  0.2432 -1.6463
 7977SOL     OW35389   0.876   0.540  16.827 -0.0409  0.0969 -0.0509
 7977SOL    HW135390   0.791   0.562  16.791 -1.4745 -0.0293  3.2452
 7977SOL    HW235391   0.869   0.449  16.855 -2.2258 -0.0749 -1.1732
 7978SOL     OW35392   4.578   3.916  13.675  0.0365 -0.3709 -0.4745
 7978SOL    HW135393   4.576   3.982  13.605 -0.7518 -1.6418 -1.6554
 7978SOL    HW235394   4.630   3.960  13.742  1.3220 -1.7056 -0.5993
 7979SOL     OW35395   1.400   1.413   3.352 -0.6221 -0.1573  0.4985
 7979SOL    HW135396   1.309   1.414   3.323 -0.3896 -0.0028 -0.2227
 7979SOL    HW235397   1.399   1.320   3.376 -3.3320 -0.6725 -1.6004
 7980SOL     OW35398   2.209   1.154   8.135 -0.2157  0.8446  1.0116
 7980SOL    HW135399   2.197   1.171   8.228  2.2547  2.7323  1.0017
 7980SOL    HW235400   2.209   1.059   8.131 -0.3744  0.8204  1.5448
 7981SOL     OW35401   3.138   1.076   8.508 -0.5414 -0.0109 -0.0721
 7981SOL    HW135402   3.143   0.985   8.480  0.6284 -0.2168  0.8191
 7981SOL    HW235403   3.192   1.071   8.587  1.0965  1.1101 -1.1113
 7982SOL     OW35404   2.645   1.213  13.923 -0.4576  0.2427  0.3327
 7982SOL    HW135405   2.568   1.205  13.866  0.7932  3.0585 -1.7547
 7982SOL    HW235406   2.606   1.205  14.010  1.2681 -0.1254  1.0841
 7983SOL     OW35407   3.291   2.346   1.528 -0.1608  0.2617  0.1915
 7983SOL    HW135408   3.383   2.327   1.509 -0.8887 -2.7932 -0.1404
 7983SOL    HW235409   3.288   2.434   1.490 -2.6317  0.3177  0.5649
 7984SOL     OW35410   4.687   2.718   2.342  0.4314  0.2224  0.0247
 7984SOL    HW135411   0.022   2.646   2.362 -1.9825 -1.5426  0.7189
 7984SOL    HW235412   4.636   2.678   2.271  1.7684 -1.3345 -0.0443
 7985SOL     OW35413   3.267   3.653   8.177 -0.0132  0.2854 -0.2552
 7985SOL    HW135414   3.215   3.573   8.189  1.8438 -1.1515 -1.8238
 7985SOL    HW235415   3.325   3.628   8.105  1.9868  0.5105  1.2966
 7986SOL     OW35416   3.367   1.969   6.736 -0.2804  0.1916  0.1239
 7986SOL    HW135417   3.351   1.876   6.718  1.0730 -0.0761  0.3074
 7986SOL    HW235418   3.452   1.970   6.780 -0.9449  1.7073  1.3638
 7987SOL     OW35419   0.590   0.663   1.887  0.0943 -0.1461  0.5286
 7987SOL    HW135420   0.584   0.610   1.967  2.2721  0.4401  1.0832
 7987SOL    HW235421   0.598   0.594   1.822 -1.1214  0.2402 -0.0269
 7988SOL     OW35422   4.178   3.535   5.456 -0.0451 -0.6214  0.1183
 7988SOL    HW135423   4.253   3.558   5.511  0.1156 -0.2050 -0.2716
 7988SOL    HW235424   4.186   3.602   5.387  1.0281 -1.3153 -0.4388
 7989SOL     OW35425   1.672   3.240   0.362 -0.0735 -0.0813 -0.5567
 7989SOL    HW135426   1.736   3.305   0.390  0.3142 -1.3699  1.5878
 7989SOL    HW235427   1.727   3.204   0.292 -0.8462 -0.6259 -0.8912
 7990SOL     OW35428   3.990   1.079   5.944 -0.3607  0.0321  0.1175
 7990SOL    HW135429   3.926   1.012   5.967 -1.5151  0.5172 -1.6502
 7990SOL    HW235430   3.981   1.086   5.849 -0.5401  1.9629  0.2749
 7991SOL     OW35431   0.857   2.164   6.661 -0.0034  0.3051 -0.3807
 7991SOL    HW135432   0.869   2.249   6.704 -0.3290 -0.8878  2.0550
 7991SOL    HW235433   0.862   2.200   6.572 -1.8359  3.4281  0.7593
 7992SOL     OW35434   1.575   4.617   2.847 -0.7953  0.2607 -0.6522
 7992SOL    HW135435   1.630   4.598   2.923  1.7575  3.2009 -1.7848
 7992SOL    HW235436   1.630   4.638   2.772  2.0397 -1.9451  0.7747
 7993SOL     OW35437   2.255   2.307  14.988 -0.0985 -0.0795 -0.4286
 7993SOL    HW135438   2.166   2.274  15.000  0.9813 -2.9104 -0.3879
 7993SOL    HW235439   2.245   2.377  14.923 -1.0936  1.1232  1.0143
 7994SOL     OW35440   4.658   1.250   2.870 -0.6934 -0.0163 -0.1808
 7994SOL    HW135441   4.716   1.240   2.794  0.4037  1.0176  0.5215
 7994SOL    HW235442   4.672   1.167   2.915  0.0745  0.7995  1.1055
 7995SOL     OW35443   2.039   1.009   2.326 -0.0266 -0.2032  0.7716
 7995SOL    HW135444   2.097   1.006   2.250 -1.1121  0.6036 -0.0927
 7995SOL    HW235445   2.097   1.036   2.398  0.9250  0.3072 -0.1968
 7996SOL     OW35446   4.465   2.133   0.864 -0.2915 -0.2188 -0.0715
 7996SOL    HW135447   4.499   2.148   0.775 -0.2007  0.0940  0.0179
 7996SOL    HW235448   4.450   2.220   0.899  0.5270  0.1819 -0.7173
 7997SOL     OW35449   3.751   3.008   4.705 -0.2440  0.0264 -0.1346
 7997SOL    HW135450   3.844   3.017   4.688 -0.4179  0.6884 -0.7669
 7997SOL    HW235451   3.733   3.071   4.774 -3.1756 -0.5800 -0.3088
 7998SOL     OW35452   4.451   0.623   5.265 -0.1093  0.2476  0.0390
 7998SOL    HW135453   4.464   0.713   5.236  0.8692 -0.1373 -0.7156
 7998SOL    HW235454   4.408   0.650   5.346  0.7603  1.9027 -0.0439
 7999SOL     OW35455   1.138   0.577   2.800  0.2961  0.0508  0.0681
 7999SOL    HW135456   1.162   0.499   2.850 -0.5253 -0.5238 -0.4306
 7999SOL    HW235457   1.163   0.550   2.712 -0.8746 -1.4124  0.1927
 8000SOL     OW35458   1.997   4.659  16.020  0.0961 -0.2021 -0.3121
 8000SOL    HW135459   1.920   4.650  16.074  0.3477  0.6493  0.1837
 8000SOL    HW235460   1.999   0.031  16.014 -2.3878 -0.0089  2.5737
 8001SOL     OW35461   1.450   1.670   8.721 -0.4793  0.6035  0.2110
 8001SOL    HW135462   1.464   1.615   8.644 -3.4868  0.8931 -0.5407
 8001SOL    HW235463   1.522   1.636   8.775 -0.9443  0.7867  0.9506
 8002SOL     OW35464   1.264   2.672   4.187 -0.1674  0.0511 -0.1576
 8002SOL    HW135465   1.319   2.600   4.156  0.3066  0.6918 -0.8052
 8002SOL    HW235466   1.323   2.744   4.209 -1.2942  1.1112 -0.5987
 8003SOL     OW35467   3.233   2.219   5.314  0.0560  0.8196 -0.1544
 8003SOL    HW135468   3.250   2.284   5.382 -1.1957  1.3784 -0.3719
 8003SOL    HW235469   3.289   2.147   5.344  0.2192  1.0650  0.1290
 8004SOL     OW35470   0.495   3.490  16.565 -0.4862  0.3978  0.3086
 8004SOL    HW135471   0.576   3.440  16.578 -0.7516 -0.0079  0.4005
 8004SOL    HW235472   0.481   3.521  16.654  0.5736  1.0629  0.2383
 8005SOL     OW35473   2.974   0.950   8.106 -0.4644 -0.4104  0.1158
 8005SOL    HW135474   3.015   0.874   8.149  0.3836  0.7593  1.3679
 8005SOL    HW235475   2.902   0.973   8.164 -0.4091  1.9454 -0.7663
 8006SOL     OW35476   2.509   2.444   7.980  0.1982 -0.2596  0.4433
 8006SOL    HW135477   2.462   2.507   7.925  1.4920  0.4169  0.1094
 8006SOL    HW235478   2.554   2.496   8.047 -1.0519  0.1375  0.9861
 8007SOL     OW35479   2.578   1.083  15.032 -0.0244  0.1521 -0.9349
 8007SOL    HW135480   2.607   1.102  15.121  0.5586  1.3437 -1.3786
 8007SOL    HW235481   2.653   1.050  14.984 -1.4784 -1.6414 -1.9659
 8008SOL     OW35482   0.384   1.198   5.982 -0.4114  0.5170  0.0419
 8008SOL    HW135483   0.344   1.270   6.030  0.7532  0.7869  0.6029
 8008SOL    HW235484   0.335   1.198   5.900 -1.0685  1.5802  0.4436
 8009SOL     OW35485   3.759   1.777   1.384  0.2652 -0.2083  0.3664
 8009SOL    HW135486   3.801   1.854   1.346 -0.0927 -0.7712 -1.1909
 8009SOL    HW235487   3.672   1.779   1.345  0.0921  2.5372  0.8973
 8010SOL     OW35488   2.517   3.558   4.798  0.0872  0.4025  0.3239
 8010SOL    HW135489   2.576   3.576   4.725  0.9268 -1.5481  0.5069
 8010SOL    HW235490   2.430   3.567   4.760  0.7839  0.1164 -1.3219
 8011SOL     OW35491   0.684   3.079  13.659 -0.2226  0.1969 -0.0321
 8011SOL    HW135492   0.745   3.006  13.655 -1.0644 -0.3490 -2.5683
 8011SOL    HW235493   0.608   3.041  13.615  0.4195 -0.3362 -0.6624
 8012SOL     OW35494   2.142   4.045  10.514 -0.4859 -0.4544  0.2499
 8012SOL    HW135495   2.107   4.134  10.511 -1.2838 -0.8003 -0.5383
 8012SOL    HW235496   2.095   4.002  10.443 -2.4566 -1.5108  2.1881
 8013SOL     OW35497   2.047   2.503  13.923 -0.0869 -0.3370 -0.2756
 8013SOL    HW135498   2.030   2.571  13.988 -0.4169 -0.2588 -0.4449
 8013SOL    HW235499   2.140   2.512  13.901  0.2002 -0.1695  0.9804
 8014SOL     OW35500   2.009   0.107   4.076 -0.6138  0.1356  0.4031
 8014SOL    HW135501   2.029   0.125   3.984 -1.0880 -1.8683 -0.0912
 8014SOL    HW235502   2.078   0.048   4.106 -0.0399 -0.7712 -2.6868
 8015SOL     OW35503   3.252   2.137   5.026  0.1317 -0.3518 -0.2132
 8015SOL    HW135504   3.294   2.213   4.987 -0.7912 -0.0020 -0.5114
 8015SOL    HW235505   3.258   2.157   5.120  1.3494 -1.1987 -0.0975
 8016SOL     OW35506   4.556   4.153   6.161 -0.4607 -0.2075 -0.4337
 8016SOL    HW135507   4.635   4.134   6.212 -1.3817  1.2707  1.5480
 8016SOL    HW235508   4.549   4.248   6.161  0.3694 -0.1522 -1.6955
 8017SOL     OW35509   1.706   2.141   4.922 -0.1146  0.0892  0.4201
 8017SOL    HW135510   1.750   2.189   4.991 -0.1120 -1.2969  1.3862
 8017SOL    HW235511   1.780   2.120   4.864 -0.9556  1.2987 -1.0961
 8018SOL     OW35512   1.208   0.905   7.309  0.0050  0.2583  0.3220
 8018SOL    HW135513   1.175   0.890   7.397  0.5537 -3.3141 -0.0721
 8018SOL    HW235514   1.253   0.989   7.317  1.8630 -0.7328  0.2690
 8019SOL     OW35515   0.347   4.296  10.279 -0.3602 -0.7408  0.3028
 8019SOL    HW135516   0.410   4.295  10.351  0.1764  0.5445 -0.1622
 8019SOL    HW235517   0.322   4.204  10.288 -1.8433 -0.7852 -4.2137
 8020SOL     OW35518   0.794   2.181  15.276  0.0818  0.3386 -0.2306
 8020SOL    HW135519   0.731   2.253  15.270 -1.0304 -0.5617  0.6245
 8020SOL    HW235520   0.816   2.183  15.369 -1.1593 -1.3422  0.0979
 8021SOL     OW35521   2.663   2.202   6.957  0.8758  0.5274  0.3439
 8021SOL    HW135522   2.687   2.244   7.039  1.9096  3.3085 -1.3808
 8021SOL    HW235523   2.723   2.257   6.906 -0.2335  0.4373 -1.0463
 8022SOL     OW35524   0.883   3.668   4.873 -0.3958 -0.1296 -0.1919
 8022SOL    HW135525   0.975   3.654   4.895  0.0167 -0.3227 -2.0097
 8022SOL    HW235526   0.835   3.590   4.900 -0.5127 -0.1746 -0.5342
 8023SOL     OW35527   1.456   2.699  12.846  0.2938 -0.7422 -0.1560
 8023SOL    HW135528   1.470   2.641  12.921  1.1217 -0.2361  0.0771
 8023SOL    HW235529   1.400   2.650  12.786 -2.2609 -0.8753  2.3294
 8024SOL     OW35530   0.913   0.968   7.785  0.2820 -0.3926  0.0347
 8024SOL    HW135531   0.850   0.922   7.841  2.1644 -1.9661  0.8762
 8024SOL    HW235532   0.994   0.962   7.835 -0.6462  0.6120  1.6674
 8025SOL     OW35533   0.250   4.363   9.777 -0.1093 -0.6665  0.1626
 8025SOL    HW135534   0.212   4.282   9.811 -0.3847 -0.3354  0.6464
 8025SOL    HW235535   0.331   4.327   9.741  0.9352  1.1704  0.6661
 8026SOL     OW35536   0.618   0.109   8.021  0.1647 -0.0411  0.7241
 8026SOL    HW135537   0.623   0.197   8.059 -1.4890 -0.1148  1.1109
 8026SOL    HW235538   0.675   0.118   7.944  0.3875  0.6353  0.9649
 8027SOL     OW35539   0.269   2.556   9.987  0.1670 -0.3590 -0.1882
 8027SOL    HW135540   0.305   2.511   9.911  2.1825  0.3041  0.3794
 8027SOL    HW235541   0.324   2.635   9.989  1.2012 -1.1143  0.9693
 8028SOL     OW35542   3.469   2.107   7.056 -0.1976  0.3385  0.1801
 8028SOL    HW135543   3.552   2.079   7.094 -0.5551  0.1647  0.8465
 8028SOL    HW235544   3.493   2.198   7.037 -2.1591  0.8124 -0.0719
 8029SOL     OW35545   0.076   0.069   8.956  0.2865  0.1398  0.4706
 8029SOL    HW135546   0.135   4.721   8.930 -1.6135 -1.2848  0.1022
 8029SOL    HW235547   0.098   0.133   8.888 -1.8217  0.2814 -0.0596
 8030SOL     OW35548   3.119   3.419   0.504 -0.2378  0.2702 -0.2208
 8030SOL    HW135549   3.112   3.350   0.438 -1.2586 -1.0712  1.2917
 8030SOL    HW235550   3.091   3.366   0.579 -1.8720  1.6734  0.1943
 8031SOL     OW35551   0.167   2.360   8.499 -0.5160  0.6857  0.2824
 8031SOL    HW135552   0.206   2.278   8.470  0.0197  1.2104 -0.4632
 8031SOL    HW235553   0.079   2.353   8.461 -0.7323 -1.7489  1.2433
 8032SOL     OW35554   4.417   1.889  15.951 -0.5949  0.4754  0.1727
 8032SOL    HW135555   4.338   1.922  15.993  0.8450  2.7940  1.0797
 8032SOL    HW235556   4.395   1.798  15.932 -0.7657  0.3326  1.0647
 8033SOL     OW35557   4.478   3.803   8.419  0.7169  0.3521 -0.2062
 8033SOL    HW135558   4.561   3.836   8.455 -0.6889  2.4585  1.1137
 8033SOL    HW235559   4.417   3.784   8.490  0.3104  1.0846 -0.3615
 8034SOL     OW35560   2.444   4.721   5.325 -0.1603 -0.7980  0.2450
 8034SOL    HW135561   2.469   0.029   5.411 -0.6723 -1.6346  0.7077
 8034SOL    HW235562   2.523   0.007   5.272  0.5297 -0.5288  1.3299
 8035SOL     OW35563   2.553   3.345   3.791 -0.0730 -0.5367  0.5337
 8035SOL    HW135564   2.462   3.326   3.769 -0.1064  1.4401 -1.0210
 8035SOL    HW235565   2.572   3.429   3.750  0.3413 -1.1319 -0.5204
 8036SOL     OW35566   3.050   0.445   3.604  0.1931  0.5841 -0.5256
 8036SOL    HW135567   3.026   0.352   3.598  1.9546  0.0393  0.8455
 8036SOL    HW235568   2.988   0.483   3.542 -1.3171  0.9068  1.1622
 8037SOL     OW35569   4.257   3.482   1.151 -0.0075  0.0997  0.2858
 8037SOL    HW135570   4.349   3.459   1.138 -0.1706  0.3922 -1.3870
 8037SOL    HW235571   4.240   3.396   1.190  1.8203 -0.3638  0.0385
 8038SOL     OW35572   0.152   3.849   3.304  0.8079  0.2711 -0.5450
 8038SOL    HW135573   0.177   3.939   3.281 -0.1111 -0.1021 -3.1023
 8038SOL    HW235574   0.061   3.838   3.276  0.8427  2.9184 -1.6899
 8039SOL     OW35575   3.087   0.846  10.804  1.0659  0.0732 -0.2504
 8039SOL    HW135576   3.005   0.835  10.853  0.8679 -4.8184 -1.6932
 8039SOL    HW235577   3.107   0.757  10.777  0.9883 -0.1230  0.3364
 8040SOL     OW35578   0.139   0.709   7.026  0.3119 -0.2616 -0.4523
 8040SOL    HW135579   0.183   0.666   6.953 -0.1179 -0.2274 -0.7286
 8040SOL    HW235580   0.198   0.781   7.047  3.4602 -2.5010 -1.4729
 8041SOL     OW35581   0.701   0.365   7.148  0.0308  0.0801 -0.7143
 8041SOL    HW135582   0.731   0.454   7.167  0.1404  0.1848 -1.3670
 8041SOL    HW235583   0.756   0.324   7.080  0.5435 -0.6687  0.1407
 8042SOL     OW35584   1.893   4.454  13.475  0.1465  0.3684  0.0671
 8042SOL    HW135585   1.878   4.380  13.417 -0.8809  0.4254  0.2493
 8042SOL    HW235586   1.858   4.416  13.556 -1.4729 -0.9628 -1.2569
 8043SOL     OW35587   1.628   4.101   3.449 -0.1698 -0.0361 -0.4982
 8043SOL    HW135588   1.648   4.172   3.510  0.2043 -0.1064 -0.5421
 8043SOL    HW235589   1.712   4.085   3.406  0.1270 -1.8830  0.7376
 8044SOL     OW35590   2.369   3.704   3.287  0.6247 -0.0540 -0.2435
 8044SOL    HW135591   2.416   3.782   3.260 -0.2067 -0.0263 -1.6137
 8044SOL    HW235592   2.387   3.698   3.381 -0.6528  1.4264  0.0758
 8045SOL     OW35593   1.092   2.252   8.455 -0.4005  0.2616  0.5645
 8045SOL    HW135594   1.047   2.168   8.469 -1.3865  0.9976  1.7853
 8045SOL    HW235595   1.053   2.280   8.373  0.4764  1.2223  0.4763
 8046SOL     OW35596   4.260   0.460   6.883  0.4842  0.0054 -0.7089
 8046SOL    HW135597   4.200   0.393   6.850 -1.9284 -0.0382  3.6167
 8046SOL    HW235598   4.294   0.510   6.809  0.4861  3.1401  1.4085
 8047SOL     OW35599   1.251   4.268   5.652 -0.1015 -0.1401 -0.3328
 8047SOL    HW135600   1.312   4.341   5.667 -0.4454  0.1535 -0.3825
 8047SOL    HW235601   1.303   4.221   5.587 -0.6052  0.8539 -1.4357
 8048SOL     OW35602   3.464   4.172   5.543 -0.0777 -0.0312 -0.4321
 8048SOL    HW135603   3.530   4.187   5.612 -0.5805  1.7835 -0.3391
 8048SOL    HW235604   3.515   4.104   5.498  0.5525  0.8360 -1.0308
 8049SOL     OW35605   1.167   2.353  12.767 -0.3952  0.0615 -0.6222
 8049SOL    HW135606   1.224   2.291  12.722 -0.0398 -0.5892  0.7244
 8049SOL    HW235607   1.101   2.368  12.699 -0.0435 -0.0112 -0.9771
 8050SOL     OW35608   1.843   4.488   2.316 -0.8068  0.5257  0.0141
 8050SOL    HW135609   1.922   4.446   2.350 -0.9566 -0.3107 -0.6685
 8050SOL    HW235610   1.777   4.426   2.349 -0.3685  1.5425  2.8675
 8051SOL     OW35611   1.810   1.468  11.724 -0.0029 -0.3784 -0.2100
 8051SOL    HW135612   1.890   1.488  11.677  0.4043  0.5980  0.9090
 8051SOL    HW235613   1.799   1.559  11.750 -1.6494 -1.3105  2.3410
 8052SOL     OW35614   2.435   2.801  17.169 -0.6064 -0.1132  0.4476
 8052SOL    HW135615   2.395   2.741  17.105 -0.5129  0.5800 -0.2708
 8052SOL    HW235616   2.389   2.796  17.252  0.5479  0.4469  1.1132
 8053SOL     OW35617   4.157   1.308  17.269 -0.1840 -0.3903  0.0893
 8053SOL    HW135618   4.202   1.367  17.208  0.7954  0.4766  1.6458
 8053SOL    HW235619   4.235   1.256  17.292  1.7565  1.9296 -1.2492
 8054SOL     OW35620   2.169   1.936   3.210 -0.6773  0.4671 -0.0287
 8054SOL    HW135621   2.109   1.862   3.223  2.1062 -1.6754  0.7423
 8054SOL    HW235622   2.192   1.931   3.117  0.6527 -1.3282  0.3848
 8055SOL     OW35623   0.835   2.261   6.394 -0.0158  0.2927 -0.4965
 8055SOL    HW135624   0.894   2.224   6.329 -1.6344 -0.5769 -1.4564
 8055SOL    HW235625   0.819   2.351   6.364 -0.6277 -0.3758 -2.1599
 8056SOL     OW35626   2.158   0.270  16.558 -0.6924 -0.3618 -0.3638
 8056SOL    HW135627   2.174   0.316  16.475 -1.8156 -0.0577 -0.4128
 8056SOL    HW235628   2.075   0.314  16.578  0.4969  1.2549  1.0064
 8057SOL     OW35629   3.291   2.377   1.198  0.2683  0.0256  0.3112
 8057SOL    HW135630   3.208   2.332   1.180  0.7715  0.4046 -2.9099
 8057SOL    HW235631   3.360   2.311   1.200  1.1525  0.8933 -0.9762
 8058SOL     OW35632   3.657   1.187   6.887  0.1670  0.1830  0.1247
 8058SOL    HW135633   3.688   1.137   6.963  0.7946  1.6312  0.8253
 8058SOL    HW235634   3.733   1.179   6.829 -0.9397 -2.6264 -0.9219
 8059SOL     OW35635   0.873   1.029   5.740 -0.0267  0.0865 -0.2945
 8059SOL    HW135636   0.939   1.063   5.801  0.1809 -2.3489  0.8178
 8059SOL    HW235637   0.833   1.110   5.708  1.6087 -0.2543 -3.1128
 8060SOL     OW35638   3.651   2.351   3.240  0.7438 -0.4795  0.0505
 8060SOL    HW135639   3.735   2.306   3.246 -0.1267 -2.0725  0.2115
 8060SOL    HW235640   3.679   2.439   3.265  0.0688 -0.4991  0.9049
 8061SOL     OW35641   0.990   4.587  15.259  0.0002  0.2425  0.4163
 8061SOL    HW135642   0.981   4.491  15.261 -2.5026  0.4121 -2.2646
 8061SOL    HW235643   0.911   4.609  15.308  0.1736 -0.2656  0.9284
 8062SOL     OW35644   3.100   1.637  13.556  0.5541 -0.1236 -0.0437
 8062SOL    HW135645   3.010   1.624  13.524  1.0546 -0.3749 -1.3418
 8062SOL    HW235646   3.114   1.563  13.615  0.5781 -0.3826 -0.3711
 8063SOL     OW35647   3.461   3.194   4.795 -0.0770  0.3078  0.1382
 8063SOL    HW135648   3.539   3.155   4.834  1.9745  2.6423 -1.6285
 8063SOL    HW235649   3.458   3.273   4.848 -0.0748 -0.6425  1.5423
 8064SOL     OW35650   4.098   0.921   4.067  1.0378  0.1714 -0.2814
 8064SOL    HW135651   4.123   0.886   4.152 -2.7255 -1.8185  0.0126
 8064SOL    HW235652   4.087   0.845   4.010  0.4278  0.0889 -0.0543
 8065SOL     OW35653   0.351   2.849   4.182 -0.2949 -0.3538  0.1289
 8065SOL    HW135654   0.290   2.808   4.121  0.1204 -0.0628 -0.4790
 8065SOL    HW235655   0.371   2.926   4.129 -1.0078 -1.2809 -1.4651
 8066SOL     OW35656   3.283   2.884  10.021  0.4963 -0.2774  0.1966
 8066SOL    HW135657   3.352   2.818  10.022 -1.7519 -2.7011 -1.2887
 8066SOL    HW235658   3.263   2.882   9.927 -0.4398  1.1334  0.3638
 8067SOL     OW35659   1.789   3.195   8.404 -0.0986 -0.3576 -0.0135
 8067SOL    HW135660   1.733   3.262   8.443 -1.2590 -2.1301  1.4007
 8067SOL    HW235661   1.865   3.253   8.401  0.7226 -1.3723  1.1835
 8068SOL     OW35662   4.507   0.065   7.035 -0.2918 -0.1800  0.1535
 8068SOL    HW135663   4.465   0.150   7.052  0.3856  0.5714 -2.0081
 8068SOL    HW235664   4.599   0.084   7.019 -0.4472  1.1985  0.8572
 8069SOL     OW35665   1.954   4.071   4.274  0.1297  0.1260 -0.2681
 8069SOL    HW135666   2.010   4.117   4.211  0.3701 -1.1803 -1.0030
 8069SOL    HW235667   1.908   4.007   4.220  0.4170 -0.0877 -0.2605
 8070SOL     OW35668   3.307   1.817   7.977  0.0746 -0.1269 -0.0311
 8070SOL    HW135669   3.283   1.899   8.021 -1.7532  0.6570 -2.5326
 8070SOL    HW235670   3.400   1.838   7.968 -0.0735  0.3419 -0.4328
 8071SOL     OW35671   2.713   1.008   2.551  0.0956 -0.1548  0.2798
 8071SOL    HW135672   2.767   1.060   2.492  1.1107 -0.4646  0.9334
 8071SOL    HW235673   2.764   0.927   2.543 -0.8266 -0.6401 -0.7464
 8072SOL     OW35674   0.658   2.586   4.100 -0.3051 -0.1848  1.0972
 8072SOL    HW135675   0.597   2.575   4.028  0.8828  4.5883 -0.5998
 8072SOL    HW235676   0.723   2.643   4.059 -2.4812  1.2088 -0.3842
 8073SOL     OW35677   3.143   4.252   2.043  0.1927  0.0105  0.0989
 8073SOL    HW135678   3.191   4.171   2.029  3.0557  1.5719  0.7958
 8073SOL    HW235679   3.190   4.320   1.994 -0.8610  0.3318 -0.4424
 8074SOL     OW35680   1.220   2.809  13.071  0.0860  0.1031  0.4480
 8074SOL    HW135681   1.230   2.723  13.030  0.5300  0.8590 -1.0411
 8074SOL    HW235682   1.287   2.818  13.138  0.4696  0.1336  0.0597
 8075SOL     OW35683   1.605   4.283  10.635  0.3231 -0.0894 -0.5737
 8075SOL    HW135684   1.665   4.208  10.639 -1.5104 -1.5865 -1.2459
 8075SOL    HW235685   1.522   4.245  10.607  0.3765 -1.0748  0.6175
 8076SOL     OW35686   0.572   4.500  14.568 -0.1618 -0.3271  0.2286
 8076SOL    HW135687   0.552   4.434  14.501 -1.9311  0.1500  0.3013
 8076SOL    HW235688   0.591   4.448  14.646 -0.3068  0.5637  0.8469
 8077SOL     OW35689   3.142   2.010   2.927 -0.2486  0.4423 -0.0976
 8077SOL    HW135690   3.133   1.953   3.003 -1.5405 -0.3688 -0.8563
 8077SOL    HW235691   3.065   1.980   2.879  0.2641 -1.0642 -0.0133
 8078SOL     OW35692   1.243   4.341  14.403  0.5161 -0.4506  0.7599
 8078SOL    HW135693   1.310   4.404  14.373  0.0279  0.1520  0.9284
 8078SOL    HW235694   1.248   4.366  14.496 -2.4445 -0.2126  0.8540
 8079SOL     OW35695   2.746   2.847   4.488  0.1242  0.2463 -0.0495
 8079SOL    HW135696   2.822   2.788   4.492 -0.8851 -1.0852 -0.4321
 8079SOL    HW235697   2.765   2.902   4.564 -0.7363  1.6861 -0.8914
 8080SOL     OW35698   1.158   2.064  15.122 -0.5363  0.2660  0.1257
 8080SOL    HW135699   1.229   2.109  15.167  0.4762 -0.9721 -0.2428
 8080SOL    HW235700   1.176   1.970  15.134 -1.2584  0.5902  3.6588
 8081SOL     OW35701   0.168   1.194   1.785 -0.1546  0.0626  0.0831
 8081SOL    HW135702   0.210   1.188   1.870 -0.4499  0.9133  0.2916
 8081SOL    HW235703   0.102   1.124   1.787  2.6148 -2.5464  0.0742
 8082SOL     OW35704   0.539   2.866   5.930  0.5004  0.3374  0.0862
 8082SOL    HW135705   0.520   2.867   5.837  1.0139 -2.5767 -0.0311
 8082SOL    HW235706   0.632   2.846   5.921  0.5258 -0.1758  1.3765
 8083SOL     OW35707   1.047   3.979   8.829 -0.3124 -0.1388  0.3962
 8083SOL    HW135708   1.117   3.918   8.852  0.1901 -0.2738 -1.4597
 8083SOL    HW235709   0.966   3.956   8.875 -0.7467  0.4945 -0.0478
 8084SOL     OW35710   4.332   2.068   5.294  0.0420 -0.5171  0.3894
 8084SOL    HW135711   4.321   2.115   5.212 -0.3789 -1.2305  0.0298
 8084SOL    HW235712   4.241   2.066   5.324 -0.3429 -2.3112 -0.8628
 8085SOL     OW35713   3.239   2.726   5.105 -0.1452  0.2108 -0.5124
 8085SOL    HW135714   3.155   2.770   5.109 -1.1917 -1.8348 -0.1610
 8085SOL    HW235715   3.222   2.652   5.164 -0.5326  1.1568  0.5465
 8086SOL     OW35716   0.729   3.969   6.056 -0.8452  0.2086  0.2922
 8086SOL    HW135717   0.714   3.887   6.009  0.7515 -0.4835  0.9717
 8086SOL    HW235718   0.640   4.001   6.046 -0.4014  2.1293  2.5556
 8087SOL     OW35719   2.369   3.598  14.691  0.3054  0.0771 -0.1498
 8087SOL    HW135720   2.331   3.674  14.735 -1.5228 -2.1264  2.0266
 8087SOL    HW235721   2.429   3.640  14.629  0.6360 -2.4199 -1.5130
 8088SOL     OW35722   0.149   2.414   6.555 -0.3270 -0.1218 -0.0124
 8088SOL    HW135723   0.080   2.461   6.508 -1.4797 -1.4893  0.3190
 8088SOL    HW235724   0.099   2.360   6.617 -1.2495 -0.4934 -1.0772
 8089SOL     OW35725   0.629   3.498  16.930  0.5987  0.1531  0.0265
 8089SOL    HW135726   0.586   3.516  17.013  0.7822  2.7841 -0.4412
 8089SOL    HW235727   0.614   3.580  16.882 -1.6041 -0.2199  0.0719
 8090SOL     OW35728   3.317   3.608   4.442  0.6777  0.1463  0.0546
 8090SOL    HW135729   3.238   3.635   4.395  0.5159 -2.1370 -1.0187
 8090SOL    HW235730   3.391   3.623   4.382  2.4903  2.0821  2.8238
 8091SOL     OW35731   4.221   1.076   8.520  0.4880 -0.3705  0.0605
 8091SOL    HW135732   4.131   1.092   8.548  0.3230 -1.4872  0.1890
 8091SOL    HW235733   4.260   1.049   8.603  2.1869  0.0460 -0.6183
 8092SOL     OW35734   4.652   4.710  16.830 -0.1457 -0.5807  0.3239
 8092SOL    HW135735   0.000   0.050  16.832  1.2714 -2.2536  2.6730
 8092SOL    HW235736   4.577   0.044  16.812 -0.2910 -0.5582  0.9862
 8093SOL     OW35737   2.275   4.076  13.095 -0.5365  0.4738  0.5107
 8093SOL    HW135738   2.342   4.141  13.073 -0.7443  0.5946  0.2382
 8093SOL    HW235739   2.338   4.005  13.110 -0.8888  0.4252  1.7978
 8094SOL     OW35740   0.245   2.709   6.286  0.3766 -0.6150 -0.2430
 8094SOL    HW135741   0.213   2.752   6.207 -0.4280 -1.4067 -0.3526
 8094SOL    HW235742   0.275   2.622   6.262  1.2661 -0.2940 -0.2830
 8095SOL     OW35743   2.513   1.736   2.023 -0.8354  0.2179 -0.7898
 8095SOL    HW135744   2.554   1.671   1.966 -0.4354  0.2194 -0.5052
 8095SOL    HW235745   2.557   1.732   2.108 -0.4409 -2.7273 -1.1468
 8096SOL     OW35746   2.497   0.390   2.647  0.4975 -0.0355  0.4443
 8096SOL    HW135747   2.518   0.480   2.622 -3.5743  0.3764 -1.4435
 8096SOL    HW235748   2.482   0.365   2.556  0.1812  0.7575  0.2815
 8097SOL     OW35749   3.758   1.437  16.511  0.0796  0.4819 -0.1618
 8097SOL    HW135750   3.810   1.357  16.517  2.8006  2.2597 -0.2417
 8097SOL    HW235751   3.826   1.497  16.541  0.7371 -0.2962 -0.0786
 8098SOL     OW35752   1.674   4.259   6.408  0.0278 -0.2982  0.4623
 8098SOL    HW135753   1.684   4.340   6.457 -0.4596  0.9564 -1.4894
 8098SOL    HW235754   1.608   4.220   6.465 -1.2196 -0.5868 -1.1581
 8099SOL     OW35755   2.667   2.640  12.020 -1.0940  0.6282  0.2791
 8099SOL    HW135756   2.584   2.686  12.011 -3.2883 -3.1862  0.9761
 8099SOL    HW235757   2.677   2.633  12.115  1.3359 -0.8995 -0.0867
 8100SOL     OW35758   2.836   1.555  12.790  0.5702  0.0895  0.4312
 8100SOL    HW135759   2.875   1.545  12.703 -0.3527  1.9637 -0.1885
 8100SOL    HW235760   2.762   1.615  12.778  0.9154  0.2369 -0.9441
 8101SOL     OW35761   1.152   3.632   3.486  0.5013  0.4317  0.2252
 8101SOL    HW135762   1.125   3.591   3.404  1.6847 -0.4532  0.2688
 8101SOL    HW235763   1.077   3.688   3.506  0.8681  0.9694  0.0908
 8102SOL     OW35764   1.400   2.912  17.167 -0.5493  0.2562  0.4465
 8102SOL    HW135765   1.463   2.851  17.128 -0.1562  2.0289 -1.6841
 8102SOL    HW235766   1.443   2.942  17.247 -0.2916  2.4142 -0.5155
 8103SOL     OW35767   1.567   2.892   4.639  0.6105  0.1941  0.1101
 8103SOL    HW135768   1.474   2.915   4.633  0.6285  0.6109  1.5041
 8103SOL    HW235769   1.570   2.797   4.623 -0.8346  0.5592 -2.2855
 8104SOL     OW35770   3.493   1.992   4.877 -0.2685 -0.1766  0.0796
 8104SOL    HW135771   3.436   2.065   4.852  1.4828  1.5045  0.9880
 8104SOL    HW235772   3.464   1.923   4.817 -0.4923  0.4059 -0.4802
 8105SOL     OW35773   3.808   4.438   7.007  0.5114 -0.5284  0.9038
 8105SOL    HW135774   3.866   4.375   6.964 -0.8796 -2.0140  1.1657
 8105SOL    HW235775   3.804   4.502   6.936  2.6136  0.5849  1.7912
 8106SOL     OW35776   1.252   0.691   3.167  0.0584 -0.3596 -0.5282
 8106SOL    HW135777   1.159   0.699   3.186 -0.5580 -0.5663 -3.4982
 8106SOL    HW235778   1.260   0.621   3.103  0.3055 -2.2022  1.5023
 8107SOL     OW35779   4.418   3.184   4.869  0.0411 -0.2090 -0.1494
 8107SOL    HW135780   4.394   3.098   4.904 -0.4392 -0.1748 -0.4007
 8107SOL    HW235781   4.357   3.237   4.920  1.9094 -2.3784  4.3467
 8108SOL     OW35782   3.634   0.979   7.508 -0.4060 -0.1409  0.5115
 8108SOL    HW135783   3.695   0.937   7.448  0.2485  0.6011  0.6578
 8108SOL    HW235784   3.619   0.904   7.566  0.2507 -1.9633 -1.6956
 8109SOL     OW35785   3.708   3.078   6.134  0.3185 -0.4199  0.4696
 8109SOL    HW135786   3.668   3.075   6.221  1.0203  0.1032  0.8148
 8109SOL    HW235787   3.733   3.170   6.133  2.6480 -1.0123  2.2548
 8110SOL     OW35788   1.360   0.624   4.078  0.0606 -0.3963 -0.3318
 8110SOL    HW135789   1.372   0.679   4.156 -2.3593  0.2608 -0.4294
 8110SOL    HW235790   1.412   0.546   4.100 -1.8318 -1.1620  1.4914
 8111SOL     OW35791   3.386   4.311   3.021 -0.6806  0.0212 -0.7806
 8111SOL    HW135792   3.316   4.318   3.087  0.4066  0.1756  0.3412
 8111SOL    HW235793   3.430   4.230   3.045 -1.3392 -0.6692 -1.9243
 8112SOL     OW35794   3.964   4.688   5.402 -0.3366 -0.1697 -0.1834
 8112SOL    HW135795   3.960   0.027   5.474  0.6343 -0.9805  0.5944
 8112SOL    HW235796   4.051   4.651   5.418  1.3236  2.9633 -2.0294
 8113SOL     OW35797   4.469   0.195   3.379  0.0026 -0.2855 -0.2059
 8113SOL    HW135798   4.559   0.193   3.411  0.3102  0.0065 -1.0458
 8113SOL    HW235799   4.474   0.194   3.283 -1.0119  1.7963 -0.2892
 8114SOL     OW35800   1.986   0.272   4.823  0.1999  0.4006  0.1429
 8114SOL    HW135801   2.054   0.313   4.769  0.6992  0.9474  1.1842
 8114SOL    HW235802   2.044   0.205   4.860  1.3214  1.4788  0.3584
 8115SOL     OW35803   2.071   1.433   4.882  0.5648 -0.1863 -0.4443
 8115SOL    HW135804   2.139   1.500   4.881  0.7092 -0.3010  1.0909
 8115SOL    HW235805   2.039   1.446   4.971  0.8265 -0.5694 -0.2951
 8116SOL     OW35806   2.963   1.163   3.146  0.1340  0.1413 -0.1034
 8116SOL    HW135807   2.981   1.157   3.052  0.1491 -1.5729  0.0113
 8116SOL    HW235808   2.956   1.071   3.168  1.7411  0.4454  1.7054
 8117SOL     OW35809   0.406   4.713   8.481 -0.3159 -0.1805 -0.1948
 8117SOL    HW135810   0.410   0.058   8.547  0.5410 -1.0912  0.6985
 8117SOL    HW235811   0.439   0.038   8.405  1.6329 -0.7837  0.2750
 8118SOL     OW35812   4.291   0.194   1.047  0.0679  0.5502 -0.1152
 8118SOL    HW135813   4.342   0.171   0.970 -0.3545  0.8068 -0.4655
 8118SOL    HW235814   4.347   0.152   1.113 -0.5814 -0.0017  0.0873
 8119SOL     OW35815   1.505   2.217   9.751 -0.2100 -0.3241  0.2010
 8119SOL    HW135816   1.598   2.231   9.735 -0.1780 -0.2695  0.4292
 8119SOL    HW235817   1.513   2.139   9.806 -0.9420 -0.7839 -0.3474
 8120SOL     OW35818   3.243   3.907  17.329  0.4838  0.0655  0.9028
 8120SOL    HW135819   3.251   3.952  17.413 -2.8585  0.8002  0.8132
 8120SOL    HW235820   3.290   3.825  17.345 -1.2671 -0.9830  0.7027
 8121SOL     OW35821   0.648   1.009   9.081  0.0782 -0.0301  0.3727
 8121SOL    HW135822   0.650   1.032   9.174  0.8848  0.5383  0.2207
 8121SOL    HW235823   0.722   1.052   9.038 -0.2554  1.3495  1.1922
 8122SOL     OW35824   4.151   0.223  10.195  0.3114 -0.1930  0.7922
 8122SOL    HW135825   4.176   0.291  10.258  1.8254 -0.9833  1.0489
 8122SOL    HW235826   4.091   0.172  10.250  0.5056 -0.5157  0.7051
 8123SOL     OW35827   1.686   4.480   5.141 -0.9263  0.6440 -0.2927
 8123SOL    HW135828   1.601   4.454   5.104 -1.6135  2.3618  0.0722
 8123SOL    HW235829   1.742   4.467   5.065 -1.4430 -2.0271 -0.2147
 8124SOL     OW35830   2.152   2.478  15.564 -0.3834 -0.2745 -0.3534
 8124SOL    HW135831   2.111   2.546  15.510 -0.4862 -0.0915 -0.0499
 8124SOL    HW235832   2.150   2.515  15.653  0.6084  0.3205 -0.5853
 8125SOL     OW35833   4.199   0.726  16.224 -0.0102 -0.6676 -0.4548
 8125SOL    HW135834   4.190   0.692  16.135 -2.8510  1.6428 -1.0363
 8125SOL    HW235835   4.264   0.669  16.264 -0.0778  0.2773  0.9808
 8126SOL     OW35836   0.794   3.970   4.443  0.2632 -0.0917  0.0085
 8126SOL    HW135837   0.859   4.040   4.453 -0.3359  0.4253  0.2675
 8126SOL    HW235838   0.792   3.938   4.533 -0.3579  1.5770  0.6003
 8127SOL     OW35839   1.164   2.428   1.339 -0.1218 -0.5353 -0.2178
 8127SOL    HW135840   1.147   2.521   1.345  0.7608 -0.3460 -0.5487
 8127SOL    HW235841   1.121   2.411   1.255  0.5868  1.2035 -0.9235
 8128SOL     OW35842   3.154   3.178   7.868  0.4285 -0.3345  0.0171
 8128SOL    HW135843   3.064   3.147   7.860  0.1440  0.6502 -0.5671
 8128SOL    HW235844   3.202   3.107   7.910 -0.3729 -1.2735 -0.6619
 8129SOL     OW35845   0.839   1.831   4.160  0.5655 -0.1255 -0.4240
 8129SOL    HW135846   0.867   1.804   4.072 -0.4106 -0.7015 -0.5553
 8129SOL    HW235847   0.839   1.925   4.143 -1.7514 -0.2345 -0.9986
 8130SOL     OW35848   4.213   4.528   0.297  0.2841 -1.0068 -0.7185
 8130SOL    HW135849   4.118   4.545   0.297  0.5362  0.3674  2.1674
 8130SOL    HW235850   4.237   4.576   0.218  2.2989  0.3637  0.7514
 8131SOL     OW35851   0.902   4.564   8.750  0.0784  0.0053 -0.0969
 8131SOL    HW135852   0.997   4.572   8.755  0.2991 -0.6086 -3.2123
 8131SOL    HW235853   0.884   4.547   8.842 -0.1569 -2.8194 -0.6497
 8132SOL     OW35854   0.983   3.724  13.704  0.2395  0.2958  0.1375
 8132SOL    HW135855   1.053   3.789  13.697  1.3800 -1.0906 -1.3814
 8132SOL    HW235856   0.990   3.683  13.791  1.1010  0.3156  0.0835
 8133SOL     OW35857   0.638   1.068   3.435 -0.1174 -0.1768 -0.0408
 8133SOL    HW135858   0.699   1.017   3.488 -0.6755  0.0355  0.7915
 8133SOL    HW235859   0.679   1.080   3.349  0.0030 -2.2810 -0.2654
 8134SOL     OW35860   3.556   2.868   9.594  0.5060  0.9982  0.2539
 8134SOL    HW135861   3.551   2.775   9.615  0.9987  0.6787 -1.0069
 8134SOL    HW235862   3.505   2.865   9.513 -2.3559 -0.7696  2.1353
 8135SOL     OW35863   0.529   2.202   6.088  0.0311 -0.1218 -0.7936
 8135SOL    HW135864   0.445   2.166   6.114 -0.0648  2.2143  2.1604
 8135SOL    HW235865   0.581   2.122   6.079 -0.1649 -0.4838  1.2628
 8136SOL     OW35866   0.696   1.597   3.169  0.1408  0.1917  0.1797
 8136SOL    HW135867   0.706   1.503   3.182  2.4717  0.9081  3.3392
 8136SOL    HW235868   0.630   1.623   3.233 -0.1491  0.6344 -0.2946
 8137SOL     OW35869   0.268   0.584   4.686  0.5615  0.7394 -0.1998
 8137SOL    HW135870   0.292   0.633   4.765  1.7531 -0.6361  0.2958
 8137SOL    HW235871   0.196   0.533   4.724 -0.3012  1.8910 -0.3100
 8138SOL     OW35872   4.683   0.789   3.987  0.3121 -0.4373 -0.7952
 8138SOL    HW135873   0.016   0.746   4.051  0.3553  0.2429 -0.3832
 8138SOL    HW235874   0.028   0.829   3.933  0.1344  1.5035  0.4204
 8139SOL     OW35875   0.459   3.481   3.961 -0.7155  0.3170 -0.4344
 8139SOL    HW135876   0.444   3.574   3.977  1.5025  1.0090 -2.4076
 8139SOL    HW235877   0.502   3.477   3.875 -0.2540  1.5121 -0.2452
 8140SOL     OW35878   0.325   1.802   7.729  0.1604  0.1994 -0.1464
 8140SOL    HW135879   0.252   1.765   7.779  1.2009  0.4059  1.5028
 8140SOL    HW235880   0.288   1.889   7.713 -0.7507  0.0324  1.0642
 8141SOL     OW35881   1.637   2.602  11.731 -0.0419  0.0696 -0.0432
 8141SOL    HW135882   1.655   2.509  11.724  0.0140 -0.0852  2.2696
 8141SOL    HW235883   1.574   2.602  11.803 -0.3171 -3.1200 -0.3088
 8142SOL     OW35884   3.300   2.308   9.496  0.3371 -0.4783  0.7796
 8142SOL    HW135885   3.331   2.273   9.580  1.6002  0.0140  0.5265
 8142SOL    HW235886   3.206   2.297   9.511 -0.0570 -0.2538 -1.5075
 8143SOL     OW35887   1.952   3.662   2.245  0.1140 -0.6440 -0.0038
 8143SOL    HW135888   2.000   3.745   2.253  2.2586 -1.8961  0.0897
 8143SOL    HW235889   1.985   3.624   2.164 -3.3671  0.9998 -2.2259
 8144SOL     OW35890   2.014   2.297   2.680  0.1726 -0.3681  0.0893
 8144SOL    HW135891   2.058   2.322   2.762 -0.7030  0.0137  0.4471
 8144SOL    HW235892   2.021   2.376   2.626 -0.9150 -1.7473 -2.0615
 8145SOL     OW35893   1.318   2.725   8.785 -0.1526 -0.2653  0.3135
 8145SOL    HW135894   1.326   2.689   8.874  1.2695  1.5654  0.9344
 8145SOL    HW235895   1.408   2.729   8.752  0.5508  1.6775  2.4748
 8146SOL     OW35896   0.861   2.700   8.861 -0.1472 -0.2933 -0.4070
 8146SOL    HW135897   0.857   2.790   8.829  0.3878 -0.1978 -0.2197
 8146SOL    HW235898   0.941   2.715   8.912 -1.5740 -0.1635  1.7624
 8147SOL     OW35899   3.636   3.435   2.503 -0.4747  0.2996 -0.2063
 8147SOL    HW135900   3.686   3.355   2.521  0.7821  0.7794 -1.5101
 8147SOL    HW235901   3.690   3.502   2.545  0.7443  0.9710 -2.8111
 8148SOL     OW35902   1.722   1.012  11.141  0.2976  0.3202 -0.6206
 8148SOL    HW135903   1.656   1.011  11.210  1.4311 -0.1186  0.4609
 8148SOL    HW235904   1.747   0.920  11.137 -0.7186 -0.0488  1.6003
 8149SOL     OW35905   0.822   1.272  15.887 -0.1980  0.2081 -0.8085
 8149SOL    HW135906   0.783   1.352  15.923  0.0311  0.6594 -1.5516
 8149SOL    HW235907   0.808   1.223  15.968 -0.6544 -0.4826 -1.3041
 8150SOL     OW35908   2.879   3.605   8.372 -0.3831  0.0164  0.2111
 8150SOL    HW135909   2.890   3.661   8.449 -1.0203 -0.7476  0.8522
 8150SOL    HW235910   2.954   3.548   8.388  1.3130  1.3964 -2.8370
 8151SOL     OW35911   3.268   0.116  11.178 -0.6064 -0.3970  0.8145
 8151SOL    HW135912   3.174   0.130  11.174  0.1074  4.7284  2.6653
 8151SOL    HW235913   3.284   0.163  11.260 -1.3606  0.7582  0.2839
 8152SOL     OW35914   0.769   2.077   6.100 -0.2359  0.7697 -0.1123
 8152SOL    HW135915   0.765   1.982   6.091  0.5142  0.7211  0.0292
 8152SOL    HW235916   0.809   2.086   6.186  1.2405 -3.7127 -0.3238
 8153SOL     OW35917   2.361   0.298   5.644 -0.0191  0.3338  0.3014
 8153SOL    HW135918   2.333   0.386   5.621  2.4278  0.4664 -2.1564
 8153SOL    HW235919   2.288   0.244   5.612 -0.6865  0.9107  0.8631
 8154SOL     OW35920   1.745   0.656  10.172  0.5323  0.2554 -0.1740
 8154SOL    HW135921   1.787   0.622  10.094  0.7988  0.3088 -0.0545
 8154SOL    HW235922   1.683   0.719  10.135 -1.5710 -0.4935  2.0331
 8155SOL     OW35923   0.605   4.225  10.095 -0.4754  0.1536  0.2794
 8155SOL    HW135924   0.616   4.270  10.011 -0.7897  0.6017  0.4794
 8155SOL    HW235925   0.537   4.281  10.132 -1.6629  0.4311 -2.2796
 8156SOL     OW35926   1.148   2.492   3.833  0.1774 -0.7122 -0.0321
 8156SOL    HW135927   1.191   2.518   3.752  0.3562 -0.3865  0.1655
 8156SOL    HW235928   1.066   2.541   3.841  0.3063 -0.2320 -1.6588
 8157SOL     OW35929   3.586   4.560   6.836 -0.8351 -0.2386  0.4865
 8157SOL    HW135930   3.617   4.615   6.908 -0.9351 -1.4602  1.4661
 8157SOL    HW235931   3.507   4.610   6.816 -0.5898  0.4449  1.2315
 8158SOL     OW35932   2.901   1.045   8.721  0.4797  0.0779  0.4580
 8158SOL    HW135933   2.863   1.132   8.735 -2.9058 -1.2126 -0.6035
 8158SOL    HW235934   2.976   1.047   8.780  0.1586  0.8765  0.8350
 8159SOL     OW35935   3.531   3.220   3.289  0.1768  0.0745  0.1707
 8159SOL    HW135936   3.462   3.270   3.246 -0.0405  0.7604  1.3306
 8159SOL    HW235937   3.484   3.138   3.307 -0.1298  0.3958  0.8269
 8160SOL     OW35938   1.029   2.674   2.106 -0.2615 -0.2111  0.7756
 8160SOL    HW135939   1.102   2.698   2.164 -0.5766  1.5092  0.4697
 8160SOL    HW235940   1.039   2.733   2.031 -1.0929  1.0989  1.6853
 8161SOL     OW35941   3.891   0.127   4.039  0.2957 -0.4512  0.2658
 8161SOL    HW135942   3.893   0.056   4.103 -1.6754 -2.1138 -1.5145
 8161SOL    HW235943   3.983   0.153   4.043 -0.1170  0.9097  0.9018
 8162SOL     OW35944   3.488   2.518   0.545  0.0692 -0.2883  0.2142
 8162SOL    HW135945   3.419   2.457   0.520 -1.4293  1.3157  0.4536
 8162SOL    HW235946   3.436   2.566   0.610 -0.3031 -0.1451 -0.1946
 8163SOL     OW35947   2.105   1.949  15.590  0.6535 -0.2798  0.0526
 8163SOL    HW135948   2.120   2.014  15.521  2.0938 -1.0886 -0.3994
 8163SOL    HW235949   2.013   1.923  15.591  0.2373  1.1491 -2.0761
 8164SOL     OW35950   3.218   3.481   2.958  0.4258 -0.1643 -0.1435
 8164SOL    HW135951   3.123   3.474   2.966  0.5253 -1.5713 -0.2098
 8164SOL    HW235952   3.230   3.535   2.880  2.1007 -1.6194 -0.8748
 8165SOL     OW35953   0.633   4.395   5.173  0.1758  0.0097 -0.3762
 8165SOL    HW135954   0.656   4.455   5.102 -0.7243  0.9083  0.0843
 8165SOL    HW235955   0.541   4.388   5.148 -0.0025 -0.2098  0.3212
 8166SOL     OW35956   2.156   3.802   5.247 -0.1456 -0.2889  0.2438
 8166SOL    HW135957   2.133   3.739   5.315  3.1509 -2.0274 -0.2837
 8166SOL    HW235958   2.139   3.888   5.285  4.2241  1.4918 -1.8600
 8167SOL     OW35959   2.562   0.100   7.763  0.1522 -0.1211  0.2339
 8167SOL    HW135960   2.626   0.057   7.706  0.4673  1.0996 -0.3460
 8167SOL    HW235961   2.579   0.059   7.848  0.4629 -0.7564 -0.1404
 8168SOL     OW35962   2.282   4.193  15.249 -0.0823 -0.4175  0.2393
 8168SOL    HW135963   2.321   4.109  15.223  1.5668  0.8805 -1.4921
 8168SOL    HW235964   2.187   4.185  15.248 -0.0145 -1.4886  1.3707
 8169SOL     OW35965   3.320   1.463  13.653  0.3562  0.1997 -0.3077
 8169SOL    HW135966   3.359   1.382  13.622 -2.4918 -1.3062  0.0526
 8169SOL    HW235967   3.248   1.428  13.707 -0.0698  0.3608 -0.7699
 8170SOL     OW35968   1.002   3.747  17.544 -0.1800  0.3145 -0.2510
 8170SOL    HW135969   0.934   3.793  17.593 -1.8690 -2.7582  0.2376
 8170SOL    HW235970   1.047   3.810  17.487 -0.6398 -0.6171 -1.6357
 8171SOL     OW35971   2.160   1.485   6.761  0.2472  0.1142  0.6681
 8171SOL    HW135972   2.089   1.532   6.717  0.4621  0.1444  0.3521
 8171SOL    HW235973   2.137   1.393   6.752  1.4452 -0.1155 -0.1589
 8172SOL     OW35974   3.115   1.168   6.414 -0.5589  0.0366 -0.4588
 8172SOL    HW135975   3.086   1.094   6.467 -0.9430 -1.1462 -2.3065
 8172SOL    HW235976   3.033   1.203   6.379 -0.5057  1.0375  0.4163
 8173SOL     OW35977   1.056   4.171   4.506  0.6785 -0.7067  0.0059
 8173SOL    HW135978   1.010   4.178   4.589  1.9585  0.2087  0.6376
 8173SOL    HW235979   1.107   4.252   4.508  1.2457 -1.0549 -0.2782
 8174SOL     OW35980   4.044   1.341   2.166  0.0825 -0.2551  0.1768
 8174SOL    HW135981   4.049   1.435   2.184 -1.2514  0.3743 -2.8495
 8174SOL    HW235982   4.123   1.342   2.112  0.9183 -0.8261  1.3762
 8175SOL     OW35983   3.464   1.797   3.156  0.4065  0.3240 -0.1483
 8175SOL    HW135984   3.479   1.891   3.152 -1.2328  0.6320  0.7416
 8175SOL    HW235985   3.552   1.768   3.133  0.9171 -0.0758  2.2864
 8176SOL     OW35986   4.464   3.277  11.511  0.7346  0.6368  0.1344
 8176SOL    HW135987   4.452   3.221  11.435 -1.6837  1.6579 -0.2487
 8176SOL    HW235988   4.382   3.327  11.501 -0.5836 -1.6286 -0.4572
 8177SOL     OW35989   1.071   1.584   3.477 -0.1791 -0.1141  0.4487
 8177SOL    HW135990   1.071   1.509   3.536  0.0301 -1.2671 -1.0088
 8177SOL    HW235991   0.977   1.603   3.479  0.2607  2.2375 -1.5881
 8178SOL     OW35992   2.956   2.576   3.658 -0.2673  0.1622  0.3371
 8178SOL    HW135993   2.896   2.615   3.596 -1.0574 -1.8669 -0.1587
 8178SOL    HW235994   2.894   2.512   3.694  0.6045 -2.2111 -2.4224
 8179SOL     OW35995   1.869   1.848   6.065  0.1459  0.1511 -0.0263
 8179SOL    HW135996   1.937   1.781   6.062 -0.4350 -0.4616  0.5682
 8179SOL    HW235997   1.865   1.875   5.973 -1.7190 -0.5308 -0.1425
 8180SOL     OW35998   4.193   0.070   7.047  0.3126 -0.1614  0.5143
 8180SOL    HW135999   4.235   4.708   7.052  2.6326  0.8697 -1.3234
 8180SOL    HW236000   4.154   0.080   7.134  0.2730 -0.6565  0.5515
 8181SOL     OW36001   4.217   2.253   4.607 -0.0056  0.1033  0.1531
 8181SOL    HW136002   4.150   2.307   4.564 -1.1974  0.0290  1.9285
 8181SOL    HW236003   4.164   2.254   4.687  1.9049 -1.7609  1.4389
 8182SOL     OW36004   0.924   1.384   5.018  0.3075 -0.1260  0.0295
 8182SOL    HW136005   0.878   1.305   4.990  2.1015 -1.0995 -0.2386
 8182SOL    HW236006   0.943   1.411   4.928  0.3399  0.5136  0.2295
 8183SOL     OW36007   1.641   3.678   4.013  0.1838  0.9107 -0.1687
 8183SOL    HW136008   1.547   3.664   4.024  0.2898 -0.4896 -1.1514
 8183SOL    HW236009   1.650   3.680   3.918 -0.1384 -0.8708 -0.2308
 8184SOL     OW36010   2.508   1.686  15.802  0.3304 -0.3551 -0.8471
 8184SOL    HW136011   2.417   1.711  15.787  0.5877  0.4007 -1.1490
 8184SOL    HW236012   2.554   1.756  15.756 -1.4051  0.9521 -0.5932
 8185SOL     OW36013   3.355   0.484   2.987 -0.1128  0.1181 -0.2319
 8185SOL    HW136014   3.356   0.390   3.008  1.6720  0.4735  1.3106
 8185SOL    HW236015   3.444   0.515   3.004  0.3324 -0.0853 -2.1352
 8186SOL     OW36016   3.228   3.312   0.082  0.3487 -0.5965  0.2540
 8186SOL    HW136017   3.293   3.337   0.148 -1.5884 -0.5243  2.1211
 8186SOL    HW236018   3.268   3.259   0.013 -1.4852 -0.5028 -0.8868
 8187SOL     OW36019   2.228   2.466   7.537 -0.5578 -0.1182  0.0072
 8187SOL    HW136020   2.305   2.409   7.536 -0.4505  0.0493 -0.8154
 8187SOL    HW236021   2.266   2.549   7.566  0.2993  0.2334 -2.1729
 8188SOL     OW36022   3.570   2.101   4.604  0.3036  0.1985 -0.0484
 8188SOL    HW136023   3.564   2.132   4.514  2.0268 -0.2070 -0.3026
 8188SOL    HW236024   3.543   2.009   4.608 -0.7552  0.5406  0.8473
 8189SOL     OW36025   2.457   0.676  12.918 -0.9883 -0.1658  0.9921
 8189SOL    HW136026   2.385   0.642  12.971 -0.2106 -0.3579  1.9243
 8189SOL    HW236027   2.510   0.599  12.895 -1.8041  0.3957 -2.7608
 8190SOL     OW36028   2.179   0.834   6.254 -0.2098  0.3193  0.6748
 8190SOL    HW136029   2.162   0.740   6.255 -1.9514  0.6512  1.6928
 8190SOL    HW236030   2.253   0.853   6.311 -0.0997  0.5836  0.4485
 8191SOL     OW36031   3.775   0.353   3.938 -0.3245  0.4293  0.4178
 8191SOL    HW136032   3.827   0.413   3.991 -0.5454  1.6163 -0.7039
 8191SOL    HW236033   3.814   0.267   3.948  1.0661  1.1431  1.0539
 8192SOL     OW36034   3.196   2.953   8.504  0.2580  0.2205  0.1912
 8192SOL    HW136035   3.130   3.022   8.493 -0.6962 -0.7825 -0.3328
 8192SOL    HW236036   3.140   2.876   8.504  1.7398 -0.8536  0.6047
 8193SOL     OW36037   2.769   2.366  14.569  0.9319  0.3404 -0.3026
 8193SOL    HW136038   2.817   2.428  14.623 -0.9465  2.1947 -0.7714
 8193SOL    HW236039   2.727   2.309  14.634 -0.9813 -2.0673 -3.6711
 8194SOL     OW36040   1.728   0.710   4.935 -0.0237  0.8874  0.2308
 8194SOL    HW136041   1.709   0.702   4.842 -0.1303  0.1585  0.3136
 8194SOL    HW236042   1.813   0.751   4.943  0.0602  0.9547 -0.9902
 8195SOL     OW36043   3.477   1.829   9.180  0.7628  0.0838  1.0760
 8195SOL    HW136044   3.520   1.770   9.119 -1.3022  0.6618 -0.9157
 8195SOL    HW236045   3.447   1.904   9.130 -1.0100 -2.7393 -2.0614
 8196SOL     OW36046   2.746   2.331  11.627 -0.4148 -0.2245 -0.0344
 8196SOL    HW136047   2.822   2.273  11.621  0.2217  0.5145  0.9037
 8196SOL    HW236048   2.680   2.264  11.648  2.5536 -2.6022  1.6900
 8197SOL     OW36049   3.028   4.291   6.271  0.1836 -0.1293 -0.4812
 8197SOL    HW136050   3.004   4.244   6.191  2.3909 -2.0710 -0.0282
 8197SOL    HW236051   3.024   4.217   6.332 -1.4536  2.3575  2.3856
 8198SOL     OW36052   1.230   4.483   8.418 -0.7227 -0.2764 -0.0579
 8198SOL    HW136053   1.288   4.432   8.361  0.1415 -0.9660  1.4503
 8198SOL    HW236054   1.298   4.534   8.462  0.9110 -0.8285 -1.9132
 8199SOL     OW36055   2.666   0.562   9.071 -0.8143  0.0326  0.0658
 8199SOL    HW136056   2.708   0.644   9.045 -1.3745  0.7071  1.2755
 8199SOL    HW236057   2.573   0.566   9.052 -0.7968 -2.3393 -0.4376
 8200SOL     OW36058   0.399   4.413   1.902  0.0461 -0.0692 -0.3941
 8200SOL    HW136059   0.346   4.491   1.912  0.1194 -0.0824  0.1486
 8200SOL    HW236060   0.421   4.390   1.993  2.7342  2.3251 -0.4522
 8201SOL     OW36061   2.550   2.234  14.972 -0.1094 -0.5146  0.4928
 8201SOL    HW136062   2.565   2.321  14.937 -2.4242 -0.1504  0.3980
 8201SOL    HW236063   2.455   2.236  14.959  0.0003 -2.0722 -0.6215
 8202SOL     OW36064   2.592   1.661   7.803 -0.3829  0.3758  0.3108
 8202SOL    HW136065   2.549   1.604   7.739 -0.6593  0.1339  0.7074
 8202SOL    HW236066   2.563   1.618   7.883  0.8575 -0.9457  0.0480
 8203SOL     OW36067   3.101   1.624  15.742 -0.1385  0.1286 -0.1870
 8203SOL    HW136068   3.145   1.690  15.689  0.4053  0.4492  0.6569
 8203SOL    HW236069   3.114   1.542  15.693 -1.8307  1.1128 -2.2843
 8204SOL     OW36070   1.448   1.021   7.833 -0.1145  0.5930 -0.2152
 8204SOL    HW136071   1.400   1.022   7.916 -1.1549  1.0816 -0.8278
 8204SOL    HW236072   1.509   1.094   7.842  0.5169 -0.0600  0.7461
 8205SOL     OW36073   0.918   2.366  10.923 -0.4013  0.0478  0.2891
 8205SOL    HW136074   0.832   2.378  10.883  0.3174 -2.3893 -2.0098
 8205SOL    HW236075   0.926   2.445  10.977  1.8995 -0.4786  0.7354
 8206SOL     OW36076   4.332   3.650   5.662  0.0060  0.2835 -0.0374
 8206SOL    HW136077   4.321   3.561   5.695 -0.0498 -0.1027 -1.1304
 8206SOL    HW236078   4.426   3.671   5.666 -0.3034  1.2802  2.3446
 8207SOL     OW36079   0.951   0.564  11.937  0.1195  0.3530 -0.1938
 8207SOL    HW136080   0.943   0.470  11.951  2.0007  0.2115 -0.0349
 8207SOL    HW236081   0.897   0.601  12.006 -1.3624 -1.9969 -0.0845
 8208SOL     OW36082   0.073   1.967   1.324  0.0733 -0.2352 -0.1499
 8208SOL    HW136083   0.157   2.007   1.301 -0.1602  1.1712  1.3785
 8208SOL    HW236084   0.055   1.893   1.267  1.6995 -1.0813  0.4401
 8209SOL     OW36085   2.820   1.055   5.078 -0.5367  0.0873 -0.1195
 8209SOL    HW136086   2.764   1.011   5.015 -0.8380 -0.9813  0.8840
 8209SOL    HW236087   2.744   1.087   5.126 -1.0437 -3.8824  1.7136
 8210SOL     OW36088   4.161   1.379   0.973  0.5639 -0.7682 -0.3935
 8210SOL    HW136089   4.113   1.301   0.944 -0.7692  0.1546 -0.6304
 8210SOL    HW236090   4.125   1.441   0.910  0.6382 -0.2087  0.1204
 8211SOL     OW36091   3.498   1.505   2.835  0.1298 -0.2935  0.1635
 8211SOL    HW136092   3.507   1.596   2.806  0.1971 -0.3676 -0.0486
 8211SOL    HW236093   3.417   1.487   2.787 -0.8977  1.5960  1.1953
 8212SOL     OW36094   0.006   2.480   3.895 -0.4816 -0.5700  0.7372
 8212SOL    HW136095   0.065   2.462   3.968  1.1845 -0.2302 -0.5214
 8212SOL    HW236096   4.721   2.398   3.846  0.2845 -0.2161  0.0184
 8213SOL     OW36097   1.488   0.505   6.196  0.3631 -0.4309 -0.1788
 8213SOL    HW136098   1.534   0.574   6.245 -0.1724 -0.1341 -0.0951
 8213SOL    HW236099   1.396   0.528   6.209  0.8731  1.5846 -0.2094
 8214SOL     OW36100   0.637   3.375   5.341  0.1979 -1.0251 -0.0473
 8214SOL    HW136101   0.561   3.328   5.307 -0.3954  0.7046 -1.1436
 8214SOL    HW236102   0.609   3.396   5.429  0.6953 -1.3066  0.1798
 8215SOL     OW36103   2.482   3.873   5.134 -0.1839  0.0685  0.0149
 8215SOL    HW136104   2.412   3.842   5.077 -0.9828  0.4404  0.7776
 8215SOL    HW236105   2.503   3.784   5.162 -3.6348 -0.3267  1.3733
 8216SOL     OW36106   0.242   1.533   6.397  0.1477  0.2805 -0.7031
 8216SOL    HW136107   0.315   1.471   6.395  1.7639  2.1802 -0.8706
 8216SOL    HW236108   0.177   1.480   6.351  1.4718 -1.5708 -0.4694
 8217SOL     OW36109   2.749   3.058   2.337 -0.4474 -0.1856 -0.7907
 8217SOL    HW136110   2.757   2.964   2.350 -1.2024 -0.2927 -1.0924
 8217SOL    HW236111   2.841   3.076   2.319 -0.5212  0.3956 -0.5878
 8218SOL     OW36112   0.680   2.559   5.801  0.2846  0.1605 -0.8607
 8218SOL    HW136113   0.771   2.585   5.785  0.4245 -0.9076 -1.8265
 8218SOL    HW236114   0.664   2.513   5.718  2.6394  1.3570 -2.0090
 8219SOL     OW36115   4.181   3.844   8.011  0.2080  0.0538  0.5046
 8219SOL    HW136116   4.169   3.883   7.924  1.4468 -0.5468  0.0630
 8219SOL    HW236117   4.108   3.782   8.010 -0.8027  1.2547  0.3856
 8220SOL     OW36118   2.526   4.082   7.404  0.2987 -0.0647 -0.2461
 8220SOL    HW136119   2.465   4.069   7.476  1.1670 -3.0431 -0.0443
 8220SOL    HW236120   2.495   4.013   7.346  0.2275 -0.5052  0.3164
 8221SOL     OW36121   1.927   1.261  14.879  0.2817  0.5688 -0.6348
 8221SOL    HW136122   1.955   1.222  14.962  1.5310  1.1770 -0.7683
 8221SOL    HW236123   1.922   1.179  14.830 -0.7792 -0.7295  1.6083
 8222SOL     OW36124   0.811   0.623   7.212 -0.7746 -0.2329  0.1646
 8222SOL    HW136125   0.849   0.606   7.298  0.2364  3.0728  0.3654
 8222SOL    HW236126   0.874   0.688   7.181 -0.0608 -1.3282 -0.6455
 8223SOL     OW36127   3.751   0.826  10.663 -0.6856  0.3341  0.3308
 8223SOL    HW136128   3.707   0.888  10.604 -1.3442  0.9880  1.5165
 8223SOL    HW236129   3.838   0.865  10.660 -0.5029 -0.0876  0.2810
 8224SOL     OW36130   4.123   0.876  15.345 -0.0296 -0.4801 -0.0494
 8224SOL    HW136131   4.172   0.957  15.332 -0.8763 -0.0362 -0.4801
 8224SOL    HW236132   4.173   0.832  15.414  1.1029  0.5694 -0.1868
 8225SOL     OW36133   3.754   3.980   0.858  0.3167 -0.0335 -0.1761
 8225SOL    HW136134   3.686   3.999   0.792 -0.2194 -0.6596  0.1977
 8225SOL    HW236135   3.758   3.886   0.841  0.4193 -0.5423  2.6916
 8226SOL     OW36136   2.972   2.848   2.874  0.6074 -0.3104  0.0512
 8226SOL    HW136137   2.941   2.777   2.931 -0.9891  0.7416  0.5217
 8226SOL    HW236138   3.002   2.798   2.798  1.6575  0.6094 -0.1322
 8227SOL     OW36139   3.219   4.263   9.076 -0.0364  0.3738 -0.4561
 8227SOL    HW136140   3.139   4.221   9.042 -1.1435  0.5003  2.0171
 8227SOL    HW236141   3.277   4.192   9.104 -1.3614  0.6336  2.9490
 8228SOL     OW36142   3.318   3.040   6.522 -0.7043 -0.3253  0.1688
 8228SOL    HW136143   3.283   2.957   6.556 -1.1675 -0.5618 -0.9001
 8228SOL    HW236144   3.257   3.102   6.561 -0.7276  1.1037 -2.1536
 8229SOL     OW36145   4.469   0.814  13.829  0.1038  0.3012 -0.1314
 8229SOL    HW136146   4.505   0.821  13.917 -0.7018  0.0499  0.2154
 8229SOL    HW236147   4.521   0.880  13.783  2.8027 -1.1488  0.9050
 8230SOL     OW36148   2.988   2.620   1.361 -0.1830  0.0329 -0.0401
 8230SOL    HW136149   3.004   2.526   1.358  1.2996  0.2831 -0.1099
 8230SOL    HW236150   2.898   2.640   1.385  0.0900  0.3286  0.7202
 8231SOL     OW36151   0.346   3.224   2.319  0.6805  0.2570 -0.0939
 8231SOL    HW136152   0.292   3.259   2.390 -0.1863 -0.6848 -0.2805
 8231SOL    HW236153   0.352   3.306   2.269  3.0042 -0.4523 -0.9872
 8232SOL     OW36154   1.854   4.479   7.306 -0.0603 -0.0504 -0.3241
 8232SOL    HW136155   1.837   4.478   7.401  0.6128  0.1199 -0.2040
 8232SOL    HW236156   1.858   4.385   7.286  0.7500  0.2201 -1.3885
 8233SOL     OW36157   3.873   4.431  11.451 -0.3303  0.4622  0.3692
 8233SOL    HW136158   3.907   4.494  11.388  1.7664  1.4574  2.5023
 8233SOL    HW236159   3.870   4.483  11.531 -3.0617 -0.6814  1.0324
 8234SOL     OW36160   3.068   2.667  15.141 -0.2073 -0.0731 -0.1454
 8234SOL    HW136161   3.030   2.644  15.056  2.2933 -0.0282 -1.2631
 8234SOL    HW236162   3.142   2.608  15.129  0.6481  1.3419 -1.9260
 8235SOL     OW36163   0.250   1.768   6.529 -0.1775 -0.4208  0.2726
 8235SOL    HW136164   0.285   1.760   6.618 -0.0875 -0.5835  0.2226
 8235SOL    HW236165   0.259   1.677   6.501 -0.9724  0.2115 -2.0808
 8236SOL     OW36166   3.690   3.235   9.017 -0.1849 -0.3538  0.4754
 8236SOL    HW136167   3.696   3.311   8.959 -0.9041 -2.0169 -1.7632
 8236SOL    HW236168   3.700   3.286   9.098  0.7734 -0.0023  0.1356
 8237SOL     OW36169   2.753   2.237   3.956  0.5185 -0.3842 -0.3592
 8237SOL    HW136170   2.660   2.262   3.950 -0.2253 -3.3175 -1.1325
 8237SOL    HW236171   2.744   2.142   3.965  1.7064 -0.4328  0.2282
 8238SOL     OW36172   3.827   0.049   2.347  0.0838 -0.0187 -0.0673
 8238SOL    HW136173   3.824   4.680   2.371  0.2670  0.1944  0.7591
 8238SOL    HW236174   3.734   0.053   2.322 -0.2748 -1.3497  1.0079
 8239SOL     OW36175   1.005   0.918   5.410 -0.5885 -0.4425 -0.3614
 8239SOL    HW136176   1.076   0.964   5.455 -0.6271  0.5482 -1.3092
 8239SOL    HW236177   0.976   0.857   5.477 -0.8285 -0.7738 -0.7646
 8240SOL     OW36178   4.018   2.799   2.714  0.0080 -0.6439 -0.2268
 8240SOL    HW136179   4.065   2.801   2.630  0.8014 -0.3271  0.2210
 8240SOL    HW236180   4.069   2.726   2.749  3.3398  0.9529 -1.6813
 8241SOL     OW36181   2.927   1.933   3.738  0.2857  0.2232 -0.6565
 8241SOL    HW136182   2.883   1.987   3.672 -0.7331 -1.9303 -1.7421
 8241SOL    HW236183   2.866   1.860   3.730  2.7213 -2.1695  2.5558
 8242SOL     OW36184   1.821   3.510   7.895 -0.2093  0.1195 -0.2840
 8242SOL    HW136185   1.745   3.565   7.914 -0.3720 -1.1154  2.6585
 8242SOL    HW236186   1.836   3.457   7.973 -2.1024 -2.1727 -1.4736
 8243SOL     OW36187   0.912   4.448   4.928  0.1803 -0.1029  0.6411
 8243SOL    HW136188   0.907   4.474   4.836  1.4234  2.4991  1.3303
 8243SOL    HW236189   0.829   4.488   4.956 -0.0378 -1.5521  2.1183
 8244SOL     OW36190   1.323   1.712   6.113  1.0355  0.2559  0.4262
 8244SOL    HW136191   1.408   1.707   6.157  1.4153 -1.5452 -0.4871
 8244SOL    HW236192   1.316   1.788   6.056  1.4678  2.2726  3.0720
 8245SOL     OW36193   3.996   3.436   7.586  0.7462 -0.3801 -0.0723
 8245SOL    HW136194   4.074   3.382   7.601  0.4221 -0.0210  2.9252
 8245SOL    HW236195   3.989   3.417   7.493  4.6397 -0.5191 -0.3197
 8246SOL     OW36196   1.364   1.326   9.482 -0.0599 -0.1437 -0.8445
 8246SOL    HW136197   1.361   1.232   9.501 -2.3573 -0.0277 -0.6130
 8246SOL    HW236198   1.398   1.335   9.393  0.2613 -0.5913 -0.7689
 8247SOL     OW36199   1.769   2.143  16.576 -0.3478  0.3825 -0.2831
 8247SOL    HW136200   1.679   2.128  16.603 -0.6483  1.4755 -0.6742
 8247SOL    HW236201   1.809   2.057  16.586 -4.1264 -1.1852  1.2754
 8248SOL     OW36202   2.325   4.246   3.122  0.3742  0.3667 -0.1641
 8248SOL    HW136203   2.324   4.259   3.027  2.4824 -0.9310 -0.3567
 8248SOL    HW236204   2.420   4.242   3.130  0.2929  0.3756  0.8279
 8249SOL     OW36205   1.751   2.704   2.740 -0.2179  0.0462 -0.0079
 8249SOL    HW136206   1.771   2.713   2.647 -0.7039 -2.0183 -0.3223
 8249SOL    HW236207   1.655   2.703   2.738 -0.2353  0.0074  0.9915
 8250SOL     OW36208   1.587   0.351   8.587  0.3951 -0.5026  0.5115
 8250SOL    HW136209   1.538   0.426   8.621  1.1580 -1.0827  2.8384
 8250SOL    HW236210   1.529   0.316   8.519  0.9401  1.2129 -0.8318
 8251SOL     OW36211   1.808   2.327   2.443  0.3780 -0.6710  0.0377
 8251SOL    HW136212   1.877   2.389   2.466  0.1088  0.0394 -1.0480
 8251SOL    HW236213   1.735   2.354   2.499  1.6909  0.1552  1.3262
 8252SOL     OW36214   1.955   0.348  14.076  1.0282  0.8513 -0.2516
 8252SOL    HW136215   2.029   0.408  14.083  1.4439  0.1588  1.2479
 8252SOL    HW236216   2.005   0.294  14.015 -0.7966 -1.4609  0.3089
 8253SOL     OW36217   0.067   1.489   2.661 -0.3177  0.1899  0.5547
 8253SOL    HW136218   0.028   1.571   2.632 -0.0042 -0.2941 -1.2356
 8253SOL    HW236219   0.008   1.423   2.625  1.6284 -1.6284  0.6867
 8254SOL     OW36220   4.355   3.773  16.872 -0.4999 -0.2107 -0.1919
 8254SOL    HW136221   4.393   3.798  16.788 -0.3463 -1.0568 -0.3686
 8254SOL    HW236222   4.414   3.704  16.899  2.2076  2.8580  1.7138
 8255SOL     OW36223   1.693   3.393   1.246 -0.9019 -0.9528  0.4095
 8255SOL    HW136224   1.693   3.483   1.214  0.8734 -1.5211 -1.1312
 8255SOL    HW236225   1.696   3.400   1.341  3.3118 -1.9782  0.3413
 8256SOL     OW36226   3.197   0.220   4.553  0.0807  0.2679  0.1339
 8256SOL    HW136227   3.111   0.239   4.591 -0.7101  1.5629 -2.3144
 8256SOL    HW236228   3.179   0.147   4.494  0.9107 -0.8803  1.2929
 8257SOL     OW36229   0.456   2.082   2.275 -0.4783 -0.2425  0.4027
 8257SOL    HW136230   0.366   2.063   2.247 -0.5937  0.1994  0.4767
 8257SOL    HW236231   0.505   2.080   2.194 -2.0989  0.8757 -0.6182
 8258SOL     OW36232   0.229   2.744   4.672 -0.3766 -0.4759  0.2630
 8258SOL    HW136233   0.221   2.750   4.576  2.0777 -1.7237 -0.0166
 8258SOL    HW236234   0.196   2.656   4.688  1.0114 -0.7406  1.6259
 8259SOL     OW36235   4.714   3.948  10.815  0.6726 -0.6143  0.3009
 8259SOL    HW136236   0.028   3.868  10.779 -1.6143 -1.6779  0.2713
 8259SOL    HW236237   0.029   3.944  10.902  1.2922  0.7600  0.0997
 8260SOL     OW36238   0.405   0.956   4.660 -0.5123  0.8085 -0.5596
 8260SOL    HW136239   0.414   0.928   4.751  0.1563 -1.4290 -1.3306
 8260SOL    HW236240   0.391   1.051   4.667 -2.9475  0.3706  0.5494
 8261SOL     OW36241   3.321   0.042  12.971  0.2163 -0.4254  0.3583
 8261SOL    HW136242   3.309   0.109  12.903 -0.2972 -2.0636 -1.1692
 8261SOL    HW236243   3.354   4.688  12.926  2.7334  1.6119 -1.2404
 8262SOL     OW36244   1.358   2.520   7.908 -0.0782 -0.2995  0.3868
 8262SOL    HW136245   1.360   2.482   7.996  1.6669  0.9105  0.8527
 8262SOL    HW236246   1.441   2.491   7.872  0.1583  1.2574 -0.3248
 8263SOL     OW36247   0.207   3.277   5.085  0.0010  0.0641 -0.0361
 8263SOL    HW136248   0.215   3.182   5.082  1.5279  0.2497 -1.5110
 8263SOL    HW236249   0.111   3.277   5.076 -0.1401  0.5752  1.5630
 8264SOL     OW36250   2.179   2.620  17.541  0.4940  0.4355 -0.4255
 8264SOL    HW136251   2.245   2.680  17.505  3.8688 -3.1691 -0.2766
 8264SOL    HW236252   2.096   2.664  17.524  0.6107 -0.1966 -2.5968
 8265SOL     OW36253   1.597   1.815   4.359 -0.4463  0.2995 -0.0741
 8265SOL    HW136254   1.621   1.820   4.267  0.1872  0.1431  0.0785
 8265SOL    HW236255   1.515   1.766   4.365 -1.8041  2.6460  0.2071
 8266SOL     OW36256   2.191   4.178   8.483  0.2990  0.4558 -0.0425
 8266SOL    HW136257   2.145   4.095   8.469 -1.5364  1.2757  1.1044
 8266SOL    HW236258   2.151   4.205   8.566  1.3703  1.5150  0.1357
 8267SOL     OW36259   0.179   1.689   0.186 -0.3529 -0.6927 -0.1348
 8267SOL    HW136260   0.227   1.684   0.103 -0.1510  2.5996 -0.2071
 8267SOL    HW236261   0.098   1.642   0.167  1.0686 -2.9095 -0.7540
 8268SOL     OW36262   0.021   0.506   4.768 -0.9816 -0.3157  0.4424
 8268SOL    HW136263   4.705   0.569   4.707  0.5112 -0.5336 -0.7712
 8268SOL    HW236264   4.710   0.547   4.847 -1.0717  1.6768 -0.6070
 8269SOL     OW36265   1.757   3.750  14.869  0.3159  0.5077  0.0017
 8269SOL    HW136266   1.845   3.713  14.879  0.1040  0.1917  0.6672
 8269SOL    HW236267   1.747   3.729  14.776 -3.2291  1.4769  0.1591
 8270SOL     OW36268   1.676   0.539  17.165  0.6061  0.1486  0.1155
 8270SOL    HW136269   1.700   0.620  17.120  0.0160 -0.4260 -1.2227
 8270SOL    HW236270   1.672   0.591  17.245  1.9006  1.3308 -0.5740
 8271SOL     OW36271   1.133   4.554   0.521 -0.4658 -0.0587  0.2236
 8271SOL    HW136272   1.222   4.581   0.498  0.1856  0.0638  2.9353
 8271SOL    HW236273   1.078   4.628   0.547 -0.5603 -0.0853  0.1026
 8272SOL     OW36274   0.442   2.047   4.008  0.2856  0.1116  0.1752
 8272SOL    HW136275   0.433   1.952   4.012  1.1424  0.0066 -0.5351
 8272SOL    HW236276   0.370   2.066   3.948  0.1714  1.1810  0.6453
 8273SOL     OW36277   3.774   0.144   0.031  0.4571  0.2508  0.5289
 8273SOL    HW136278   3.733   0.059   0.018 -1.1058  0.9799  0.6586
 8273SOL    HW236279   3.761   0.187  17.643 -1.0801  0.4191  0.8494
 8274SOL     OW36280   0.162   0.701  11.021  0.4884  0.3886 -0.4052
 8274SOL    HW136281   0.080   0.654  11.005 -0.0111  0.3860  2.2588
 8274SOL    HW236282   0.125   0.789  11.017 -1.2082 -0.3044 -0.1332
 8275SOL     OW36283   0.746   2.867   2.781  0.3020  0.1077 -0.1665
 8275SOL    HW136284   0.762   2.776   2.755  0.7569 -0.1624  1.0729
 8275SOL    HW236285   0.759   2.900   2.692 -1.9694 -1.3926 -1.0462
 8276SOL     OW36286   2.843   4.576  13.592  0.2058  0.4066 -0.2151
 8276SOL    HW136287   2.920   4.625  13.621 -1.9216  1.9836  2.7208
 8276SOL    HW236288   2.826   4.531  13.674 -3.0891  0.1722 -1.0295
 8277SOL     OW36289   3.655   0.772   7.671 -0.2606  0.0678 -0.0137
 8277SOL    HW136290   3.633   0.797   7.761 -1.3678 -0.3576 -0.1703
 8277SOL    HW236291   3.740   0.737   7.695 -0.4182  0.1875  0.7024
 8278SOL     OW36292   1.757   3.214  15.371  0.1587 -0.0242  0.3088
 8278SOL    HW136293   1.815   3.138  15.372 -2.2688 -1.9588 -3.3514
 8278SOL    HW236294   1.793   3.257  15.448  1.2657 -1.2365  0.4623
 8279SOL     OW36295   1.412   3.985   6.373  0.3518 -0.5471  0.2464
 8279SOL    HW136296   1.325   3.973   6.335  1.1725 -1.4978 -1.3300
 8279SOL    HW236297   1.403   4.066   6.424  1.4060 -0.8105  0.8502
 8280SOL     OW36298   2.303   3.620   4.656  0.1231  0.0245 -0.5991
 8280SOL    HW136299   2.262   3.538   4.631  2.3779 -1.5413  0.8699
 8280SOL    HW236300   2.234   3.685   4.670  1.1854  0.8451  0.8188
 8281SOL     OW36301   3.041   0.242   2.757 -0.1870 -0.1477 -0.0206
 8281SOL    HW136302   2.962   0.193   2.779  1.4741 -3.2516 -0.8949
 8281SOL    HW236303   3.016   0.331   2.782 -0.7702 -0.5493  0.8226
 8282SOL     OW36304   1.307   3.969  15.581  0.3504 -0.3580  0.0975
 8282SOL    HW136305   1.261   3.980  15.498 -0.0564 -1.8454  0.1234
 8282SOL    HW236306   1.246   3.924  15.639 -1.5891  1.6867 -0.3937
 8283SOL     OW36307   2.786   0.484   8.280 -0.2869 -0.4587 -0.0629
 8283SOL    HW136308   2.765   0.524   8.365  0.0420  1.9783 -1.1228
 8283SOL    HW236309   2.708   0.429   8.269  0.4713 -1.8788  1.6421
 8284SOL     OW36310   4.492   4.402  17.320  0.1759 -0.2314  0.2653
 8284SOL    HW136311   4.566   4.377  17.265  1.7759  3.1998  0.8824
 8284SOL    HW236312   4.528   4.451  17.394  1.9222 -0.1772 -0.6403
 8285SOL     OW36313   1.242   3.746   2.251  0.3042 -0.4041 -0.3177
 8285SOL    HW136314   1.147   3.734   2.261  0.5564 -1.7812  0.4212
 8285SOL    HW236315   1.260   3.673   2.310  0.0242 -0.2543 -0.0435
 8286SOL     OW36316   1.504   1.401   4.932  0.0238  0.6050 -0.1423
 8286SOL    HW136317   1.411   1.384   4.948  0.2246 -1.3821 -0.9668
 8286SOL    HW236318   1.506   1.487   4.972 -1.1258  0.1608  0.8630
 8287SOL     OW36319   3.309   0.457  16.062  0.7536  0.3773  0.0601
 8287SOL    HW136320   3.256   0.395  16.013 -0.7081  1.8703 -0.2469
 8287SOL    HW236321   3.376   0.481  15.997  0.0353  1.1614 -0.3944
 8288SOL     OW36322   2.038   1.858  14.495 -0.3451  0.1449  0.2252
 8288SOL    HW136323   2.117   1.894  14.536  1.9532 -3.5343 -0.9756
 8288SOL    HW236324   2.034   1.902  14.410  4.2690 -1.0041 -0.6033
 8289SOL     OW36325   4.603   4.458   3.427  0.4048  0.0103 -0.4702
 8289SOL    HW136326   4.612   4.491   3.338  0.0903  0.6693 -0.2630
 8289SOL    HW236327   4.590   4.543   3.469  3.0596  0.2147 -0.0656
 8290SOL     OW36328   0.243   4.705   2.725  0.4450 -0.2836  0.4977
 8290SOL    HW136329   0.253   4.646   2.800 -0.0095 -1.4277 -0.3419
 8290SOL    HW236330   0.237   4.636   2.659  5.0340 -0.3965  0.1394
 8291SOL     OW36331   2.432   1.049   8.637  0.6530  0.5019  0.0662
 8291SOL    HW136332   2.357   1.023   8.585  1.4990  1.1412 -1.4787
 8291SOL    HW236333   2.500   0.990   8.606  0.1126  0.0740 -0.2964
 8292SOL     OW36334   3.575   1.437   5.516 -0.2513 -0.0188 -1.5137
 8292SOL    HW136335   3.625   1.446   5.435 -0.5360  3.5750 -1.2948
 8292SOL    HW236336   3.508   1.504   5.504  0.3401  1.0658  1.1582
 8293SOL     OW36337   4.558   1.212   6.156  0.3551  0.8557  0.7886
 8293SOL    HW136338   4.469   1.244   6.143 -0.0079 -0.1107  0.9635
 8293SOL    HW236339   4.546   1.119   6.172 -3.2776  1.1485 -0.2928
 8294SOL     OW36340   0.807   2.574   7.458 -0.4152  0.1329 -0.6737
 8294SOL    HW136341   0.840   2.592   7.370 -2.2218  0.3317 -1.3121
 8294SOL    HW236342   0.861   2.502   7.491  1.3116  1.3487 -0.8472
 8295SOL     OW36343   4.406   3.128  15.321  0.6599  0.2581 -0.5612
 8295SOL    HW136344   4.412   3.054  15.381  2.1679  0.8068 -0.0270
 8295SOL    HW236345   4.468   3.185  15.368  1.5267 -0.1268 -1.2274
 8296SOL     OW36346   1.908   4.607  15.354  0.0664 -0.1399 -0.3063
 8296SOL    HW136347   1.832   4.579  15.302  0.3672 -1.1834 -0.1951
 8296SOL    HW236348   1.917   4.540  15.422 -1.7250 -2.1909 -2.0657
 8297SOL     OW36349   0.963   4.121   5.943 -0.3639  0.4359 -0.1089
 8297SOL    HW136350   0.919   4.119   5.858 -0.0522 -2.4026 -0.1992
 8297SOL    HW236351   0.902   4.059   5.984  0.9358 -1.0032 -0.3515
 8298SOL     OW36352   1.966   3.361   6.635 -0.2493  0.6233 -0.0429
 8298SOL    HW136353   1.978   3.410   6.553 -0.1033  0.6854  0.0156
 8298SOL    HW236354   1.914   3.418   6.692 -1.4686  0.2742 -0.7903
 8299SOL     OW36355   2.409   1.330   3.463  0.1657  0.3185  0.2481
 8299SOL    HW136356   2.500   1.354   3.477  0.9865 -1.4606 -1.9218
 8299SOL    HW236357   2.362   1.363   3.539  1.4502  0.3821  1.0058
 8300SOL     OW36358   0.238   3.396  15.189  0.5547 -0.0756  0.8897
 8300SOL    HW136359   0.312   3.419  15.245 -0.1794 -1.0589  2.2442
 8300SOL    HW236360   0.204   3.479  15.154 -0.2318 -1.2254 -1.0674
 8301SOL     OW36361   0.417   0.302   1.257  0.1163 -0.3290 -0.4638
 8301SOL    HW136362   0.503   0.286   1.217 -0.0787 -0.9194 -0.6531
 8301SOL    HW236363   0.366   0.249   1.195 -0.4813  0.0722 -0.3094
 8302SOL     OW36364   1.216   1.500   0.694  0.6537 -0.1689  0.2592
 8302SOL    HW136365   1.183   1.590   0.704  0.9408  0.0186 -0.5296
 8302SOL    HW236366   1.191   1.467   0.781 -1.4403  0.2180 -0.1938
 8303SOL     OW36367   2.405   2.983   5.197 -0.0421 -0.3583 -1.1095
 8303SOL    HW136368   2.464   2.988   5.122  1.6864 -1.1161  0.1877
 8303SOL    HW236369   2.381   2.891   5.210  1.3465 -0.6250 -0.3482
 8304SOL     OW36370   2.720   2.780   3.809 -0.2357  0.5104 -0.8082
 8304SOL    HW136371   2.714   2.775   3.904  0.4507 -0.2331 -0.8062
 8304SOL    HW236372   2.688   2.694   3.783 -0.7828  0.2294  0.7906
 8305SOL     OW36373   1.890   1.102   5.391  0.5158  0.2891  0.5516
 8305SOL    HW136374   1.949   1.035   5.356  0.1384  0.2793 -0.0744
 8305SOL    HW236375   1.815   1.044   5.408  0.8825 -0.2041  0.4879
 8306SOL     OW36376   1.163   3.935  13.664  0.0008  0.5483 -0.5269
 8306SOL    HW136377   1.189   3.982  13.743 -2.2209  0.2164  0.3964
 8306SOL    HW236378   1.236   3.942  13.602 -0.0656 -0.6225 -0.7364
 8307SOL     OW36379   3.621   3.643   5.542  0.3273  0.5756 -0.6382
 8307SOL    HW136380   3.633   3.686   5.457 -0.6848  3.2743  0.5953
 8307SOL    HW236381   3.556   3.578   5.517  2.2010 -0.6862 -2.2355
 8308SOL     OW36382   1.764   3.601  12.656  0.2519  0.0850 -0.1576
 8308SOL    HW136383   1.848   3.632  12.623  1.2314  1.1823  3.3665
 8308SOL    HW236384   1.803   3.569  12.738  0.3429  1.7096  0.4442
 8309SOL     OW36385   4.494   0.039   9.910  0.1598 -0.1893  0.7615
 8309SOL    HW136386   4.532   0.103   9.850  1.4964  0.4963  2.3045
 8309SOL    HW236387   4.402   0.048   9.885 -0.4157 -0.2897  2.7843
 8310SOL     OW36388   2.747   4.321  11.113 -0.2884  0.1284 -0.0732
 8310SOL    HW136389   2.828   4.354  11.152  0.0397 -0.7854  0.0210
 8310SOL    HW236390   2.684   4.378  11.157 -2.7878 -2.2167 -0.6305
 8311SOL     OW36391   2.645   2.672   5.411  0.1217  0.5053 -0.7914
 8311SOL    HW136392   2.712   2.614   5.377 -1.0376 -0.8763 -0.7157
 8311SOL    HW236393   2.688   2.757   5.395  0.9844 -0.2077 -2.2147
 8312SOL     OW36394   2.567   3.255  10.026  0.6593 -0.2837 -0.0763
 8312SOL    HW136395   2.655   3.265  10.061 -0.1049 -1.8522  2.2790
 8312SOL    HW236396   2.525   3.280  10.109 -0.5959 -2.7787  0.0610
 8313SOL     OW36397   1.804   2.151   6.451 -0.1351  0.0166  0.2911
 8313SOL    HW136398   1.782   2.153   6.358 -1.9093 -0.0212  0.7068
 8313SOL    HW236399   1.900   2.145   6.451 -0.0726  0.8536  1.0477
 8314SOL     OW36400   1.511   0.859  16.248 -0.2794 -0.2660 -0.1947
 8314SOL    HW136401   1.450   0.795  16.211 -1.1971 -0.6708  2.0126
 8314SOL    HW236402   1.533   0.899  16.163 -1.9717 -1.0924 -1.0168
 8315SOL     OW36403   0.736   3.054   5.389  0.3043 -0.5098 -0.0294
 8315SOL    HW136404   0.745   2.978   5.332  0.0782  0.1374 -0.9160
 8315SOL    HW236405   0.651   3.040   5.430  0.6656 -0.4196  0.7634
 8316SOL     OW36406   3.876   3.394   5.139  0.3428 -0.1388  0.2769
 8316SOL    HW136407   3.937   3.468   5.136  0.4830 -0.1977  1.6641
 8316SOL    HW236408   3.858   3.402   5.233  0.1126  0.9624  0.1372
 8317SOL     OW36409   3.527   2.697   8.215  0.6791  0.1910 -0.1144
 8317SOL    HW136410   3.474   2.737   8.285 -0.3829 -0.8490 -0.3226
 8317SOL    HW236411   3.589   2.769   8.203  0.8400 -0.1751 -1.3911
 8318SOL     OW36412   3.938   4.191   4.921 -0.0721  0.5535  0.4878
 8318SOL    HW136413   3.970   4.266   4.971 -0.6928  0.4325  1.0546
 8318SOL    HW236414   3.908   4.145   4.999  0.0297  0.3880  0.4293
 8319SOL     OW36415   3.947   4.070   0.598  0.1115  0.3427  0.1241
 8319SOL    HW136416   3.890   4.011   0.549 -1.5607  0.7618  1.5478
 8319SOL    HW236417   4.028   4.027   0.571 -1.2625  0.1196 -3.7154
 8320SOL     OW36418   4.069   2.060  17.316 -0.1666  0.2300  0.9477
 8320SOL    HW136419   4.016   2.080  17.393  0.2481  1.5766  0.8729
 8320SOL    HW236420   4.054   2.151  17.292  0.3558  0.0374 -0.0845
 8321SOL     OW36421   3.158   4.470  17.543 -0.0864 -0.5258  0.8104
 8321SOL    HW136422   3.118   4.527  17.609  2.8015 -0.9039  2.8894
 8321SOL    HW236423   3.133   4.381  17.567 -1.6672 -1.1045 -3.0373
 8322SOL     OW36424   2.296   3.523   9.811  0.4237  0.3919  0.0108
 8322SOL    HW136425   2.365   3.456   9.812  1.0180  0.9922 -1.5135
 8322SOL    HW236426   2.322   3.565   9.730  1.5088  0.3907  0.3574
 8323SOL     OW36427   3.942   3.520  12.225  0.0334 -0.8040 -0.0092
 8323SOL    HW136428   3.848   3.513  12.205  0.5940  0.6570 -3.0989
 8323SOL    HW236429   3.939   3.495  12.317 -0.9890  1.8502  0.6765
 8324SOL     OW36430   0.633   3.725   5.911  0.6211  0.4727  0.2788
 8324SOL    HW136431   0.676   3.693   5.832 -1.3308  0.8253 -0.9231
 8324SOL    HW236432   0.542   3.702   5.892  0.8711 -0.9305  0.8321
 8325SOL     OW36433   0.448   1.000   4.950 -0.0880  1.1600 -0.2309
 8325SOL    HW136434   0.508   1.047   5.008 -3.6344 -0.3484  4.6659
 8325SOL    HW236435   0.380   1.067   4.938 -0.5605  0.8728  0.8189
 8326SOL     OW36436   0.353   1.573   3.049  0.0092  0.1056  0.5933
 8326SOL    HW136437   0.359   1.479   3.062  1.0701  0.3897  2.0808
 8326SOL    HW236438   0.279   1.580   2.988  2.1664  0.8591 -1.9184
 8327SOL     OW36439   1.715   1.049   9.001  0.5128 -0.2496 -0.4795
 8327SOL    HW136440   1.795   1.023   9.047 -0.8849 -1.7448  1.0658
 8327SOL    HW236441   1.721   1.144   9.012 -1.0038 -0.1330 -0.7144
 8328SOL     OW36442   2.704   3.264   5.174  0.1336 -0.1350 -0.7446
 8328SOL    HW136443   2.720   3.358   5.181 -0.5864 -0.1521  1.0039
 8328SOL    HW236444   2.614   3.282   5.147 -0.3682 -0.9887  0.3715
 8329SOL     OW36445   2.457   0.665   5.040 -0.0302 -0.2512 -0.1593
 8329SOL    HW136446   2.439   0.753   5.009 -0.0803 -0.0206  0.5108
 8329SOL    HW236447   2.551   0.664   5.023  0.0616  0.0527  0.3220
 8330SOL     OW36448   4.568   3.957   8.899  0.6309 -0.1458  0.1971
 8330SOL    HW136449   4.577   3.884   8.960  1.0650 -1.5342 -1.5239
 8330SOL    HW236450   4.660   3.965   8.872  0.3372  1.4571 -0.3437
 8331SOL     OW36451   2.632   3.814   5.879  0.2805 -0.6174 -0.0838
 8331SOL    HW136452   2.577   3.809   5.800 -2.2718 -1.7951  1.7648
 8331SOL    HW236453   2.570   3.814   5.952  1.4358 -1.3414  0.8840
 8332SOL     OW36454   2.901   3.316   8.057 -0.6034  0.0131 -0.0996
 8332SOL    HW136455   2.828   3.314   7.996 -1.5660  1.6470  1.0073
 8332SOL    HW236456   2.899   3.227   8.092 -0.8997 -0.5085 -1.4631
 8333SOL     OW36457   2.351   3.248  11.975 -0.0089  0.1552  0.0501
 8333SOL    HW136458   2.294   3.214  12.044 -0.4478  2.6040  0.8842
 8333SOL    HW236459   2.363   3.341  11.990  2.1579 -0.0762 -0.1977
 8334SOL     OW36460   0.882   3.288   5.368 -0.0428  0.1769 -0.2485
 8334SOL    HW136461   0.843   3.200   5.374 -1.1793  0.8364  2.1142
 8334SOL    HW236462   0.802   3.340   5.358  1.2499  1.5604 -3.2633
 8335SOL     OW36463   0.127   3.785   2.919  0.1421 -0.0641 -0.0387
 8335SOL    HW136464   0.041   3.757   2.952 -0.4672  0.9706 -0.7734
 8335SOL    HW236465   0.175   3.702   2.913  1.8529  0.7849  1.9260
 8336SOL     OW36466   4.312   1.988   4.523  0.3466 -0.1836  0.0353
 8336SOL    HW136467   4.271   2.073   4.542 -0.6120 -0.7657  0.5684
 8336SOL    HW236468   4.263   1.956   4.447 -1.8718  0.8501  1.0267
 8337SOL     OW36469   0.022   0.389   4.224  0.0540  0.1768  0.0804
 8337SOL    HW136470   4.713   0.301   4.201 -1.0442 -0.0785  2.5403
 8337SOL    HW236471   0.100   0.350   4.263 -1.1903  0.7280  3.1070
 8338SOL     OW36472   3.410   3.040   0.675 -0.1556  0.6364 -0.0212
 8338SOL    HW136473   3.314   3.046   0.676 -0.1638 -0.2366  2.5254
 8338SOL    HW236474   3.434   3.088   0.595 -3.3893 -0.7696 -1.8406
 8339SOL     OW36475   0.053   3.343   4.767 -0.5826 -0.6942  0.0843
 8339SOL    HW136476   0.148   3.337   4.758 -0.6519 -0.2285 -0.9255
 8339SOL    HW236477   0.039   3.266   4.822  2.3112 -2.2150 -1.3641
 8340SOL     OW36478   0.990   4.556   6.441 -0.6084 -0.3645 -0.4615
 8340SOL    HW136479   1.051   4.583   6.510 -1.3514  1.0540 -0.3620
 8340SOL    HW236480   1.048   4.529   6.370 -0.9437  2.1846 -1.6947
 8341SOL     OW36481   4.639   3.373   2.007  0.1840 -0.2743  0.3516
 8341SOL    HW136482   4.684   3.358   1.924  1.7257 -1.0318  1.3392
 8341SOL    HW236483   4.592   3.452   1.981 -0.0084  0.1373  1.9419
 8342SOL     OW36484   2.837   3.796   5.079  0.1999  0.0198 -0.2397
 8342SOL    HW136485   2.809   3.825   5.166 -1.0717  0.8479 -0.9233
 8342SOL    HW236486   2.766   3.836   5.030 -0.7460  1.4441  2.2686
 8343SOL     OW36487   3.885   2.108   4.566  0.0944 -0.5844 -0.4222
 8343SOL    HW136488   3.799   2.147   4.550 -1.0607 -3.1271 -0.3049
 8343SOL    HW236489   3.936   2.189   4.557 -0.7262  0.1548  1.6946
 8344SOL     OW36490   3.302   3.785   8.421  0.0360  0.1546 -0.4541
 8344SOL    HW136491   3.273   3.781   8.330  0.9910  3.2792 -0.8956
 8344SOL    HW236492   3.291   3.694   8.449  1.1605 -0.8485 -3.2311
 8345SOL     OW36493   1.185   2.382   6.737  0.3013 -0.3041 -0.2643
 8345SOL    HW136494   1.197   2.290   6.762  0.8203 -0.0115  0.5550
 8345SOL    HW236495   1.165   2.423   6.821 -2.2658 -2.3336  0.1290
 8346SOL     OW36496   4.371   4.362  10.258 -0.3940  0.4238  0.3886
 8346SOL    HW136497   4.335   4.278  10.229  1.3017  0.5928 -2.1919
 8346SOL    HW236498   4.464   4.341  10.260  0.1567  2.7569 -1.1754
 8347SOL     OW36499   3.994   0.555   2.984  0.3761 -0.1263  0.2494
 8347SOL    HW136500   3.971   0.591   3.070 -2.0537 -0.8805 -0.0899
 8347SOL    HW236501   4.056   0.485   3.004 -0.1367 -0.3849  0.9486
 8348SOL     OW36502   1.576   4.189   5.750 -0.2538 -0.0561 -0.2226
 8348SOL    HW136503   1.523   4.158   5.823  2.6461  1.9766  2.7152
 8348SOL    HW236504   1.589   4.111   5.696  1.4502  0.6210 -0.7780
 8349SOL     OW36505   1.966   0.211   6.668 -0.2187  0.6411 -0.4559
 8349SOL    HW136506   1.938   0.261   6.744 -2.9503 -1.0875 -0.3386
 8349SOL    HW236507   1.982   0.127   6.711  1.9392  0.1799 -2.1571
 8350SOL     OW36508   2.307   0.185   1.093 -0.2142  0.3161  0.8071
 8350SOL    HW136509   2.328   0.093   1.109  1.2102  0.3937 -0.5921
 8350SOL    HW236510   2.331   0.199   1.001  0.5224 -1.2460  0.7753
 8351SOL     OW36511   1.244   1.868  14.539 -0.2498 -0.1016 -1.0361
 8351SOL    HW136512   1.332   1.888  14.506  0.2898  0.8000  0.9561
 8351SOL    HW236513   1.248   1.889  14.632 -3.1990 -0.9288 -0.7125
 8352SOL     OW36514   3.017   3.821  16.441 -0.0823 -0.2894 -0.1285
 8352SOL    HW136515   2.978   3.826  16.353 -0.4101 -0.5813  0.0002
 8352SOL    HW236516   3.083   3.753  16.428  0.9638  0.5676  0.7531
 8353SOL     OW36517   1.568   0.220   1.679  0.5746  0.5900 -0.0975
 8353SOL    HW136518   1.581   0.295   1.620  0.9447  0.9644  0.4609
 8353SOL    HW236519   1.647   0.230   1.732  2.8279  0.0356 -3.3626
 8354SOL     OW36520   2.671   0.020   8.823  0.0729 -0.0235  0.1651
 8354SOL    HW136521   2.610   0.015   8.896 -1.1892 -1.6004 -0.9837
 8354SOL    HW236522   2.751   0.061   8.854 -0.1102  0.2278  0.3022
 8355SOL     OW36523   0.063   0.175  15.738  0.4875  0.2780  0.3925
 8355SOL    HW136524   0.040   0.230  15.813 -3.5017 -2.1560  0.9822
 8355SOL    HW236525   0.148   0.214  15.717 -0.6776  1.1867 -2.6383
 8356SOL     OW36526   2.703   1.864  15.957  0.2465  0.2323 -0.3086
 8356SOL    HW136527   2.639   1.914  15.906 -1.7454 -1.8237  0.2158
 8356SOL    HW236528   2.749   1.828  15.881 -0.1186 -0.5413 -0.1604
 8357SOL     OW36529   3.776   1.885   4.886  0.2160  0.2294 -0.3046
 8357SOL    HW136530   3.696   1.936   4.876  0.8465  1.0419 -1.3300
 8357SOL    HW236531   3.743   1.800   4.858  0.0516  1.4768 -3.8994
 8358SOL     OW36532   4.676   2.726   2.853 -0.1050  0.2886 -0.2680
 8358SOL    HW136533   0.023   2.662   2.853  1.4848  2.0758  0.3372
 8358SOL    HW236534   4.609   2.678   2.804 -0.9930  1.0096  0.2320
 8359SOL     OW36535   2.102   3.121   5.741 -0.0045  0.1192 -0.0173
 8359SOL    HW136536   2.028   3.091   5.687 -0.4706 -1.1201  1.3132
 8359SOL    HW236537   2.143   3.190   5.689  2.5190 -1.5430 -0.2486
 8360SOL     OW36538   4.419   1.579  12.696  0.7221 -0.2715 -0.5584
 8360SOL    HW136539   4.358   1.648  12.669 -1.3264 -0.6797  2.9966
 8360SOL    HW236540   4.366   1.499  12.699 -0.5392  0.5393 -0.8499
 8361SOL     OW36541   3.249   4.353   3.970  0.2093 -0.2706 -0.1077
 8361SOL    HW136542   3.332   4.341   3.922  0.5733  1.5084  0.0709
 8361SOL    HW236543   3.204   4.402   3.902 -2.2271  0.0675  1.7773
 8362SOL     OW36544   2.689   3.901   9.192  0.4175  0.5045  0.2857
 8362SOL    HW136545   2.750   3.903   9.118  2.2151  0.5724  1.7741
 8362SOL    HW236546   2.660   3.993   9.190 -0.7981  0.1331  1.2315
 8363SOL     OW36547   2.429   4.026   2.793 -0.0317 -0.5361 -0.2219
 8363SOL    HW136548   2.487   4.088   2.748 -0.7765 -0.1735 -0.6815
 8363SOL    HW236549   2.427   3.954   2.731  0.7493 -0.4242 -0.3794
 8364SOL     OW36550   3.391   1.123  12.646  0.0373 -0.1993 -0.2929
 8364SOL    HW136551   3.332   1.198  12.642 -1.9854 -1.7697  0.1158
 8364SOL    HW236552   3.362   1.089  12.562 -1.9452  1.2351 -0.1773
 8365SOL     OW36553   2.580   4.346   2.778  0.1429  0.0418 -0.1534
 8365SOL    HW136554   2.630   4.268   2.799 -1.1234 -0.7680 -0.1319
 8365SOL    HW236555   2.575   4.338   2.683  1.1821 -0.9267 -0.1261
 8366SOL     OW36556   1.509   2.886   9.965 -0.1057 -0.4684 -0.5563
 8366SOL    HW136557   1.570   2.865   9.894  1.4625 -0.6672  0.8368
 8366SOL    HW236558   1.438   2.916   9.909 -0.3232  0.5300  0.2634
 8367SOL     OW36559   4.426   2.289   4.267 -0.8466 -0.0809 -0.1588
 8367SOL    HW136560   4.451   2.374   4.231  1.7432 -0.1693  1.4402
 8367SOL    HW236561   4.341   2.289   4.223 -1.1184  1.0081  0.3539
 8368SOL     OW36562   2.059   0.279  10.199 -0.3686 -0.0652 -0.8468
 8368SOL    HW136563   2.022   0.345  10.258  0.9168  2.2058 -2.5500
 8368SOL    HW236564   2.153   0.275  10.219 -0.7340 -0.7226  0.7348
 8369SOL     OW36565   1.997   1.054  14.659  0.3935 -0.5298 -0.1901
 8369SOL    HW136566   1.965   1.114  14.591 -1.6952  1.4624  2.5882
 8369SOL    HW236567   2.077   1.098  14.686 -0.2468  0.8735 -0.5258
 8370SOL     OW36568   3.196   4.110   4.650  1.0110  0.2188  0.1086
 8370SOL    HW136569   3.196   4.015   4.641 -2.3134  0.3765 -1.5985
 8370SOL    HW236570   3.275   4.123   4.703  1.6578 -1.6352 -0.3969
 8371SOL     OW36571   2.681   3.023  17.566 -0.4006 -0.5788  0.2640
 8371SOL    HW136572   2.651   3.113  17.580  0.9538 -0.2907  1.2587
 8371SOL    HW236573   2.738   3.009  17.642 -0.2701  0.3459  0.3408
 8372SOL     OW36574   0.765   3.486   8.642  0.4309  0.1017  0.2331
 8372SOL    HW136575   0.749   3.572   8.603  1.5320 -0.3373 -1.1658
 8372SOL    HW236576   0.857   3.499   8.665  1.3209 -1.7316 -2.3412
 8373SOL     OW36577   0.640   0.499   5.841  0.1120 -0.1038  0.2260
 8373SOL    HW136578   0.581   0.573   5.833  0.0389 -0.1572  0.2702
 8373SOL    HW236579   0.594   0.455   5.912 -0.6254  0.2840 -0.0091
 8374SOL     OW36580   1.933   1.608  11.467  0.0509 -0.1148 -1.1915
 8374SOL    HW136581   1.894   1.631  11.382 -2.0027  2.1576  0.3952
 8374SOL    HW236582   2.012   1.568  11.431  0.4192 -0.6134  0.2033
 8375SOL     OW36583   2.248   1.932   7.239  0.1089 -0.0275  0.1121
 8375SOL    HW136584   2.157   1.961   7.232  0.0869 -0.5342 -1.5716
 8375SOL    HW236585   2.299   1.965   7.165  0.3469 -2.0072 -0.5957
 8376SOL     OW36586   1.277   0.388   9.352  0.4503 -0.4556 -0.7617
 8376SOL    HW136587   1.292   0.352   9.440  2.9380  0.3812 -0.8424
 8376SOL    HW236588   1.182   0.403   9.351  0.5109 -0.0286 -0.3552
 8377SOL     OW36589   1.550   2.150   4.232  0.4045  0.0046 -0.5415
 8377SOL    HW136590   1.606   2.203   4.175 -0.8005  0.6566 -1.1286
 8377SOL    HW236591   1.567   2.186   4.319 -0.8661 -0.7799  0.0251
 8378SOL     OW36592   2.715   1.668   2.776  0.3951  0.7844 -1.1041
 8378SOL    HW136593   2.625   1.699   2.767  0.5818  2.0941  1.5790
 8378SOL    HW236594   2.742   1.665   2.684  0.8678 -0.4954 -0.9278
 8379SOL     OW36595   3.593   3.473   6.321 -0.1973  0.2991  0.4346
 8379SOL    HW136596   3.637   3.406   6.269 -2.5718 -1.9727  1.3153
 8379SOL    HW236597   3.543   3.410   6.374  1.6959 -0.8494  0.8335
 8380SOL     OW36598   4.657   2.696   5.238  0.0964  0.3623  0.2477
 8380SOL    HW136599   4.571   2.697   5.279 -0.2547  1.0066 -0.5173
 8380SOL    HW236600   4.638   2.658   5.152 -0.8245 -3.3653  2.0925
 8381SOL     OW36601   4.441   4.497   8.105  0.0106 -0.2299 -0.3042
 8381SOL    HW136602   4.387   4.509   8.027 -1.0561 -0.1372  0.4487
 8381SOL    HW236603   4.376   4.477   8.172  2.3883  0.8003  2.2950
 8382SOL     OW36604   2.668   1.131   9.001 -0.6920  0.1864 -0.3220
 8382SOL    HW136605   2.666   1.188   8.925  0.4542  2.6853  1.5310
 8382SOL    HW236606   2.602   1.177   9.053  2.1551  3.1440  0.6718
 8383SOL     OW36607   1.212   4.113  10.647 -0.7522  0.1065 -0.4203
 8383SOL    HW136608   1.252   4.186  10.695  0.6142 -1.1618  0.3801
 8383SOL    HW236609   1.281   4.101  10.582 -0.3857  0.1853 -0.0426
 8384SOL     OW36610   2.183   2.201   0.634 -0.9305  0.5676  0.0929
 8384SOL    HW136611   2.104   2.188   0.687 -1.8418 -0.3196 -1.4738
 8384SOL    HW236612   2.169   2.125   0.578  0.2315 -0.8920  1.8020
 8385SOL     OW36613   1.813   1.683   2.828  0.1670  0.2446 -0.1443
 8385SOL    HW136614   1.760   1.614   2.788 -0.7487  0.0616  1.3852
 8385SOL    HW236615   1.777   1.766   2.797  0.4238  0.1572 -0.6798
 8386SOL     OW36616   4.522   3.552   2.506  0.6605  0.2594  0.0991
 8386SOL    HW136617   4.441   3.602   2.505 -0.7301 -1.9609  0.5755
 8386SOL    HW236618   4.492   3.477   2.455  0.1305 -1.3563  2.7718
 8387SOL     OW36619   0.239   1.965   4.698 -0.4920  0.1658 -0.1915
 8387SOL    HW136620   0.180   1.931   4.630  1.2358 -3.3778  0.0879
 8387SOL    HW236621   0.286   1.887   4.724  1.3515  1.5539  0.6253
 8388SOL     OW36622   3.710   3.835   2.338 -0.1017  0.3088  0.0004
 8388SOL    HW136623   3.764   3.763   2.308 -1.9459 -1.2422  0.4286
 8388SOL    HW236624   3.628   3.816   2.292 -0.3409  2.0152 -0.2809
 8389SOL     OW36625   1.134   2.575   4.870  0.5604 -0.2059 -0.2550
 8389SOL    HW136626   1.161   2.514   4.938  1.9744  0.4593 -0.2270
 8389SOL    HW236627   1.139   2.654   4.923  0.5312  2.2444 -3.9048
 8390SOL     OW36628   3.138   0.687   6.129  0.0481  0.6681 -0.1699
 8390SOL    HW136629   3.176   0.633   6.198  0.2977 -0.0384 -0.8692
 8390SOL    HW236630   3.143   0.768   6.179  1.8427  0.3947  0.1052
 8391SOL     OW36631   3.027   0.786   7.031 -0.1621 -0.3571  0.3301
 8391SOL    HW136632   2.980   0.781   7.114 -0.3762  0.5872  0.2659
 8391SOL    HW236633   3.032   0.880   7.012  0.0600 -0.5457 -0.5704
 8392SOL     OW36634   0.861   1.758   4.783  0.1753  0.4795 -0.0863
 8392SOL    HW136635   0.872   1.841   4.735  1.9991  1.1911  1.5731
 8392SOL    HW236636   0.830   1.702   4.712 -0.6220  1.9158 -0.8722
 8393SOL     OW36637   0.823   1.283   6.289  0.4285 -0.1358  0.3508
 8393SOL    HW136638   0.787   1.348   6.348 -2.6176 -0.9455 -0.6393
 8393SOL    HW236639   0.911   1.278   6.326  1.1065  0.4674 -1.1508
 8394SOL     OW36640   1.192   2.170   7.950  0.3292 -0.7776  0.1238
 8394SOL    HW136641   1.224   2.124   7.872 -0.8218 -0.6828 -0.4026
 8394SOL    HW236642   1.103   2.189   7.920  0.6893 -0.7412 -0.9139
 8395SOL     OW36643   3.763   4.400   4.230 -0.0138  0.2681 -0.1133
 8395SOL    HW136644   3.737   4.356   4.311 -1.1662  1.2958  0.0763
 8395SOL    HW236645   3.820   4.334   4.190 -0.1444 -0.7964  1.4865
 8396SOL     OW36646   2.222   0.195   4.434  0.0398  0.4950 -0.0872
 8396SOL    HW136647   2.308   0.161   4.411  0.7381  1.4992  1.0953
 8396SOL    HW236648   2.165   0.118   4.420 -1.4820  1.9100 -1.7359
 8397SOL     OW36649   3.842   3.845   6.627 -0.6754 -0.1764 -0.3148
 8397SOL    HW136650   3.840   3.930   6.582  1.2089  0.4097  0.7443
 8397SOL    HW236651   3.760   3.863   6.674 -0.8040 -0.5908 -0.3783
 8398SOL     OW36652   0.144   3.042   4.042  0.1463  0.1458 -0.6106
 8398SOL    HW136653   0.127   2.971   3.980 -0.7810  0.8535 -1.1568
 8398SOL    HW236654   0.239   3.053   4.042 -0.0462  1.7914  1.3738
 8399SOL     OW36655   0.477   0.696   4.540  0.1768 -0.2618 -0.1445
 8399SOL    HW136656   0.452   0.788   4.536 -0.7912 -0.5930 -1.8826
 8399SOL    HW236657   0.403   0.656   4.585 -0.6097  0.0493 -1.1575
 8400SOL     OW36658   3.156   2.770   5.762  0.2502  0.5382 -0.0054
 8400SOL    HW136659   3.137   2.737   5.850 -0.3691  0.2792 -0.2338
 8400SOL    HW236660   3.135   2.689   5.716 -0.4077  0.1751  0.9342
 8401SOL     OW36661   2.842   3.361   1.370  0.3827 -0.3233  0.4689
 8401SOL    HW136662   2.768   3.301   1.361 -2.2869  2.8625  1.0933
 8401SOL    HW236663   2.915   3.306   1.401 -0.1727 -0.4022  1.6300
 8402SOL     OW36664   2.064   1.018   4.618 -0.3256  0.1273 -0.2681
 8402SOL    HW136665   2.001   1.076   4.660 -0.1953  0.8241 -1.0404
 8402SOL    HW236666   2.015   0.936   4.616 -0.0774 -0.0439  0.5183
 8403SOL     OW36667   0.447   2.379   3.333  0.3784 -0.1529 -0.0898
 8403SOL    HW136668   0.445   2.320   3.258  0.5152  0.1244 -0.3082
 8403SOL    HW236669   0.515   2.440   3.306 -0.6576  0.3822 -1.4867
 8404SOL     OW36670   3.115   3.678  17.563  0.1439  0.2713 -0.1083
 8404SOL    HW136671   3.086   3.590  17.587  0.5536 -0.0444 -0.7789
 8404SOL    HW236672   3.103   3.672  17.469 -1.2176  1.9068 -0.0343
 8405SOL     OW36673   0.020   0.296   8.225 -0.4209  0.0241  0.5863
 8405SOL    HW136674   0.001   0.279   8.133  2.5918  1.1970 -0.2557
 8405SOL    HW236675   0.048   0.387   8.216 -1.1660  0.1876 -0.0765
 8406SOL     OW36676   4.348   2.226   4.981 -0.2659  0.4579  0.2869
 8406SOL    HW136677   4.399   2.233   4.901  1.4931 -0.5832  1.3136
 8406SOL    HW236678   4.283   2.159   4.959  0.7069 -0.3728 -0.0661
 8407SOL     OW36679   2.081   3.478  14.395  0.0886  0.2475 -0.0961
 8407SOL    HW136680   1.993   3.464  14.359  0.5265 -1.1051 -0.6587
 8407SOL    HW236681   2.061   3.539  14.466  1.5443  1.7180 -0.9667
 8408SOL     OW36682   3.042   4.446   3.768  0.5935 -0.5683 -0.5967
 8408SOL    HW136683   3.048   4.380   3.699 -0.4860 -0.3438 -0.9068
 8408SOL    HW236684   2.987   4.506   3.717 -3.0623  0.4352  4.5456
 8409SOL     OW36685   0.072   2.321   5.461 -0.5059 -0.4168 -0.1462
 8409SOL    HW136686   0.066   2.260   5.535  0.4862  0.9267  1.0483
 8409SOL    HW236687   0.094   2.256   5.394  0.6342  0.1851 -0.3458
 8410SOL     OW36688   4.275   2.633   7.665  0.0915 -0.0083 -0.0981
 8410SOL    HW136689   4.230   2.711   7.699 -0.1988 -0.1250 -0.2126
 8410SOL    HW236690   4.370   2.648   7.664 -0.1343  1.2070 -2.1202
 8411SOL     OW36691   1.236   0.602  12.272 -0.5077 -0.3572  0.1132
 8411SOL    HW136692   1.201   0.612  12.360  0.3296  1.5384  0.2368
 8411SOL    HW236693   1.326   0.579  12.294 -0.3640 -1.7327 -1.8649
 8412SOL     OW36694   2.391   4.395   4.140  0.7514  0.1045  0.5480
 8412SOL    HW136695   2.392   4.387   4.235  2.0591  1.9332  0.6799
 8412SOL    HW236696   2.472   4.446   4.137  0.2597  0.8788  0.4390
 8413SOL     OW36697   1.525   1.987  14.831 -0.2437  0.2264  0.8397
 8413SOL    HW136698   1.560   1.941  14.755 -1.4947 -1.3575  1.2105
 8413SOL    HW236699   1.571   1.941  14.901  2.0141 -1.7504 -1.9481
 8414SOL     OW36700   3.689   4.340  12.133  0.1502  0.1804  0.1502
 8414SOL    HW136701   3.752   4.290  12.184  0.1646 -0.7818 -0.8181
 8414SOL    HW236702   3.608   4.303  12.169 -1.2873  2.6066 -0.5619
 8415SOL     OW36703   1.421   1.019   6.414 -0.5887 -0.0671 -0.0313
 8415SOL    HW136704   1.382   1.105   6.431 -1.0508 -0.0895 -1.0043
 8415SOL    HW236705   1.454   1.000   6.502  0.5402  1.0255 -0.2096
 8416SOL     OW36706   4.111   3.362  10.258 -0.4306 -0.4403 -0.0911
 8416SOL    HW136707   4.141   3.446  10.222  1.3240 -1.2399 -0.5025
 8416SOL    HW236708   4.190   3.332  10.304  0.1139 -3.0069 -2.7077
 8417SOL     OW36709   2.407   2.597   3.457 -0.0754 -0.2612  0.7607
 8417SOL    HW136710   2.417   2.535   3.385  2.1027  0.4123  0.5127
 8417SOL    HW236711   2.396   2.533   3.528 -0.9214  0.3658  1.1936
 8418SOL     OW36712   3.396   3.924   7.451  0.4608 -0.2921  0.0897
 8418SOL    HW136713   3.471   3.910   7.510  0.4571  0.9192  0.3813
 8418SOL    HW236714   3.400   3.846   7.397  0.3888  0.3646 -0.8644
 8419SOL     OW36715   2.053   1.113  15.102 -0.3007 -0.3498  0.1380
 8419SOL    HW136716   2.013   1.039  15.057  1.8952 -0.9154 -0.9299
 8419SOL    HW236717   2.008   1.104  15.185 -1.6304  1.1001 -0.4271
 8420SOL     OW36718   4.602   1.486   8.268  0.0607  0.1313  0.6252
 8420SOL    HW136719   4.671   1.517   8.209 -0.1814  1.2655  0.9307
 8420SOL    HW236720   4.535   1.555   8.264  0.6466  0.5893 -1.4442
 8421SOL     OW36721   2.452   3.295   3.210 -0.1752 -0.1898 -0.4388
 8421SOL    HW136722   2.463   3.239   3.286  2.2537  1.9206  0.7882
 8421SOL    HW236723   2.363   3.327   3.223 -0.1652 -0.2358 -0.2673
 8422SOL     OW36724   0.103   4.479   7.884 -0.2729  1.0775  0.9243
 8422SOL    HW136725   0.065   4.418   7.947  0.7512 -0.5732 -0.0357
 8422SOL    HW236726   0.031   4.528   7.844  2.0804  3.5771 -0.2478
 8423SOL     OW36727   1.738   3.408   9.843  0.8058  0.0145 -0.1327
 8423SOL    HW136728   1.666   3.454   9.885 -0.0730  0.2006 -1.8527
 8423SOL    HW236729   1.707   3.319   9.859  0.0982  0.4139  0.7351
 8424SOL     OW36730   1.906   2.534  11.765 -0.1853  0.5139  0.7771
 8424SOL    HW136731   1.863   2.448  11.765 -0.8918  0.8657  1.2319
 8424SOL    HW236732   1.832   2.584  11.732  0.5610  1.3344  0.3463
 8425SOL     OW36733   4.349   4.043   2.840 -0.3934 -0.1104 -0.4858
 8425SOL    HW136734   4.419   4.104   2.861  0.3997 -0.0691 -3.2746
 8425SOL    HW236735   4.339   4.036   2.745 -0.2853 -2.1087 -0.3544
 8426SOL     OW36736   2.913   2.890   1.193  0.1786 -0.0035  0.0235
 8426SOL    HW136737   2.864   2.851   1.265  0.9895  0.0718  0.6147
 8426SOL    HW236738   2.962   2.956   1.242  1.7890  0.1824 -1.8224
 8427SOL     OW36739   1.618   2.110   2.106 -0.1452 -0.1721 -0.4430
 8427SOL    HW136740   1.661   2.192   2.127  2.2099 -1.9711  1.6990
 8427SOL    HW236741   1.532   2.130   2.069  1.3881  4.7412 -1.2783
 8428SOL     OW36742   0.290   2.859   6.536 -0.0385  0.2718  0.8477
 8428SOL    HW136743   0.376   2.824   6.513 -0.3377  0.1301 -0.0824
 8428SOL    HW236744   0.241   2.828   6.459 -1.1616 -0.3231  1.8115
 8429SOL     OW36745   4.062   0.404   7.224  0.1515  0.0457  0.0788
 8429SOL    HW136746   4.072   0.309   7.218  0.6115  0.0419  0.9369
 8429SOL    HW236747   4.150   0.437   7.206  0.5036 -1.1494 -0.3767
 8430SOL     OW36748   1.155   0.576  16.362  0.5656 -0.6525  0.2461
 8430SOL    HW136749   1.166   0.525  16.442 -2.1109 -0.4466  0.7449
 8430SOL    HW236750   1.161   0.661  16.407  2.5646 -0.3575 -0.5430
 8431SOL     OW36751   1.413   1.169  16.232  0.2357  0.7481 -0.5487
 8431SOL    HW136752   1.386   1.077  16.238  2.0723  0.3493  1.3813
 8431SOL    HW236753   1.486   1.161  16.171  1.2968 -1.8645  1.0657
 8432SOL     OW36754   0.362   3.467  17.096 -0.2649 -0.1024 -0.6640
 8432SOL    HW136755   0.337   3.473  17.004 -0.3066 -1.1409 -0.7207
 8432SOL    HW236756   0.284   3.438  17.142  0.9404 -2.7633 -0.3269
 8433SOL     OW36757   3.737   1.777   6.649 -0.0874 -0.5395 -0.4897
 8433SOL    HW136758   3.824   1.749   6.677  0.0639 -0.7270 -1.1311
 8433SOL    HW236759   3.752   1.829   6.571  1.0438  1.2939  0.9611
 8434SOL     OW36760   1.427   1.168   8.373  0.2811 -0.1418  0.6260
 8434SOL    HW136761   1.515   1.192   8.343 -0.2778 -0.4392 -1.2448
 8434SOL    HW236762   1.368   1.224   8.324 -1.2244 -3.4269 -1.3307
 8435SOL     OW36763   0.996   2.621   2.919  0.4777  0.3658  0.4405
 8435SOL    HW136764   1.080   2.606   2.963  0.8019 -2.4046 -1.0611
 8435SOL    HW236765   0.951   2.563   2.980  0.9633  0.1129  0.5614
 8436SOL     OW36766   3.850   4.489   3.219 -0.0848 -0.4998 -0.0644
 8436SOL    HW136767   3.874   4.425   3.286  1.3215  0.0646 -0.0342
 8436SOL    HW236768   3.775   4.532   3.260  1.4513  1.4627  0.6503
 8437SOL     OW36769   0.796   1.289   5.475 -0.0112 -0.2545  0.2910
 8437SOL    HW136770   0.770   1.335   5.554 -1.2359  0.3287 -0.4578
 8437SOL    HW236771   0.885   1.321   5.489 -0.7172  1.1134  1.7545
 8438SOL     OW36772   1.958   2.311   7.928  0.1572  0.2508  0.4641
 8438SOL    HW136773   1.924   2.391   7.967 -1.5803 -0.0760 -0.3943
 8438SOL    HW236774   1.977   2.341   7.839 -0.4078  0.4332  0.4101
 8439SOL     OW36775   0.185   3.103  13.987  1.0160  0.8776 -0.2706
 8439SOL    HW136776   0.104   3.080  13.942  0.3201  1.4147  0.7158
 8439SOL    HW236777   0.235   3.113  13.905  0.1512 -0.2332 -0.9229
 8440SOL     OW36778   1.728   1.395  10.982  0.0392  0.0950 -0.6553
 8440SOL    HW136779   1.739   1.340  10.905 -0.6466 -1.1719  0.1448
 8440SOL    HW236780   1.816   1.429  10.996  0.7308 -1.0525 -2.1916
 8441SOL     OW36781   1.897   3.564   1.494 -0.0611  0.1822  0.1774
 8441SOL    HW136782   1.821   3.514   1.523 -0.1853  0.4575  0.3323
 8441SOL    HW236783   1.898   3.628   1.566  1.0456 -0.5157  0.7733
 8442SOL     OW36784   4.142   1.388   7.656 -0.0044  0.1426  0.6727
 8442SOL    HW136785   4.142   1.395   7.751  2.5390  1.6344  0.5795
 8442SOL    HW236786   4.069   1.448   7.640 -0.8659 -0.3291  2.9154
 8443SOL     OW36787   2.858   2.324   1.576  0.4445 -0.0677  0.1852
 8443SOL    HW136788   2.931   2.330   1.514 -0.4300 -0.5830 -0.8956
 8443SOL    HW236789   2.783   2.324   1.516  0.1108 -0.7892  0.6062
 8444SOL     OW36790   1.491   4.353   4.890  0.1316  0.7960 -0.1585
 8444SOL    HW136791   1.569   4.347   4.834 -0.0473 -1.0517 -0.2079
 8444SOL    HW236792   1.478   4.264   4.924 -2.4322  2.1355  2.3828
 8445SOL     OW36793   1.152   0.510  13.734  0.2449  0.5112 -0.3382
 8445SOL    HW136794   1.078   0.488  13.790  0.1804 -1.7489 -1.3004
 8445SOL    HW236795   1.181   0.419  13.724 -0.1103  0.5141 -1.3209
 8446SOL     OW36796   2.282   1.614   6.277 -0.0161 -0.0208 -0.1092
 8446SOL    HW136797   2.190   1.638   6.286 -0.1809 -0.0063 -1.8337
 8446SOL    HW236798   2.282   1.525   6.312 -0.5664 -0.3514 -0.9503
 8447SOL     OW36799   2.262   3.816   7.021  0.3290 -0.7539  0.5363
 8447SOL    HW136800   2.184   3.762   7.014  1.1552 -1.7773 -0.9694
 8447SOL    HW236801   2.231   3.903   6.995  0.1025 -0.7063  0.9718
 8448SOL     OW36802   1.070   0.281  16.810  0.1308  0.3500  0.0035
 8448SOL    HW136803   1.001   0.215  16.796  0.1492  0.7070 -1.6652
 8448SOL    HW236804   1.127   0.235  16.872 -0.4077 -0.0817  0.1813
 8449SOL     OW36805   0.640   3.280  17.509 -0.1634 -0.2497 -0.0875
 8449SOL    HW136806   0.654   3.358  17.564  4.1923 -0.9639 -0.1719
 8449SOL    HW236807   0.581   3.323  17.448 -1.2739  1.9246  2.4835
 8450SOL     OW36808   2.408   2.726   5.265 -0.1852 -0.5215 -0.1649
 8450SOL    HW136809   2.453   2.698   5.345 -0.6181  3.6658  1.5425
 8450SOL    HW236810   2.454   2.658   5.215 -0.7353 -1.8576  1.1375
 8451SOL     OW36811   4.601   0.675   5.909 -0.7891 -0.1612  0.4354
 8451SOL    HW136812   4.675   0.637   5.957 -1.9260 -1.4080  1.1725
 8451SOL    HW236813   4.542   0.671   5.984 -0.8444  2.6054  0.5538
 8452SOL     OW36814   0.438   1.152   1.204  0.6118 -0.6351 -0.2141
 8452SOL    HW136815   0.531   1.168   1.219  1.2920 -1.7907 -3.1385
 8452SOL    HW236816   0.402   1.172   1.291  0.5508 -2.9586  0.2986
 8453SOL     OW36817   2.854   1.277   3.446 -0.1310 -0.2021 -0.0491
 8453SOL    HW136818   2.800   1.347   3.408  0.6734  0.3481 -0.1899
 8453SOL    HW236819   2.795   1.207   3.472 -0.4610  0.3764  0.7782
 8454SOL     OW36820   0.103   2.119   8.036  0.4033 -0.0691 -0.1476
 8454SOL    HW136821   0.193   2.126   8.066  0.8216 -3.1915 -0.6012
 8454SOL    HW236822   0.091   2.027   8.061 -0.5279  0.2368  0.5221
 8455SOL     OW36823   3.853   2.711   6.439 -0.5089 -0.8392 -0.2456
 8455SOL    HW136824   3.917   2.701   6.368  2.8899  1.0731  2.5661
 8455SOL    HW236825   3.787   2.757   6.386 -0.7569  0.4926  1.2327
 8456SOL     OW36826   2.255   2.586   1.598  0.2559  0.0704 -0.5547
 8456SOL    HW136827   2.305   2.562   1.520 -0.5064 -0.3266 -0.9175
 8456SOL    HW236828   2.283   2.513   1.653  1.7013  1.9988  1.2698
 8457SOL     OW36829   0.236   1.027   5.260  0.2191  0.0546  0.4394
 8457SOL    HW136830   0.329   1.007   5.274  0.5568  2.9339  2.3103
 8457SOL    HW236831   0.198   1.011   5.346 -0.1073  1.2889  0.5243
 8458SOL     OW36832   3.612   0.917   9.265 -0.1053 -0.3580 -0.6236
 8458SOL    HW136833   3.605   0.886   9.175  1.0727 -1.0213 -0.4710
 8458SOL    HW236834   3.531   0.884   9.305 -0.6923  2.2887  0.4050
 8459SOL     OW36835   3.200   3.298   4.487 -0.2930  0.2383  0.7258
 8459SOL    HW136836   3.295   3.311   4.477  0.0205 -1.7720  1.2201
 8459SOL    HW236837   3.160   3.266   4.407  1.0902 -0.0427  0.1493
 8460SOL     OW36838   1.693   4.625   3.998 -0.4070 -0.1843 -0.2475
 8460SOL    HW136839   1.753   4.659   4.064  0.5956 -1.1312 -0.6637
 8460SOL    HW236840   1.650   4.551   4.041 -1.7022 -0.2345 -1.6352
 8461SOL     OW36841   3.412   0.003   7.841  0.5314 -0.2810  0.6056
 8461SOL    HW136842   3.352   4.653   7.830 -1.3846  1.3873 -0.0330
 8461SOL    HW236843   3.354   0.069   7.805  1.3153  0.0894  0.0261
 8462SOL     OW36844   3.122   0.879   5.044  0.0732 -0.2751 -0.0851
 8462SOL    HW136845   3.208   0.837   5.049  0.8864  1.3464 -0.3972
 8462SOL    HW236846   3.070   0.807   5.008 -1.7164  1.0447 -0.1593
 8463SOL     OW36847   1.311   0.645   2.178 -0.0066 -0.1259  0.1803
 8463SOL    HW136848   1.310   0.732   2.137  0.2939 -0.8383 -1.3490
 8463SOL    HW236849   1.402   0.619   2.167 -0.2248 -1.1354  0.7314
 8464SOL     OW36850   3.255   2.129   0.632 -0.1168 -0.3478  0.0547
 8464SOL    HW136851   3.164   2.124   0.662 -0.2747 -0.0998 -0.3674
 8464SOL    HW236852   3.288   2.040   0.624 -1.6592 -0.8796 -0.3593
 8465SOL     OW36853   3.673   2.491   5.947 -0.3112 -0.0172 -0.0010
 8465SOL    HW136854   3.596   2.532   5.987  2.1133  0.3578  4.2821
 8465SOL    HW236855   3.649   2.402   5.971 -2.8893  0.5708 -0.3750
 8466SOL     OW36856   1.819   0.110   8.243 -0.0288  0.0045 -0.3723
 8466SOL    HW136857   1.793   0.039   8.303 -0.4908  0.5189  0.0349
 8466SOL    HW236858   1.819   0.071   8.155 -0.2060 -0.9696  0.0552
 8467SOL     OW36859   3.962   1.248  13.619 -0.4646 -0.2259  0.0424
 8467SOL    HW136860   3.964   1.167  13.670  0.6038 -1.4721 -1.9777
 8467SOL    HW236861   3.999   1.315  13.676  0.0844 -0.0497 -0.5219
 8468SOL     OW36862   1.856   4.394   0.294 -0.6615 -0.6640 -0.1551
 8468SOL    HW136863   1.767   4.419   0.268  0.1100  0.3862 -1.7761
 8468SOL    HW236864   1.857   4.433   0.381  1.3692 -2.0839  0.4653
 8469SOL     OW36865   4.041   0.096   6.317  0.0566 -0.2501 -0.3673
 8469SOL    HW136866   4.024   0.013   6.271 -0.6437 -0.3640  0.0976
 8469SOL    HW236867   4.089   0.151   6.256  1.2969 -0.3354  0.5394
 8470SOL     OW36868   3.667   1.178   9.340  0.6415 -0.1648 -0.4005
 8470SOL    HW136869   3.583   1.206   9.376  0.5366 -1.0522  0.0381
 8470SOL    HW236870   3.653   1.092   9.300  1.9238 -0.9621  0.8597
 8471SOL     OW36871   0.795   1.892   7.370 -0.2496 -0.1981  0.2811
 8471SOL    HW136872   0.838   1.818   7.415  0.5789  0.7004  0.9690
 8471SOL    HW236873   0.827   1.972   7.411 -0.9668  0.0934  0.2667
 8472SOL     OW36874   1.693   0.894   5.483  0.4514  0.7460 -0.0785
 8472SOL    HW136875   1.750   0.818   5.470  1.0817  1.3821 -0.9943
 8472SOL    HW236876   1.643   0.863   5.559  1.6220 -2.5324 -0.6147
 8473SOL     OW36877   3.359   3.594   3.267  0.2285 -0.2244  0.4440
 8473SOL    HW136878   3.367   3.509   3.224  0.8665 -0.2961  0.7055
 8473SOL    HW236879   3.446   3.630   3.255  1.2633 -2.4014  1.3859
 8474SOL     OW36880   2.068   3.018   0.224 -0.2132 -0.6735  0.1159
 8474SOL    HW136881   2.069   2.928   0.191 -0.7401 -1.9345  3.4589
 8474SOL    HW236882   2.147   3.019   0.279 -0.9025 -0.7463  1.0998
 8475SOL     OW36883   3.349   0.795   5.586  0.4539  0.1565 -0.0219
 8475SOL    HW136884   3.413   0.863   5.568  0.3194 -0.0431 -1.2360
 8475SOL    HW236885   3.298   0.802   5.505 -2.7715 -0.4390  1.9184
 8476SOL     OW36886   0.471   3.412  17.335 -0.1562  0.2223  0.3131
 8476SOL    HW136887   0.433   3.425  17.248 -0.3810 -1.1196  0.2078
 8476SOL    HW236888   0.537   3.481  17.342 -0.5302  0.6061  0.0339
 8477SOL     OW36889   3.206   4.345  16.482 -0.3002  0.3063 -0.3511
 8477SOL    HW136890   3.125   4.365  16.435 -0.5470  0.1796  0.0159
 8477SOL    HW236891   3.212   4.249  16.475  0.7186  0.2254  1.6655
 8478SOL     OW36892   4.644   0.458   4.450  0.0986  0.0539  0.1017
 8478SOL    HW136893   4.691   0.453   4.367 -0.3103 -1.9464 -0.0081
 8478SOL    HW236894   4.656   0.370   4.485  0.8632 -1.4151 -3.9087
 8479SOL     OW36895   2.404   4.236  12.935 -1.0734  0.0264  0.5217
 8479SOL    HW136896   2.439   4.204  12.852 -0.3582  2.4587 -0.1077
 8479SOL    HW236897   2.374   4.319  12.899  0.0836 -0.3880 -1.3893
 8480SOL     OW36898   2.451   3.556   5.304 -0.2012  0.2617 -0.6329
 8480SOL    HW136899   2.379   3.517   5.255  1.0230 -1.0663 -1.3847
 8480SOL    HW236900   2.407   3.581   5.385 -0.5582  1.2887 -1.1556
 8481SOL     OW36901   0.119   2.587  16.009  0.1322 -0.2809 -0.8409
 8481SOL    HW136902   0.101   2.552  16.096  1.3894 -0.7546 -0.7724
 8481SOL    HW236903   0.076   2.517  15.961 -0.1609 -0.5016 -0.2507
 8482SOL     OW36904   1.995   1.269   7.546 -0.8665  0.4033  0.1631
 8482SOL    HW136905   2.005   1.205   7.476  1.6726  0.2197  0.6783
 8482SOL    HW236906   2.083   1.296   7.572 -0.4422 -1.0065  0.1599
 8483SOL     OW36907   3.751   3.001   1.338 -0.3973 -0.6094 -0.1376
 8483SOL    HW136908   3.711   2.924   1.378  0.5415 -1.1957 -0.3072
 8483SOL    HW236909   3.737   2.993   1.244 -2.0973 -2.4576  0.2754
 8484SOL     OW36910   4.022   1.122   9.509  0.0359  0.5723 -0.0096
 8484SOL    HW136911   4.089   1.055   9.524 -2.6649 -1.9750  0.9213
 8484SOL    HW236912   3.967   1.123   9.587 -1.0451 -0.4218 -0.7579
 8485SOL     OW36913   0.844   3.972   7.026  0.0423 -0.0356 -0.2606
 8485SOL    HW136914   0.771   3.932   7.073  0.6363 -1.8295 -0.8801
 8485SOL    HW236915   0.868   4.045   7.084 -1.9497  0.5048 -0.1083
 8486SOL     OW36916   0.761   0.807   9.263 -0.2417 -0.4053 -0.2994
 8486SOL    HW136917   0.708   0.735   9.296 -1.2886 -0.2805 -1.7346
 8486SOL    HW236918   0.720   0.816   9.178 -0.6242 -0.6744 -0.1422
 8487SOL     OW36919   1.134   2.932   8.923 -0.0881  0.1078  0.0066
 8487SOL    HW136920   1.102   2.861   8.978 -0.1207  0.2255  0.1403
 8487SOL    HW236921   1.205   2.880   8.886  2.4391  1.2381  3.3268
 8488SOL     OW36922   0.693   0.420   3.376 -0.7562 -0.2323 -0.5959
 8488SOL    HW136923   0.771   0.428   3.321 -0.5883  0.2174 -0.2884
 8488SOL    HW236924   0.628   0.384   3.316  1.5110 -1.6979 -2.1830
 8489SOL     OW36925   2.924   3.815   0.326 -0.4554 -0.0725  0.2841
 8489SOL    HW136926   2.856   3.879   0.345  0.0889  0.9035 -1.0311
 8489SOL    HW236927   2.942   3.786   0.415 -0.7056  1.1455  0.7275
 8490SOL     OW36928   4.406   4.590  14.807 -0.9690  0.0522 -0.0057
 8490SOL    HW136929   4.407   4.664  14.868  1.4328 -0.3046  0.4203
 8490SOL    HW236930   4.330   4.536  14.830 -1.5367  1.7715  2.2454
 8491SOL     OW36931   1.812   2.806   6.891  0.7761 -0.3442  0.2934
 8491SOL    HW136932   1.811   2.758   6.808 -0.5439  1.2373 -0.5930
 8491SOL    HW236933   1.788   2.897   6.873 -1.0769 -0.8064  0.4804
 8492SOL     OW36934   1.433   2.604   7.113  0.9881 -0.2645  0.0847
 8492SOL    HW136935   1.410   2.595   7.020 -1.8851 -1.5114  0.8991
 8492SOL    HW236936   1.456   2.697   7.108 -2.9513  0.8940  3.4681
 8493SOL     OW36937   1.187   0.441   6.151 -0.7447 -0.5066  0.1747
 8493SOL    HW136938   1.145   0.415   6.233  0.0172  0.2903  0.8147
 8493SOL    HW236939   1.147   0.395   6.077  0.5586 -2.2551  0.5496
 8494SOL     OW36940   2.665   2.684   4.079 -0.3085  0.1539  0.2292
 8494SOL    HW136941   2.638   2.749   4.144 -2.3306 -0.9675  0.5111
 8494SOL    HW236942   2.713   2.615   4.126 -0.1752  0.3881  0.4326
 8495SOL     OW36943   0.357   4.303   4.777 -0.7946  0.1527  0.5349
 8495SOL    HW136944   0.307   4.372   4.734 -2.1667  0.3973  2.5067
 8495SOL    HW236945   0.280   4.247   4.769 -1.7452  1.4110  0.8536
 8496SOL     OW36946   1.930   1.707   6.784 -0.3551 -0.1851 -0.1257
 8496SOL    HW136947   1.904   1.639   6.722  0.0756  0.1941 -0.7319
 8496SOL    HW236948   1.916   1.663   6.868 -1.8572 -1.1852 -0.8918
 8497SOL     OW36949   4.563   2.945   2.760  0.5179 -0.0939 -0.1907
 8497SOL    HW136950   4.581   2.946   2.666  1.5318 -1.0885  0.0031
 8497SOL    HW236951   4.612   2.870   2.793 -0.4454  1.0695  3.9406
 8498SOL     OW36952   0.933   3.244   4.859  0.0098 -0.1587  0.8117
 8498SOL    HW136953   0.859   3.215   4.913 -0.6019  0.0981  0.1155
 8498SOL    HW236954   0.884   3.267   4.780  0.8722 -2.2029 -0.2986
 8499SOL     OW36955   1.604   3.359   2.553 -0.0736 -0.2305  0.0312
 8499SOL    HW136956   1.609   3.426   2.620  1.7852 -1.2639  0.9342
 8499SOL    HW236957   1.635   3.276   2.589 -0.9309 -1.0079 -1.0115
 8500SOL     OW36958   0.915   1.664  10.159 -0.1913  0.3726 -0.0442
 8500SOL    HW136959   0.980   1.605  10.122 -2.4536 -1.7715 -0.5809
 8500SOL    HW236960   0.836   1.612  10.177 -2.0022  2.4170 -2.0274
 8501SOL     OW36961   2.842   2.103  14.791 -0.1473 -0.2019  0.5374
 8501SOL    HW136962   2.803   2.016  14.781  1.4264 -0.8886  0.2857
 8501SOL    HW236963   2.824   2.117  14.884 -0.5616  3.3349 -0.1003
 8502SOL     OW36964   3.452   4.606   3.706  0.1979 -0.3241 -0.7020
 8502SOL    HW136965   3.543   4.580   3.719  0.6856  0.3773 -2.6344
 8502SOL    HW236966   3.459   4.684   3.650 -0.9915  0.1398 -0.2059
 8503SOL     OW36967   3.071   2.689   2.682 -0.4092 -0.2708  0.3461
 8503SOL    HW136968   3.075   2.724   2.593  2.9767 -0.8596  0.2523
 8503SOL    HW236969   3.051   2.599   2.655  1.7977 -0.7616  0.3708
 8504SOL     OW36970   0.667   0.682  10.678 -0.2845  0.1770 -0.1996
 8504SOL    HW136971   0.581   0.707  10.711 -0.0279  2.2173 -1.0646
 8504SOL    HW236972   0.673   0.588  10.697  0.9632  0.6250  1.6121
 8505SOL     OW36973   3.910   0.813   8.810  0.3203 -0.0260 -0.0088
 8505SOL    HW136974   3.939   0.806   8.901  2.2264  0.1154 -0.5942
 8505SOL    HW236975   3.985   0.787   8.757 -0.3889 -1.6770 -0.2129
 8506SOL     OW36976   4.494   4.215   3.634  0.4164 -0.3522 -0.5109
 8506SOL    HW136977   4.551   4.287   3.660 -0.4659 -0.3085  1.2687
 8506SOL    HW236978   4.536   4.174   3.558 -0.6739  0.2767 -1.4650
 8507SOL     OW36979   1.380   4.162  12.445  0.5315  0.1007 -0.3177
 8507SOL    HW136980   1.451   4.216  12.478 -0.3726  0.1942  1.4809
 8507SOL    HW236981   1.425   4.106  12.381  0.6631  0.2319 -0.3385
 8508SOL     OW36982   3.017   1.388  16.473 -0.7308  0.4572  0.1932
 8508SOL    HW136983   2.987   1.478  16.480 -2.2196 -0.0901  0.9153
 8508SOL    HW236984   3.107   1.394  16.506 -0.2767 -0.8574 -0.7770
 8509SOL     OW36985   3.202   3.759  10.920 -0.2720 -0.3465 -0.0667
 8509SOL    HW136986   3.239   3.716  10.997 -0.0926 -0.5907 -0.2900
 8509SOL    HW236987   3.201   3.850  10.950  0.8341 -0.3080 -0.1738
 8510SOL     OW36988   3.603   3.952   3.960  0.1368  0.0145 -0.3000
 8510SOL    HW136989   3.510   3.965   3.979 -0.2600 -0.1403 -2.1595
 8510SOL    HW236990   3.603   3.871   3.909  2.4222 -0.4655  0.4489
 8511SOL     OW36991   4.625   2.777   6.816  0.4062  0.6124 -0.3909
 8511SOL    HW136992   4.615   2.815   6.729  1.1879 -0.3421 -0.9000
 8511SOL    HW236993   4.719   2.756   6.815 -0.0825 -1.3717 -2.5550
 8512SOL     OW36994   4.399   2.386  11.037 -0.7148  0.8420 -0.2766
 8512SOL    HW136995   4.397   2.469  10.989  0.8574  1.4993  0.8151
 8512SOL    HW236996   4.345   2.333  10.979  0.4856 -0.5660 -0.1128
 8513SOL     OW36997   2.103   2.447   3.629  0.0659  0.1350 -0.0933
 8513SOL    HW136998   2.081   2.538   3.610  1.0922 -0.0730 -2.3054
 8513SOL    HW236999   2.111   2.445   3.724 -0.2419 -2.7115 -0.1270
 8514SOL     OW37000   3.881   1.744   2.648 -0.0690 -0.0888 -0.5641
 8514SOL    HW137001   3.952   1.688   2.619  1.7252  0.7618  2.2597
 8514SOL    HW237002   3.814   1.690   2.688 -0.9836 -1.4630 -3.9077
 8515SOL     OW37003   1.813   1.609  17.593  0.7019  0.4451 -0.4304
 8515SOL    HW137004   1.837   1.555  17.669  0.9583  1.5034  0.2508
 8515SOL    HW237005   1.865   1.576  17.520  0.8076  1.2528 -0.7228
 8516SOL     OW37006   2.261   4.508   5.314 -0.0078  0.3327 -0.2013
 8516SOL    HW137007   2.280   4.512   5.220 -0.9625  0.2348 -0.4016
 8516SOL    HW237008   2.350   4.518   5.346  0.2880 -0.7361 -0.6718
 8517SOL     OW37009   2.597   0.456   5.625 -0.3572  0.3111 -0.1948
 8517SOL    HW137010   2.571   0.513   5.553  0.6599  2.3468  1.0503
 8517SOL    HW237011   2.517   0.404   5.636  0.3706 -0.5352  1.0686
 8518SOL     OW37012   3.857   4.706   4.460  0.5274  0.4216 -0.5521
 8518SOL    HW137013   3.762   4.720   4.470  0.7972  0.2375  2.3303
 8518SOL    HW237014   3.874   4.700   4.366  1.5449 -0.4089 -0.3015
 8519SOL     OW37015   4.094   2.347   5.969  0.0853  0.9350  0.0825
 8519SOL    HW137016   4.028   2.286   5.936  0.2798  0.0505  1.3360
 8519SOL    HW237017   4.113   2.308   6.054  1.5635  1.2056 -0.1182
 8520SOL     OW37018   2.237   4.380   7.693  0.4935  0.5583 -0.1369
 8520SOL    HW137019   2.251   4.466   7.654 -0.2598 -0.4462 -2.5656
 8520SOL    HW237020   2.184   4.399   7.771  0.7800 -1.5644  0.5778
 8521SOL     OW37021   1.529   3.891   0.520  0.1146  0.6035 -0.6391
 8521SOL    HW137022   1.518   3.838   0.600 -0.1397  0.4472 -0.7767
 8521SOL    HW237023   1.456   3.853   0.471 -0.2389 -0.0889  0.3992
 8522SOL     OW37024   3.528   0.485  15.922 -1.0577 -0.1678  0.6424
 8522SOL    HW137025   3.606   0.434  15.942 -1.5485 -0.9772  0.5072
 8522SOL    HW237026   3.553   0.547  15.853 -0.3313  0.3299  1.3564
 8523SOL     OW37027   4.329   3.188   1.719  0.1094 -0.0578 -0.7484
 8523SOL    HW137028   4.330   3.172   1.813  0.9688  0.0979 -0.7267
 8523SOL    HW237029   4.243   3.151   1.698 -0.4306  1.4068 -1.1791
 8524SOL     OW37030   4.118   0.733   7.574 -0.6029 -0.4303  0.4050
 8524SOL    HW137031   4.096   0.646   7.541  0.7597 -0.7123  0.2213
 8524SOL    HW237032   4.205   0.719   7.612 -0.5505  1.7700  1.0753
 8525SOL     OW37033   4.391   1.790   6.778  0.8303 -0.1480  0.0100
 8525SOL    HW137034   4.317   1.805   6.837  2.0653  1.0329  1.2547
 8525SOL    HW237035   4.357   1.736   6.706  4.0736 -1.4509 -0.5490
 8526SOL     OW37036   0.405   2.587   5.884  0.5826  0.3881 -0.1092
 8526SOL    HW137037   0.420   2.494   5.870 -0.7770  0.2725 -0.7185
 8526SOL    HW237038   0.491   2.625   5.862  0.2209  0.8659 -0.6983
 8527SOL     OW37039   1.111   0.553   4.034 -0.1012 -0.0662  0.4160
 8527SOL    HW137040   1.066   0.600   4.105  0.3491  2.5110 -1.0005
 8527SOL    HW237041   1.201   0.582   4.052  0.0768 -0.0184 -0.5918
 8528SOL     OW37042   2.472   0.548   6.882 -0.2958 -0.0413  0.3871
 8528SOL    HW137043   2.460   0.620   6.944 -1.7756 -0.7964  0.9851
 8528SOL    HW237044   2.556   0.572   6.841 -0.6432  0.2812 -0.1361
 8529SOL     OW37045   2.475   4.346   7.334 -0.5956 -0.4081  0.5867
 8529SOL    HW137046   2.556   4.342   7.283 -1.0792  0.5463 -0.2620
 8529SOL    HW237047   2.472   4.259   7.374 -1.0891  0.3214  2.1183
 8530SOL     OW37048   2.202   4.246   5.218  0.4901 -0.1376 -0.2984
 8530SOL    HW137049   2.108   4.226   5.209  0.7742 -0.5745 -2.3187
 8530SOL    HW237050   2.202   4.337   5.249 -1.6013 -1.0781  2.4403
 8531SOL     OW37051   3.431   3.459   5.526 -0.2769  0.3747  0.1980
 8531SOL    HW137052   3.438   3.367   5.551 -2.4241  0.2507  0.3376
 8531SOL    HW237053   3.392   3.446   5.439 -1.2348  1.1271  0.5077
 8532SOL     OW37054   3.252   3.268   3.749 -0.4597  0.6821  0.4072
 8532SOL    HW137055   3.284   3.357   3.738  0.2067  0.3900 -0.0197
 8532SOL    HW237056   3.329   3.219   3.776 -0.8541 -0.9009 -1.2896
 8533SOL     OW37057   4.287   2.733   6.968 -0.1591 -0.4594  0.4522
 8533SOL    HW137058   4.227   2.689   6.908  0.5675  0.1092 -0.6676
 8533SOL    HW237059   4.370   2.688   6.951  0.4141  0.9303 -0.3818
 8534SOL     OW37060   2.413   1.248  12.003 -0.0010  0.0422  0.3800
 8534SOL    HW137061   2.402   1.233  11.909 -1.5159 -3.1856  1.1038
 8534SOL    HW237062   2.372   1.164  12.023  2.7757 -1.4852 -0.2928
 8535SOL     OW37063   2.586   2.319   5.105  0.5209  0.1031 -0.1281
 8535SOL    HW137064   2.624   2.285   5.024  0.3481  0.8485 -0.5192
 8535SOL    HW237065   2.664   2.355   5.147  1.6290 -0.1294 -1.9974
 8536SOL     OW37066   3.558   0.868   2.504 -0.8396  1.0058 -0.3686
 8536SOL    HW137067   3.486   0.895   2.562 -0.7511  1.1373 -0.3205
 8536SOL    HW237068   3.613   0.818   2.565 -2.6446  1.1374  1.3644
 8537SOL     OW37069   0.205   2.511  15.709 -0.5155 -0.0899 -0.2891
 8537SOL    HW137070   0.153   2.458  15.769 -1.4038 -1.4725 -2.3062
 8537SOL    HW237071   0.282   2.455  15.696 -0.8218 -0.7340  0.7152
 8538SOL     OW37072   2.204   0.854   8.190  0.1627  0.0085  1.1345
 8538SOL    HW137073   2.275   0.806   8.147 -1.4283 -1.1010 -0.2082
 8538SOL    HW237074   2.126   0.801   8.172  1.3261 -0.7813 -1.6737
 8539SOL     OW37075   2.407   1.989   0.131  0.3259 -0.2994  0.0178
 8539SOL    HW137076   2.425   1.904   0.091 -0.0187 -0.9568  1.2480
 8539SOL    HW237077   2.312   1.977   0.140  0.2455 -0.0494 -0.4966
 8540SOL     OW37078   0.207   3.067   9.725 -0.1895  0.4000  0.2235
 8540SOL    HW137079   0.199   2.974   9.746  3.1943  0.1496  0.4626
 8540SOL    HW237080   0.259   3.053   9.645  1.0414 -1.7710  1.3863
 8541SOL     OW37081   3.903   4.241  15.169 -0.1105 -0.7814  0.0444
 8541SOL    HW137082   3.821   4.287  15.190 -0.0428 -0.3350 -0.6611
 8541SOL    HW237083   3.929   4.209  15.255  1.7718  1.5141  0.3262
 8542SOL     OW37084   2.361   0.502   9.151 -0.3840  0.5294 -0.2226
 8542SOL    HW137085   2.291   0.445   9.117 -0.0701  0.5830 -0.9407
 8542SOL    HW237086   2.378   0.554   9.073  1.2412  1.8605  1.0347
 8543SOL     OW37087   1.877   4.297  11.731  0.1253  0.1980  0.4788
 8543SOL    HW137088   1.805   4.235  11.743 -0.2940  0.2254 -1.9246
 8543SOL    HW237089   1.856   4.312  11.639 -0.7713 -0.1779  0.6270
 8544SOL     OW37090   2.191   1.673   7.340  0.1261  0.1538 -0.3640
 8544SOL    HW137091   2.201   1.697   7.432 -0.6021  0.6509 -0.4157
 8544SOL    HW237092   2.185   1.763   7.308 -0.2175  0.3474  0.2545
 8545SOL     OW37093   2.388   2.495   3.722  0.3250  0.4846 -0.3498
 8545SOL    HW137094   2.298   2.462   3.720  0.5432 -0.0018 -1.8942
 8545SOL    HW237095   2.364   2.585   3.742  0.0350  0.5705 -1.0770
 8546SOL     OW37096   3.117   1.329  15.615 -0.3661  0.5579 -0.4798
 8546SOL    HW137097   3.053   1.260  15.631  0.1675 -0.2055 -1.6464
 8546SOL    HW237098   3.181   1.313  15.685  0.9972  1.2293 -1.5653
 8547SOL     OW37099   3.568   0.577   0.238  0.0618  0.1181 -0.4146
 8547SOL    HW137100   3.482   0.539   0.259  0.3661 -0.4943 -0.2681
 8547SOL    HW237101   3.602   0.599   0.325  1.5024 -0.5909 -0.7837
 8548SOL     OW37102   1.056   1.632   6.050  0.6827 -0.3740 -0.4276
 8548SOL    HW137103   1.137   1.662   6.092  0.5354  1.8695 -1.6951
 8548SOL    HW237104   1.073   1.538   6.044  0.3152 -0.3712 -1.4595
 8549SOL     OW37105   0.237   2.066   8.413  0.9444 -0.0941  0.4036
 8549SOL    HW137106   0.322   2.057   8.369  0.1289  1.2431 -1.4744
 8549SOL    HW237107   0.230   1.993   8.474  0.3381 -1.3105 -1.1012
 8550SOL     OW37108   3.238   2.654   8.111  0.2252 -0.0256 -0.2363
 8550SOL    HW137109   3.334   2.654   8.116  0.4150 -2.1304 -3.6185
 8550SOL    HW237110   3.223   2.635   8.018  1.1878 -1.5815 -0.0762
 8551SOL     OW37111   1.988   3.166   9.539  0.1187  0.6421  0.0042
 8551SOL    HW137112   1.964   3.258   9.544 -0.2917  0.4418  1.5869
 8551SOL    HW237113   2.035   3.157   9.621  1.2498 -2.0353 -0.9140
 8552SOL     OW37114   0.328   0.174  11.802 -0.1589 -0.0826  0.1037
 8552SOL    HW137115   0.298   0.259  11.769  2.5177  1.3892  1.4578
 8552SOL    HW237116   0.359   0.140  11.717 -0.3222 -0.9466  0.3912
 8553SOL     OW37117   2.258   3.444   4.401  0.0649 -0.1294  0.1159
 8553SOL    HW137118   2.287   3.444   4.310 -0.5696  1.9298 -0.0755
 8553SOL    HW237119   2.220   3.532   4.409  0.7163  0.0904  0.8277
 8554SOL     OW37120   3.034   3.491   7.404 -0.2940  0.0813 -0.4118
 8554SOL    HW137121   3.098   3.489   7.475 -0.7590 -0.7827 -0.0250
 8554SOL    HW237122   3.090   3.536   7.340 -0.1655 -2.1262 -1.8311
 8555SOL     OW37123   0.450   1.545  10.091  0.2752 -0.7724 -0.5328
 8555SOL    HW137124   0.403   1.464  10.070 -3.7739  1.6881 -1.0033
 8555SOL    HW237125   0.522   1.514  10.146 -0.3252  0.1894  0.8098
 8556SOL     OW37126   3.132   2.321   7.328 -0.0015  0.5571 -0.1977
 8556SOL    HW137127   3.183   2.380   7.272  1.0078 -0.9143 -0.8223
 8556SOL    HW237128   3.188   2.245   7.345 -0.9969 -0.5150 -1.6949
 8557SOL     OW37129   2.193   0.998   8.927  0.5577  0.4576 -0.2530
 8557SOL    HW137130   2.245   0.934   8.976 -0.1713  0.9441  1.1530
 8557SOL    HW237131   2.141   0.943   8.868  0.6524  0.1993 -0.0960
 8558SOL     OW37132   0.430   1.079  14.135 -0.2090 -0.1176 -0.0448
 8558SOL    HW137133   0.504   1.021  14.151 -1.0919 -0.9787  0.9184
 8558SOL    HW237134   0.400   1.072  14.225  1.4131  0.3631  0.5224
 8559SOL     OW37135   1.124   3.290  10.871  0.9239  0.3760 -0.3196
 8559SOL    HW137136   1.154   3.319  10.785  0.7220  0.4257 -0.3737
 8559SOL    HW237137   1.053   3.230  10.849  1.3312 -1.3140  2.9673
 8560SOL     OW37138   2.315   2.169   3.172 -0.1024 -0.0487 -0.1936
 8560SOL    HW137139   2.354   2.160   3.084  0.5070 -1.7933  0.2482
 8560SOL    HW237140   2.286   2.078   3.183  1.9773 -0.5686  0.9919
 8561SOL     OW37141   3.358   4.555   0.038 -0.5918  0.9934  0.3509
 8561SOL    HW137142   3.276   4.604   0.039 -1.8498 -1.0583 -3.8697
 8561SOL    HW237143   3.326   4.474  17.696 -1.2634  1.4556 -0.0596
 8562SOL     OW37144   4.684   2.363  10.878 -0.0512 -0.0104  0.6513
 8562SOL    HW137145   4.623   2.433  10.902 -0.4019 -0.2002  0.3092
 8562SOL    HW237146   4.706   2.341  10.969 -0.0943 -1.3934  0.3256
 8563SOL     OW37147   2.821   0.543   5.347 -0.3589 -0.4277 -0.2583
 8563SOL    HW137148   2.887   0.541   5.416 -0.7011 -0.8990  0.0524
 8563SOL    HW237149   2.842   0.626   5.303  1.2019 -0.7450 -0.1091
 8564SOL     OW37150   3.627   3.312   9.482 -0.5981  0.4119 -0.3078
 8564SOL    HW137151   3.638   3.246   9.552 -1.3275  0.4664 -0.1358
 8564SOL    HW237152   3.630   3.389   9.539  0.8223  1.5884 -1.9878
 8565SOL     OW37153   4.043   4.280  12.229 -0.3115  0.3170 -0.0970
 8565SOL    HW137154   4.108   4.287  12.158  0.2821 -1.2171  0.3029
 8565SOL    HW237155   4.042   4.363  12.278  4.6810  0.4409 -0.1661
 8566SOL     OW37156   0.186   2.973   2.668 -0.3740  0.2775  0.0689
 8566SOL    HW137157   0.210   2.983   2.576 -0.6551 -0.0765 -0.0459
 8566SOL    HW237158   0.107   3.027   2.676  0.2044  0.4214  4.6772
 8567SOL     OW37159   4.660   1.012   7.411 -0.7063  0.3248 -0.6162
 8567SOL    HW137160   4.580   1.061   7.394 -0.2198  1.4438  0.3587
 8567SOL    HW237161   4.720   1.086   7.417 -0.0845 -0.0706 -1.8245
 8568SOL     OW37162   1.842   2.960  11.085 -0.7626  0.1220  0.6938
 8568SOL    HW137163   1.890   3.020  11.028 -2.6022 -0.3239 -1.3261
 8568SOL    HW237164   1.910   2.946  11.151  0.4241  2.7307  0.0420
 8569SOL     OW37165   2.807   2.018  10.387 -0.4482  0.0991 -0.2390
 8569SOL    HW137166   2.864   1.950  10.351  0.7429  0.6490  0.5814
 8569SOL    HW237167   2.838   2.028  10.477  0.6781 -1.3731 -0.4638
 8570SOL     OW37168   4.372   0.672   5.514 -0.5371  0.5603  0.2400
 8570SOL    HW137169   4.429   0.725   5.570  0.7611 -0.6353  0.0390
 8570SOL    HW237170   4.284   0.705   5.533 -0.2988  0.4548  1.5488
 8571SOL     OW37171   1.526   0.519  14.756 -0.1313 -0.4226  0.1282
 8571SOL    HW137172   1.530   0.578  14.681  1.6937  0.7154  1.1264
 8571SOL    HW237173   1.611   0.478  14.746  0.5723  0.8176  1.0692
 8572SOL     OW37174   3.313   1.390  16.508 -0.1673  0.9643 -0.0338
 8572SOL    HW137175   3.345   1.390  16.598 -2.4226 -0.5451  0.7799
 8572SOL    HW237176   3.355   1.468  16.472  1.4329 -0.2892 -0.9250
 8573SOL     OW37177   3.545   0.123   2.514  0.1978 -0.1957 -0.1950
 8573SOL    HW137178   3.617   0.080   2.559 -0.7131 -0.4159  1.0654
 8573SOL    HW237179   3.564   0.114   2.421 -0.0064  0.3525 -0.2926
 8574SOL     OW37180   4.490   4.650   3.678  0.6388  0.2211 -0.0790
 8574SOL    HW137181   4.406   4.650   3.724 -0.1864 -1.2969 -1.5801
 8574SOL    HW237182   4.453   4.665   3.591  0.8186  1.8336  0.1224
 8575SOL     OW37183   1.359   4.547   4.082 -0.8035 -0.2107 -0.0655
 8575SOL    HW137184   1.416   4.473   4.103 -2.2439 -0.0824  4.2455
 8575SOL    HW237185   1.272   4.520   4.110  0.2034 -1.8171  1.4821
 8576SOL     OW37186   2.855   2.869   5.381  0.4215 -0.4033  0.5536
 8576SOL    HW137187   2.902   2.855   5.464  0.3358  2.4177  1.0817
 8576SOL    HW237188   2.862   2.962   5.364  1.0619 -0.7461 -1.0027
 8577SOL     OW37189   3.909   3.419   5.429  0.0903 -0.0205  0.3458
 8577SOL    HW137190   3.868   3.436   5.514  1.6996  0.6502  0.9846
 8577SOL    HW237191   3.993   3.463   5.438  0.2651  0.1270 -1.9493
 8578SOL     OW37192   0.675   4.550  12.132 -0.6231 -0.2780 -0.0518
 8578SOL    HW137193   0.672   4.610  12.206  1.6316  0.8552 -0.8952
 8578SOL    HW237194   0.614   4.597  12.075 -0.8835  1.2691  1.5270
 8579SOL     OW37195   2.846   4.262  15.233 -0.0464 -0.0841  0.2281
 8579SOL    HW137196   2.921   4.309  15.268 -0.6195  1.1740 -0.2336
 8579SOL    HW237197   2.875   4.172  15.217  1.8841  0.7682 -1.0934
 8580SOL     OW37198   0.307   3.521  12.707 -0.4052 -0.5163 -1.0525
 8580SOL    HW137199   0.350   3.606  12.716  0.4008 -1.2593  2.1373
 8580SOL    HW237200   0.237   3.523  12.773  1.0103 -1.2260  0.4620
 8581SOL     OW37201   3.592   1.751   5.249  0.2301  0.6096  0.2031
 8581SOL    HW137202   3.543   1.791   5.178  0.3209  0.8790  0.2923
 8581SOL    HW237203   3.524   1.722   5.310  0.7904  0.9706  0.9994
 8582SOL     OW37204   4.280   1.968   7.407 -0.3884 -0.0978  0.3825
 8582SOL    HW137205   4.227   2.004   7.477  0.7578 -0.5498  1.4854
 8582SOL    HW237206   4.341   2.043   7.403 -1.2072  0.5735  0.4935
 8583SOL     OW37207   1.106   2.187   0.191  0.0809  0.6398  0.1989
 8583SOL    HW137208   1.142   2.238   0.118  1.5876 -1.2914 -0.3974
 8583SOL    HW237209   1.134   2.250   0.258  1.4584  0.4747 -0.2087
 8584SOL     OW37210   2.978   1.915   5.247 -0.1200  0.2285 -0.7743
 8584SOL    HW137211   3.005   1.935   5.158  1.3611 -0.7799 -0.5637
 8584SOL    HW237212   2.986   1.820   5.240  2.2591  0.3789 -0.2898
 8585SOL     OW37213   2.316   1.222   3.185 -0.4985  0.5149 -1.0880
 8585SOL    HW137214   2.338   1.237   3.277 -1.1323 -0.1992 -0.8220
 8585SOL    HW237215   2.244   1.284   3.174  0.0653  0.8033 -3.1723
 8586SOL     OW37216   2.116   3.534   2.051  0.2433 -0.6126 -0.1502
 8586SOL    HW137217   2.139   3.446   2.023  1.1757 -0.1992 -0.6970
 8586SOL    HW237218   2.122   3.585   1.970  3.2391 -0.3395  0.2311
 8587SOL     OW37219   0.693   1.660   4.321  0.5910 -0.4216  0.7372
 8587SOL    HW137220   0.608   1.630   4.289  0.9105  1.0560 -1.5005
 8587SOL    HW237221   0.726   1.717   4.251 -0.3999  0.9069  1.3417
 8588SOL     OW37222   1.490   2.814   8.392  0.1610  0.0520  0.5109
 8588SOL    HW137223   1.534   2.827   8.476 -2.1046 -0.6725  1.8217
 8588SOL    HW237224   1.465   2.898   8.354  2.0771  1.4831  2.4363
 8589SOL     OW37225   3.281   1.130   6.198 -0.5712  0.2606  0.2449
 8589SOL    HW137226   3.264   1.204   6.140 -0.4035 -0.1279 -0.3067
 8589SOL    HW237227   3.213   1.148   6.262 -0.4760  0.7142  0.2185
 8590SOL     OW37228   3.025   2.926   6.946 -0.2606  0.3234  0.6213
 8590SOL    HW137229   2.969   2.983   6.893 -0.8702 -0.4646  0.4324
 8590SOL    HW237230   2.982   2.845   6.919 -0.0527  0.2835  0.4069
 8591SOL     OW37231   4.329   3.067   2.592  0.4970 -0.0006  0.2211
 8591SOL    HW137232   4.304   2.982   2.556 -2.2833  0.2143  1.6416
 8591SOL    HW237233   4.425   3.068   2.589  0.3968 -1.7935 -3.3198
 8592SOL     OW37234   0.981   3.923   8.451  0.3071  0.1516  0.1020
 8592SOL    HW137235   0.976   4.007   8.404  2.1985  2.0463  3.2987
 8592SOL    HW237236   1.076   3.911   8.454  0.5816  2.2770  0.3287
 8593SOL     OW37237   3.702   4.047   7.602  0.2310  0.1770 -0.4304
 8593SOL    HW137238   3.733   4.067   7.514 -0.2227 -3.9625 -1.5260
 8593SOL    HW237239   3.782   4.019   7.646 -0.0453  1.8594  1.1381
 8594SOL     OW37240   4.585   3.165   2.912 -0.4017  0.1036  0.6271
 8594SOL    HW137241   4.635   3.135   2.987 -1.3699 -1.6559  0.5699
 8594SOL    HW237242   4.546   3.084   2.878  0.5886 -0.8802  1.8466
 8595SOL     OW37243   0.671   1.417   7.411 -0.6289  0.4941 -0.1623
 8595SOL    HW137244   0.580   1.430   7.437 -0.5992 -2.9770  1.6381
 8595SOL    HW237245   0.689   1.491   7.353 -0.5557 -0.1106 -0.9095
 8596SOL     OW37246   3.989   0.579   0.656  0.2643 -0.5639  0.2633
 8596SOL    HW137247   3.902   0.572   0.694  1.0106 -3.9261  1.3324
 8596SOL    HW237248   3.989   0.672   0.634  0.0522 -0.9429 -1.3304
 8597SOL     OW37249   2.972   2.162   1.742  0.4424 -0.1167 -0.2674
 8597SOL    HW137250   3.038   2.134   1.679  0.2860 -0.5315 -0.2457
 8597SOL    HW237251   2.920   2.216   1.683  0.3894 -0.7608 -0.8093
 8598SOL     OW37252   2.911   3.687   8.648  0.6661 -0.2349 -0.6890
 8598SOL    HW137253   2.877   3.762   8.698  0.2425 -0.6851 -0.2974
 8598SOL    HW237254   2.985   3.658   8.701 -1.1609  0.3174  2.1730
 8599SOL     OW37255   1.287   0.687  16.151 -0.3020 -0.1451  0.4594
 8599SOL    HW137256   1.220   0.751  16.127 -1.2829 -0.7490  1.5613
 8599SOL    HW237257   1.237   0.639  16.217  1.6819 -0.2711  1.8945
 8600SOL     OW37258   2.113   0.407   2.893  0.6817 -0.6303 -0.0236
 8600SOL    HW137259   2.160   0.326   2.876  0.0957 -0.7197 -1.2069
 8600SOL    HW237260   2.058   0.419   2.816 -1.1613 -0.3549  1.3425
 8601SOL     OW37261   0.408   3.255   5.281 -0.2717 -0.2890  1.0489
 8601SOL    HW137262   0.424   3.163   5.259  1.1336 -0.3097  2.1591
 8601SOL    HW237263   0.332   3.277   5.226  0.9710  2.5933  0.4676
 8602SOL     OW37264   2.818   1.226  13.504 -0.4913 -0.0231 -1.0788
 8602SOL    HW137265   2.814   1.311  13.548 -0.7635 -0.0529 -1.0454
 8602SOL    HW237266   2.772   1.242  13.422  0.7896  0.8197 -1.6258
 8603SOL     OW37267   1.815   0.850  13.104 -0.1942  0.2525  0.3235
 8603SOL    HW137268   1.807   0.932  13.056 -2.4285  0.4062  0.9480
 8603SOL    HW237269   1.770   0.867  13.187 -0.6162 -2.1624  0.6046
 8604SOL     OW37270   3.746   3.368  15.681  0.4318  0.0300  0.4193
 8604SOL    HW137271   3.719   3.316  15.605  1.3366 -0.6856  0.5851
 8604SOL    HW237272   3.814   3.419  15.637  0.1949  0.4852  0.5883
 8605SOL     OW37273   0.854   2.326   8.607 -0.0130 -0.1518  0.3462
 8605SOL    HW137274   0.882   2.382   8.679 -1.5321  1.7082 -0.4974
 8605SOL    HW237275   0.902   2.352   8.528  0.7853 -0.3126  0.7781
 8606SOL     OW37276   2.162   2.024   6.957  0.0670 -0.2197  0.2198
 8606SOL    HW137277   2.198   1.936   6.960 -2.0331 -1.0567  0.7500
 8606SOL    HW237278   2.122   2.032   7.043  1.9733 -1.1906  1.1864
 8607SOL     OW37279   2.174   1.009   7.745  0.3701  0.4212 -0.7439
 8607SOL    HW137280   2.167   1.105   7.748  0.8384  0.3138  2.7912
 8607SOL    HW237281   2.128   0.984   7.825 -0.1987 -0.4908 -1.3580
 8608SOL     OW37282   4.297   0.596   8.908 -0.2821  0.0312  0.2394
 8608SOL    HW137283   4.349   0.571   8.832 -1.7100  0.5465 -0.9203
 8608SOL    HW237284   4.347   0.563   8.983  2.7173  0.6781 -1.4986
 8609SOL     OW37285   2.034   1.161  12.990 -0.3299  0.4562  0.0829
 8609SOL    HW137286   1.944   1.194  12.998 -1.4256 -2.5004  0.0269
 8609SOL    HW237287   2.068   1.206  13.067 -0.6537 -2.0186  1.6487
 8610SOL     OW37288   3.640   1.445   5.090 -0.1151 -0.2137  0.1203
 8610SOL    HW137289   3.714   1.406   5.044 -0.5957 -1.0880  0.0874
 8610SOL    HW237290   3.652   1.539   5.075  0.0762 -0.3253 -0.4098
 8611SOL     OW37291   0.750   1.581   0.035 -0.3885 -0.0881  0.4423
 8611SOL    HW137292   0.807   1.504   0.039 -2.3095 -1.4104  2.2917
 8611SOL    HW237293   0.816   1.651   0.041 -1.7173  1.1361  0.8184
 8612SOL     OW37294   1.316   3.452   8.567 -0.0115  0.1494 -0.0794
 8612SOL    HW137295   1.341   3.364   8.541  0.2165  0.1168  0.2467
 8612SOL    HW237296   1.317   3.490   8.480 -2.6075  0.5227  0.0537
 8613SOL     OW37297   2.365   4.557   5.059 -0.3936 -0.3192  0.4234
 8613SOL    HW137298   2.402   4.645   5.053 -1.2690  0.1608  2.0721
 8613SOL    HW237299   2.375   4.525   4.969  0.3426 -2.5944  1.3186
 8614SOL     OW37300   3.498   1.260   8.399  0.3804  0.4621  0.1992
 8614SOL    HW137301   3.483   1.353   8.382 -2.6459 -0.5923 -2.8210
 8614SOL    HW237302   3.501   1.235   8.306 -0.5018  1.3074 -0.0511
 8615SOL     OW37303   1.038   0.033   2.954 -0.3747  0.0477 -0.0224
 8615SOL    HW137304   1.120   0.029   2.905 -0.2574 -2.8052  0.4111
 8615SOL    HW237305   1.060   4.707   3.033 -0.1709  1.3866  0.7749
 8616SOL     OW37306   4.031   2.815   7.505  0.5393 -0.2522  0.2992
 8616SOL    HW137307   4.023   2.829   7.599 -1.6857  3.0140 -0.3808
 8616SOL    HW237308   3.956   2.756   7.495 -0.1265  0.5476  0.5717
 8617SOL     OW37309   0.811   4.113   2.442  0.0313 -0.1624  0.6393
 8617SOL    HW137310   0.902   4.083   2.435  1.0507  2.2058  3.8376
 8617SOL    HW237311   0.828   4.184   2.504  1.8203 -0.5893  0.6282
 8618SOL     OW37312   1.566   2.184   8.704  0.2117 -0.6672  0.3866
 8618SOL    HW137313   1.655   2.165   8.676  0.5848 -1.2113  1.9462
 8618SOL    HW237314   1.567   2.122   8.777  1.2997 -1.7056 -0.5190
 8619SOL     OW37315   2.652   2.272   0.897  0.3900  0.2515 -0.2040
 8619SOL    HW137316   2.610   2.215   0.833 -0.7313  0.0594  0.7074
 8619SOL    HW237317   2.713   2.213   0.941  0.8739  0.0411 -1.1673
 8620SOL     OW37318   0.717   0.594  17.518  0.2087 -0.2168 -0.2416
 8620SOL    HW137319   0.692   0.580  17.610 -0.9301  0.7339 -0.4108
 8620SOL    HW237320   0.632   0.609  17.477  0.7030  3.2733 -0.0326
 8621SOL     OW37321   1.216   3.353  11.246  0.5137  0.2861 -0.1745
 8621SOL    HW137322   1.290   3.338  11.305 -0.3876 -1.3079  0.5504
 8621SOL    HW237323   1.256   3.299  11.178 -1.8728 -1.6652 -0.0210
 8622SOL     OW37324   4.715   0.957  13.702 -0.1264  0.2701  0.1183
 8622SOL    HW137325   0.055   0.999  13.760  1.1757 -0.2939 -0.8873
 8622SOL    HW237326   4.694   1.015  13.630  1.0135  1.5270  0.7935
 8623SOL     OW37327   0.041   0.514  12.893  0.2219  0.0687  0.6045
 8623SOL    HW137328   0.130   0.540  12.916  0.4055  0.3887 -0.4556
 8623SOL    HW237329   4.717   0.532  12.974 -0.3680 -2.1151  0.7587
 8624SOL     OW37330   3.421   2.573   6.055 -0.3175 -0.6581 -0.3180
 8624SOL    HW137331   3.410   2.591   5.961  0.2163 -2.6984 -0.7866
 8624SOL    HW237332   3.359   2.628   6.100 -0.5749 -1.1700 -0.0462
 8625SOL     OW37333   1.299   4.684   8.645  0.0764  0.3393 -0.0804
 8625SOL    HW137334   1.234   4.695   8.715 -0.0258 -0.2991 -0.0729
 8625SOL    HW237335   1.329   4.594   8.660 -0.3791  0.2080  0.0537
 8626SOL     OW37336   1.867   3.082   6.246  0.2561  0.4184  0.7688
 8626SOL    HW137337   1.885   3.068   6.153  0.8820  0.5778  0.8676
 8626SOL    HW237338   1.949   3.046   6.279 -0.0176 -0.5681  0.3648
 8627SOL     OW37339   1.362   1.595  14.064  0.0072  0.1960  0.5934
 8627SOL    HW137340   1.365   1.523  14.128 -0.9753  0.5579  1.0369
 8627SOL    HW237341   1.349   1.668  14.124 -1.3595  1.4416 -1.2156
 8628SOL     OW37342   2.477   0.603  14.192 -0.2737 -0.1700 -0.0784
 8628SOL    HW137343   2.524   0.636  14.116 -0.2454  1.8346  0.8076
 8628SOL    HW237344   2.391   0.574  14.161  0.1352 -2.8128  1.2267
 8629SOL     OW37345   3.227   4.083   8.812  0.1404  0.7187  0.1022
 8629SOL    HW137346   3.232   4.176   8.790 -0.2109  0.7524  0.1687
 8629SOL    HW237347   3.213   4.045   8.725 -0.4788  2.1477 -0.4181
 8630SOL     OW37348   0.519   4.674   4.239  0.1106 -0.5944 -0.6373
 8630SOL    HW137349   0.443   4.620   4.260 -0.7548  1.4149  1.4041
 8630SOL    HW237350   0.547   4.703   4.326  1.5700 -0.4648 -1.1474
 8631SOL     OW37351   4.674   3.734  11.978 -0.4113  0.2121  0.3319
 8631SOL    HW137352   4.720   3.816  11.958 -1.2927  0.5988 -0.1211
 8631SOL    HW237353   4.722   3.704  12.055  0.0172 -0.7067 -0.2831
 8632SOL     OW37354   0.700   3.499  17.675 -0.3058 -0.1298 -0.5645
 8632SOL    HW137355   0.669   3.533   0.063  0.9138  0.7780 -0.4784
 8632SOL    HW237356   0.788   3.537  17.677 -1.3576  2.5105 -4.1019
 8633SOL     OW37357   0.351   3.438   6.282 -0.0078 -0.0924 -0.2497
 8633SOL    HW137358   0.352   3.433   6.187 -2.8885 -0.6180 -0.2380
 8633SOL    HW237359   0.350   3.346   6.308  0.6110 -0.0860 -0.1909
 8634SOL     OW37360   1.334   1.449   6.971  0.0006 -0.8197  0.0047
 8634SOL    HW137361   1.363   1.484   7.056  2.3144 -2.6060 -0.0508
 8634SOL    HW237362   1.331   1.534   6.927  0.9942 -0.8785 -0.1755
 8635SOL     OW37363   2.366   0.081  14.254  0.1824  0.5383 -0.1005
 8635SOL    HW137364   2.384   4.712  14.240  0.7182  0.4151  1.4030
 8635SOL    HW237365   2.453   0.120  14.258  0.4724  0.1433 -2.4522
 8636SOL     OW37366   0.761   2.247   2.060  0.2350  0.4046 -0.1515
 8636SOL    HW137367   0.703   2.185   2.016 -1.3138  1.1106  0.9393
 8636SOL    HW237368   0.796   2.295   1.985  1.2708 -0.1844 -0.0513
 8637SOL     OW37369   4.639   3.011   0.270 -0.5128 -0.4045 -0.2162
 8637SOL    HW137370   4.548   2.994   0.247 -0.2168 -2.0189 -0.1835
 8637SOL    HW237371   4.671   3.027   0.181  0.6189 -2.0384 -0.0983
 8638SOL     OW37372   1.014   0.829   6.268  0.0807 -0.1166 -0.4401
 8638SOL    HW137373   1.019   0.848   6.361  0.3238  1.1526 -0.7013
 8638SOL    HW237374   0.923   0.800   6.273 -1.0325  3.6211  1.0947
 8639SOL     OW37375   4.088   3.547   8.597 -0.2002 -0.0204 -0.3881
 8639SOL    HW137376   4.053   3.468   8.557  0.3485 -0.1635 -0.5755
 8639SOL    HW237377   4.040   3.615   8.548  1.5959  2.5601  1.4149
 8640SOL     OW37378   0.949   3.385   6.115  0.3350  0.2288  0.3319
 8640SOL    HW137379   1.020   3.409   6.055  0.1426 -0.3541 -0.1337
 8640SOL    HW237380   1.007   3.318   6.151 -2.1427 -2.1893 -0.2153
 8641SOL     OW37381   1.523   2.131   3.265  0.3219 -0.0966 -0.4796
 8641SOL    HW137382   1.476   2.060   3.222  1.4330 -1.9824  1.4532
 8641SOL    HW237383   1.598   2.083   3.302  0.2766 -0.0929 -0.3832
 8642SOL     OW37384   0.096   1.268   5.159  0.0662  0.1620  0.1172
 8642SOL    HW137385   0.155   1.342   5.148  1.6219 -1.0132  0.5527
 8642SOL    HW237386   0.146   1.216   5.222  1.5146 -0.9756 -1.9616
 8643SOL     OW37387   3.394   0.380  16.780 -0.1994 -0.0496 -0.3211
 8643SOL    HW137388   3.385   0.361  16.687 -0.1948  2.0297 -0.7555
 8643SOL    HW237389   3.306   0.394  16.815 -0.0564  0.2489 -0.0691
 8644SOL     OW37390   3.840   3.202   7.753  0.1470 -0.7137  0.8121
 8644SOL    HW137391   3.818   3.189   7.661  2.1109 -2.1138  0.5452
 8644SOL    HW237392   3.935   3.196   7.740 -0.4637 -2.7797 -2.5688
 8645SOL     OW37393   2.447   2.948   0.303  0.2504 -0.1831  0.4375
 8645SOL    HW137394   2.373   2.998   0.337  1.2544  2.2951 -0.9896
 8645SOL    HW237395   2.519   3.010   0.316 -0.7531  0.4994  2.7154
 8646SOL     OW37396   4.575   0.475   5.565  0.2990  0.0095  0.5914
 8646SOL    HW137397   4.503   0.538   5.559  0.2182 -0.1441  0.0004
 8646SOL    HW237398   4.580   0.428   5.482 -1.7371  1.6243 -0.4404
 8647SOL     OW37399   0.904   0.241   4.786  0.2274  0.0701 -0.3576
 8647SOL    HW137400   0.957   0.173   4.745 -0.6435  0.2826 -1.8562
 8647SOL    HW237401   0.899   0.305   4.715  0.0706  1.1002  0.5757
 8648SOL     OW37402   3.121   3.425  12.217 -0.3414  0.3659 -0.0282
 8648SOL    HW137403   3.135   3.384  12.303 -1.2711 -0.1610 -0.1244
 8648SOL    HW237404   3.197   3.389  12.171  0.0272 -0.7850  1.4471
 8649SOL     OW37405   3.305   0.956  15.143 -0.4859 -0.6520  0.3831
 8649SOL    HW137406   3.345   0.894  15.204 -0.1252 -1.6946 -0.9015
 8649SOL    HW237407   3.256   0.895  15.088  0.8350  0.5909 -2.1472
 8650SOL     OW37408   3.203   1.628   3.816 -0.1138 -0.3319  0.1576
 8650SOL    HW137409   3.129   1.582   3.857 -1.8145  2.9646  0.7748
 8650SOL    HW237410   3.229   1.552   3.763  0.0293 -0.5167  0.4925
 8651SOL     OW37411   0.404   0.565   3.309  0.7006  0.9985 -0.3914
 8651SOL    HW137412   0.421   0.475   3.281 -1.1057  0.6401 -0.3462
 8651SOL    HW237413   0.324   0.554   3.360  0.2165 -1.1419 -1.5889
 8652SOL     OW37414   0.373   4.713  14.653  0.6729 -0.0700  0.2789
 8652SOL    HW137415   0.438   0.058  14.637 -0.8549  0.6279 -2.9136
 8652SOL    HW237416   0.422   4.632  14.640 -1.6545 -1.0856 -2.0787
 8653SOL     OW37417   0.445   4.667  16.011 -0.5279  0.4416 -0.4057
 8653SOL    HW137418   0.457   0.035  16.036  2.2582 -0.1405  0.3857
 8653SOL    HW237419   0.502   4.659  15.935 -0.1593  0.7470 -0.1649
 8654SOL     OW37420   4.631   4.590   8.926 -0.6019  0.0734  0.2055
 8654SOL    HW137421   4.687   4.661   8.957  0.5137 -1.3267  1.4498
 8654SOL    HW237422   4.568   4.637   8.873 -0.6350 -0.9971 -0.7033
 8655SOL     OW37423   1.210   3.710   9.662  0.0720  0.6576 -0.0497
 8655SOL    HW137424   1.287   3.704   9.718 -1.0581 -0.9585  1.3329
 8655SOL    HW237425   1.187   3.799   9.689 -0.8460  0.3160  0.2895
 8656SOL     OW37426   1.672   1.221   6.378  0.1621  0.6553  0.5178
 8656SOL    HW137427   1.692   1.262   6.293 -1.2821 -0.3660 -0.3197
 8656SOL    HW237428   1.582   1.191   6.372  0.1292  0.8683 -0.0768
 8657SOL     OW37429   1.514   2.830   2.670 -0.0772  0.1469  0.1772
 8657SOL    HW137430   1.504   2.836   2.575 -1.6623 -2.8198  0.1554
 8657SOL    HW237431   1.521   2.922   2.695 -1.0001 -0.0372  1.0836
 8658SOL     OW37432   2.833   4.215   7.744 -0.1407  0.1480  0.1205
 8658SOL    HW137433   2.752   4.228   7.795  1.0850 -0.3378  2.2090
 8658SOL    HW237434   2.823   4.274   7.670  1.6731  1.6808  1.1110
 8659SOL     OW37435   2.201   1.913   0.512  0.6477  0.0899  0.1848
 8659SOL    HW137436   2.266   1.892   0.579 -0.0793  1.0366  1.1919
 8659SOL    HW237437   2.170   1.824   0.497 -1.8374  0.7956  1.0696
 8660SOL     OW37438   3.308   0.677   8.690  0.1264 -0.1915 -0.2604
 8660SOL    HW137439   3.391   0.643   8.722  0.1395  0.4357  0.3506
 8660SOL    HW237440   3.254   0.681   8.769  0.9967 -0.8731  0.3720
 8661SOL     OW37441   2.377   1.116   4.392 -0.5563  0.0299  0.0207
 8661SOL    HW137442   2.286   1.136   4.368  0.0490 -0.0090 -2.3516
 8661SOL    HW237443   2.395   1.195   4.442  0.3185 -0.7115  0.8764
 8662SOL     OW37444   1.394   0.881   5.447  0.1901 -0.5131 -0.7649
 8662SOL    HW137445   1.459   0.877   5.517 -0.9854 -0.0034  0.3560
 8662SOL    HW237446   1.414   0.806   5.391  0.1057 -2.2156  1.5124
 8663SOL     OW37447   2.487   0.929   2.858  0.3429  0.3979 -0.3073
 8663SOL    HW137448   2.459   0.843   2.829 -0.4628  0.3767  0.5209
 8663SOL    HW237449   2.481   0.919   2.953  0.4363  1.3438 -0.1996
 8664SOL     OW37450   0.158   3.553   3.847 -0.0586 -0.1181 -0.1759
 8664SOL    HW137451   0.251   3.577   3.855  0.0248 -0.4997  0.0255
 8664SOL    HW237452   0.128   3.576   3.935  0.3256  0.1397 -0.1134
 8665SOL     OW37453   0.159   4.184   4.096  0.1431 -0.3303  0.1620
 8665SOL    HW137454   0.213   4.193   4.175 -0.5843  1.7530  0.4246
 8665SOL    HW237455   0.103   4.109   4.114  0.0012 -0.2482  0.0592
 8666SOL     OW37456   0.314   1.356   2.730  0.8981  0.3221  0.0992
 8666SOL    HW137457   0.347   1.412   2.660 -1.0596  0.0856 -1.0032
 8666SOL    HW237458   0.221   1.358   2.706  1.1085 -1.7248 -0.9292
 8667SOL     OW37459   0.487   3.428   4.448 -0.0427  0.2596  0.0459
 8667SOL    HW137460   0.502   3.360   4.382 -1.7153  1.1198 -1.2143
 8667SOL    HW237461   0.555   3.415   4.514  0.1173  2.0615  0.2198
 8668SOL     OW37462   3.165   3.047   3.053  0.5348 -0.1248  0.2846
 8668SOL    HW137463   3.081   3.032   3.097 -0.6774  0.4956 -1.8272
 8668SOL    HW237464   3.133   3.076   2.968  1.2570  3.5438  1.2435
 8669SOL     OW37465   3.699   0.137   7.344  0.3970 -0.4732  0.3624
 8669SOL    HW137466   3.760   0.210   7.336 -0.1177 -0.3499 -2.2598
 8669SOL    HW237467   3.753   0.060   7.327 -1.5304 -1.6349 -0.5360
 8670SOL     OW37468   1.368   1.214   0.328  0.3910  0.0033 -0.1733
 8670SOL    HW137469   1.417   1.140   0.364 -1.8824 -1.6082 -0.3864
 8670SOL    HW237470   1.313   1.243   0.401  0.5417 -1.7395  0.6242
 8671SOL     OW37471   1.311   4.114   6.789 -0.1136 -0.0817 -0.3422
 8671SOL    HW137472   1.277   4.197   6.822  3.2727  0.7720  0.9399
 8671SOL    HW237473   1.262   4.101   6.708 -1.2809  0.3522  0.2968
 8672SOL     OW37474   1.966   0.455  15.797  0.7712  0.0035  0.3106
 8672SOL    HW137475   1.930   0.377  15.753  2.1027  1.3622 -3.2337
 8672SOL    HW237476   2.053   0.474  15.763  0.2352 -0.6036 -1.4384
 8673SOL     OW37477   2.456   2.213   4.720 -0.2925  0.3225 -0.0340
 8673SOL    HW137478   2.404   2.286   4.752 -0.4279 -1.0032  2.6907
 8673SOL    HW237479   2.541   2.220   4.763 -0.8983 -0.2566  1.2407
 8674SOL     OW37480   1.000   2.177  10.330 -0.0697  0.4338 -0.0409
 8674SOL    HW137481   0.933   2.244  10.319 -0.4639 -0.1301 -1.0870
 8674SOL    HW237482   0.966   2.142  10.412  0.5119  1.3285  0.5895
 8675SOL     OW37483   2.048   0.518  14.683 -0.0412  0.2371 -0.4557
 8675SOL    HW137484   2.063   0.527  14.589  2.5497 -2.7006 -0.3265
 8675SOL    HW237485   2.140   0.503  14.708  0.4010 -0.9106 -2.7210
 8676SOL     OW37486   1.461   0.110  10.253  0.5885 -0.5099  0.4059
 8676SOL    HW137487   1.527   0.177  10.272  0.3482  0.1994 -1.3302
 8676SOL    HW237488   1.490   0.082  10.167 -1.2370 -0.1646 -0.3203
 8677SOL     OW37489   1.911   2.700   1.819  0.3283  0.3388  0.2060
 8677SOL    HW137490   1.936   2.722   1.908 -1.1815 -1.6596  1.1186
 8677SOL    HW237491   1.881   2.611   1.834 -0.2042  0.1512 -1.9750
 8678SOL     OW37492   2.714   1.978   5.238 -0.1860 -0.4107  0.6400
 8678SOL    HW137493   2.715   2.021   5.324  1.6501  0.1901  0.3133
 8678SOL    HW237494   2.802   1.941   5.237  0.0399  0.1763 -1.2450
 8679SOL     OW37495   2.696   1.744  13.110 -0.2237 -0.5447  0.1466
 8679SOL    HW137496   2.627   1.686  13.077  0.4550 -2.3930  1.9436
 8679SOL    HW237497   2.673   1.759  13.202  1.5029 -0.3355  0.5474
 8680SOL     OW37498   4.347   1.153  17.416  0.5579  0.0625 -0.7313
 8680SOL    HW137499   4.332   1.060  17.430  1.8261 -0.0014  0.2076
 8680SOL    HW237500   4.325   1.190  17.502 -0.4052  0.0807 -0.9760
 8681SOL     OW37501   2.435   1.481   0.388 -0.3791 -0.1626 -0.0339
 8681SOL    HW137502   2.440   1.396   0.345 -1.3666 -0.6563  0.8246
 8681SOL    HW237503   2.380   1.463   0.464  0.1178 -0.1363  0.3398
 8682SOL     OW37504   4.465   2.757   3.529 -0.0510  0.7628 -0.2733
 8682SOL    HW137505   4.431   2.678   3.486  2.1521 -0.4558  0.2258
 8682SOL    HW237506   4.383   2.802   3.551 -0.3651 -0.8732  1.8957
 8683SOL     OW37507   3.652   2.979   8.586  0.1816 -0.6321  0.6208
 8683SOL    HW137508   3.692   3.024   8.660 -0.4921 -1.6191  1.5931
 8683SOL    HW237509   3.560   2.995   8.604 -0.0045 -0.3192 -0.5606
 8684SOL     OW37510   0.227   1.713  13.489  0.5897  0.2265  0.0360
 8684SOL    HW137511   0.272   1.743  13.568 -0.5781 -1.1403  1.2243
 8684SOL    HW237512   0.164   1.784  13.478 -0.4405 -0.6290  0.4943
 8685SOL     OW37513   0.948   0.784   8.080 -0.5987 -0.0061  0.0473
 8685SOL    HW137514   1.040   0.800   8.057 -0.4638 -1.6996 -0.5500
 8685SOL    HW237515   0.951   0.843   8.155  1.3040  0.8745 -0.7151
 8686SOL     OW37516   2.364   4.700  11.945 -0.1732  0.1468  0.2815
 8686SOL    HW137517   2.286   0.027  11.921  0.0042 -0.6751 -1.9850
 8686SOL    HW237518   2.333   4.611  11.961  4.2099 -1.4683 -0.3323
 8687SOL     OW37519   0.526   0.742   5.907 -0.0855 -0.2619 -0.1833
 8687SOL    HW137520   0.562   0.793   5.979  0.0450 -1.5307  0.6530
 8687SOL    HW237521   0.538   0.805   5.836 -0.1171 -0.9019 -0.7694
 8688SOL     OW37522   0.072   4.353   7.489 -0.9074 -0.4150  0.3530
 8688SOL    HW137523   0.167   4.363   7.481 -0.8780  0.4092  1.6386
 8688SOL    HW237524   0.049   4.437   7.450 -0.8784 -1.9065 -2.8287
 8689SOL     OW37525   0.033   4.253   6.609  0.3360  0.3470 -0.2250
 8689SOL    HW137526   4.699   4.327   6.586  0.2207  0.4854  0.5020
 8689SOL    HW237527   0.014   4.235   6.701 -0.2915  2.9628  0.1841
 8690SOL     OW37528   1.746   1.083  14.337 -0.2984  0.6871  0.6302
 8690SOL    HW137529   1.801   1.150  14.378  2.5402  0.0514 -2.1487
 8690SOL    HW237530   1.767   1.100  14.245  0.3478 -1.0564  0.4577
 8691SOL     OW37531   2.216   1.257   8.647 -0.0209  0.1570 -0.1923
 8691SOL    HW137532   2.274   1.195   8.691 -0.8922  0.3771  1.2583
 8691SOL    HW237533   2.261   1.339   8.666 -1.3478  0.1289  3.0351
 8692SOL     OW37534   2.033   4.521  11.809  0.2682 -0.5035  0.0158
 8692SOL    HW137535   1.960   4.467  11.779  1.3227 -1.3586 -1.0654
 8692SOL    HW237536   2.080   4.463  11.870 -0.7910  1.2687  2.4943
 8693SOL     OW37537   3.054   3.828   5.627  0.1967 -0.0864  0.4212
 8693SOL    HW137538   3.091   3.858   5.710 -0.1959  0.4413  0.4054
 8693SOL    HW237539   3.126   3.854   5.570 -1.0918  0.7966 -0.7834
 8694SOL     OW37540   3.199   2.790   9.454  0.1218  0.0280 -0.0331
 8694SOL    HW137541   3.119   2.775   9.403  0.1924  1.4937 -0.5659
 8694SOL    HW237542   3.175   2.748   9.536 -2.4689  0.6847 -0.4457
 8695SOL     OW37543   1.388   3.899   2.753  0.0303  0.0477 -0.1191
 8695SOL    HW137544   1.428   3.890   2.840 -0.1701 -0.7260 -0.1025
 8695SOL    HW237545   1.461   3.868   2.698  0.9562 -0.0193  1.1475
 8696SOL     OW37546   4.532   2.587  15.987 -0.5851 -0.2088  0.5481
 8696SOL    HW137547   4.455   2.547  16.026 -0.9297 -0.6792 -0.6185
 8696SOL    HW237548   4.590   2.514  16.009  3.1536  3.3383  2.4537
 8697SOL     OW37549   0.949   2.662  14.655  0.0156  0.2335  0.4072
 8697SOL    HW137550   1.018   2.651  14.720  1.8976  0.4051 -1.5343
 8697SOL    HW237551   0.995   2.718  14.591  1.1958 -2.0788 -0.7482
 8698SOL     OW37552   3.907   3.358   7.185  0.1617  0.0759  0.0050
 8698SOL    HW137553   3.815   3.382   7.189  0.2343  0.1816  0.9092
 8698SOL    HW237554   3.912   3.303   7.263 -0.7218 -0.8033 -0.5612
 8699SOL     OW37555   4.156   3.838   3.228  0.5407  0.5877 -0.1701
 8699SOL    HW137556   4.104   3.789   3.292  0.4160 -1.1579 -1.6023
 8699SOL    HW237557   4.105   3.816   3.149  0.3080 -1.7780  0.6392
 8700SOL     OW37558   0.298   4.662   1.646 -0.0131  0.2991 -1.2413
 8700SOL    HW137559   0.241   4.645   1.571 -0.0777 -0.4917 -1.0134
 8700SOL    HW237560   0.365   4.602   1.614  0.2307 -0.4085  0.6208
 8701SOL     OW37561   3.755   4.682  13.718  0.0132  0.1811  0.0261
 8701SOL    HW137562   3.804   4.599  13.716 -4.1734 -2.3270  2.6114
 8701SOL    HW237563   3.669   4.659  13.685  1.1456 -1.3327 -1.8576
 8702SOL     OW37564   0.916   2.164  17.492  0.1146  0.4123 -0.0409
 8702SOL    HW137565   0.960   2.081  17.512 -1.4821  0.2578  2.8065
 8702SOL    HW237566   0.933   2.160  17.398 -3.5926 -1.1840 -0.6368
 8703SOL     OW37567   3.899   0.629   0.389  0.0427 -0.3253  0.6043
 8703SOL    HW137568   3.830   0.673   0.439  1.3646  2.3410  0.0673
 8703SOL    HW237569   3.969   0.620   0.453 -1.7967  0.2162  2.6663
 8704SOL     OW37570   1.904   2.694  17.574  0.5796 -0.0009  0.3027
 8704SOL    HW137571   1.823   2.688  17.624 -0.0390  0.0282 -0.6961
 8704SOL    HW237572   1.884   2.766  17.514 -0.7853 -0.8238 -0.2375
 8705SOL     OW37573   3.687   4.210   5.259  0.1176  0.5229  0.0820
 8705SOL    HW137574   3.742   4.170   5.192  0.8740  1.3423  0.2196
 8705SOL    HW237575   3.598   4.185   5.233 -0.5753  2.9162  0.2007
 8706SOL     OW37576   2.218   1.005   2.104 -0.1988  0.9624  0.3497
 8706SOL    HW137577   2.298   0.987   2.154 -1.1105 -0.8114  1.1714
 8706SOL    HW237578   2.254   1.052   2.029  0.5863  0.5350  0.4637
 8707SOL     OW37579   1.862   0.959  12.384  0.4346 -0.1682  0.0121
 8707SOL    HW137580   1.775   0.921  12.368  0.5388 -0.0307 -0.8711
 8707SOL    HW237581   1.883   0.972  12.291 -0.7053  1.1749 -0.0625
 8708SOL     OW37582   4.349   3.143  16.871 -0.4596  0.3933 -0.1844
 8708SOL    HW137583   4.410   3.169  16.940 -0.2727  0.0481 -0.2195
 8708SOL    HW237584   4.323   3.054  16.892  0.2801 -0.1688 -1.6598
 8709SOL     OW37585   2.634   2.560   3.679 -0.8350 -0.1403  0.0981
 8709SOL    HW137586   2.679   2.485   3.718  1.0727 -0.5124 -2.7999
 8709SOL    HW237587   2.542   2.539   3.694 -0.7867  0.8853  1.8027
 8710SOL     OW37588   2.788   1.708   4.120  0.2975  0.2942  0.5637
 8710SOL    HW137589   2.811   1.615   4.115 -0.4619  0.2767 -2.8135
 8710SOL    HW237590   2.726   1.717   4.048  0.5822 -1.5962  0.0890
 8711SOL     OW37591   2.414   4.717  10.534  0.0836  0.6109  0.9964
 8711SOL    HW137592   2.378   0.070  10.579  2.0762  0.1565  3.3575
 8711SOL    HW237593   2.341   4.657  10.520  0.8886 -0.0434 -0.3502
 8712SOL     OW37594   0.861   2.749  14.388  0.4169 -0.4912  0.5973
 8712SOL    HW137595   0.810   2.720  14.312 -0.4707 -1.3816  1.5370
 8712SOL    HW237596   0.837   2.689  14.459  2.1875 -0.3768  1.2939
 8713SOL     OW37597   3.430   2.619   5.782  0.4313  0.1661 -0.6610
 8713SOL    HW137598   3.495   2.675   5.740 -0.0209 -1.2316 -3.2530
 8713SOL    HW237599   3.381   2.587   5.706  0.1099 -2.0130  0.4554
 8714SOL     OW37600   2.108   1.865   1.493  0.5455 -0.2831  0.1195
 8714SOL    HW137601   2.146   1.896   1.411 -2.3232  1.5887 -0.4888
 8714SOL    HW237602   2.177   1.802   1.513  1.2849  0.3840 -0.3100
 8715SOL     OW37603   0.086   3.461   6.436  0.2446  0.2237 -0.5554
 8715SOL    HW137604   0.176   3.486   6.413  0.0609  0.0304 -1.5059
 8715SOL    HW237605   0.064   3.412   6.357 -0.4137  0.9363 -0.8077
 8716SOL     OW37606   2.656   1.266   8.701  0.4350  0.1894  0.5462
 8716SOL    HW137607   2.651   1.309   8.616 -1.1623 -0.9198  0.0812
 8716SOL    HW237608   2.584   1.204   8.691  1.0275 -0.5664  0.9216
 8717SOL     OW37609   3.419   2.257   3.294 -0.0238 -0.3623  0.6031
 8717SOL    HW137610   3.511   2.279   3.313 -0.1190  0.1131  0.5207
 8717SOL    HW237611   3.386   2.334   3.249  1.1717 -1.2096 -1.7412
 8718SOL     OW37612   2.228   0.487   9.688 -0.1956  0.2656  0.3543
 8718SOL    HW137613   2.211   0.513   9.598 -2.7555 -0.3951  0.6429
 8718SOL    HW237614   2.315   0.447   9.680 -0.1750  0.1778  0.9990
 8719SOL     OW37615   2.756   1.454   0.286 -0.2363 -0.2538  0.8033
 8719SOL    HW137616   2.815   1.416   0.351 -0.9003 -0.2298  1.4154
 8719SOL    HW237617   2.677   1.478   0.334 -0.1712  1.3766  0.1135
 8720SOL     OW37618   2.062   0.817   1.387 -0.2211 -0.4757 -0.0204
 8720SOL    HW137619   2.098   0.728   1.395 -1.4692 -0.8463  1.4269
 8720SOL    HW237620   2.062   0.837   1.481  2.5270 -2.1466  0.3267
 8721SOL     OW37621   1.944   2.034   8.369  0.5898 -0.4465 -0.4024
 8721SOL    HW137622   2.032   2.070   8.358  0.6983  0.2987  2.8477
 8721SOL    HW237623   1.912   2.072   8.287 -1.4993  1.0679  1.1102
 8722SOL     OW37624   1.518   1.975  17.457  0.0657  0.2352 -1.0495
 8722SOL    HW137625   1.607   2.002  17.432  0.7888 -0.3875  0.8445
 8722SOL    HW237626   1.548   1.893  17.497  0.3766  1.5389  1.4097
 8723SOL     OW37627   0.400   4.159   3.755  0.2141 -0.1927  0.0062
 8723SOL    HW137628   0.357   4.116   3.829  0.4567  1.4662  1.1010
 8723SOL    HW237629   0.434   4.237   3.798 -1.5008  1.0454 -0.8812
 8724SOL     OW37630   3.806   2.996   1.857 -0.5934 -0.3640 -0.3122
 8724SOL    HW137631   3.723   3.042   1.847 -0.7252 -0.8854 -1.6258
 8724SOL    HW237632   3.806   2.916   1.804 -0.4270 -2.1360  2.3334
 8725SOL     OW37633   3.432   0.061   6.518 -0.4405  0.2482 -1.2297
 8725SOL    HW137634   3.476   0.142   6.491 -0.1354  0.1313 -1.0762
 8725SOL    HW237635   3.496   4.717   6.496  0.2810  0.2959  0.6987
 8726SOL     OW37636   1.571   1.151   7.004  0.4409 -0.3934 -0.3662
 8726SOL    HW137637   1.627   1.110   7.069  0.7763 -0.2796 -0.5834
 8726SOL    HW237638   1.561   1.078   6.942 -1.5319  0.5339 -1.1498
 8727SOL     OW37639   0.268   0.516   7.806 -0.4446 -0.0349  0.9506
 8727SOL    HW137640   0.330   0.501   7.735 -0.2620  3.0069  0.4665
 8727SOL    HW237641   0.189   0.551   7.764 -0.3509  0.1751  0.9507
 8728SOL     OW37642   4.526   4.150   7.091 -0.3359  0.0720  0.6068
 8728SOL    HW137643   4.539   4.157   6.997  2.3958  1.1845  1.0747
 8728SOL    HW237644   4.593   4.211   7.122  1.5204 -1.2075 -0.8835
 8729SOL     OW37645   3.573   2.202  10.965  0.7705 -0.5718 -0.0062
 8729SOL    HW137646   3.641   2.164  11.021  0.7412  0.4617  0.7439
 8729SOL    HW237647   3.551   2.280  11.017  0.8484 -0.7956  0.3616
 8730SOL     OW37648   4.326   4.353   9.024  0.1402 -0.1296 -0.3783
 8730SOL    HW137649   4.401   4.311   9.068  0.1461  0.6414  0.3575
 8730SOL    HW237650   4.372   4.433   9.000  1.6222  0.4176  4.2219
 8731SOL     OW37651   2.048   2.185   3.545  0.3625  0.1484 -0.1947
 8731SOL    HW137652   1.953   2.173   3.548  0.6406 -2.0712  0.3324
 8731SOL    HW237653   2.053   2.277   3.569  2.1856  0.4535 -1.7299
 8732SOL     OW37654   4.335   2.238   6.616 -0.1354 -0.1570  0.5446
 8732SOL    HW137655   4.246   2.262   6.590 -0.0420  1.9821  2.1796
 8732SOL    HW237656   4.388   2.248   6.538  1.2701  2.0917  1.7861
 8733SOL     OW37657   0.694   3.667   5.662  0.1060  0.4150  0.1035
 8733SOL    HW137658   0.737   3.694   5.581  1.0431  0.4959  0.6264
 8733SOL    HW237659   0.604   3.666   5.632  0.4471  1.8531 -0.9285
 8734SOL     OW37660   4.649   2.194  14.095 -0.9002  0.3304 -0.2949
 8734SOL    HW137661   4.672   2.195  14.003  2.1207  0.7014  0.4817
 8734SOL    HW237662   4.565   2.149  14.099  0.0994 -1.5426 -0.5522
 8735SOL     OW37663   0.013   1.318   6.785  0.0369 -0.1539  0.2318
 8735SOL    HW137664   4.693   1.325   6.870  1.5186 -0.5242  1.0422
 8735SOL    HW237665   4.668   1.292   6.724 -0.8555 -0.6784  1.4690
 8736SOL     OW37666   2.433   2.679  16.679 -0.6327  0.2508 -0.0268
 8736SOL    HW137667   2.526   2.667  16.658 -0.2848  0.5723  1.3045
 8736SOL    HW237668   2.389   2.639  16.604  1.3716  1.3461 -1.7547
 8737SOL     OW37669   4.280   1.940   6.118 -0.0675  0.4829  0.3988
 8737SOL    HW137670   4.310   1.864   6.069 -0.5788 -0.0080  0.8524
 8737SOL    HW237671   4.324   1.899   6.192 -2.0780 -2.1066  0.1529
 8738SOL     OW37672   2.315   2.303   5.948 -0.2261  0.1850  0.0391
 8738SOL    HW137673   2.366   2.285   6.027  0.4665 -1.8960 -0.8817
 8738SOL    HW237674   2.349   2.387   5.919 -0.8368  0.9771  1.6371
 8739SOL     OW37675   3.471   0.368   7.836 -0.0437  0.2318 -0.1231
 8739SOL    HW137676   3.417   0.330   7.767 -0.7576  0.5744  0.2531
 8739SOL    HW237677   3.444   0.317   7.911 -0.8594  1.8171  0.6621
 8740SOL     OW37678   0.611   1.516   4.607 -0.5277 -1.1754  0.1990
 8740SOL    HW137679   0.685   1.458   4.591 -1.2729 -1.0040 -3.8903
 8740SOL    HW237680   0.554   1.503   4.531  0.2610 -0.9464 -0.4274
 8741SOL     OW37681   3.655   0.650   7.186 -0.1505 -0.1317  0.3169
 8741SOL    HW137682   3.673   0.569   7.139  0.4421  0.6199 -0.7528
 8741SOL    HW237683   3.568   0.632   7.222 -1.0077  1.2158 -1.1063
 8742SOL     OW37684   4.034   1.013  11.766 -0.1284  0.2539  0.3885
 8742SOL    HW137685   3.964   1.055  11.716  0.1822 -3.0704 -2.8266
 8742SOL    HW237686   4.101   1.010  11.698 -0.2207 -2.1889  0.4070
 8743SOL     OW37687   1.513   4.519  14.582  0.6795 -0.4603  0.8043
 8743SOL    HW137688   1.488   4.499  14.492  0.8302  3.7090 -0.1423
 8743SOL    HW237689   1.432   4.496  14.627  0.5587  0.7985  1.2179
 8744SOL     OW37690   3.016   2.022   3.973 -0.3219  0.3665 -0.6216
 8744SOL    HW137691   3.007   2.014   3.878 -1.3408  1.3925 -0.6107
 8744SOL    HW237692   3.091   1.967   3.995 -0.0379  0.4359 -1.4387
 8745SOL     OW37693   4.695   1.569   5.242 -0.5374  0.3723 -0.4451
 8745SOL    HW137694   4.665   1.595   5.154 -0.0014 -0.5351 -0.8842
 8745SOL    HW237695   4.640   1.492   5.259 -0.0276  0.2439  0.6051
 8746SOL     OW37696   0.851   2.682   6.084 -0.1301 -0.3869  0.1624
 8746SOL    HW137697   0.756   2.677   6.087 -0.1764 -1.0645 -2.4481
 8746SOL    HW237698   0.870   2.749   6.019  0.4576 -0.7409 -0.0334
 8747SOL     OW37699   2.762   1.888   7.100  0.4192 -0.3011  0.1497
 8747SOL    HW137700   2.836   1.873   7.160 -0.0515 -0.8356  0.6033
 8747SOL    HW237701   2.703   1.925   7.166 -0.8230 -0.4043 -0.9102
 8748SOL     OW37702   4.326   0.934   6.400  0.2563 -0.0393 -0.4313
 8748SOL    HW137703   4.367   1.020   6.396  0.7294 -0.2256  0.5785
 8748SOL    HW237704   4.397   0.877   6.427 -0.7209 -0.9687  0.1786
 8749SOL     OW37705   3.829   0.862   7.320 -0.0199 -0.4937  0.4090
 8749SOL    HW137706   3.760   0.811   7.279  1.8268 -0.7398 -2.4017
 8749SOL    HW237707   3.906   0.809   7.297  1.0773  1.6998 -0.9888
 8750SOL     OW37708   2.821   3.480  12.821 -0.7640 -0.1438 -0.1780
 8750SOL    HW137709   2.808   3.459  12.913  0.5944 -0.6214 -0.0882
 8750SOL    HW237710   2.908   3.449  12.797 -2.2499 -3.3240 -1.5676
 8751SOL     OW37711   0.170   1.285   0.445 -0.2852 -0.2742 -0.2304
 8751SOL    HW137712   0.216   1.282   0.528 -0.3701 -2.6423 -0.2659
 8751SOL    HW237713   0.203   1.370   0.415 -3.6702  0.8117 -0.9733
 8752SOL     OW37714   2.282   0.532   6.683 -0.0360 -0.4835 -0.1833
 8752SOL    HW137715   2.340   0.529   6.759 -1.0377 -3.6406  0.4225
 8752SOL    HW237716   2.342   0.503   6.614  0.5971  0.3105  0.0269
 8753SOL     OW37717   4.658   3.732  14.137 -0.3396  0.6996  0.3126
 8753SOL    HW137718   4.673   3.660  14.076 -1.2489  0.6525  0.1448
 8753SOL    HW237719   0.020   3.776  14.134 -0.0271  0.1716  1.3986
 8754SOL     OW37720   0.848   0.374  12.090 -0.4201 -0.2905  0.3318
 8754SOL    HW137721   0.882   0.357  12.178 -0.2144 -1.3958  0.0346
 8754SOL    HW237722   0.773   0.316  12.080 -0.8067  0.1022  0.9509
 8755SOL     OW37723   3.748   0.013   4.956  0.0186 -0.9084  0.6701
 8755SOL    HW137724   3.802   0.073   4.905  1.6275 -2.0446  1.0265
 8755SOL    HW237725   3.791   0.032   5.040  0.8415 -0.8015  0.2270
 8756SOL     OW37726   4.209   4.683   2.980 -0.0471 -0.4085 -0.1411
 8756SOL    HW137727   4.265   4.707   2.907  0.0105 -1.2330 -0.3700
 8756SOL    HW237728   4.199   0.043   3.027 -0.6850  0.3444 -1.6085
 8757SOL     OW37729   1.048   1.825   0.295  0.2444 -0.5156  0.0411
 8757SOL    HW137730   1.079   1.743   0.254  2.9701 -0.0107  1.1106
 8757SOL    HW237731   0.954   1.819   0.307  0.1624 -0.2170 -0.4588
 8758SOL     OW37732   1.126   2.124   1.418 -0.0382  0.3115 -0.0211
 8758SOL    HW137733   1.031   2.122   1.405 -0.2100  0.7044  1.1377
 8758SOL    HW237734   1.143   2.215   1.443  0.5852  0.0641  0.4794
 8759SOL     OW37735   0.384   4.248   2.436  0.3515  0.0476  0.1270
 8759SOL    HW137736   0.428   4.175   2.480 -0.3517 -1.8770 -2.3908
 8759SOL    HW237737   0.299   4.242   2.479 -0.2877  0.7788 -1.0450
 8760SOL     OW37738   3.600   2.352  17.430 -0.2262  0.3501  0.1397
 8760SOL    HW137739   3.527   2.293  17.415  0.9198 -1.1732  0.5768
 8760SOL    HW237740   3.630   2.336  17.519 -2.5721 -1.0112  0.6618
 8761SOL     OW37741   4.158   1.746   3.588  0.3707  0.0632  0.0399
 8761SOL    HW137742   4.130   1.747   3.497 -2.0331 -1.0375  0.7811
 8761SOL    HW237743   4.191   1.658   3.606 -5.1151 -2.0873 -0.4573
 8762SOL     OW37744   0.109   1.824  10.925 -0.2800 -0.1039 -0.6403
 8762SOL    HW137745   0.146   1.805  10.838  0.8593 -1.2592  0.0883
 8762SOL    HW237746   0.175   1.882  10.964 -2.5602  0.5079  2.2811
 8763SOL     OW37747   1.930   2.931   1.408 -0.1863  0.2116  0.0961
 8763SOL    HW137748   1.934   2.869   1.335 -0.8810  1.0468 -0.6597
 8763SOL    HW237749   1.968   2.878   1.478 -3.0977 -1.3134  0.5342
 8764SOL     OW37750   3.426   4.187   6.595 -0.0621 -0.0967 -0.1334
 8764SOL    HW137751   3.357   4.212   6.656 -0.1959  0.9463 -0.7152
 8764SOL    HW237752   3.390   4.106   6.559  1.1988 -0.0787 -1.4628
 8765SOL     OW37753   0.235   1.778  10.293 -0.3599  0.4498 -0.3205
 8765SOL    HW137754   0.256   1.770  10.386 -0.5333  2.4516 -0.0956
 8765SOL    HW237755   0.319   1.814  10.266 -0.4015  0.2089 -0.7774
 8766SOL     OW37756   1.433   3.271   7.002 -0.7085 -0.2182  0.8470
 8766SOL    HW137757   1.416   3.310   7.088  2.9461  0.1729  1.3690
 8766SOL    HW237758   1.353   3.223   6.983  0.3647 -0.7620 -2.2178
 8767SOL     OW37759   0.646   1.778   1.374  0.6817 -0.5126 -0.4646
 8767SOL    HW137760   0.665   1.698   1.422 -1.4305 -3.2358 -4.2164
 8767SOL    HW237761   0.735   1.804   1.352  0.4057 -0.6260 -1.7130
 8768SOL     OW37762   0.932   2.221   7.938  0.1765  0.2090 -0.2864
 8768SOL    HW137763   0.870   2.187   8.002 -0.1657 -0.1768 -0.8266
 8768SOL    HW237764   0.900   2.311   7.940  1.7729  0.8274 -1.9343
 8769SOL     OW37765   2.202   3.476  16.970  0.5922  0.2583  0.2696
 8769SOL    HW137766   2.239   3.393  17.001  0.7110 -0.0436 -0.6871
 8769SOL    HW237767   2.232   3.545  17.029 -1.3795  0.7923  0.6561
 8770SOL     OW37768   3.868   3.058   6.950  0.3796  0.3349 -0.5317
 8770SOL    HW137769   3.951   3.021   6.982 -0.0008 -2.9304 -3.3304
 8770SOL    HW237770   3.882   3.150   6.970  0.1546  0.5613 -1.4202
 8771SOL     OW37771   3.241   2.442  12.296  0.1283  0.1620  0.3205
 8771SOL    HW137772   3.211   2.370  12.240  1.3970 -1.6533  1.9753
 8771SOL    HW237773   3.335   2.430  12.312  0.0710 -1.6079 -0.7399
 8772SOL     OW37774   2.577   1.494   7.131 -0.1773  0.5500 -0.7927
 8772SOL    HW137775   2.591   1.440   7.053 -0.1022 -1.8639  0.9197
 8772SOL    HW237776   2.663   1.488   7.173 -1.0324 -1.0457  0.7205
 8773SOL     OW37777   3.779   1.835  10.778  0.0145 -0.4392 -0.1008
 8773SOL    HW137778   3.722   1.911  10.764 -0.7509 -0.7285  1.5178
 8773SOL    HW237779   3.773   1.826  10.873 -1.0689 -2.0710 -0.3171
 8774SOL     OW37780   2.231   3.354   0.873 -0.3959 -0.0128  0.1355
 8774SOL    HW137781   2.289   3.279   0.857 -0.5741 -0.3010  0.8100
 8774SOL    HW237782   2.227   3.350   0.969 -1.2333 -0.2063  0.0993
 8775SOL     OW37783   3.313   1.175  16.315  0.1296 -0.2925 -0.7340
 8775SOL    HW137784   3.290   1.235  16.385  1.6508 -1.4860  0.8110
 8775SOL    HW237785   3.309   1.089  16.356  0.2895 -0.9629 -2.0977
 8776SOL     OW37786   4.625   0.931   7.020  1.0380 -0.6996 -0.0007
 8776SOL    HW137787   4.706   0.980   7.003 -0.2156  1.5047  0.3631
 8776SOL    HW237788   4.565   0.974   6.959  1.0906 -1.3341 -0.5061
 8777SOL     OW37789   0.770   1.434   9.138  0.5435 -0.3184 -0.3086
 8777SOL    HW137790   0.769   1.528   9.123 -0.2386 -0.4310 -0.9364
 8777SOL    HW237791   0.761   1.411   9.231  1.0986  0.3382 -0.0973
 8778SOL     OW37792   1.171   2.709  16.284  0.2822 -0.1979 -0.0070
 8778SOL    HW137793   1.186   2.674  16.372 -2.0630 -0.5171  0.2566
 8778SOL    HW237794   1.157   2.626  16.239 -0.3009 -0.4706  0.6861
 8779SOL     OW37795   4.624   0.306   7.957 -0.2858 -0.6854  0.1769
 8779SOL    HW137796   4.625   0.319   7.862  2.9186  0.3007  0.3354
 8779SOL    HW237797   4.598   0.394   7.985 -0.7050 -0.3698 -1.1947
 8780SOL     OW37798   0.960   0.010   7.880  0.7247 -0.1892 -0.2951
 8780SOL    HW137799   0.895   4.695   7.822 -0.1245  0.8520 -0.0523
 8780SOL    HW237800   1.040   4.686   7.860  2.0768  0.6294  3.2301
 8781SOL     OW37801   4.349   1.717   8.507  0.0455 -0.5187  0.1061
 8781SOL    HW137802   4.397   1.686   8.583 -0.1397  0.8200  0.7623
 8781SOL    HW237803   4.257   1.709   8.535 -0.8525  1.2886 -2.2787
 8782SOL     OW37804   4.650   2.595   7.620  0.0768 -0.1226 -0.1650
 8782SOL    HW137805   4.637   2.679   7.665  2.1129  0.0890  0.0556
 8782SOL    HW237806   4.661   2.622   7.528  1.4633  1.1311  0.3509
 8783SOL     OW37807   3.096   0.867   1.887 -0.2249 -0.1871 -0.5414
 8783SOL    HW137808   3.177   0.904   1.854 -0.0203 -0.3454 -0.2164
 8783SOL    HW237809   3.041   0.939   1.918 -1.3992 -0.3520 -2.2734
 8784SOL     OW37810   0.440   1.567  16.182 -0.5551 -0.5743  0.2162
 8784SOL    HW137811   0.349   1.551  16.159 -0.7930  1.7926 -0.4926
 8784SOL    HW237812   0.460   1.653  16.145 -1.4335 -1.4111 -2.1289
 8785SOL     OW37813   3.359   1.729   2.346 -0.3196 -0.1187 -0.0070
 8785SOL    HW137814   3.341   1.688   2.261 -0.3421 -1.5488  0.6922
 8785SOL    HW237815   3.349   1.655   2.406  3.3499 -1.9470 -1.6876
 8786SOL     OW37816   1.517   1.461   1.818  0.0753  0.1585  0.0048
 8786SOL    HW137817   1.496   1.384   1.765 -0.3969  0.9659 -0.9756
 8786SOL    HW237818   1.428   1.495   1.822  0.0241  0.3581 -2.8392
 8787SOL     OW37819   0.619   1.222   4.157  0.0038  0.1353  0.0125
 8787SOL    HW137820   0.557   1.203   4.228 -1.5219 -1.4409 -1.7531
 8787SOL    HW237821   0.636   1.139   4.113  1.3248  0.4306 -0.0375
 8788SOL     OW37822   1.353   0.232   5.570 -0.4737  0.6651 -0.6392
 8788SOL    HW137823   1.304   0.313   5.584  1.9649  2.1298 -0.5661
 8788SOL    HW237824   1.312   0.171   5.632 -0.3297  1.4841  0.2645
 8789SOL     OW37825   0.414   1.781   4.101  0.0175  0.3708  0.1961
 8789SOL    HW137826   0.344   1.717   4.104 -2.0182  2.4490 -2.4376
 8789SOL    HW237827   0.481   1.719   4.073  0.5765  1.8921 -1.8316
 8790SOL     OW37828   1.020   3.817  12.209 -0.2643  0.0524 -0.1625
 8790SOL    HW137829   1.014   3.767  12.291 -1.3915  0.7735  0.2055
 8790SOL    HW237830   1.063   3.894  12.246  0.6360 -0.6601  0.2809
 8791SOL     OW37831   3.420   2.222   6.334 -0.2509 -0.5884  0.3589
 8791SOL    HW137832   3.354   2.244   6.399  0.8852  0.7845  1.0441
 8791SOL    HW237833   3.465   2.155   6.386 -1.4870 -1.0865  0.7957
 8792SOL     OW37834   2.867   2.790   7.981  0.3023 -0.1145  0.0035
 8792SOL    HW137835   2.943   2.756   7.936  0.9824  1.4258 -0.0175
 8792SOL    HW237836   2.795   2.769   7.921  0.6144 -0.0052 -0.4112
 8793SOL     OW37837   0.119   0.677   4.189  0.1433  0.5083  0.1369
 8793SOL    HW137838   0.200   0.688   4.240  1.2528  0.9695 -1.7353
 8793SOL    HW237839   0.106   0.583   4.202  0.3422  0.4742  0.0969
 8794SOL     OW37840   3.612   3.261   6.803  0.2940 -0.3583 -0.1355
 8794SOL    HW137841   3.546   3.192   6.795 -0.8501  0.5784  1.1529
 8794SOL    HW237842   3.611   3.295   6.892  1.1476  0.3016 -0.3841
 8795SOL     OW37843   0.891   2.082  10.584  0.4969 -0.4376  0.0740
 8795SOL    HW137844   0.855   2.019  10.647  1.7106  0.6596  1.8808
 8795SOL    HW237845   0.834   2.154  10.608 -0.4575 -0.8748 -0.8890
 8796SOL     OW37846   1.964   3.415   9.698 -0.0582  0.3534  0.8515
 8796SOL    HW137847   1.879   3.414   9.743 -0.3446  1.6476  0.3412
 8796SOL    HW237848   2.033   3.417   9.765  1.5626 -0.5145 -0.8049
 8797SOL     OW37849   1.016   1.352  16.361 -0.2281  0.2123  0.9207
 8797SOL    HW137850   0.921   1.354  16.376 -0.0033  1.8994  2.0950
 8797SOL    HW237851   1.018   1.396  16.276 -1.6585  0.4131  0.9814
 8798SOL     OW37852   0.626   2.136  12.196  0.1617 -0.3339  0.3159
 8798SOL    HW137853   0.624   2.184  12.278  2.1314 -0.2348  0.3177
 8798SOL    HW237854   0.562   2.184  12.144  1.1549 -0.9857 -1.5204
 8799SOL     OW37855   1.322   2.298  10.220  0.2546  0.0795  0.4289
 8799SOL    HW137856   1.339   2.373  10.163  1.4184 -1.3438 -1.1096
 8799SOL    HW237857   1.253   2.333  10.277 -1.6430 -2.0427 -0.5505
 8800SOL     OW37858   2.635   0.156   5.181 -0.1227  0.0819  0.0032
 8800SOL    HW137859   2.709   0.217   5.183  0.2126 -0.2844 -1.8091
 8800SOL    HW237860   2.582   0.216   5.235  0.4521 -0.3987  1.1121
 8801SOL     OW37861   0.190   2.617   5.723  0.4155  0.2355  1.3852
 8801SOL    HW137862   0.257   2.649   5.784  0.7658  2.6678 -0.2677
 8801SOL    HW237863   0.181   2.529   5.759  0.5094 -0.9783 -1.6212
 8802SOL     OW37864   0.724   2.908   0.340  0.8873 -0.1816 -0.0504
 8802SOL    HW137865   0.711   2.996   0.373  1.2080  0.0832 -0.6341
 8802SOL    HW237866   0.636   2.882   0.313  1.1453  0.8658 -1.9351
 8803SOL     OW37867   0.351   0.331   9.140  0.1697  0.1530 -0.2998
 8803SOL    HW137868   0.294   0.254   9.139  1.9018 -1.1109  0.0264
 8803SOL    HW237869   0.313   0.388   9.073 -0.6609  1.7197  1.4974
 8804SOL     OW37870   1.654   2.577   0.238  0.0861 -0.1675 -0.4729
 8804SOL    HW137871   1.655   2.662   0.193  4.4950 -1.0452 -1.9942
 8804SOL    HW237872   1.694   2.599   0.322 -1.0100 -1.7562  0.4591
 8805SOL     OW37873   1.121   3.609   4.149  0.5064  0.4047  0.3714
 8805SOL    HW137874   1.112   3.611   4.244 -2.1476  1.6517  0.0921
 8805SOL    HW237875   1.115   3.515   4.132 -0.2009  0.6366 -0.6389
 8806SOL     OW37876   0.979   1.253   7.856  0.0745  0.1983  0.2032
 8806SOL    HW137877   0.889   1.242   7.885  0.3040 -2.9448 -0.1972
 8806SOL    HW237878   0.992   1.171   7.808 -2.0222  0.2260 -0.4194
 8807SOL     OW37879   4.423   0.446   6.305  0.2620 -0.1803 -0.1511
 8807SOL    HW137880   4.500   0.390   6.294  1.5834  1.5463  0.2265
 8807SOL    HW237881   4.444   0.475   6.393 -2.4257  0.0256  0.4293
 8808SOL     OW37882   1.810   0.498   3.437 -0.0650 -0.4794 -0.0955
 8808SOL    HW137883   1.725   0.454   3.443  0.3542 -1.2474  0.2218
 8808SOL    HW237884   1.785   0.588   3.416  1.1891 -0.1189 -0.0638
 8809SOL     OW37885   3.519   2.064   3.632 -0.2944  0.1321 -0.4505
 8809SOL    HW137886   3.519   1.973   3.602 -2.4506 -0.1316  0.3726
 8809SOL    HW237887   3.574   2.100   3.562  0.5980  1.0159  0.7276
 8810SOL     OW37888   1.825   1.901   0.805 -0.7969  0.4712 -0.4073
 8810SOL    HW137889   1.761   1.877   0.738 -1.9115 -1.7984  1.4778
 8810SOL    HW237890   1.775   1.872   0.881 -0.7616 -0.0789 -0.5955
 8811SOL     OW37891   4.677   0.001   1.862 -0.2175 -0.2780 -0.2120
 8811SOL    HW137892   4.647   0.039   1.945 -1.2085 -1.3465 -0.0853
 8811SOL    HW237893   4.716   4.640   1.885  0.9796  0.7866  1.7157
 8812SOL     OW37894   1.092   0.158   5.670  0.1675  0.3511 -0.6822
 8812SOL    HW137895   1.162   0.093   5.676  0.4361  0.6815 -0.2162
 8812SOL    HW237896   1.020   0.098   5.688 -1.5996  2.6314 -0.1295
 8813SOL     OW37897   3.595   0.372   2.668  0.1470  0.4708 -0.5069
 8813SOL    HW137898   3.660   0.340   2.605  0.5616 -0.1098  0.2029
 8813SOL    HW237899   3.526   0.308   2.650 -0.8458  1.2469  0.5734
 8814SOL     OW37900   1.600   1.608   8.956  1.3620 -0.4531 -0.1565
 8814SOL    HW137901   1.631   1.647   9.037 -1.4564  2.1222 -0.3187
 8814SOL    HW237902   1.599   1.514   8.976 -1.7225 -0.4049 -0.0803
 8815SOL     OW37903   0.283   1.620  11.372  0.6031 -0.2813 -0.4210
 8815SOL    HW137904   0.288   1.651  11.281  1.3388 -0.8626 -0.5785
 8815SOL    HW237905   0.218   1.677  11.413  1.2172 -1.2292  1.8565
 8816SOL     OW37906   1.868   2.832   8.957 -0.2462 -0.2117  0.3761
 8816SOL    HW137907   1.909   2.912   8.924  1.1626 -1.1738 -0.1799
 8816SOL    HW237908   1.879   2.777   8.880 -0.0330 -0.1014  0.3284
 8817SOL     OW37909   1.981   3.986  14.811 -0.2013  0.1099 -0.2361
 8817SOL    HW137910   1.976   3.899  14.852  2.4954 -0.9411 -2.1356
 8817SOL    HW237911   2.063   4.022  14.844 -1.5257  2.6529  0.2627
 8818SOL     OW37912   2.036   1.827   5.156  0.5626 -0.0978  0.2603
 8818SOL    HW137913   1.988   1.814   5.074  1.6856 -0.0259 -0.4085
 8818SOL    HW237914   1.963   1.839   5.217  1.7232  4.3571  0.7663
 8819SOL     OW37915   3.270   4.406   0.856 -0.3646 -0.1583  0.1773
 8819SOL    HW137916   3.280   4.390   0.763  1.3886 -0.1439  0.3623
 8819SOL    HW237917   3.193   4.353   0.877 -0.1681 -0.0553  1.1589
 8820SOL     OW37918   1.498   0.706  12.997 -0.1335 -0.1102  0.0469
 8820SOL    HW137919   1.581   0.716  12.949  0.3768 -0.6124  0.8299
 8820SOL    HW237920   1.443   0.736  12.924 -1.1214 -1.1494  0.3767
 8821SOL     OW37921   1.378   1.965   1.883 -0.3261  0.0577  0.4689
 8821SOL    HW137922   1.338   1.977   1.969 -2.9505  0.7281 -0.8571
 8821SOL    HW237923   1.310   1.974   1.817 -2.2787  1.4825  2.7185
 8822SOL     OW37924   4.026   2.992   4.801  0.1240 -0.2427  0.1531
 8822SOL    HW137925   3.993   3.066   4.853 -1.3577 -1.4525  0.9480
 8822SOL    HW237926   4.014   2.910   4.848 -2.0653  0.3673  0.6661
 8823SOL     OW37927   4.250   2.220  10.865  0.1972 -0.3048 -0.5485
 8823SOL    HW137928   4.196   2.282  10.816  1.8537  2.0947  0.6392
 8823SOL    HW237929   4.298   2.172  10.799 -0.4601 -0.1508 -1.1355
 8824SOL     OW37930   2.126   4.134  11.599 -0.4423 -0.7196 -0.3015
 8824SOL    HW137931   2.075   4.080  11.659  0.9629 -0.7426  0.9028
 8824SOL    HW237932   2.063   4.190  11.555 -1.6443 -0.4543  1.7386
 8825SOL     OW37933   0.716   0.190   3.536 -0.5229  0.3534 -0.0046
 8825SOL    HW137934   0.750   0.192   3.625 -1.6068  0.7923  0.3999
 8825SOL    HW237935   0.711   0.284   3.515  2.8122  0.4096 -0.5137
 8826SOL     OW37936   4.162   1.025   8.092 -0.7497 -0.1183  0.3733
 8826SOL    HW137937   4.128   1.092   8.151 -1.2760  0.5918 -0.7276
 8826SOL    HW237938   4.241   1.065   8.054 -2.0799 -0.9144 -3.3047
 8827SOL     OW37939   4.183   4.287   5.106 -0.4267  0.6585  0.0701
 8827SOL    HW137940   4.227   4.313   5.026  0.3507 -0.6372  0.0790
 8827SOL    HW237941   4.118   4.355   5.120 -0.4465  0.5457  0.5198
 8828SOL     OW37942   3.222   2.866   2.194 -0.3540  0.0696  0.4180
 8828SOL    HW137943   3.198   2.927   2.123 -2.5056 -0.2300  0.8935
 8828SOL    HW237944   3.226   2.784   2.144  1.7665 -0.1566  0.9428
 8829SOL     OW37945   0.704   3.973   7.617  0.2321  0.5160  0.1018
 8829SOL    HW137946   0.737   3.904   7.676  0.5805  0.7972  0.2411
 8829SOL    HW237947   0.754   3.963   7.536  0.0241  0.3748 -0.0058
 8830SOL     OW37948   4.222   2.918   4.130 -0.3449 -0.0570  0.0585
 8830SOL    HW137949   4.185   2.972   4.061  0.8823  1.0354  0.2520
 8830SOL    HW237950   4.149   2.857   4.143  1.3756 -2.1286  0.0385
 8831SOL     OW37951   0.771   4.431   6.544 -0.1255  0.3530 -0.1203
 8831SOL    HW137952   0.689   4.424   6.495  0.2167 -4.1954  0.0005
 8831SOL    HW237953   0.822   4.484   6.482  0.5806  0.6791  0.7278
 8832SOL     OW37954   0.261   3.181   9.966  0.1647  0.6592 -0.1573
 8832SOL    HW137955   0.269   3.128  10.046  1.1107 -1.4584 -1.6484
 8832SOL    HW237956   0.219   3.117   9.909  0.5257 -1.0105  1.4421
 8833SOL     OW37957   2.873   0.656  11.383 -0.2168 -0.0270  0.2382
 8833SOL    HW137958   2.849   0.718  11.314  0.8910 -0.3932 -0.4711
 8833SOL    HW237959   2.954   0.694  11.414 -0.7809 -0.0732  1.7486
 8834SOL     OW37960   0.788   1.956  17.253  0.1901  0.2325  0.3124
 8834SOL    HW137961   0.705   1.932  17.293 -0.6262 -0.3177 -1.7456
 8834SOL    HW237962   0.788   2.052  17.248 -0.5592  0.2303  0.2999
 8835SOL     OW37963   4.076   1.265   8.216 -0.2070 -0.0733 -0.4776
 8835SOL    HW137964   4.110   1.314   8.291  0.6572 -1.5678  0.1090
 8835SOL    HW237965   3.984   1.284   8.233 -0.6345 -1.8035 -0.8669
 8836SOL     OW37966   3.988   0.291   8.063  0.4654 -0.3236  0.2385
 8836SOL    HW137967   3.944   0.334   7.990  0.9512 -1.9760 -1.0552
 8836SOL    HW237968   4.029   0.367   8.104  2.1088  0.2215 -2.3958
 8837SOL     OW37969   2.825   1.466   7.266 -0.3454  0.5199 -0.2683
 8837SOL    HW137970   2.782   1.396   7.314  0.9279 -0.2116 -0.1999
 8837SOL    HW237971   2.898   1.490   7.323 -1.3256  1.0520  0.7759
 8838SOL     OW37972   4.220   4.020   5.880 -0.0484 -0.0062  0.2270
 8838SOL    HW137973   4.222   3.946   5.820 -2.3785 -0.4118  0.6648
 8838SOL    HW237974   4.147   3.990   5.933 -1.8685 -0.1759 -2.4059
 8839SOL     OW37975   1.460   3.418   2.132 -0.8547 -0.7455 -0.4259
 8839SOL    HW137976   1.393   3.465   2.181  0.4123  0.0943  0.4860
 8839SOL    HW237977   1.535   3.430   2.190  0.4062 -1.3731 -1.9165
 8840SOL     OW37978   1.671   0.578   3.035 -0.4078  0.6354 -0.1086
 8840SOL    HW137979   1.690   0.625   2.955  1.6247  1.6109  0.9620
 8840SOL    HW237980   1.756   0.565   3.077 -0.0904 -0.9768 -1.2578
 8841SOL     OW37981   3.026   3.650   3.752 -0.0221  0.1354  0.2554
 8841SOL    HW137982   3.035   3.594   3.675 -0.1076 -0.5131  0.7223
 8841SOL    HW237983   2.956   3.608   3.802  0.5994  1.0868  1.9374
 8842SOL     OW37984   2.058   2.604   8.170  0.1407 -0.5933  0.1477
 8842SOL    HW137985   2.151   2.589   8.187  0.7507  3.1247 -0.0985
 8842SOL    HW237986   2.020   2.552   8.241 -0.0679  0.2783  0.6672
 8843SOL     OW37987   1.784   0.406   4.965  0.5356  0.3850  0.3063
 8843SOL    HW137988   1.860   0.367   4.923  0.6580 -1.7043  2.4753
 8843SOL    HW237989   1.784   0.494   4.928  0.5376  0.0246 -0.5406
 8844SOL     OW37990   3.372   4.542  10.000 -0.1179  0.4318 -0.3938
 8844SOL    HW137991   3.292   4.504   9.962  0.3468  2.2923 -3.2412
 8844SOL    HW237992   3.353   4.635  10.006 -1.4437  0.1403 -0.0689
 8845SOL     OW37993   1.817   2.148   1.583  0.3191  0.8382  0.2991
 8845SOL    HW137994   1.800   2.172   1.674  3.7240 -1.9900  1.6823
 8845SOL    HW237995   1.825   2.054   1.601  1.1222  0.4026 -2.4561
 8846SOL     OW37996   1.519   0.738   3.213  0.5775  0.3997  0.2174
 8846SOL    HW137997   1.561   0.665   3.167 -0.8931  0.8472 -1.8530
 8846SOL    HW237998   1.425   0.724   3.207  0.5403  0.7225  0.0816
 8847SOL     OW37999   2.071   1.810  11.583 -0.3539  0.1365 -0.1177
 8847SOL    HW138000   2.135   1.767  11.639 -1.8495 -0.9311  0.7660
 8847SOL    HW238001   2.007   1.741  11.563 -2.0722  1.2475  1.5673
 8848SOL     OW38002   3.002   4.632   2.289  0.1725  0.1609 -0.2388
 8848SOL    HW138003   2.937   4.699   2.266 -0.0412  0.4167  1.1577
 8848SOL    HW238004   2.969   4.555   2.242 -0.7042 -0.6506  1.7114
 8849SOL     OW38005   0.173   2.345   2.195 -0.5671 -0.0658 -0.0267
 8849SOL    HW138006   0.187   2.250   2.197 -1.4546 -0.2021 -0.1932
 8849SOL    HW238007   0.108   2.367   2.129 -1.6081  0.9757  1.3563
 8850SOL     OW38008   0.716   3.488   8.276 -0.3417  0.3655  0.1620
 8850SOL    HW138009   0.785   3.424   8.292 -0.4039  0.1636 -0.3825
 8850SOL    HW238010   0.745   3.559   8.335  1.4563 -0.7352  0.6063
 8851SOL     OW38011   3.109   2.016   7.064  0.1664  0.3090 -0.2724
 8851SOL    HW138012   3.172   1.958   7.021 -2.0221 -1.7018 -0.7375
 8851SOL    HW238013   3.039   1.954   7.083  1.6803 -2.0293 -2.2196
 8852SOL     OW38014   0.496   1.765   8.703  0.0109 -0.1885  0.7313
 8852SOL    HW138015   0.586   1.761   8.734 -0.0140 -0.2509  0.7934
 8852SOL    HW238016   0.473   1.672   8.709  0.4030 -0.1722  2.3060
 8853SOL     OW38017   3.221   1.659   8.743  0.5023  0.1365  0.1616
 8853SOL    HW138018   3.152   1.719   8.713 -0.2732 -0.2445  1.1793
 8853SOL    HW238019   3.177   1.580   8.711  1.4888 -0.5682  0.5565
 8854SOL     OW38020   3.860   1.489  13.498 -0.1302 -0.3970 -0.3989
 8854SOL    HW138021   3.823   1.453  13.418  2.8585 -2.9363 -0.6328
 8854SOL    HW238022   3.891   1.413  13.547 -1.3357  0.1083  1.1634
 8855SOL     OW38023   0.894   1.196   2.263  0.1888  0.2185  0.9814
 8855SOL    HW138024   0.822   1.256   2.245 -1.0364 -1.1782  1.2489
 8855SOL    HW238025   0.969   1.245   2.228  2.2798 -1.1093  3.5404
 8856SOL     OW38026   3.216   2.338   8.356 -0.6423  0.6165 -0.0528
 8856SOL    HW138027   3.170   2.285   8.291 -0.2675 -0.5100  0.6050
 8856SOL    HW238028   3.203   2.283   8.433  0.0963 -0.0397 -0.4022
 8857SOL     OW38029   4.104   1.699   5.936 -0.2172 -0.0047  0.1154
 8857SOL    HW138030   4.054   1.729   5.861  1.4037 -0.5979 -1.1984
 8857SOL    HW238031   4.187   1.686   5.890 -0.6371 -2.6391  0.0855
 8858SOL     OW38032   0.431   2.231   7.827 -0.3979 -0.3161  0.2901
 8858SOL    HW138033   0.454   2.152   7.876 -2.5924 -0.6738  0.7364
 8858SOL    HW238034   0.493   2.292   7.868 -1.7721  1.9733 -1.0879
 8859SOL     OW38035   2.688   4.355   4.133 -0.4598  0.4512 -0.6475
 8859SOL    HW138036   2.766   4.330   4.084 -0.4335 -2.1151  0.7026
 8859SOL    HW238037   2.675   4.440   4.089  3.0579  1.6315  0.5423
 8860SOL     OW38038   3.309   0.757   7.398 -0.2093  0.0021  0.4787
 8860SOL    HW138039   3.260   0.695   7.344  2.0634 -0.0859 -1.4455
 8860SOL    HW238040   3.252   0.753   7.475 -0.0322  4.2085  0.8227
 8861SOL     OW38041   4.002   2.004   2.580  0.4437  0.3221 -0.1116
 8861SOL    HW138042   3.942   2.054   2.634  0.8646 -0.5981  1.2060
 8861SOL    HW238043   3.986   1.913   2.607  1.2752  0.7373  1.7676
 8862SOL     OW38044   3.726   0.308  16.043  0.1505  0.0275  0.0697
 8862SOL    HW138045   3.774   0.292  15.961 -0.4016 -2.3805  0.2176
 8862SOL    HW238046   3.777   0.258  16.106 -3.0474 -2.1671  0.9183
 8863SOL     OW38047   1.191   1.116   1.079 -0.3390  0.0647 -0.1083
 8863SOL    HW138048   1.109   1.076   1.106 -0.6766 -0.4525 -1.8822
 8863SOL    HW238049   1.198   1.090   0.987  0.5107  2.2094 -0.6424
 8864SOL     OW38050   0.298   4.294   1.515 -0.5989  0.5599  0.0248
 8864SOL    HW138051   0.286   4.325   1.425 -0.3802 -0.7242 -0.4462
 8864SOL    HW238052   0.390   4.311   1.534 -0.0502  1.7830 -3.7017
 8865SOL     OW38053   0.779   3.818  12.831  0.1777 -0.1497  0.2513
 8865SOL    HW138054   0.824   3.795  12.911  1.2016 -1.4600 -0.7017
 8865SOL    HW238055   0.705   3.759  12.848 -1.2211  1.8064  0.9702
 8866SOL     OW38056   3.257   3.054   1.955 -0.1340 -0.4234  0.7394
 8866SOL    HW138057   3.232   3.116   2.023 -0.9355  0.7441 -0.5954
 8866SOL    HW238058   3.230   3.111   1.883  1.1347 -0.8977 -0.1072
 8867SOL     OW38059   1.883   4.007  16.914 -0.5811  0.8875 -0.6895
 8867SOL    HW138060   1.898   3.920  16.950 -1.3444  0.3514 -1.6755
 8867SOL    HW238061   1.818   4.040  16.975 -2.0642  0.9949 -2.3284
 8868SOL     OW38062   3.184   4.702   6.430  0.0346 -0.4252 -0.3971
 8868SOL    HW138063   3.217   4.623   6.387  2.0905  0.2604 -0.0531
 8868SOL    HW238064   3.265   0.018   6.461 -0.2279  1.7075 -2.4958
 8869SOL     OW38065   4.474   2.470   3.000 -0.0067  0.2429  0.0848
 8869SOL    HW138066   4.450   2.553   3.041  1.4647  0.5273  0.3751
 8869SOL    HW238067   4.568   2.478   3.014  0.1538  0.8851 -1.3715
 8870SOL     OW38068   3.709   3.998  13.291  1.0025 -0.5147 -0.1670
 8870SOL    HW138069   3.763   4.075  13.306  0.5848 -0.3167  0.3330
 8870SOL    HW238070   3.760   3.957  13.222  1.5440  0.5872 -0.4182
 8871SOL     OW38071   3.736   2.264   5.053  0.1754 -0.0036  0.4963
 8871SOL    HW138072   3.691   2.182   5.074  0.6419 -0.1373  0.9778
 8871SOL    HW238073   3.795   2.256   5.128  0.0901 -0.7121  0.4891
 8872SOL     OW38074   3.077   3.730   7.056  0.6341 -0.7897  0.4816
 8872SOL    HW138075   3.022   3.657   7.028  1.9984 -1.3100 -0.7849
 8872SOL    HW238076   3.021   3.808   7.047 -0.2216 -1.7508 -2.6477
 8873SOL     OW38077   3.818   0.112   3.656  0.5070 -0.1695 -0.3913
 8873SOL    HW138078   3.849   0.086   3.569 -2.5283 -2.0667 -0.9135
 8873SOL    HW238079   3.904   0.135   3.692  0.6226  0.6922 -1.2246
 8874SOL     OW38080   2.556   1.558   4.399  0.3065  0.3483 -0.3694
 8874SOL    HW138081   2.640   1.582   4.437 -0.0635  0.0768  0.6224
 8874SOL    HW238082   2.524   1.645   4.378 -0.1132  0.4236  0.5478
 8875SOL     OW38083   0.366   4.393  15.321  0.2550 -0.1096 -0.1073
 8875SOL    HW138084   0.312   4.430  15.251 -0.5082 -1.6005 -0.3132
 8875SOL    HW238085   0.447   4.375  15.273 -0.1315 -0.7704 -0.5176
 8876SOL     OW38086   1.671   4.031  10.392  0.0765  0.0722  0.0385
 8876SOL    HW138087   1.757   4.003  10.360  0.1561  0.2209  0.1182
 8876SOL    HW238088   1.664   3.979  10.473  2.4963  0.3920  0.4625
 8877SOL     OW38089   3.210   4.220  17.299 -0.2385  0.1745 -0.6386
 8877SOL    HW138090   3.300   4.252  17.302  0.1567 -1.0007  0.1503
 8877SOL    HW238091   3.215   4.188  17.389 -0.3159 -0.5797 -0.9089
 8878SOL     OW38092   3.684   4.713  11.367  0.2470 -0.4095  0.3975
 8878SOL    HW138093   3.655   4.642  11.309 -1.8923  0.4750  0.3781
 8878SOL    HW238094   3.728   0.053  11.310 -0.7933 -2.1978 -2.4135
 8879SOL     OW38095   1.264   0.059   0.109  0.2003 -0.0909 -0.3577
 8879SOL    HW138096   1.193   4.721   0.129 -1.4546  1.6241 -0.9496
 8879SOL    HW238097   1.272   0.094   0.198 -3.4606  1.7987 -0.7493
 8880SOL     OW38098   3.795   0.456   0.213  0.3049  0.1390  0.6165
 8880SOL    HW138099   3.831   0.490   0.295  0.8477  2.0361 -0.4006
 8880SOL    HW238100   3.731   0.525   0.195  0.2164  0.0346  0.5392
 8881SOL     OW38101   0.246   0.326  13.004  0.1744 -0.4946 -0.0955
 8881SOL    HW138102   0.222   0.357  12.917 -0.5118 -0.2854  0.1653
 8881SOL    HW238103   0.294   0.248  12.977  2.1624  0.1218  1.6310
 8882SOL     OW38104   0.625   4.685  11.638  0.5361 -0.1226  0.7416
 8882SOL    HW138105   0.679   4.634  11.698 -0.9982 -2.1906  0.3787
 8882SOL    HW238106   0.557   4.623  11.610  2.7102 -1.4765 -1.5744
 8883SOL     OW38107   0.919   0.499   2.044  0.0952 -0.1454  0.5700
 8883SOL    HW138108   0.985   0.511   1.976 -0.2775 -1.7860 -0.0651
 8883SOL    HW238109   0.845   0.459   1.999  0.5333  0.7048 -0.8979
 8884SOL     OW38110   4.637   4.572   5.602  0.2400 -0.1171 -0.3457
 8884SOL    HW138111   4.662   4.501   5.543 -2.7480 -0.4207 -1.2301
 8884SOL    HW238112   4.712   4.584   5.660  0.4736 -2.9293 -0.0904
 8885SOL     OW38113   1.595   1.178   5.513 -0.3317 -0.0990 -0.1119
 8885SOL    HW138114   1.560   1.217   5.433  0.1808  1.9943  0.7037
 8885SOL    HW238115   1.565   1.087   5.504  1.6909 -0.9748  2.1571
 8886SOL     OW38116   2.511   1.815  17.544  0.1222 -0.0301  0.0695
 8886SOL    HW138117   2.516   1.905  17.512  0.9716 -0.6151 -1.4197
 8886SOL    HW238118   2.599   1.806  17.583  0.6099  0.0254 -1.0140
 8887SOL     OW38119   0.247   1.331  12.640  0.0212 -0.1003  0.1113
 8887SOL    HW138120   0.185   1.267  12.674  1.2655 -2.4145 -1.9813
 8887SOL    HW238121   0.259   1.303  12.550  3.2735 -1.0786  0.8715
 8888SOL     OW38122   4.677   4.570  16.068 -0.3768  0.0140 -0.0731
 8888SOL    HW138123   4.665   4.596  15.977  0.0260  1.9241  0.4065
 8888SOL    HW238124   0.029   4.513  16.056  0.4417  0.5416  2.5289
 8889SOL     OW38125   0.669   4.664   2.370  0.2701 -0.2149  0.5398
 8889SOL    HW138126   0.759   4.693   2.356  0.1426 -0.7077 -1.2254
 8889SOL    HW238127   0.638   4.640   2.283 -1.1945  1.5657  0.5572
 8890SOL     OW38128   0.129   3.810   6.612  0.1016  0.1600 -0.2584
 8890SOL    HW138129   0.084   3.839   6.691  0.7293  0.7907 -0.1332
 8890SOL    HW238130   0.076   3.857   6.548  1.0395 -1.1193 -1.9924
 8891SOL     OW38131   4.539   0.787   6.657  0.4967 -0.7857  0.4808
 8891SOL    HW138132   4.479   0.852   6.694  0.4350  0.9707 -2.6822
 8891SOL    HW238133   4.570   0.753   6.741 -0.5074  0.4505  1.3484
 8892SOL     OW38134   3.776   0.954   6.037 -0.2991 -0.5717  0.0602
 8892SOL    HW138135   3.751   0.866   6.065  0.5314 -0.5838  0.7481
 8892SOL    HW238136   3.707   1.006   6.077  0.2309  1.1844 -1.2942
 8893SOL     OW38137   2.541   2.993   3.705  0.4208  0.2407 -0.3530
 8893SOL    HW138138   2.604   3.053   3.666 -1.8140  1.4937 -2.0792
 8893SOL    HW238139   2.603   2.925   3.732  1.7655  1.8232  0.4507
 8894SOL     OW38140   2.594   3.322  17.638  0.5467 -0.2534  0.3663
 8894SOL    HW138141   2.512   3.276  17.656 -0.7988  1.6864 -0.8034
 8894SOL    HW238142   2.574   3.372  17.559 -1.6574  2.1329  2.4482
 8895SOL     OW38143   0.990   3.625   2.366 -0.1351  0.8709 -0.0293
 8895SOL    HW138144   0.953   3.565   2.302 -1.8678  1.8309  0.0516
 8895SOL    HW238145   0.932   3.701   2.355 -0.6386  0.4869 -0.0288
 8896SOL     OW38146   1.406   2.844  16.292  0.1131 -0.8158 -0.5139
 8896SOL    HW138147   1.334   2.782  16.280  0.8105 -1.6893 -0.1728
 8896SOL    HW238148   1.456   2.794  16.357  1.1345  1.4450  0.4457
 8897SOL     OW38149   0.104   4.259  17.431 -0.1008 -0.1700 -0.5111
 8897SOL    HW138150   0.079   4.300  17.348 -1.0168 -1.4587 -0.8747
 8897SOL    HW238151   0.193   4.293  17.426  0.2510 -1.1452 -0.7521
 8898SOL     OW38152   3.926   4.409   5.106 -0.1334  0.0025  0.0464
 8898SOL    HW138153   3.835   4.434   5.092 -0.6459 -1.5799  0.5549
 8898SOL    HW238154   3.964   4.490   5.138 -1.0803 -0.1357  1.5057
 8899SOL     OW38155   1.636   2.341  10.065 -0.0505  0.7192  0.2954
 8899SOL    HW138156   1.562   2.369  10.012  0.7895  1.8256 -0.2876
 8899SOL    HW238157   1.630   2.401  10.138  0.9469  0.3328  0.7072
 8900SOL     OW38158   3.110   3.232   0.321 -0.0932  0.1711  0.2931
 8900SOL    HW138159   3.116   3.242   0.226 -2.1231  0.8806  0.2296
 8900SOL    HW238160   3.076   3.143   0.331 -1.8259  0.9330  1.1637
 8901SOL     OW38161   0.784   1.848   6.608 -0.3830 -0.1292  0.0104
 8901SOL    HW138162   0.788   1.834   6.513 -1.4273  0.2915 -0.0886
 8901SOL    HW238163   0.874   1.868   6.635 -0.5859 -2.1854  2.2003
 8902SOL     OW38164   1.723   1.207   4.935  0.3746 -0.0999 -0.1134
 8902SOL    HW138165   1.741   1.228   5.026 -0.5957 -1.1991  0.3401
 8902SOL    HW238166   1.646   1.258   4.909  2.8149  3.3024 -0.6792
 8903SOL     OW38167   0.697   2.001   4.361  0.5501  0.1948  0.1384
 8903SOL    HW138168   0.696   2.070   4.295  1.6921  0.1672  0.1043
 8903SOL    HW238169   0.729   1.927   4.311  1.7543  0.5514  0.3786
 8904SOL     OW38170   0.309   4.458   8.301  0.6452 -0.3364 -0.0033
 8904SOL    HW138171   0.401   4.460   8.327  0.6025  4.2539 -0.1902
 8904SOL    HW238172   0.313   4.392   8.232  1.1673  0.3575 -0.6496
 8905SOL     OW38173   0.813   1.201  13.079  0.4292  0.0209  0.4819
 8905SOL    HW138174   0.741   1.242  13.127  0.4167  0.7959 -0.2041
 8905SOL    HW238175   0.863   1.278  13.052 -0.9944  1.5160  2.0911
 8906SOL     OW38176   1.398   0.509   8.976  0.1215 -0.1309 -0.0626
 8906SOL    HW138177   1.451   0.459   9.039  2.7810  1.3934 -1.0784
 8906SOL    HW238178   1.375   0.579   9.037  1.9788  0.2954  0.1584
 8907SOL     OW38179   1.319   2.736   6.203 -0.7471  0.4065  0.1370
 8907SOL    HW138180   1.229   2.734   6.235 -0.6686  1.0330  0.3933
 8907SOL    HW238181   1.310   2.698   6.115 -1.6579 -0.1780  0.4896
 8908SOL     OW38182   1.399   1.506  17.350 -0.3178 -0.2929  0.5640
 8908SOL    HW138183   1.339   1.447  17.303  0.4054 -1.6834  1.3976
 8908SOL    HW238184   1.353   1.590  17.349 -0.8615 -0.5934 -0.0002
 8909SOL     OW38185   2.037   4.651   6.809  0.0381  0.7054  0.1204
 8909SOL    HW138186   1.992   4.579   6.765  0.3407  0.1034  0.8115
 8909SOL    HW238187   2.003   4.641   6.898 -1.6001 -0.4513 -0.6306
 8910SOL     OW38188   1.701   3.914   4.477 -0.0229  0.4482  0.6067
 8910SOL    HW138189   1.661   3.916   4.390  1.1037  2.1377  0.1315
 8910SOL    HW238190   1.765   3.843   4.471 -1.1481 -0.4279 -0.9751
 8911SOL     OW38191   4.286   3.073   3.200  0.0326  0.3155 -0.3936
 8911SOL    HW138192   4.311   3.163   3.181 -0.6068  0.2739 -1.3946
 8911SOL    HW238193   4.372   3.032   3.190 -0.2497 -0.7966  1.6512
 8912SOL     OW38194   3.353   0.535   2.664 -0.2067  0.2621  0.0898
 8912SOL    HW138195   3.341   0.501   2.575 -0.0591 -1.9339  0.9055
 8912SOL    HW238196   3.448   0.533   2.671 -0.2593  0.3664  0.8133
 8913SOL     OW38197   2.298   2.115  15.741  0.0807 -0.0538 -0.2974
 8913SOL    HW138198   2.295   2.152  15.653  2.3679  0.5479 -0.1311
 8913SOL    HW238199   2.223   2.056  15.739 -1.5160  1.8812  1.7203
 8914SOL     OW38200   3.440   4.498   2.648 -0.3023 -0.3625 -0.3801
 8914SOL    HW138201   3.468   4.523   2.560 -0.5186  1.0222 -0.0548
 8914SOL    HW238202   3.445   4.403   2.643 -3.2085 -0.5816  1.0071
 8915SOL     OW38203   4.203   0.610   3.415 -0.4083  0.0332  0.6115
 8915SOL    HW138204   4.245   0.654   3.489 -0.5656 -1.8217  1.8002
 8915SOL    HW238205   4.235   0.663   3.342 -1.8098 -0.2811 -0.2367
 8916SOL     OW38206   2.168   3.054   1.839  0.1659 -0.4910 -0.3393
 8916SOL    HW138207   2.196   3.134   1.883  0.6758 -0.9447  0.1596
 8916SOL    HW238208   2.086   3.074   1.794  0.7623 -1.1006 -1.7249
 8917SOL     OW38209   4.243   4.479   7.563 -0.4799  0.0602 -0.1525
 8917SOL    HW138210   4.258   4.431   7.644 -0.1960  1.2239  0.4802
 8917SOL    HW238211   4.155   4.514   7.578 -0.1286  0.3939  1.1039
 8918SOL     OW38212   4.508   2.400   7.787  0.3997 -1.2886  0.3159
 8918SOL    HW138213   4.575   2.338   7.816 -0.1648 -1.6500  0.8260
 8918SOL    HW238214   4.557   2.453   7.723  0.4312 -0.6548  0.8692
 8919SOL     OW38215   1.627   4.391   2.064 -0.1533 -0.3581 -0.0371
 8919SOL    HW138216   1.570   4.467   2.075 -0.2728 -0.4116 -0.2877
 8919SOL    HW238217   1.705   4.421   2.110 -0.9399  1.8265 -0.1153
 8920SOL     OW38218   1.593   4.481   3.243  0.0231 -0.1006  0.1517
 8920SOL    HW138219   1.543   4.407   3.277  0.1690 -0.3342 -0.1492
 8920SOL    HW238220   1.541   4.552   3.283 -0.3157  0.4170 -1.2128
 8921SOL     OW38221   3.680   3.133   2.739  0.0227 -0.5708 -0.1219
 8921SOL    HW138222   3.754   3.151   2.681  2.4974  1.9235  3.7741
 8921SOL    HW238223   3.726   3.084   2.808 -2.3506 -1.6379  0.6997
 8922SOL     OW38224   1.159   1.732   9.875 -0.0660 -0.6314 -0.8027
 8922SOL    HW138225   1.192   1.658   9.825 -0.7041 -0.3153 -1.6837
 8922SOL    HW238226   1.149   1.680   9.955 -1.7598  2.0853  0.7856
 8923SOL     OW38227   2.086   2.305   6.632  0.2864 -0.2417 -0.5861
 8923SOL    HW138228   2.177   2.336   6.637  0.5876 -1.0364 -1.1180
 8923SOL    HW238229   2.078   2.305   6.536 -2.0387 -3.0666 -0.3787
 8924SOL     OW38230   1.518   3.512  13.636  0.5264  0.2669 -0.0950
 8924SOL    HW138231   1.492   3.425  13.608 -2.4988  1.1728 -0.0349
 8924SOL    HW238232   1.476   3.559  13.564  0.4883  0.3227 -0.0358
 8925SOL     OW38233   3.508   2.625   9.689 -0.8497 -0.0603  0.7488
 8925SOL    HW138234   3.552   2.541   9.675 -0.2997 -0.0425  2.4464
 8925SOL    HW238235   3.436   2.593   9.744 -2.1863  3.4522  0.9899
 8926SOL     OW38236   0.474   0.600   9.593 -0.5873  0.7422 -0.2653
 8926SOL    HW138237   0.420   0.571   9.520  1.6150 -0.4140 -1.4637
 8926SOL    HW238238   0.435   0.551   9.665 -0.8426  0.3468 -0.6685
 8927SOL     OW38239   1.061   3.870   0.438 -0.3711 -0.0766  0.3683
 8927SOL    HW138240   1.009   3.833   0.367 -1.4932  1.2682  0.4919
 8927SOL    HW238241   0.997   3.889   0.508 -0.1334 -0.2523  0.6339
 8928SOL     OW38242   0.074   2.018   7.186  0.1724  0.4355  0.7126
 8928SOL    HW138243   4.715   2.005   7.232  1.6337 -1.2515  2.8607
 8928SOL    HW238244   0.137   2.040   7.255  1.3075 -1.0921  0.1720
 8929SOL     OW38245   2.818   3.582   3.158 -0.2789  0.3953 -0.0480
 8929SOL    HW138246   2.753   3.533   3.107  1.7707 -1.7629 -0.5633
 8929SOL    HW238247   2.891   3.561   3.101 -1.1348  0.1102 -1.0509
 8930SOL     OW38248   2.829   2.801   8.276  0.0562  0.0987 -0.0654
 8930SOL    HW138249   2.758   2.866   8.276  0.2282  0.2849 -0.3034
 8930SOL    HW238250   2.859   2.803   8.185 -1.4535  0.3078 -0.5688
 8931SOL     OW38251   1.998   4.571  13.922 -0.3075 -1.0927  0.7281
 8931SOL    HW138252   2.036   4.658  13.932  1.2164 -1.7970  1.0456
 8931SOL    HW238253   1.916   4.600  13.963 -0.4318 -1.5717  0.8212
 8932SOL     OW38254   1.040   1.960   6.645 -0.4395 -0.1573  0.1124
 8932SOL    HW138255   1.111   1.991   6.701 -1.3831 -0.0547  1.2388
 8932SOL    HW238256   0.983   2.037   6.652 -0.0168  0.1328  0.3716
 8933SOL     OW38257   1.373   0.898  10.261  0.2024 -0.0151  0.1829
 8933SOL    HW138258   1.436   0.887  10.333  0.1846 -2.0434 -0.1172
 8933SOL    HW238259   1.340   0.987  10.272 -2.0713 -0.4462 -3.3228
 8934SOL     OW38260   1.086   0.386   6.385 -0.4627 -0.2046  0.0295
 8934SOL    HW138261   1.129   0.426   6.460 -1.4632  0.1175  0.4328
 8934SOL    HW238262   1.006   0.348   6.420 -0.3494  0.0207  0.5269
 8935SOL     OW38263   3.042   2.088   8.244  0.3331 -0.1512 -0.0439
 8935SOL    HW138264   2.991   2.023   8.292  0.8334  0.5316  1.3962
 8935SOL    HW238265   2.967   2.144   8.220  1.3392  1.1492 -0.1573
 8936SOL     OW38266   0.508   3.948   2.284 -0.2154 -0.2992  0.1078
 8936SOL    HW138267   0.542   4.000   2.357 -0.3297  1.3057 -0.9633
 8936SOL    HW238268   0.502   3.869   2.338 -0.5926  0.3206  0.9784
 8937SOL     OW38269   2.953   0.996   4.824 -0.2946  0.1451  0.2021
 8937SOL    HW138270   2.909   1.081   4.826 -1.0107 -0.1995 -0.7215
 8937SOL    HW238271   2.988   0.983   4.912 -0.1404  1.7558  0.3823
 8938SOL     OW38272   2.207   1.334   2.228  0.3212  0.0871  0.1587
 8938SOL    HW138273   2.218   1.247   2.265  1.5191 -0.2995 -1.1324
 8938SOL    HW238274   2.193   1.381   2.311 -3.5583 -1.8312  0.5880
 8939SOL     OW38275   4.267   4.048   3.347  0.3597  0.3126 -0.9784
 8939SOL    HW138276   4.328   3.987   3.389 -2.3000 -1.0297  0.9190
 8939SOL    HW238277   4.206   3.978   3.322  0.3255  0.0954 -0.2630
 8940SOL     OW38278   0.354   0.969   1.044 -0.0248 -0.3485  0.0050
 8940SOL    HW138279   0.305   0.929   1.117 -1.1561 -2.2521 -1.7906
 8940SOL    HW238280   0.385   1.044   1.094 -1.5395 -1.3310  2.4057
 8941SOL     OW38281   0.395   1.286   2.985  0.3338 -0.0564 -0.1059
 8941SOL    HW138282   0.354   1.299   2.899 -1.9615 -0.9067  0.8649
 8941SOL    HW238283   0.394   1.191   2.989  0.7874 -0.0945 -0.8689
 8942SOL     OW38284   0.600   3.360   3.522 -0.3208  0.1985  0.0361
 8942SOL    HW138285   0.629   3.303   3.450 -1.7221 -0.9913  0.4043
 8942SOL    HW238286   0.516   3.396   3.491 -0.8761 -0.0883  1.1935
 8943SOL     OW38287   0.916   0.988   9.418 -0.4599  0.3241  0.1876
 8943SOL    HW138288   0.878   0.910   9.379 -1.6017  0.7494  0.4236
 8943SOL    HW238289   0.939   0.953   9.504 -0.5757 -0.6851 -0.1989
 8944SOL     OW38290   1.871   2.387   4.009 -0.0091  0.0924  0.1197
 8944SOL    HW138291   1.916   2.316   4.054 -1.6781 -0.4024  0.9729
 8944SOL    HW238292   1.797   2.414   4.063  1.7001  2.1713  1.4570
 8945SOL     OW38293   3.174   1.461   5.108  0.0150  0.5578 -0.3279
 8945SOL    HW138294   3.219   1.383   5.141 -0.4476  0.4082 -0.0443
 8945SOL    HW238295   3.089   1.417   5.098 -0.0197  0.4219  0.5294
 8946SOL     OW38296   3.039   3.167   3.616 -0.1050 -0.2984 -0.1208
 8946SOL    HW138297   3.114   3.210   3.657 -0.8378  1.1634 -0.3240
 8946SOL    HW238298   2.995   3.125   3.690 -0.0512 -1.3073 -0.6619
 8947SOL     OW38299   1.718   2.381   1.072  0.5545  0.0444  0.8539
 8947SOL    HW138300   1.694   2.390   1.164 -1.2311 -1.7950  0.5772
 8947SOL    HW238301   1.651   2.435   1.032  0.1913 -1.5553 -0.6948
 8948SOL     OW38302   2.686   1.777  12.729  0.2919 -0.3611  0.2689
 8948SOL    HW138303   2.703   1.861  12.687  1.3257 -0.4521  0.5200
 8948SOL    HW238304   2.600   1.781  12.771  0.2499 -1.3701  0.2857
 8949SOL     OW38305   4.020   3.486   3.338 -0.0676  0.0507 -0.1503
 8949SOL    HW138306   4.113   3.477   3.359  0.0459 -0.8102 -1.0406
 8949SOL    HW238307   4.006   3.397   3.370 -0.1945  0.0962 -0.0775
 8950SOL     OW38308   2.816   3.298  15.999  0.5668  0.0779  0.0450
 8950SOL    HW138309   2.790   3.297  15.907  0.8236 -1.5992 -0.0112
 8950SOL    HW238310   2.734   3.270  16.039  0.7623 -0.7584 -0.1340
 8951SOL     OW38311   2.003   0.771  17.244 -1.2761  0.0622  0.3273
 8951SOL    HW138312   2.088   0.757  17.201 -0.8988  0.2167  1.0202
 8951SOL    HW238313   2.024   0.737  17.331  0.5665  0.5036  0.0602
 8952SOL     OW38314   3.145   2.575   3.431 -1.0122 -0.1662 -0.7640
 8952SOL    HW138315   3.239   2.576   3.447 -1.3241 -0.3828  1.1184
 8952SOL    HW238316   3.107   2.584   3.518 -2.5417 -2.1635 -1.2147
 8953SOL     OW38317   2.524   2.828   2.745 -0.4203 -0.4335 -0.1601
 8953SOL    HW138318   2.443   2.849   2.790 -0.9659 -1.8967 -0.4711
 8953SOL    HW238319   2.589   2.860   2.807  1.2560  0.8226 -2.5459
 8954SOL     OW38320   0.395   4.492   6.086 -0.5992 -0.2203 -0.3502
 8954SOL    HW138321   0.381   4.432   6.013 -0.8340  0.1817 -0.6348
 8954SOL    HW238322   0.307   4.518   6.112 -0.2222  0.0062  0.6730
 8955SOL     OW38323   0.559   2.195   8.286  0.3320  0.4438  0.1045
 8955SOL    HW138324   0.538   2.269   8.343 -2.2874 -1.2861  1.3854
 8955SOL    HW238325   0.595   2.133   8.349 -2.1262 -1.2339 -0.1275
 8956SOL     OW38326   3.623   0.541  11.033 -0.2997  0.3082 -0.3058
 8956SOL    HW138327   3.581   0.608  10.980 -0.1912 -0.4275 -1.3140
 8956SOL    HW238328   3.569   0.543  11.112  1.0619  0.5926  0.6251
 8957SOL     OW38329   2.013   2.726   1.560  0.1038  0.3082 -0.4994
 8957SOL    HW138330   1.996   2.709   1.653  0.9783 -0.4238 -0.4719
 8957SOL    HW238331   2.094   2.675   1.561 -0.2598 -0.2574  0.2568
 8958SOL     OW38332   2.614   3.882   7.643  0.0636  0.1712  0.2822
 8958SOL    HW138333   2.584   3.821   7.710 -1.2438  1.4694  0.8792
 8958SOL    HW238334   2.604   3.821   7.570  0.9705  2.2420 -1.5610
 8959SOL     OW38335   1.552   1.629  14.506  0.3966 -0.2803  0.0314
 8959SOL    HW138336   1.511   1.657  14.424  0.6729  3.2826  1.1323
 8959SOL    HW238337   1.572   1.715  14.544 -1.8383 -0.5309  1.8468
 8960SOL     OW38338   4.145   4.178  17.592  0.1813  0.3697 -0.2992
 8960SOL    HW138339   4.121   4.260  17.550  0.4073  0.1301 -0.8931
 8960SOL    HW238340   4.085   4.180  17.667  1.1271 -0.6214  0.4839
 8961SOL     OW38341   1.266   4.627  13.682 -0.3912  0.1541 -0.1729
 8961SOL    HW138342   1.321   4.553  13.656  0.9486 -0.2626  3.8861
 8961SOL    HW238343   1.180   4.585  13.685  0.9075 -2.5093  0.0860
 8962SOL     OW38344   2.208   4.077  14.937 -0.5269 -0.0016 -0.0603
 8962SOL    HW138345   2.247   4.025  15.007 -0.6675  0.4212  0.3290
 8962SOL    HW238346   2.259   4.157  14.945 -0.7678  0.2319 -0.8647
 8963SOL     OW38347   0.209   2.070   7.726 -0.3281  0.6710 -0.0386
 8963SOL    HW138348   0.129   2.088   7.774  0.1467  1.3904  0.4863
 8963SOL    HW238349   0.276   2.132   7.755  0.0984 -0.4450  1.3311
 8964SOL     OW38350   0.094   1.778   8.248 -0.1986 -0.4152  0.5696
 8964SOL    HW138351   0.182   1.806   8.222 -0.7552  0.9226  0.1093
 8964SOL    HW238352   0.105   1.759   8.341 -0.8327  0.3422  0.7981
 8965SOL     OW38353   1.936   0.556   3.044  0.6036 -0.5458 -0.3657
 8965SOL    HW138354   2.009   0.513   2.999  0.1068  0.2164 -1.9099
 8965SOL    HW238355   1.958   0.645   3.018  3.1323 -1.3029 -0.8116
 8966SOL     OW38356   4.594   0.105  16.103  0.0823  0.1899  0.2723
 8966SOL    HW138357   4.612   0.016  16.073 -1.9606 -0.5277  1.1933
 8966SOL    HW238358   4.502   0.096  16.126  0.3057 -0.1256  1.0456
 8967SOL     OW38359   2.914   2.415   7.458  0.0776 -0.8648  0.2078
 8967SOL    HW138360   2.988   2.373   7.414  0.0780 -1.8331  1.1565
 8967SOL    HW238361   2.970   2.490   7.477 -1.4084  0.7963 -1.9139
 8968SOL     OW38362   3.975   2.586  16.231  0.2151  0.0808  0.2111
 8968SOL    HW138363   3.881   2.570  16.243  0.3039 -1.7542 -1.3911
 8968SOL    HW238364   3.976   2.590  16.135  0.8363 -4.3034  0.0011
 8969SOL     OW38365   2.640   0.320  10.369 -0.0764 -0.2512  0.2474
 8969SOL    HW138366   2.598   0.262  10.306 -1.1847 -0.7516  1.4434
 8969SOL    HW238367   2.577   0.392  10.369  0.7693  0.4858 -1.2552
 8970SOL     OW38368   3.884   4.291   2.516 -0.4231 -0.7796 -0.6918
 8970SOL    HW138369   3.938   4.249   2.450  1.1008  2.1085 -1.2402
 8970SOL    HW238370   3.942   4.300   2.592 -3.7237 -0.1733  1.7658
 8971SOL     OW38371   3.626   3.213   9.933  0.4767  0.1130 -0.8886
 8971SOL    HW138372   3.554   3.276   9.923  0.3034 -0.5014 -3.5661
 8971SOL    HW238373   3.615   3.199  10.027  2.1286  2.8824 -0.2745
 8972SOL     OW38374   1.124   3.016   8.260  0.3408 -0.3817 -0.2821
 8972SOL    HW138375   1.120   2.941   8.320 -0.1149  0.1021  0.2946
 8972SOL    HW238376   1.114   3.085   8.325 -1.1100 -1.2306  0.3954
 8973SOL     OW38377   4.235   1.564   0.250 -0.0678 -0.5397  0.0916
 8973SOL    HW138378   4.190   1.560   0.334 -1.1714 -0.3884 -0.4997
 8973SOL    HW238379   4.294   1.490   0.264  2.1622  1.5676  1.8250
 8974SOL     OW38380   0.263   0.412   3.679 -0.0498  0.1129 -0.4438
 8974SOL    HW138381   0.305   0.450   3.757  0.8180 -0.0771 -0.8228
 8974SOL    HW238382   0.277   0.476   3.610 -0.3868 -0.2093 -0.8063
 8975SOL     OW38383   4.066   1.116   5.065 -0.6241 -0.3938  0.2324
 8975SOL    HW138384   3.986   1.105   5.013 -1.2891  0.9377  0.9491
 8975SOL    HW238385   4.112   1.133   4.983  0.5652 -0.9316  0.7952
 8976SOL     OW38386   0.205   0.918   2.524  0.3654  0.3091  0.5940
 8976SOL    HW138387   0.277   0.882   2.575  1.0155  0.0230 -0.5105
 8976SOL    HW238388   0.147   0.842   2.526  0.8667 -0.0863  0.2542
 8977SOL     OW38389   2.934   1.480  14.013  0.4870 -0.3572 -0.2611
 8977SOL    HW138390   2.879   1.529  14.073  1.0746 -0.9685  0.7759
 8977SOL    HW238391   2.943   1.391  14.048 -1.2816  0.6688  2.7335
 8978SOL     OW38392   0.694   1.048   6.291  0.1573  0.0942  0.1117
 8978SOL    HW138393   0.658   1.062   6.204  2.5800  0.3750 -0.8394
 8978SOL    HW238394   0.740   1.131   6.295 -2.0966  1.3849 -0.9107
 8979SOL     OW38395   0.035   4.324   9.080 -0.8045 -0.1262  0.1950
 8979SOL    HW138396   0.109   4.303   9.022 -1.4864 -0.3035 -0.6151
 8979SOL    HW238397   4.714   4.387   9.023  1.0849  0.3061 -0.8139
 8980SOL     OW38398   2.219   3.440   2.504 -0.1359 -0.0311  0.3042
 8980SOL    HW138399   2.300   3.403   2.470 -1.1786 -2.6199  0.6420
 8980SOL    HW238400   2.240   3.437   2.598 -0.7800 -1.5012  0.3993
 8981SOL     OW38401   0.781   1.427  10.256  0.0952  0.1561  0.8702
 8981SOL    HW138402   0.780   1.361  10.326  0.4840  0.5570  1.2510
 8981SOL    HW238403   0.711   1.383  10.207 -0.1032 -0.3256  1.5808
 8982SOL     OW38404   3.926   2.333   2.631  0.4910  0.6203  0.0830
 8982SOL    HW138405   3.926   2.303   2.540  0.5953 -1.2817  0.7032
 8982SOL    HW238406   3.888   2.419   2.613 -2.2927 -0.5991  0.0113
 8983SOL     OW38407   2.781   1.102  17.377  0.0940 -0.3873  0.8490
 8983SOL    HW138408   2.698   1.132  17.413 -0.4665 -0.0133 -0.7292
 8983SOL    HW238409   2.829   1.185  17.389  0.8882 -0.8790  1.0867
 8984SOL     OW38410   2.944   0.011   3.671 -0.4235  0.1836 -0.3394
 8984SOL    HW138411   3.029   0.050   3.652  0.2499 -0.7481  0.7311
 8984SOL    HW238412   2.921   4.702   3.584  2.2785  0.2293 -1.0695
 8985SOL     OW38413   2.509   1.128   7.744  0.1330  0.6564  0.0896
 8985SOL    HW138414   2.590   1.179   7.738  0.2811  0.3715 -0.3129
 8985SOL    HW238415   2.492   1.122   7.838  1.6387  0.6600  0.3725
 8986SOL     OW38416   3.740   1.380   4.691  0.2157  0.4028  0.0800
 8986SOL    HW138417   3.696   1.313   4.743  2.2349  0.0903  1.3857
 8986SOL    HW238418   3.726   1.451   4.754 -0.6667  0.1155  0.2187
 8987SOL     OW38419   1.573   2.539   1.994 -0.0232 -0.5828 -0.1439
 8987SOL    HW138420   1.585   2.521   1.901 -2.7524  3.3791 -1.2571
 8987SOL    HW238421   1.491   2.589   1.991  0.1232 -0.3992 -0.8989
 8988SOL     OW38422   0.293   4.571   0.488  0.4776 -0.1394  0.3614
 8988SOL    HW138423   0.232   4.639   0.517  1.0314  0.5062  0.0220
 8988SOL    HW238424   0.238   4.502   0.450 -2.3041  2.9789 -1.2461
 8989SOL     OW38425   1.349   4.554   4.477 -0.0120 -0.1225 -0.1943
 8989SOL    HW138426   1.262   4.582   4.448  0.1495 -1.7429 -2.2307
 8989SOL    HW238427   1.388   4.641   4.487  0.6272 -0.6504  1.9251
 8990SOL     OW38428   4.654   3.703   7.999 -0.3033  0.0078  0.9411
 8990SOL    HW138429   4.650   3.737   7.909  1.7615  0.9718  1.2080
 8990SOL    HW238430   4.561   3.680   8.004 -0.9011  1.8666 -1.3066
 8991SOL     OW38431   4.428   0.774  12.538  0.1788  0.9374 -0.1684
 8991SOL    HW138432   4.433   0.706  12.472  2.5143  1.8009 -0.8925
 8991SOL    HW238433   4.342   0.761  12.577  0.4536 -2.8316 -0.8350
 8992SOL     OW38434   0.858   1.536   9.498  0.1840 -0.1001 -0.1699
 8992SOL    HW138435   0.884   1.614   9.548 -1.0125 -0.5273  1.1210
 8992SOL    HW238436   0.942   1.521   9.455 -0.6676 -1.9344 -1.1858
 8993SOL     OW38437   2.320   4.173   7.009 -0.5152 -0.0310  0.6307
 8993SOL    HW138438   2.266   4.241   7.049 -0.3835  0.4450  0.0000
 8993SOL    HW238439   2.362   4.130   7.084  1.9685  0.9989 -0.1722
 8994SOL     OW38440   3.532   3.681   4.265 -0.0572 -0.1965 -0.3139
 8994SOL    HW138441   3.597   3.716   4.204 -0.0865 -0.0506 -0.2616
 8994SOL    HW238442   3.470   3.754   4.260  0.0635 -0.2331 -2.2742
 8995SOL     OW38443   3.875   1.975   3.086 -0.3531 -0.1883  0.0446
 8995SOL    HW138444   3.965   2.003   3.069 -1.0270  1.3683 -0.9218
 8995SOL    HW238445   3.827   2.057   3.080 -0.1928  0.0063  1.2858
 8996SOL     OW38446   1.450   2.993   0.996 -0.2205 -0.2863  0.3368
 8996SOL    HW138447   1.498   2.917   0.963  0.3857 -0.0332  0.6558
 8996SOL    HW238448   1.512   3.032   1.056 -0.1421 -1.8509  1.2825
 8997SOL     OW38449   4.533   3.799  14.503  0.3585  0.1538  0.3934
 8997SOL    HW138450   4.559   3.887  14.531  0.9010  0.6607 -1.7554
 8997SOL    HW238451   4.468   3.779  14.570 -0.5820 -1.8343 -1.1231
 8998SOL     OW38452   4.563   4.405  13.519 -0.3075  0.1145  0.2928
 8998SOL    HW138453   4.648   4.449  13.519  0.7334 -1.9054  0.2532
 8998SOL    HW238454   4.525   4.465  13.583 -1.6511 -0.5812  0.1456
 8999SOL     OW38455   2.097   3.120   7.040 -0.1627 -0.4572 -0.6554
 8999SOL    HW138456   2.120   3.178   7.113  1.8614 -0.1109 -1.5628
 8999SOL    HW238457   2.124   3.172   6.964 -3.9231 -0.1154 -1.7493
 9000SOL     OW38458   2.150   0.565   6.301 -0.5482  0.5091  0.2243
 9000SOL    HW138459   2.114   0.531   6.383  2.4649 -0.3901  1.1576
 9000SOL    HW238460   2.132   0.498   6.235  1.9500 -0.3491  0.4400
 9001SOL     OW38461   3.412   3.355   3.086  0.3661  0.1911  0.6092
 9001SOL    HW138462   3.484   3.363   3.023  1.7558  0.3465  2.2082
 9001SOL    HW238463   3.334   3.386   3.040  1.4362  0.8235 -0.7736
 9002SOL     OW38464   1.479   1.789   5.371  0.4957 -0.1607  0.3240
 9002SOL    HW138465   1.556   1.791   5.429  0.1111  1.7671  0.7630
 9002SOL    HW238466   1.452   1.698   5.384 -0.9120 -0.5036 -4.9176
 9003SOL     OW38467   3.965   4.176   0.099  0.4824  0.5161 -0.2436
 9003SOL    HW138468   3.963   4.081   0.104  1.3655  0.4187 -2.1630
 9003SOL    HW238469   4.041   4.198   0.153 -1.1972  1.0843  1.9245
 9004SOL     OW38470   4.178   4.257   4.560  0.0503  0.1538 -0.2368
 9004SOL    HW138471   4.137   4.322   4.502  1.0592  0.1583 -0.9508
 9004SOL    HW238472   4.111   4.261   4.628 -0.4196 -0.9699 -0.6350
 9005SOL     OW38473   0.448   0.617  14.355 -0.0319 -0.3476  0.4094
 9005SOL    HW138474   0.483   0.674  14.423  0.1448 -0.0519  0.0686
 9005SOL    HW238475   0.457   0.536  14.404 -1.5911 -0.6317  0.2374
 9006SOL     OW38476   3.101   3.960   5.205 -0.2133  0.4236  0.2268
 9006SOL    HW138477   3.007   3.977   5.209 -1.0100 -3.4607 -1.3833
 9006SOL    HW238478   3.122   3.985   5.115  1.7261  0.7792  0.7902
 9007SOL     OW38479   0.674   4.580   4.979 -0.2875  0.2449  0.0571
 9007SOL    HW138480   0.715   4.653   5.025  1.2538  0.3402 -1.4758
 9007SOL    HW238481   0.591   4.615   4.947  0.0804  0.8809 -0.2025
 9008SOL     OW38482   0.620   2.053   2.637 -0.3562 -0.4050 -0.6472
 9008SOL    HW138483   0.558   2.126   2.630 -0.6110 -0.6691 -1.1418
 9008SOL    HW238484   0.554   1.985   2.623 -1.0924  0.7690 -2.9123
 9009SOL     OW38485   4.666   0.168   4.506 -0.1980 -0.4006 -0.9906
 9009SOL    HW138486   0.022   0.119   4.483  0.7019  1.8302 -2.6261
 9009SOL    HW238487   4.603   0.110   4.461  0.6107 -0.7714 -1.6465
 9010SOL     OW38488   2.968   3.609   2.194 -0.2594  0.2643 -0.2227
 9010SOL    HW138489   2.988   3.542   2.258  0.1251  0.8225  0.2387
 9010SOL    HW238490   2.988   3.571   2.109 -0.0731  0.4957 -0.2829
 9011SOL     OW38491   4.487   1.155   3.691 -0.4768  0.3649 -0.0452
 9011SOL    HW138492   4.472   1.226   3.754  0.1943  2.2962 -2.0714
 9011SOL    HW238493   4.429   1.095   3.738 -0.7183  2.1559  1.9651
 9012SOL     OW38494   2.153   3.254  10.129  0.0149  0.4782  0.7267
 9012SOL    HW138495   2.108   3.260  10.213 -2.5142 -3.0179 -0.3349
 9012SOL    HW238496   2.080   3.234  10.069  0.3016 -2.6768  1.4073
 9013SOL     OW38497   1.700   2.071   3.752 -0.4398 -0.2725  0.2634
 9013SOL    HW138498   1.758   2.012   3.800 -0.8563 -2.0291 -1.3910
 9013SOL    HW238499   1.764   2.141   3.743  2.6487 -3.1323  0.0570
 9014SOL     OW38500   2.931   1.257   8.251 -0.4240  1.1575  0.7340
 9014SOL    HW138501   2.907   1.177   8.297  0.6627  1.0747  1.1598
 9014SOL    HW238502   3.018   1.276   8.287 -0.9464 -0.1744  2.6912
 9015SOL     OW38503   4.175   4.220   0.252 -0.1166 -0.8931 -0.8413
 9015SOL    HW138504   4.122   4.247   0.327  2.2314 -1.4237  1.0079
 9015SOL    HW238505   4.209   4.309   0.243  0.9933 -0.9615  2.6100
 9016SOL     OW38506   4.670   4.695   2.424  0.0356 -0.0459  0.1188
 9016SOL    HW138507   4.687   0.063   2.446 -1.2985 -0.0006  0.9870
 9016SOL    HW238508   4.576   4.677   2.434 -0.1124 -0.3059 -1.7581
 9017SOL     OW38509   2.357   1.356  13.520 -0.5713 -0.3277  0.0417
 9017SOL    HW138510   2.357   1.389  13.430  0.2303  0.7577  0.4291
 9017SOL    HW238511   2.409   1.427  13.557 -3.2982  1.1773  0.9822
 9018SOL     OW38512   3.593   0.277   5.134  0.1666 -0.4759  0.2789
 9018SOL    HW138513   3.634   0.195   5.159  0.1614 -0.7907 -0.7617
 9018SOL    HW238514   3.605   0.284   5.039 -2.2716 -0.7649 -0.0733
 9019SOL     OW38515   0.176   1.932   3.901  1.0004  0.3002  0.2262
 9019SOL    HW138516   0.239   1.966   3.838  0.5114 -0.5593 -0.7108
 9019SOL    HW238517   0.101   1.911   3.845  1.4096 -0.6665  0.0478
 9020SOL     OW38518   1.953   1.204  12.010 -0.4317  0.1817 -0.3099
 9020SOL    HW138519   1.966   1.251  12.092  0.1646  3.1939 -2.1384
 9020SOL    HW238520   1.924   1.117  12.037 -1.3273  1.3741  2.5347
 9021SOL     OW38521   2.979   2.838   5.070  0.7703  0.6752  0.7146
 9021SOL    HW138522   2.891   2.813   5.099  1.1939 -0.3240  1.1324
 9021SOL    HW238523   2.963   2.931   5.057  0.8988  0.9797  2.7369
 9022SOL     OW38524   4.679   1.039  13.293 -0.0185  0.0007  1.0387
 9022SOL    HW138525   4.640   1.093  13.362  0.2216  1.0948  0.3237
 9022SOL    HW238526   0.027   1.004  13.346  0.0959 -2.3363 -0.6791
 9023SOL     OW38527   2.920   1.896   5.625 -0.2165  0.0831  0.6086
 9023SOL    HW138528   2.928   1.856   5.711  1.7755 -1.6366 -0.3866
 9023SOL    HW238529   2.872   1.825   5.582 -0.6879  0.1046  1.0983
 9024SOL     OW38530   1.658   0.125  14.816 -0.4310  0.2423 -0.2354
 9024SOL    HW138531   1.733   0.150  14.762  0.9502 -3.1351  0.1710
 9024SOL    HW238532   1.716   0.118  14.892 -1.1821 -2.0096  0.1268
 9025SOL     OW38533   3.461   3.882   2.231  0.5172 -0.2092  0.3176
 9025SOL    HW138534   3.448   3.934   2.152  0.7302 -0.4282  0.1370
 9025SOL    HW238535   3.374   3.842   2.239 -0.4355  2.0776  1.4269
 9026SOL     OW38536   4.190   4.658  13.657  0.0527  0.1330 -0.4284
 9026SOL    HW138537   4.152   4.570  13.654  1.0721 -0.2532 -1.8548
 9026SOL    HW238538   4.207   4.674  13.564  1.9158 -1.2957 -0.3239
 9027SOL     OW38539   2.007   1.749   8.727  0.7808 -0.0725  0.3946
 9027SOL    HW138540   1.918   1.770   8.753  0.9635  0.4661  0.5980
 9027SOL    HW238541   2.027   1.838   8.698 -2.5375  1.1060  1.8423
 9028SOL     OW38542   2.644   3.230   6.354 -0.1087 -0.3167  0.3576
 9028SOL    HW138543   2.722   3.269   6.315  0.3317  1.0779  2.6564
 9028SOL    HW238544   2.586   3.218   6.279  1.8050 -2.4346 -0.7798
 9029SOL     OW38545   1.933   2.077   8.083 -0.3423  0.1284  0.0220
 9029SOL    HW138546   1.966   2.166   8.070 -1.0570  0.6024  1.5321
 9029SOL    HW238547   1.990   2.029   8.023  0.2173  3.0675 -1.8056
 9030SOL     OW38548   1.971   0.331   8.253  0.4568 -0.6438 -0.4140
 9030SOL    HW138549   1.914   0.364   8.323 -0.1546 -1.1366 -0.6798
 9030SOL    HW238550   1.945   0.239   8.252  0.8612 -0.7305 -2.3465
 9031SOL     OW38551   2.994   2.288   7.777 -0.9430 -0.9586  0.1253
 9031SOL    HW138552   3.075   2.279   7.726  0.2427 -0.2272  1.8923
 9031SOL    HW238553   2.927   2.243   7.725 -2.0025  0.5534  0.1537
 9032SOL     OW38554   2.713   2.640   6.724  0.0757  0.0350  0.2518
 9032SOL    HW138555   2.664   2.600   6.796  0.0054 -0.2921  0.0206
 9032SOL    HW238556   2.799   2.624   6.762  1.2999 -0.3114 -2.6740
 9033SOL     OW38557   2.131   0.534   8.807  0.0930 -0.1703  0.4703
 9033SOL    HW138558   2.039   0.514   8.826 -0.0814 -0.8479 -1.0258
 9033SOL    HW238559   2.180   0.461   8.844 -0.7906 -0.4551  1.0768
 9034SOL     OW38560   3.659   0.134  14.053  0.1497  0.2534 -0.1924
 9034SOL    HW138561   3.623   0.199  14.114  1.2997 -0.1668  0.9355
 9034SOL    HW238562   3.591   0.130  13.986  1.4187  1.9273 -1.5841
 9035SOL     OW38563   1.896   3.231  14.476  0.4575 -0.4126 -0.2629
 9035SOL    HW138564   1.884   3.223  14.382 -0.5872 -1.1745 -0.0680
 9035SOL    HW238565   1.990   3.217  14.487  0.5119  0.7419  0.7158
 9036SOL     OW38566   3.743   2.801  12.639 -0.3012 -0.5703 -0.2180
 9036SOL    HW138567   3.740   2.707  12.657  3.7435 -0.5769  0.2605
 9036SOL    HW238568   3.682   2.834  12.705 -1.2902 -1.3732 -0.7270
 9037SOL     OW38569   4.289   0.200   5.452  0.0993 -0.0743 -0.3733
 9037SOL    HW138570   4.364   0.176   5.506  0.1935 -0.7450 -0.8065
 9037SOL    HW238571   4.243   0.266   5.505  0.6341 -1.7326  2.1610
 9038SOL     OW38572   3.841   2.847   5.566 -0.3407  0.0495  0.3475
 9038SOL    HW138573   3.812   2.781   5.629  1.4002 -2.3341 -1.3564
 9038SOL    HW238574   3.776   2.917   5.578 -0.4662 -0.3736  2.1784
 9039SOL     OW38575   3.316   0.986  10.724 -0.1518 -0.1655  0.0558
 9039SOL    HW138576   3.230   0.954  10.748  0.6095 -2.5717 -0.4677
 9039SOL    HW238577   3.293   1.059  10.667  0.0878 -0.7405 -0.7702
 9040SOL     OW38578   1.638   1.307  11.910 -0.6789 -0.8705  0.4621
 9040SOL    HW138579   1.718   1.256  11.914 -0.0820 -0.1168 -1.8669
 9040SOL    HW238580   1.634   1.310  11.814  1.4342 -3.9951  0.2773
 9041SOL     OW38581   0.405   1.085  15.207  0.3118 -0.2568 -0.1515
 9041SOL    HW138582   0.381   1.014  15.267 -1.7929  0.8507  0.3213
 9041SOL    HW238583   0.447   1.150  15.262 -0.2810 -0.3782  0.4525
 9042SOL     OW38584   3.867   1.488   4.010 -0.3589  0.3151  0.0370
 9042SOL    HW138585   3.880   1.435   4.088  0.6617 -0.2720 -0.5353
 9042SOL    HW238586   3.959   1.484   3.983 -0.7604 -0.8289 -1.1714
 9043SOL     OW38587   0.497   2.939   9.657  0.4912  0.4255 -0.0575
 9043SOL    HW138588   0.488   3.027   9.694 -0.8606  0.9804 -1.7605
 9043SOL    HW238589   0.425   2.935   9.594 -1.5816  0.8946  2.2569
 9044SOL     OW38590   4.513   4.387  12.475 -0.2915 -0.3078 -0.1018
 9044SOL    HW138591   4.477   4.436  12.549  0.1859  0.0173 -0.0852
 9044SOL    HW238592   4.434   4.359  12.429 -0.1571 -1.2642  0.2512
 9045SOL     OW38593   2.137   2.382  17.404 -0.3752  0.1931  0.1072
 9045SOL    HW138594   2.161   2.454  17.462 -0.2729  0.6170 -0.4662
 9045SOL    HW238595   2.042   2.375  17.417 -1.1401  1.3793 -4.9547
 9046SOL     OW38596   1.200   4.386   4.637  0.4552 -0.1171 -0.6417
 9046SOL    HW138597   1.257   4.457   4.605 -1.5234  2.2168  0.9703
 9046SOL    HW238598   1.229   4.361   4.725 -1.8387  0.9347  0.3938
 9047SOL     OW38599   1.275   0.094  10.443  0.0756 -0.5622 -0.3587
 9047SOL    HW138600   1.287   0.024  10.507  0.4107  0.5807  0.8386
 9047SOL    HW238601   1.350   0.082  10.385 -1.1230  0.1271 -2.0398
 9048SOL     OW38602   0.881   3.732   3.533  0.2740 -0.2909 -0.2706
 9048SOL    HW138603   0.824   3.795   3.489  1.4225 -0.5378 -2.1090
 9048SOL    HW238604   0.843   3.654   3.494 -1.2821 -0.0580  0.7749
 9049SOL     OW38605   3.944   1.361  11.177 -0.0587 -0.6064  0.5682
 9049SOL    HW138606   4.012   1.336  11.239  0.3695  0.8616  0.6945
 9049SOL    HW238607   3.985   1.357  11.091 -1.1823  1.1018 -0.0493
 9050SOL     OW38608   4.528   3.907   0.266 -0.5472 -0.6250  0.2005
 9050SOL    HW138609   4.580   3.917   0.346  1.1978 -2.5846 -0.6931
 9050SOL    HW238610   4.557   3.819   0.243 -0.1104 -0.4228 -0.0216
 9051SOL     OW38611   4.694   1.622   3.112  0.2308  0.0751 -0.5596
 9051SOL    HW138612   0.037   1.630   3.180  0.4978 -0.9531 -0.7019
 9051SOL    HW238613   4.622   1.578   3.158  0.4654 -0.4132 -0.6565
 9052SOL     OW38614   3.769   2.720   5.812 -0.2446  0.2223  0.2538
 9052SOL    HW138615   3.723   2.786   5.865 -0.4238 -0.0285  0.4116
 9052SOL    HW238616   3.742   2.645   5.865  0.2406 -0.2268 -0.1417
 9053SOL     OW38617   1.699   3.305  15.857 -0.7759 -0.5325  0.0157
 9053SOL    HW138618   1.735   3.284  15.770 -0.0082 -0.3516  0.2839
 9053SOL    HW238619   1.750   3.382  15.882  1.1444 -0.3271 -4.5417
 9054SOL     OW38620   4.145   1.804   8.861 -0.1622 -0.3091 -0.3847
 9054SOL    HW138621   4.238   1.827   8.862 -0.0455 -0.8832  1.6438
 9054SOL    HW238622   4.134   1.776   8.770  1.2140 -2.1375  0.0097
 9055SOL     OW38623   0.788   1.539   3.546 -0.2819  0.0522  0.0593
 9055SOL    HW138624   0.758   1.524   3.636 -0.0024  1.3044  0.3565
 9055SOL    HW238625   0.732   1.478   3.498  0.6793 -1.3393  0.6992
 9056SOL     OW38626   1.753   0.687   6.179  0.6568  0.2564 -0.3600
 9056SOL    HW138627   1.692   0.711   6.249  1.3813 -0.2922  0.4564
 9056SOL    HW238628   1.802   0.767   6.160  1.1266  0.3904  1.4639
 9057SOL     OW38629   3.365   2.941   5.755 -0.3240  0.6523 -0.1632
 9057SOL    HW138630   3.364   2.944   5.851  0.4939  3.4148 -0.2393
 9057SOL    HW238631   3.315   2.860   5.742  1.5507 -0.6312  0.5211
 9058SOL     OW38632   3.197   1.320  12.641  0.2282 -0.2523  0.2140
 9058SOL    HW138633   3.162   1.337  12.553 -1.5748  2.5471  1.4733
 9058SOL    HW238634   3.118   1.328  12.694  1.6274 -0.4546  2.3117
 9059SOL     OW38635   0.218   4.152   8.126  0.4970  0.9690  0.7990
 9059SOL    HW138636   0.141   4.162   8.182 -0.5608 -1.5087 -0.2242
 9059SOL    HW238637   0.189   4.118   8.041  1.4129  0.1499  0.8120
 9060SOL     OW38638   1.906   1.438   3.519 -0.1587  0.5432 -0.2853
 9060SOL    HW138639   1.981   1.405   3.469 -0.5434 -1.0533  0.2043
 9060SOL    HW238640   1.931   1.456   3.609 -0.8945  0.1378 -0.0029
 9061SOL     OW38641   4.484   3.062   5.153 -0.1346 -0.0350 -0.2551
 9061SOL    HW138642   4.552   3.027   5.095 -0.8893 -1.8168 -0.0712
 9061SOL    HW238643   4.540   3.096   5.222  0.9452  0.0990 -1.1875
 9062SOL     OW38644   2.638   0.621   3.186 -0.2843  0.4092 -0.4868
 9062SOL    HW138645   2.553   0.588   3.215  0.2409 -0.1199  0.4394
 9062SOL    HW238646   2.649   0.697   3.243  2.4157 -0.4736  0.1312
 9063SOL     OW38647   1.160   0.067   3.754  0.3186  0.0510  0.6009
 9063SOL    HW138648   1.219   4.715   3.749 -1.0092 -1.0385  1.1256
 9063SOL    HW238649   1.087   0.039   3.698  0.3023 -1.1094  1.1917
 9064SOL     OW38650   3.630   3.296   2.015  0.1977 -0.0363 -0.1755
 9064SOL    HW138651   3.545   3.323   1.981  0.4191 -0.3819 -1.0012
 9064SOL    HW238652   3.661   3.247   1.939 -2.2248  1.2745 -2.0174
 9065SOL     OW38653   0.475   2.042   6.805  0.2372  0.2520 -0.1386
 9065SOL    HW138654   0.474   1.969   6.867 -2.3347 -0.0662 -0.5481
 9065SOL    HW238655   0.556   2.087   6.829  1.6949 -1.2380 -2.2966
 9066SOL     OW38656   3.315   3.181  17.196  0.0955  0.7056 -0.5903
 9066SOL    HW138657   3.386   3.117  17.189 -1.7717 -1.4179 -0.0675
 9066SOL    HW238658   3.340   3.247  17.132 -4.0821  1.5622 -1.3241
 9067SOL     OW38659   2.173   4.302   5.852 -0.2457 -0.1653  0.0552
 9067SOL    HW138660   2.181   4.241   5.926  0.1280  1.1791  1.1318
 9067SOL    HW238661   2.149   4.385   5.893 -0.9282 -0.4382  0.2093
 9068SOL     OW38662   4.412   2.805  16.144  0.3564  0.2992 -0.3781
 9068SOL    HW138663   4.495   2.828  16.187 -0.1911 -1.6766  1.7706
 9068SOL    HW238664   4.451   2.745  16.080  2.9662  0.9032  0.6334
 9069SOL     OW38665   0.613   4.390  11.815  0.1954 -0.9439 -0.2571
 9069SOL    HW138666   0.695   4.439  11.818 -0.5039 -0.0579  5.0598
 9069SOL    HW238667   0.612   4.354  11.726  1.4212 -0.9720 -0.2588
 9070SOL     OW38668   0.418   4.018   4.833 -0.0986 -0.1456  0.4649
 9070SOL    HW138669   0.330   3.984   4.849  0.4065 -2.2422 -1.1804
 9070SOL    HW238670   0.418   4.113   4.839 -0.3342 -0.0493 -1.0577
 9071SOL     OW38671   3.744   0.655   5.395  0.1990 -0.2502 -0.5891
 9071SOL    HW138672   3.810   0.721   5.375  0.2738  0.4710  2.0395
 9071SOL    HW238673   3.799   0.580   5.418 -1.0605 -0.8218  0.6018
 9072SOL     OW38674   1.017   4.305   2.763 -0.0100 -0.3070  0.0270
 9072SOL    HW138675   1.044   4.213   2.771 -1.2381 -0.7313 -0.7106
 9072SOL    HW238676   0.929   4.308   2.726 -0.0591 -3.3053 -0.0835
 9073SOL     OW38677   2.634   3.483   4.539  0.1603 -0.2379 -0.4154
 9073SOL    HW138678   2.643   3.480   4.443  2.3579 -0.5367 -0.1906
 9073SOL    HW238679   2.670   3.397   4.557  0.3809  0.2207  1.3258
 9074SOL     OW38680   1.324   0.463   6.856 -0.0455  0.1443  0.1322
 9074SOL    HW138681   1.335   0.417   6.773 -1.1380  0.1080 -0.0008
 9074SOL    HW238682   1.395   0.527   6.849  1.2876 -1.3030  0.4690
 9075SOL     OW38683   1.033   4.308  15.058 -0.7061 -0.6137 -0.4029
 9075SOL    HW138684   1.040   4.306  15.154 -0.4262 -2.0032 -0.4429
 9075SOL    HW238685   1.062   4.218  15.042  0.0342 -0.3394 -0.5900
 9076SOL     OW38686   3.268   1.107   2.311 -0.0865 -0.5910  0.4625
 9076SOL    HW138687   3.292   1.016   2.332 -1.5534 -0.9689  0.5021
 9076SOL    HW238688   3.200   1.102   2.244  0.5932  1.3374 -0.3476
 9077SOL     OW38689   3.162   0.884   4.673 -0.4083 -0.1449  0.4415
 9077SOL    HW138690   3.106   0.811   4.648  1.4431 -0.8269 -1.7669
 9077SOL    HW238691   3.093   0.942   4.706  1.0717  0.7266  1.9904
 9078SOL     OW38692   1.460   1.766   1.214  0.4785 -0.5264  0.1864
 9078SOL    HW138693   1.450   1.741   1.306  0.7924  0.9931  0.6367
 9078SOL    HW238694   1.397   1.837   1.200  0.7641 -0.0643  1.2117
 9079SOL     OW38695   3.321   2.271   3.590 -0.3286  0.3324  0.5549
 9079SOL    HW138696   3.340   2.295   3.500  0.4317  1.8590  1.1348
 9079SOL    HW238697   3.376   2.193   3.602 -1.4034 -0.2285  1.9037
 9080SOL     OW38698   1.643   0.275   6.251  0.2994 -0.1874  0.6404
 9080SOL    HW138699   1.574   0.341   6.244 -0.5411 -1.2350 -1.0300
 9080SOL    HW238700   1.634   0.211   6.181  0.4968 -0.0005  0.4450
 9081SOL     OW38701   0.641   1.111   5.093  0.0128  0.1665 -1.0097
 9081SOL    HW138702   0.629   1.206   5.095  1.9085  0.4335 -2.1037
 9081SOL    HW238703   0.685   1.099   5.176  0.2548 -0.8366 -1.2878
 9082SOL     OW38704   3.657   3.498   2.223  0.3323 -0.1593 -0.3492
 9082SOL    HW138705   3.652   3.459   2.310 -3.4069  1.4980  0.1293
 9082SOL    HW238706   3.633   3.419   2.173 -1.1114  0.2466 -0.2868
 9083SOL     OW38707   3.129   2.346  16.821  0.2669 -0.0890  0.8921
 9083SOL    HW138708   3.220   2.337  16.850  1.2616  3.2954 -1.2539
 9083SOL    HW238709   3.152   2.360  16.730  0.6337 -0.5240  0.9163
 9084SOL     OW38710   2.283   0.654   7.486 -0.6474 -0.2829  0.4615
 9084SOL    HW138711   2.221   0.583   7.503  0.1004 -1.4617 -1.7920
 9084SOL    HW238712   2.319   0.677   7.572 -0.9602 -0.1280  0.5526
 9085SOL     OW38713   4.689   4.417   1.586 -0.1640  0.0869 -0.0082
 9085SOL    HW138714   4.695   4.366   1.505 -0.7011 -0.5460  0.3536
 9085SOL    HW238715   0.057   4.439   1.602 -0.1573  0.2642 -0.2824
 9086SOL     OW38716   4.261   2.598   0.823  0.1602  0.3037  0.2172
 9086SOL    HW138717   4.253   2.619   0.730 -2.4933 -1.2364  0.0898
 9086SOL    HW238718   4.170   2.611   0.851  0.9070  2.5436  1.5961
 9087SOL     OW38719   3.606   1.807  15.762  0.1958  0.1169 -0.2682
 9087SOL    HW138720   3.668   1.880  15.753 -0.2296  0.4753 -0.2967
 9087SOL    HW238721   3.638   1.758  15.838  1.9845  2.5319  0.5618
 9088SOL     OW38722   3.776   1.435   6.128 -0.1748  0.5915  1.0050
 9088SOL    HW138723   3.859   1.481   6.140 -0.3943  1.7894 -2.2160
 9088SOL    HW238724   3.730   1.451   6.211 -1.4221  0.4341  0.3433
 9089SOL     OW38725   1.707   0.880   8.386  0.5169  0.3888 -0.4418
 9089SOL    HW138726   1.776   0.825   8.349 -0.8219 -0.6664 -1.3644
 9089SOL    HW238727   1.724   0.877   8.480 -0.3785  0.6596 -0.2625
 9090SOL     OW38728   3.453   1.205   2.467  0.0556 -0.1522 -0.0225
 9090SOL    HW138729   3.400   1.187   2.389  0.9221 -0.6364 -0.5060
 9090SOL    HW238730   3.405   1.150   2.529 -1.7628 -0.1626 -1.4467
 9091SOL     OW38731   2.762   0.815   8.824 -0.2095  0.3300 -0.3522
 9091SOL    HW138732   2.676   0.839   8.860 -0.7428 -0.3250 -1.1986
 9091SOL    HW238733   2.783   0.905   8.798 -1.6841  1.1297  1.1529
 9092SOL     OW38734   2.762   2.394   5.501  0.1583 -0.3194  0.1396
 9092SOL    HW138735   2.821   2.332   5.459  1.2567 -0.4424  1.8858
 9092SOL    HW238736   2.673   2.361   5.487 -0.2750 -0.0180  2.1848
 9093SOL     OW38737   2.531   4.713  11.706 -0.3138 -0.0491 -0.1349
 9093SOL    HW138738   2.473   0.001  11.781  1.1355 -0.5516  1.0690
 9093SOL    HW238739   2.610   4.681  11.750 -0.4592 -1.2566 -0.7611
 9094SOL     OW38740   2.148   1.068   6.526 -0.0742  0.2442 -0.1967
 9094SOL    HW138741   2.192   1.047   6.444 -0.7435  2.3350 -1.0837
 9094SOL    HW238742   2.217   1.069   6.593  0.6590 -1.7088 -0.9306
 9095SOL     OW38743   0.031   0.003  11.847  0.4736 -0.1920  1.0862
 9095SOL    HW138744   0.049   4.671  11.922  2.6567  0.3941  1.0063
 9095SOL    HW238745   0.112   0.053  11.844  1.3632 -1.6930  0.4490
 9096SOL     OW38746   0.968   1.797   1.312 -0.2552 -0.6553  0.5384
 9096SOL    HW138747   1.019   1.833   1.239  0.9919  1.7325  2.6228
 9096SOL    HW238748   0.972   1.704   1.286  0.7596 -0.2468 -0.7891
 9097SOL     OW38749   0.327   0.969   7.618 -0.5179  0.2943 -0.0638
 9097SOL    HW138750   0.272   0.980   7.696  2.1570  0.2995  1.8206
 9097SOL    HW238751   0.412   0.939   7.652 -1.0863 -1.6606 -0.3848
 9098SOL     OW38752   1.782   2.531   5.721  0.3671  0.4116  0.2180
 9098SOL    HW138753   1.795   2.596   5.791  1.8366  0.9733 -0.5697
 9098SOL    HW238754   1.873   2.510   5.702  0.2362 -1.5678  1.7472
 9099SOL     OW38755   3.141   2.055  14.262  0.3954  0.2012 -0.0489
 9099SOL    HW138756   3.102   2.124  14.209  0.2001 -0.2306 -0.4563
 9099SOL    HW238757   3.140   1.987  14.195 -0.5897  2.6922 -2.5200
 9100SOL     OW38758   0.080   1.237   6.511  0.6118 -0.0551  0.0023
 9100SOL    HW138759   0.079   1.293   6.434  1.5583 -0.6867 -0.4680
 9100SOL    HW238760   0.158   1.186   6.487  1.8642 -0.0923  4.0700
 9101SOL     OW38761   0.429   1.243   6.932  0.1086 -0.0849 -0.1681
 9101SOL    HW138762   0.435   1.165   6.987 -0.1330 -1.6408 -2.3507
 9101SOL    HW238763   0.508   1.228   6.879  0.9585 -1.2496  1.4554
 9102SOL     OW38764   4.160   3.527   4.840  0.6997  0.3145  0.1298
 9102SOL    HW138765   4.218   3.555   4.769  1.3354 -3.0740 -0.6863
 9102SOL    HW238766   4.078   3.575   4.829  0.5742  0.7381  2.8584
 9103SOL     OW38767   1.896   3.661   1.111 -0.3136  0.1477  0.7196
 9103SOL    HW138768   1.940   3.713   1.044 -1.4028  0.0685 -0.0600
 9103SOL    HW238769   1.967   3.648   1.174 -0.1969 -0.5029  0.4600
 9104SOL     OW38770   1.833   3.280   2.105 -0.3534 -0.1490 -0.6602
 9104SOL    HW138771   1.761   3.310   2.161  0.0785 -2.2290  1.0228
 9104SOL    HW238772   1.913   3.315   2.143 -0.3117 -0.9154 -0.0473
 9105SOL     OW38773   2.040   3.604   6.948  0.4666  0.2963 -0.1018
 9105SOL    HW138774   1.986   3.669   6.992 -2.0213 -0.7786 -1.5588
 9105SOL    HW238775   1.988   3.587   6.869 -3.0067 -0.6416  2.3752
 9106SOL     OW38776   3.244   3.086  16.256  0.7760 -0.7327 -1.2007
 9106SOL    HW138777   3.268   3.169  16.215 -0.4490 -0.3099 -1.0469
 9106SOL    HW238778   3.165   3.057  16.211 -0.6089 -0.9932  1.4070
 9107SOL     OW38779   3.450   2.979   4.085  0.0051  0.0653  0.2233
 9107SOL    HW138780   3.455   2.993   4.180 -0.7438  1.9941 -0.0158
 9107SOL    HW238781   3.449   3.072   4.063  1.1779  0.1334  0.4292
 9108SOL     OW38782   2.686   2.460   0.517  0.0526  0.2259  0.3249
 9108SOL    HW138783   2.654   2.544   0.484 -0.7623 -0.1939  0.0367
 9108SOL    HW238784   2.665   2.403   0.443  0.6437  0.1253  0.2360
 9109SOL     OW38785   3.835   3.611   2.624  0.2238  0.2885 -0.4293
 9109SOL    HW138786   3.903   3.565   2.673 -0.2856  0.5406  0.5199
 9109SOL    HW238787   3.886   3.680   2.582 -1.2632  1.7894  0.2403
 9110SOL     OW38788   0.783   3.560   7.076  0.4260  0.3588  0.0281
 9110SOL    HW138789   0.786   3.641   7.127  1.3552 -0.0785  0.6676
 9110SOL    HW238790   0.801   3.593   6.988  0.3725  1.8572  0.5806
 9111SOL     OW38791   2.415   1.263  13.768 -0.0738  0.3043 -0.1993
 9111SOL    HW138792   2.430   1.271  13.673 -2.7352 -0.3074 -0.6540
 9111SOL    HW238793   2.344   1.319  13.798 -0.7028 -2.4532  3.4033
 9112SOL     OW38794   2.458   2.063   5.076 -0.4571 -0.0104  0.1769
 9112SOL    HW138795   2.511   2.142   5.068  1.4516 -1.2271  0.9039
 9112SOL    HW238796   2.515   2.005   5.126 -0.9720  0.1103  0.8986
 9113SOL     OW38797   4.385   2.991   6.919  0.3466  0.4395  0.0856
 9113SOL    HW138798   4.334   2.913   6.941 -1.2224  1.8703  1.6083
 9113SOL    HW238799   4.467   2.955   6.886 -0.4107 -1.0055 -0.2109
 9114SOL     OW38800   3.857   0.576  13.893 -0.0860 -0.5144 -0.6348
 9114SOL    HW138801   3.884   0.615  13.810 -1.7455  2.8437  0.4271
 9114SOL    HW238802   3.940   0.541  13.924  0.5873  2.3370  0.7444
 9115SOL     OW38803   2.484   3.891  11.307  0.4059 -0.1357 -0.2474
 9115SOL    HW138804   2.414   3.905  11.370 -0.2597  3.5648 -1.8235
 9115SOL    HW238805   2.534   3.972  11.319 -0.5513  0.0832  2.4342
 9116SOL     OW38806   3.518   3.104  12.307  0.0431 -0.3066  0.1185
 9116SOL    HW138807   3.431   3.077  12.337  0.4409 -0.8917  0.7372
 9116SOL    HW238808   3.567   3.033  12.348  0.5567  0.7932  1.4388
 9117SOL     OW38809   0.997   3.161   6.498  0.2602  0.1178 -0.0659
 9117SOL    HW138810   0.994   3.103   6.575  1.1820  0.9349  0.5839
 9117SOL    HW238811   1.082   3.204   6.493  1.0909 -1.4379  0.5694
 9118SOL     OW38812   1.145   2.386   0.357  0.0263  0.0829 -0.0491
 9118SOL    HW138813   1.067   2.436   0.333 -1.7161 -3.1843 -1.0765
 9118SOL    HW238814   1.216   2.451   0.362 -0.7932  1.0036 -0.4337
 9119SOL     OW38815   0.872   2.266   4.597  0.3257 -0.9206  0.3103
 9119SOL    HW138816   0.835   2.331   4.537  1.2547 -2.1372 -1.5680
 9119SOL    HW238817   0.861   2.313   4.680  2.7576 -0.5265  0.3936
 9120SOL     OW38818   2.706   2.226   4.867  0.2649  0.0427 -0.0540
 9120SOL    HW138819   2.791   2.262   4.842 -0.4072  1.6432  0.0271
 9120SOL    HW238820   2.733   2.136   4.889 -2.3601 -0.0588  2.7797
 9121SOL     OW38821   4.384   4.567   7.169 -0.3341 -0.3808  0.2967
 9121SOL    HW138822   4.444   4.635   7.138 -0.8485  0.0336  0.2270
 9121SOL    HW238823   4.409   4.556   7.261 -2.2722 -0.4489  0.8194
 9122SOL     OW38824   3.068   0.527   2.408 -0.3675 -0.3678  0.3590
 9122SOL    HW138825   2.993   0.528   2.349 -0.9994  3.5088  1.2778
 9122SOL    HW238826   3.119   0.597   2.368  0.5957  0.6707  3.3726
 9123SOL     OW38827   3.367   1.674   9.373 -0.0183 -0.4074 -0.5091
 9123SOL    HW138828   3.420   1.720   9.309 -0.4051  1.8991  0.8374
 9123SOL    HW238829   3.287   1.677   9.321 -1.3442  2.5766  1.7035
 9124SOL     OW38830   2.844   0.309   5.158 -0.6555 -0.0078  0.0813
 9124SOL    HW138831   2.888   0.389   5.185  2.7570 -1.3916 -1.4407
 9124SOL    HW238832   2.917   0.247   5.164 -0.4889  0.2103  0.2828
 9125SOL     OW38833   3.813   0.197   8.589 -0.5379  0.2632  0.7514
 9125SOL    HW138834   3.840   0.286   8.612 -1.0895  0.4577  0.6460
 9125SOL    HW238835   3.863   0.163   8.663 -1.4944  1.3270  1.8887
 9126SOL     OW38836   2.564   1.385   5.208 -0.1561 -0.6237  0.3634
 9126SOL    HW138837   2.530   1.467   5.173 -1.8505 -1.4210  0.1713
 9126SOL    HW238838   2.547   1.407   5.300  1.1086  1.7006  0.0521
 9127SOL     OW38839   4.494   0.227   3.106 -0.0695  0.1819 -0.1613
 9127SOL    HW138840   4.547   0.172   3.048 -0.2211 -2.8124  2.5554
 9127SOL    HW238841   4.444   0.266   3.034 -0.9943 -1.0241 -0.1730
 9128SOL     OW38842   0.760   0.903   6.940 -0.2414  0.3749  0.0475
 9128SOL    HW138843   0.804   0.955   7.008  2.3043 -1.9828  0.1770
 9128SOL    HW238844   0.785   0.942   6.856 -1.1035  1.6211  0.3616
 9129SOL     OW38845   3.355   0.811   9.284  0.0656 -0.0860  0.2838
 9129SOL    HW138846   3.259   0.808   9.279  0.0655 -0.1701  0.3442
 9129SOL    HW238847   3.364   0.727   9.328  2.5527 -1.1382 -2.2177
 9130SOL     OW38848   2.503   0.369   5.299  0.6723  0.2698 -0.1878
 9130SOL    HW138849   2.414   0.333   5.294  0.2241  0.8411  3.7446
 9130SOL    HW238850   2.497   0.459   5.331 -3.1523 -0.0186 -0.0642
 9131SOL     OW38851   3.430   3.029   3.524 -0.0174 -0.2036 -0.3117
 9131SOL    HW138852   3.383   3.030   3.440 -0.5705  3.1477  0.0618
 9131SOL    HW238853   3.360   3.022   3.589  0.3989  0.8638  0.2356
 9132SOL     OW38854   1.047   3.198   9.001 -0.1256  0.3498  0.8054
 9132SOL    HW138855   1.025   3.223   8.911 -0.2907 -1.1014  0.4304
 9132SOL    HW238856   1.067   3.105   8.986 -2.6455 -0.1285  0.4020
 9133SOL     OW38857   2.179   3.404   5.134  0.0290 -0.2022 -0.0998
 9133SOL    HW138858   2.250   3.394   5.069 -2.2095  1.4393 -2.7981
 9133SOL    HW238859   2.163   3.309   5.132  1.5379 -0.4615  0.0665
 9134SOL     OW38860   1.850   4.561   4.460 -0.4184  0.0896 -0.4763
 9134SOL    HW138861   1.857   4.467   4.471 -0.7776  0.0450 -0.6225
 9134SOL    HW238862   1.802   4.570   4.542 -0.9659 -0.2290 -0.7645
 9135SOL     OW38863   2.377   2.354   2.228 -0.4332 -0.2998  0.6502
 9135SOL    HW138864   2.289   2.338   2.262 -0.9745 -0.3132 -0.7806
 9135SOL    HW238865   2.398   2.266   2.198 -0.3178  1.6171 -4.8391
 9136SOL     OW38866   1.965   0.605   9.188  0.0604  0.2956 -0.0977
 9136SOL    HW138867   1.897   0.544   9.160  1.2732 -0.4240 -1.4605
 9136SOL    HW238868   1.975   0.677   9.125  0.8718  1.0610  0.8995
 9137SOL     OW38869   1.268   1.190   7.036  0.6982  0.7520  0.2112
 9137SOL    HW138870   1.279   1.284   7.023  1.8040  0.9023  2.2329
 9137SOL    HW238871   1.347   1.161   6.989 -1.1464 -1.6837 -1.3940
 9138SOL     OW38872   4.383   4.528   4.055 -0.2825  0.6645  0.3282
 9138SOL    HW138873   4.340   4.525   3.970  1.2098 -2.6955 -0.3145
 9138SOL    HW238874   4.471   4.558   4.031  0.7101 -0.1667  2.8677
 9139SOL     OW38875   1.502   2.283   1.530  0.0257 -0.8712 -0.1350
 9139SOL    HW138876   1.569   2.352   1.525  0.7687 -1.8093 -2.8713
 9139SOL    HW238877   1.518   2.241   1.615  0.7375 -0.7455 -0.2033
 9140SOL     OW38878   3.214   0.525   5.255 -0.0642 -0.6028 -0.1451
 9140SOL    HW138879   3.243   0.569   5.175  0.0522  0.1077  0.2868
 9140SOL    HW238880   3.177   0.443   5.221 -4.3959  0.7466  1.3557
 9141SOL     OW38881   4.693   1.166   8.813  0.0445  0.7127 -0.0553
 9141SOL    HW138882   4.659   1.239   8.865  0.9794  0.9229  0.2611
 9141SOL    HW238883   4.664   1.194   8.726  1.2259 -0.0853 -0.7144
 9142SOL     OW38884   0.059   4.168   1.872  0.8074 -0.3908  0.1222
 9142SOL    HW138885   0.047   4.263   1.879  0.7559 -0.3997  0.1468
 9142SOL    HW238886   0.104   4.157   1.955  1.3598 -1.1300 -0.2747
 9143SOL     OW38887   3.080   0.894   2.670  0.3724 -0.7047  0.3316
 9143SOL    HW138888   2.987   0.916   2.666  0.4842 -0.6675 -2.3014
 9143SOL    HW238889   3.074   0.803   2.641 -0.0544 -1.6600  3.3795
 9144SOL     OW38890   1.014   3.756  11.525  0.2410 -0.1610 -0.2995
 9144SOL    HW138891   0.989   3.827  11.466  0.6682 -0.4172 -0.7811
 9144SOL    HW238892   0.956   3.698  11.476  0.1760  1.3331 -1.9655
 9145SOL     OW38893   1.011   1.712   5.081 -0.3739 -0.1952  0.0104
 9145SOL    HW138894   1.029   1.768   5.157 -2.4010  0.1221  0.2583
 9145SOL    HW238895   1.029   1.774   5.011  2.4892 -2.6768 -1.4229
 9146SOL     OW38896   3.715   1.157   6.464  0.3175  0.3971 -0.3296
 9146SOL    HW138897   3.683   1.142   6.375 -1.1894  1.4419  0.0292
 9146SOL    HW238898   3.796   1.107   6.456 -0.9155 -1.2769 -2.2743
 9147SOL     OW38899   3.299   4.100  17.549 -0.2914 -0.2293 -0.1138
 9147SOL    HW138900   3.240   4.066  17.617 -2.2188 -0.7098 -2.0287
 9147SOL    HW238901   3.343   4.172  17.594 -0.3847 -2.3281  3.2888
 9148SOL     OW38902   1.137   4.421  13.408  0.8728 -0.2126 -0.8583
 9148SOL    HW138903   1.098   4.422  13.495  1.0680  0.5693 -0.7776
 9148SOL    HW238904   1.056   4.436  13.358 -0.1420  0.2474  0.9085
 9149SOL     OW38905   3.812   4.142   4.044 -0.3655 -0.3892 -0.7018
 9149SOL    HW138906   3.737   4.085   4.026 -0.4659 -0.2053 -0.8584
 9149SOL    HW238907   3.824   4.124   4.137  0.9788  1.9795 -0.4125
 9150SOL     OW38908   2.736   3.858   5.308 -0.3206  0.0656 -0.5623
 9150SOL    HW138909   2.656   3.910   5.293 -0.4766 -0.4107 -1.3475
 9150SOL    HW238910   2.780   3.911   5.375 -1.4129 -0.1360  0.3304
 9151SOL     OW38911   1.172   4.604  15.623  0.2917  0.3812 -0.2461
 9151SOL    HW138912   1.211   4.541  15.563 -0.3531 -0.1611 -0.0915
 9151SOL    HW238913   1.143   4.671  15.561 -1.1764  1.9043  2.0871
 9152SOL     OW38914   4.297   3.992   0.127 -0.5072  0.2637  0.4051
 9152SOL    HW138915   4.275   4.045   0.203 -0.9775  1.5429 -0.6151
 9152SOL    HW238916   4.382   3.955   0.151  0.7996  1.8056 -1.7623
 9153SOL     OW38917   3.276   2.954   8.092 -0.2128 -0.0714  0.8231
 9153SOL    HW138918   3.239   2.867   8.105  0.8580 -0.7156 -0.4066
 9153SOL    HW238919   3.368   2.941   8.069  0.6411  2.5456  2.7834
 9154SOL     OW38920   4.310   3.464   3.410  0.1043  0.1359 -0.2548
 9154SOL    HW138921   4.368   3.405   3.361 -0.7048 -1.3469  0.5820
 9154SOL    HW238922   4.361   3.545   3.406  0.2924 -0.0566 -1.9621
 9155SOL     OW38923   1.597   3.682  10.432  0.3437  0.5177 -0.2868
 9155SOL    HW138924   1.620   3.715  10.346 -0.1850 -1.8020 -1.3230
 9155SOL    HW238925   1.683   3.690  10.473  0.2239 -2.2532  0.5225
 9156SOL     OW38926   4.227   0.115   2.437 -0.0324  0.5185  0.1765
 9156SOL    HW138927   4.237   0.204   2.471  2.6538 -0.4741  2.0488
 9156SOL    HW238928   4.150   0.134   2.385 -0.7429  0.2129  1.1131
 9157SOL     OW38929   4.133   4.668  13.984  0.3300 -0.1805  0.0777
 9157SOL    HW138930   4.050   4.711  13.964  1.1605  0.7541 -1.3414
 9157SOL    HW238931   4.165   4.628  13.903  0.0510  0.2442 -0.2427
 9158SOL     OW38932   3.390   4.228   2.749 -0.0990  0.0386  0.6469
 9158SOL    HW138933   3.483   4.222   2.772  0.0073 -2.3023 -0.4556
 9158SOL    HW238934   3.352   4.244   2.836  1.1667 -3.0311  1.7432
 9159SOL     OW38935   3.777   0.636   6.058  0.0190  0.4670 -0.0650
 9159SOL    HW138936   3.750   0.549   6.028 -0.7961  0.6229  0.2291
 9159SOL    HW238937   3.812   0.623   6.146  0.5081  0.1953 -0.2986
 9160SOL     OW38938   2.711   2.236   4.478 -0.7282  0.0657  0.0742
 9160SOL    HW138939   2.780   2.189   4.526  1.3646  0.3786 -2.6418
 9160SOL    HW238940   2.756   2.316   4.453 -1.6488 -0.0939 -2.0552
 9161SOL     OW38941   1.293   2.313  10.543  0.3579  0.0085 -0.4514
 9161SOL    HW138942   1.233   2.288  10.613  1.3276  0.5541  0.5892
 9161SOL    HW238943   1.279   2.239  10.484  0.6336  1.1898 -1.9750
 9162SOL     OW38944   0.354   0.087   6.955 -0.1962  0.2448  0.6434
 9162SOL    HW138945   0.365   0.178   6.928  0.5798 -0.0263  0.0381
 9162SOL    HW238946   0.411   0.050   6.888 -0.9759 -0.1565  0.2059
 9163SOL     OW38947   0.465   3.271  15.091 -0.1011  0.4762  0.5175
 9163SOL    HW138948   0.447   3.232  15.176 -0.7799 -0.1448  0.0908
 9163SOL    HW238949   0.379   3.296  15.057 -0.2797  0.4685  0.9713
 9164SOL     OW38950   3.947   1.125   7.285  0.5600 -0.2189 -0.4027
 9164SOL    HW138951   3.873   1.080   7.246  0.4911 -1.3278  1.0131
 9164SOL    HW238952   3.918   1.135   7.376 -1.1380  1.2733 -1.1247
 9165SOL     OW38953   4.706   4.083   5.890  0.0914  0.1348 -0.0313
 9165SOL    HW138954   4.627   4.132   5.866 -1.2233 -0.8983  2.2000
 9165SOL    HW238955   4.659   4.021   5.945 -1.0911  0.8717 -0.2048
 9166SOL     OW38956   2.011   3.763   7.967  0.2281 -0.2809  0.2537
 9166SOL    HW138957   2.010   3.677   8.008 -1.2598 -0.6403 -0.5548
 9166SOL    HW238958   1.922   3.793   7.988  0.4350  1.0178 -0.7101
 9167SOL     OW38959   1.664   2.256   2.956  0.0740 -0.2477  0.2119
 9167SOL    HW138960   1.673   2.343   2.917 -1.1777 -0.6440 -0.9468
 9167SOL    HW238961   1.578   2.224   2.929  0.0099 -0.0288  0.1570
 9168SOL     OW38962   0.622   4.154   8.609 -0.1748 -0.2411 -0.4585
 9168SOL    HW138963   0.681   4.228   8.625 -0.8047  0.6181 -2.1425
 9168SOL    HW238964   0.687   4.086   8.621 -1.0617 -1.0677 -0.3318
 9169SOL     OW38965   2.998   3.031   6.473  0.1643 -0.1836 -0.1718
 9169SOL    HW138966   2.955   3.114   6.493 -0.3448 -0.2391 -1.0558
 9169SOL    HW238967   2.956   2.959   6.521 -1.0077 -0.0650 -1.0293
 9170SOL     OW38968   1.520   0.001   2.267  0.0440 -0.5582  0.1007
 9170SOL    HW138969   1.498   4.681   2.185 -2.7115 -0.4838  0.7977
 9170SOL    HW238970   1.478   4.664   2.328 -1.5549  0.2636 -0.1652
 9171SOL     OW38971   1.077   1.512   3.817 -0.3390  0.4045  0.5168
 9171SOL    HW138972   1.122   1.439   3.775  0.2137  0.4377  1.0450
 9171SOL    HW238973   1.153   1.560   3.852 -1.0739  1.9360  0.0337
 9172SOL     OW38974   4.667   4.646   9.729 -0.2029 -0.5027  0.1479
 9172SOL    HW138975   4.604   4.617   9.663 -0.0258  0.0029 -0.2465
 9172SOL    HW238976   4.616   4.674   9.804 -0.0298 -0.0843  0.1141
 9173SOL     OW38977   2.228   2.088   2.677 -0.6218 -0.0960 -0.1278
 9173SOL    HW138978   2.146   2.082   2.726  0.0274  1.6893  1.1686
 9173SOL    HW238979   2.244   2.182   2.663 -0.0672  0.1086  1.8525
 9174SOL     OW38980   0.949   1.834  10.477  0.4597  0.6402 -0.0620
 9174SOL    HW138981   0.880   1.786  10.522  1.0828 -0.0838  0.1310
 9174SOL    HW238982   0.957   1.916  10.525 -0.0037  1.9572 -2.2503
 9175SOL     OW38983   2.939   1.764   1.492  0.4168 -0.2380 -0.3654
 9175SOL    HW138984   2.891   1.757   1.575 -0.5818 -0.8334 -0.9900
 9175SOL    HW238985   3.031   1.749   1.512 -0.2544 -1.6657  1.7153
 9176SOL     OW38986   3.485   0.976   3.648  0.4476 -0.1742 -0.3036
 9176SOL    HW138987   3.443   0.892   3.633  0.3674  0.1130 -1.7008
 9176SOL    HW238988   3.569   0.946   3.682  0.9137  0.5405 -0.8156
 9177SOL     OW38989   1.232   2.112   6.826 -0.0452 -0.1157  0.1630
 9177SOL    HW138990   1.289   2.084   6.754  0.6579 -0.1027  0.7072
 9177SOL    HW238991   1.295   2.118   6.898  0.0119  0.8872  0.0159
 9178SOL     OW38992   3.254   2.919   9.751  0.4856 -0.0618  0.6202
 9178SOL    HW138993   3.230   3.007   9.723  0.3946  0.2735  1.7490
 9178SOL    HW238994   3.268   2.877   9.666  3.0173 -1.8813  1.9518
 9179SOL     OW38995   1.887   0.230   6.940  0.1152 -0.0091  0.2338
 9179SOL    HW138996   1.792   0.234   6.952  0.0989  0.3316 -0.0101
 9179SOL    HW238997   1.916   0.274   7.020 -0.5335 -1.6552  1.3482
 9180SOL     OW38998   4.393   3.981  10.256  0.9503 -0.4322  0.1040
 9180SOL    HW138999   4.405   3.891  10.227 -1.4619 -0.0394 -2.1648
 9180SOL    HW239000   4.302   3.974  10.285  0.9925  1.2693  0.6534
 9181SOL     OW39001   2.484   0.080   9.012  0.1088 -0.4352  0.1694
 9181SOL    HW139002   2.477   4.709   9.028  1.6581 -0.4327  0.8506
 9181SOL    HW239003   2.426   0.107   9.084 -2.0246  0.6769 -1.9456
 9182SOL     OW39004   1.807   2.746   2.470  0.3603 -0.1645 -0.3017
 9182SOL    HW139005   1.787   2.724   2.379 -1.2060 -0.2662  0.0697
 9182SOL    HW239006   1.877   2.811   2.460  0.2265 -0.2233 -1.6982
 9183SOL     OW39007   0.231   0.715   6.448 -0.3592  0.1389  0.7766
 9183SOL    HW139008   0.286   0.766   6.388 -1.0688 -0.6864 -0.5885
 9183SOL    HW239009   0.295   0.669   6.502  1.8564 -0.2454 -2.1577
 9184SOL     OW39010   2.859   1.444   2.809 -0.2350 -0.5264 -1.2805
 9184SOL    HW139011   2.813   1.512   2.760  0.5392  0.6198 -0.4369
 9184SOL    HW239012   2.933   1.500   2.833 -2.0701  2.3575 -2.3314
 9185SOL     OW39013   1.790   0.298   1.857  0.2623 -0.2903  0.0025
 9185SOL    HW139014   1.840   0.379   1.854 -0.8719  0.5915  4.4454
 9185SOL    HW239015   1.834   0.242   1.922 -0.4290  0.1662  0.8725
 9186SOL     OW39016   2.470   4.719  16.674  0.2829  0.1632  0.3186
 9186SOL    HW139017   2.546   4.713  16.616  0.2312  2.4753 -0.0080
 9186SOL    HW239018   2.524   4.708  16.752 -1.4327 -1.2438  1.2901
 9187SOL     OW39019   4.339   3.654   4.273  0.4887 -0.7963  0.1231
 9187SOL    HW139020   4.285   3.575   4.264 -0.2922 -0.2699  0.1989
 9187SOL    HW239021   4.383   3.643   4.189 -1.3588  1.0933 -1.0896
 9188SOL     OW39022   2.665   4.338   6.358 -0.4450  0.5829 -0.2521
 9188SOL    HW139023   2.601   4.389   6.408 -1.4893 -0.4852 -0.4928
 9188SOL    HW239024   2.743   4.391   6.372  2.9001 -4.1399 -1.2611
 9189SOL     OW39025   3.965   2.424   2.279 -0.1254  0.8248 -0.2318
 9189SOL    HW139026   3.873   2.402   2.296  0.7595 -1.5367  1.5007
 9189SOL    HW239027   4.007   2.341   2.301  0.0810  1.2954  1.1258
 9190SOL     OW39028   0.220   4.468   3.437  0.3678 -0.6858 -0.1807
 9190SOL    HW139029   0.172   4.503   3.362 -0.3521 -1.6619 -0.1886
 9190SOL    HW239030   0.215   4.375   3.415 -0.2355 -0.6906 -0.0246
 9191SOL     OW39031   0.421   1.988   5.462 -0.1046  0.6401  0.3625
 9191SOL    HW139032   0.347   2.027   5.509  0.2706 -1.5718  2.7940
 9191SOL    HW239033   0.383   1.970   5.376  0.8065 -2.0344  0.5013
 9192SOL     OW39034   3.635   0.999   2.278  0.1609  0.4211  0.2380
 9192SOL    HW139035   3.599   0.973   2.362 -0.5686  0.1575 -0.1637
 9192SOL    HW239036   3.727   0.977   2.296 -0.1512 -0.1372  1.1117
 9193SOL     OW39037   3.626   2.055   8.125  0.1757 -0.5605 -0.0052
 9193SOL    HW139038   3.564   2.106   8.177  0.6698 -0.2941  0.3200
 9193SOL    HW239039   3.675   2.012   8.194  1.1888 -1.3516 -1.2108
 9194SOL     OW39040   1.227   2.362   3.262 -0.8367 -0.0494  0.1799
 9194SOL    HW139041   1.306   2.409   3.236 -0.0851 -1.7039 -0.5290
 9194SOL    HW239042   1.256   2.281   3.302  2.3241 -0.2957 -2.6408
 9195SOL     OW39043   3.707   1.904  16.178  0.1661  0.1175 -0.0572
 9195SOL    HW139044   3.623   1.936  16.145  0.1268 -2.4983 -2.4964
 9195SOL    HW239045   3.724   1.822  16.130 -0.7573 -0.8427  1.2696
 9196SOL     OW39046   0.284   1.399  17.171  0.0286 -0.0967 -0.1045
 9196SOL    HW139047   0.192   1.407  17.147  0.8390 -0.4036 -3.3340
 9196SOL    HW239048   0.325   1.476  17.130  1.3225  1.1290  3.4740
 9197SOL     OW39049   4.193   2.273   0.802  0.6083 -0.1012  0.3883
 9197SOL    HW139050   4.229   2.260   0.714 -0.9077 -2.4157  0.1216
 9197SOL    HW239051   4.262   2.319   0.851  0.8475 -0.7930  0.7062
 9198SOL     OW39052   4.719   1.843   3.702  0.1142  0.3656 -0.0305
 9198SOL    HW139053   4.688   1.823   3.614 -1.7985  0.2148  0.6767
 9198SOL    HW239054   4.636   1.857   3.747  0.6549 -0.0540  1.1068
 9199SOL     OW39055   1.919   0.111   6.069 -0.0752 -1.4151  0.4025
 9199SOL    HW139056   1.850   0.069   6.018 -1.7380  1.4698  0.3022
 9199SOL    HW239057   1.956   0.035   6.114  0.8794 -1.3904 -0.3438
 9200SOL     OW39058   3.654   4.405  15.221  0.2481  0.4536 -0.0518
 9200SOL    HW139059   3.614   4.474  15.273  1.4263  1.1592 -0.0739
 9200SOL    HW239060   3.646   4.462  15.145 -1.2876  1.3093  0.7694
 9201SOL     OW39061   1.465   0.157   3.314  0.1197 -0.9065  0.0165
 9201SOL    HW139062   1.449   0.063   3.318 -0.4553 -0.9561 -2.8978
 9201SOL    HW239063   1.386   0.196   3.276  0.1522  0.6147  1.5298
 9202SOL     OW39064   0.864   4.171   6.528 -0.2569 -0.1943  0.3698
 9202SOL    HW139065   0.819   4.151   6.446  0.7045 -3.0980  0.5709
 9202SOL    HW239066   0.801   4.236   6.561 -0.9784 -1.5940  1.7309
 9203SOL     OW39067   2.417   0.795  14.499  0.1095 -0.4699 -0.1308
 9203SOL    HW139068   2.408   0.890  14.506  0.5663 -0.3608 -0.9496
 9203SOL    HW239069   2.345   0.774  14.558 -0.6427  1.3330 -0.3966
 9204SOL     OW39070   1.399   2.732   0.063  0.1916 -0.4904  0.8991
 9204SOL    HW139071   1.307   2.707   0.057  0.4836 -1.3455 -0.2003
 9204SOL    HW239072   1.402   2.784   0.143 -0.8900  1.2575 -0.2102
 9205SOL     OW39073   3.301   1.094  16.774  0.2646 -0.2155  0.0737
 9205SOL    HW139074   3.359   1.114  16.847 -1.9562  1.7953  1.2817
 9205SOL    HW239075   3.321   1.169  16.718 -0.0209 -1.7986 -2.1935
 9206SOL     OW39076   3.409   0.369   2.341  0.0749 -0.4465  0.5683
 9206SOL    HW139077   3.488   0.372   2.287 -2.0453 -1.6679 -2.5692
 9206SOL    HW239078   3.349   0.431   2.301  2.7968  1.2929 -0.8245
 9207SOL     OW39079   2.790   4.049   1.991  0.8289  0.2163 -0.2408
 9207SOL    HW139080   2.799   4.144   1.993  0.0825  0.2328  2.5831
 9207SOL    HW239081   2.834   4.029   2.074  1.3305 -2.2619 -1.0956
 9208SOL     OW39082   1.858   2.689   5.936  0.0798 -0.1853  0.1206
 9208SOL    HW139083   1.936   2.723   5.893 -0.3553  0.7332  0.0545
 9208SOL    HW239084   1.882   2.680   6.028 -0.8481  2.1312  0.5906
 9209SOL     OW39085   1.251   1.888   4.475 -0.1174  0.0124  0.4169
 9209SOL    HW139086   1.275   1.873   4.384 -0.8963  0.4794  0.1300
 9209SOL    HW239087   1.185   1.958   4.470  3.3209  3.1214 -1.1036
 9210SOL     OW39088   1.824   1.091   4.278  0.7273 -0.2458  0.2529
 9210SOL    HW139089   1.791   1.110   4.366 -0.6071  0.1377 -0.3343
 9210SOL    HW239090   1.845   0.998   4.277  1.1181 -0.1556 -0.0113
 9211SOL     OW39091   3.456   2.716  10.503  0.1843  0.4873  0.3582
 9211SOL    HW139092   3.455   2.708  10.408  1.2264 -1.1256  0.4755
 9211SOL    HW239093   3.390   2.651  10.527  0.6742  0.8282  2.7154
 9212SOL     OW39094   1.941   0.547  17.067  0.3012 -0.4354 -0.6159
 9212SOL    HW139095   1.860   0.578  17.027  0.9442 -0.0544 -1.6051
 9212SOL    HW239096   1.959   0.628  17.115 -0.8638 -0.6690  0.2260
 9213SOL     OW39097   1.120   2.863  17.149  0.2053  0.1245  0.5386
 9213SOL    HW139098   1.215   2.863  17.161  0.5259  2.0195 -1.7971
 9213SOL    HW239099   1.096   2.931  17.213  2.8477 -0.3794  2.0611
 9214SOL     OW39100   1.723   3.651   7.102  0.5801 -0.3464 -0.3561
 9214SOL    HW139101   1.638   3.687   7.078  0.1513 -1.8101 -1.0092
 9214SOL    HW239102   1.724   3.566   7.058  0.5500 -0.8995  0.7112
 9215SOL     OW39103   1.016   3.721   4.410  0.5437  0.2794  0.4895
 9215SOL    HW139104   0.996   3.777   4.485 -1.7875 -0.4103  0.3791
 9215SOL    HW239105   1.045   3.646   4.460 -0.0337 -1.1735 -1.3507
 9216SOL     OW39106   2.986   2.678  15.991 -0.3553  0.2677 -0.5201
 9216SOL    HW139107   2.996   2.583  15.983  1.5903  0.5817 -2.0378
 9216SOL    HW239108   3.048   2.693  15.919 -0.4080 -1.1190 -0.8586
 9217SOL     OW39109   2.921   3.766   9.050 -0.1525  0.2640 -0.3505
 9217SOL    HW139110   2.985   3.723   8.993  1.4122 -1.7011  2.9236
 9217SOL    HW239111   2.948   3.728   9.134 -1.0021 -1.9003 -1.0523
 9218SOL     OW39112   3.974   4.607   0.048  0.4534 -0.5317 -0.1158
 9218SOL    HW139113   3.890   4.641   0.015  1.2796 -0.0786 -1.7174
 9218SOL    HW239114   3.947   4.572   0.133 -0.7487  0.4813 -0.0720
 9219SOL     OW39115   4.494   3.925  13.974 -0.7203 -0.1549 -0.3349
 9219SOL    HW139116   4.466   3.846  13.928 -0.3365 -0.3844 -0.1769
 9219SOL    HW239117   4.580   3.897  14.006 -1.0578  0.3617  1.0232
 9220SOL     OW39118   3.343   4.209   7.348 -0.3557 -0.2019 -0.2145
 9220SOL    HW139119   3.395   4.134   7.379  2.3288  1.5470 -0.4469
 9220SOL    HW239120   3.394   4.282   7.385  1.7427 -2.2343  0.9653
 9221SOL     OW39121   2.215   1.425   0.562  0.1445  0.0268  0.0519
 9221SOL    HW139122   2.154   1.427   0.635 -2.0861 -2.5668 -1.7603
 9221SOL    HW239123   2.256   1.339   0.571  1.5194  0.5131 -1.5834
 9222SOL     OW39124   2.098   2.559   8.648  0.0590 -0.2745 -0.1310
 9222SOL    HW139125   2.149   2.519   8.718  0.2085  2.2249  1.1902
 9222SOL    HW239126   2.155   2.551   8.571  0.8678 -1.7076  0.6200
 9223SOL     OW39127   0.624   2.993   7.291  0.2668 -0.2087 -0.4835
 9223SOL    HW139128   0.560   3.018   7.224 -0.8104 -0.6369  0.3772
 9223SOL    HW239129   0.705   3.029   7.257  0.9187 -2.3268 -1.1915
 9224SOL     OW39130   0.213   1.191   3.632  0.3182  0.0598  0.3250
 9224SOL    HW139131   0.294   1.149   3.660  0.7141  0.9017  0.4632
 9224SOL    HW239132   0.154   1.123   3.602  0.6607  0.1395 -0.5233
 9225SOL     OW39133   1.013   4.202   9.966  0.3754 -0.4875  0.6185
 9225SOL    HW139134   0.975   4.130  10.017  2.2654 -0.6222  1.8196
 9225SOL    HW239135   0.965   4.276  10.005 -0.5665 -0.7739  0.0028
 9226SOL     OW39136   3.241   4.576   8.154  0.1340 -0.2096  0.5066
 9226SOL    HW139137   3.283   4.611   8.232 -0.8938 -0.4736  1.1736
 9226SOL    HW239138   3.284   4.623   8.082 -0.8800 -0.7012 -0.4227
 9227SOL     OW39139   2.999   3.213   7.395  0.5979  0.7421 -0.0276
 9227SOL    HW139140   3.035   3.181   7.312 -0.3642 -1.0174  0.2433
 9227SOL    HW239141   3.021   3.306   7.396 -0.2964  0.9684 -1.4470
 9228SOL     OW39142   2.748   2.704  15.066 -0.3768  0.2111 -0.1267
 9228SOL    HW139143   2.798   2.723  15.145 -1.7771 -0.4414  0.9044
 9228SOL    HW239144   2.821   2.681  15.009  0.0029 -0.2323  0.5487
 9229SOL     OW39145   0.934   1.933   9.013 -0.0822 -0.6424  0.4678
 9229SOL    HW139146   1.011   1.924   9.069  1.6177  0.6400 -1.6777
 9229SOL    HW239147   0.939   2.025   8.988  2.0235 -0.2409  2.3137
 9230SOL     OW39148   3.082   3.942   6.809 -0.4230 -0.2335 -0.4563
 9230SOL    HW139149   3.140   3.983   6.873 -0.5894 -1.0951  0.2489
 9230SOL    HW239150   2.997   3.923   6.850 -1.0580  2.3335 -0.5806
 9231SOL     OW39151   2.976   0.089   3.128 -0.1946 -0.0599 -0.6302
 9231SOL    HW139152   2.933   0.011   3.163 -2.7233  1.1581 -0.9702
 9231SOL    HW239153   2.935   0.100   3.042  1.7679 -0.9004 -1.6546
 9232SOL     OW39154   3.715   1.864   9.310  0.7664  0.1588  0.0320
 9232SOL    HW139155   3.631   1.878   9.266 -1.1323 -0.7249  3.3522
 9232SOL    HW239156   3.689   1.820   9.391 -2.0587 -1.9680 -2.0454
 9233SOL     OW39157   4.686   4.405   4.826  0.0155  0.8213 -0.3981
 9233SOL    HW139158   4.706   4.379   4.916  3.5157  2.3784 -0.7385
 9233SOL    HW239159   4.658   4.320   4.791 -0.4922  0.3260  1.1955
 9234SOL     OW39160   1.192   4.484   9.857 -0.0198 -0.1029  0.3027
 9234SOL    HW139161   1.264   4.536   9.893 -1.1694 -1.1536  4.1330
 9234SOL    HW239162   1.149   4.453   9.937 -0.2356  1.9900  0.9927
 9235SOL     OW39163   1.840   1.862  15.641 -0.3165 -0.1007 -0.1240
 9235SOL    HW139164   1.756   1.845  15.684  0.9222  0.9866  2.7304
 9235SOL    HW239165   1.858   1.770  15.622  1.2307  1.0643 -4.2231
 9236SOL     OW39166   1.689   1.442   3.355  0.2758  0.0884 -0.4475
 9236SOL    HW139167   1.742   1.453   3.434 -0.7087 -2.6401  0.5721
 9236SOL    HW239168   1.597   1.436   3.381  0.1806 -0.8616 -1.0141
 9237SOL     OW39169   2.879   4.365   4.317  0.3588 -0.6772  0.3124
 9237SOL    HW139170   2.786   4.386   4.305  1.2513  2.0103 -2.0029
 9237SOL    HW239171   2.900   4.365   4.223  2.0196  0.3026  0.6916
 9238SOL     OW39172   4.455   3.665  13.197 -0.1753  0.1092 -0.9064
 9238SOL    HW139173   4.480   3.745  13.244  1.5942 -1.5689  0.9713
 9238SOL    HW239174   4.428   3.603  13.264 -0.7898 -1.2665 -2.4271
 9239SOL     OW39175   4.301   1.073  15.253  0.0083  0.7093 -0.0964
 9239SOL    HW139176   4.279   1.165  15.241  1.4973  1.3203  1.9666
 9239SOL    HW239177   4.263   1.052  15.167 -0.8795  0.0473  0.4515
 9240SOL     OW39178   0.922   3.944  16.117  0.2599 -0.0722  0.4827
 9240SOL    HW139179   0.872   4.018  16.153  0.2804 -0.7742  1.9415
 9240SOL    HW239180   0.865   3.917  16.044 -1.2200  0.9109  1.2771
 9241SOL     OW39181   3.106   3.300   1.454 -0.1183  0.3217  0.1488
 9241SOL    HW139182   3.201   3.302   1.441 -0.1143  1.1779  0.2815
 9241SOL    HW239183   3.097   3.387   1.493 -0.6648 -0.2738  1.3672
 9242SOL     OW39184   1.053   2.923  14.285 -0.3516  0.3395  0.5539
 9242SOL    HW139185   1.038   2.917  14.190  0.4823 -0.4245  0.4800
 9242SOL    HW239186   0.987   2.860  14.314  1.2391 -1.1637  0.8238
 9243SOL     OW39187   2.007   3.312   0.730  0.7520  0.4207  0.0559
 9243SOL    HW139188   2.051   3.298   0.647 -1.7882  2.8019 -1.6796
 9243SOL    HW239189   2.081   3.330   0.788  1.0917  0.6904 -0.4719
 9244SOL     OW39190   3.860   0.183   9.234  0.4879 -0.1362  0.6964
 9244SOL    HW139191   3.822   0.129   9.165  0.5623  2.5340 -1.4377
 9244SOL    HW239192   3.834   0.130   9.309 -0.2591  1.7909  1.7971
 9245SOL     OW39193   3.718   2.316   1.738 -0.2342  0.0101 -0.1005
 9245SOL    HW139194   3.717   2.400   1.784 -1.1983 -1.3091  2.2427
 9245SOL    HW239195   3.644   2.324   1.676 -1.0635 -1.6810  0.6724
 9246SOL     OW39196   1.709   3.965   7.887 -0.2608  0.1609 -0.2804
 9246SOL    HW139197   1.765   3.983   7.811 -1.1514  1.2292 -0.6826
 9246SOL    HW239198   1.674   3.877   7.875  1.5930 -0.5534 -0.4959
 9247SOL     OW39199   1.875   3.050   5.570 -0.1092 -0.5533  0.0750
 9247SOL    HW139200   1.789   3.090   5.559  0.7061  1.0683 -0.4384
 9247SOL    HW239201   1.917   3.080   5.489  1.1793 -0.9507  0.6050
 9248SOL     OW39202   2.427   0.085   7.472 -0.5454  0.2196  0.4030
 9248SOL    HW139203   2.400   0.153   7.533 -0.1346  0.2187  0.5854
 9248SOL    HW239204   2.403   0.126   7.389  0.9934 -1.0223 -0.6644
 9249SOL     OW39205   1.372   4.576   4.891 -0.0939  0.2415 -0.0204
 9249SOL    HW139206   1.432   4.621   4.950 -0.8076  0.9730  0.1291
 9249SOL    HW239207   1.425   4.496   4.891 -0.1238  0.2196  1.7659
 9250SOL     OW39208   3.129   0.283   6.185 -0.4208  0.2507 -0.7004
 9250SOL    HW139209   3.072   0.270   6.109  1.4882  0.3902 -2.1694
 9250SOL    HW239210   3.068   0.260   6.255 -0.0205  1.3747  0.0238
 9251SOL     OW39211   1.561   2.565   1.709  0.4911 -0.9498 -0.4060
 9251SOL    HW139212   1.527   2.653   1.726  1.3516 -1.1852  2.5328
 9251SOL    HW239213   1.627   2.577   1.641 -0.5495  0.7439 -1.1050
 9252SOL     OW39214   1.246   0.788   3.617 -0.4445  0.0449  0.8563
 9252SOL    HW139215   1.339   0.808   3.623 -0.3675  0.7864 -2.7171
 9252SOL    HW239216   1.232   0.726   3.689 -0.3950  0.0344  0.8566
 9253SOL     OW39217   0.785   4.373   9.235 -0.4517  0.7268  0.1902
 9253SOL    HW139218   0.692   4.393   9.238 -0.6304 -0.0218 -0.3206
 9253SOL    HW239219   0.793   4.278   9.240 -0.0678  0.6212 -2.5003
 9254SOL     OW39220   1.748   1.124  13.030  0.4017 -0.3048 -0.2518
 9254SOL    HW139221   1.687   1.197  13.030 -1.6081 -1.9886 -0.0287
 9254SOL    HW239222   1.701   1.085  12.956  0.0973  0.4379 -0.4512
 9255SOL     OW39223   3.247   0.208   9.723  0.6932 -0.5706  0.2506
 9255SOL    HW139224   3.279   0.297   9.734 -0.0337 -0.6065  2.7197
 9255SOL    HW239225   3.221   0.180   9.811 -0.0142  1.3747  0.6616
 9256SOL     OW39226   3.885   2.458   7.118 -0.0454  0.6488  1.0830
 9256SOL    HW139227   3.865   2.402   7.042 -1.0267  1.1338  0.9867
 9256SOL    HW239228   3.944   2.400   7.166 -1.2809 -0.4974  1.2187
 9257SOL     OW39229   4.147   0.220   4.014 -0.0474  0.7517  0.3093
 9257SOL    HW139230   4.224   0.165   4.029 -0.4819  0.2618  0.7608
 9257SOL    HW239231   4.174   0.308   4.041  1.6236  0.9574 -2.1367
 9258SOL     OW39232   1.761   2.306   0.020 -0.2562 -0.2806  0.5096
 9258SOL    HW139233   1.782   2.306   0.114  3.8398 -0.5606 -0.3989
 9258SOL    HW239234   1.668   2.302   0.041 -0.4560 -0.5481 -0.4416
 9259SOL     OW39235   3.016   3.273   6.922 -0.0514 -0.0307  0.2368
 9259SOL    HW139236   2.946   3.229   6.874  1.2594 -1.0087 -0.7801
 9259SOL    HW239237   2.959   3.305   6.991  0.7487 -2.8598  2.2465
 9260SOL     OW39238   1.829   2.585   7.180  0.3771 -0.0397 -0.2890
 9260SOL    HW139239   1.859   2.664   7.134  0.5008  0.6307  0.9578
 9260SOL    HW239240   1.896   2.572   7.246  0.3915 -1.3960 -0.5806
 9261SOL     OW39241   0.988   3.958   4.972  1.1904 -0.8239 -0.4744
 9261SOL    HW139242   1.044   4.033   4.994 -0.5400  0.4226 -0.2835
 9261SOL    HW239243   0.967   3.984   4.883 -0.9488  0.1869  0.3317
 9262SOL     OW39244   2.409   2.452   4.175  0.7759  0.2607 -0.5160
 9262SOL    HW139245   2.458   2.471   4.254  2.0193 -2.7297 -0.5867
 9262SOL    HW239246   2.452   2.375   4.139  1.6215  0.0931  0.8983
 9263SOL     OW39247   1.599   1.881   3.376  0.2286  0.2214  0.2746
 9263SOL    HW139248   1.617   1.826   3.299 -1.6096 -1.9000  1.3820
 9263SOL    HW239249   1.520   1.837   3.405  0.9109 -1.1565  0.0605
 9264SOL     OW39250   2.956   3.419  10.331 -1.0552  0.3160  0.3609
 9264SOL    HW139251   2.979   3.453  10.418  0.7229 -0.9080  0.3791
 9264SOL    HW239252   3.029   3.455  10.282 -0.2061 -1.0028  0.6657
 9265SOL     OW39253   3.394   2.941   1.313 -0.0376  0.5838 -0.7076
 9265SOL    HW139254   3.364   2.937   1.404 -1.0169 -0.0641 -1.0621
 9265SOL    HW239255   3.367   2.859   1.271 -0.6057 -0.0494  0.8931
 9266SOL     OW39256   0.221   1.537   0.407  0.0923  0.0024  1.0804
 9266SOL    HW139257   0.280   1.597   0.454  0.7936 -1.4077  1.9979
 9266SOL    HW239258   0.204   1.584   0.326 -1.7486  1.0500  2.0813
 9267SOL     OW39259   1.741   0.750  17.018 -0.3511  0.3776 -0.3019
 9267SOL    HW139260   1.781   0.760  16.931  0.8042 -1.3058  0.0327
 9267SOL    HW239261   1.696   0.832  17.038  1.5896  1.1079  1.0441
 9268SOL     OW39262   2.247   2.717   7.583  0.2498  0.3898  0.1181
 9268SOL    HW139263   2.274   2.775   7.512  1.9258  2.4737  2.4714
 9268SOL    HW239264   2.156   2.746   7.576  0.9930  2.4660 -0.8817
 9269SOL     OW39265   4.071   2.332   6.515 -0.7862  0.3659 -0.1727
 9269SOL    HW139266   4.042   2.360   6.428  0.0895  1.7634 -0.0103
 9269SOL    HW239267   4.055   2.415   6.560 -0.3425 -0.7918  2.1214
 9270SOL     OW39268   2.637   1.326   3.802  0.1392  0.2254  0.3286
 9270SOL    HW139269   2.619   1.349   3.893  0.6569  0.3226  0.4057
 9270SOL    HW239270   2.713   1.270   3.819  0.6625  0.5849 -0.8611
 9271SOL     OW39271   1.452   3.791   5.306  0.0893 -0.4164 -0.2367
 9271SOL    HW139272   1.429   3.707   5.345  2.1070 -0.4197  0.9693
 9271SOL    HW239273   1.519   3.822   5.366 -1.4702  1.1798  0.6521
 9272SOL     OW39274   3.886   4.369   1.289  0.1437  0.3124  0.6464
 9272SOL    HW139275   3.840   4.327   1.216  0.3939  3.2280 -1.2001
 9272SOL    HW239276   3.897   4.296   1.349 -1.3392  0.8736  1.6219
 9273SOL     OW39277   2.580   1.754   0.825 -0.4535  0.4205 -0.7218
 9273SOL    HW139278   2.646   1.709   0.771  0.2512 -2.2282  2.3595
 9273SOL    HW239279   2.621   1.763   0.911 -0.2820  1.1739 -0.8833
 9274SOL     OW39280   3.983   2.579   3.031  0.6828 -0.3741 -0.1394
 9274SOL    HW139281   3.995   2.501   2.977 -5.8024  0.2254 -2.3918
 9274SOL    HW239282   3.913   2.623   2.983  1.9796  0.1363 -1.5796
 9275SOL     OW39283   2.190   0.318   8.505 -0.2164 -0.2099 -0.2387
 9275SOL    HW139284   2.118   0.306   8.567 -0.0532  1.4759  0.2796
 9275SOL    HW239285   2.147   0.368   8.436  0.4922  0.3017 -0.3076
 9276SOL     OW39286   0.788   4.622   7.685 -0.9485 -0.0643  0.7271
 9276SOL    HW139287   0.758   4.564   7.614 -0.5607  0.0181  0.4914
 9276SOL    HW239288   0.730   4.698   7.686 -0.4607  0.2750  2.4928
 9277SOL     OW39289   0.072   2.128   8.670  0.4205  0.5379  0.3231
 9277SOL    HW139290   0.127   2.050   8.662  0.5073  0.8043 -1.5742
 9277SOL    HW239291   0.082   2.183   8.593 -0.3735  0.1543 -0.0548
 9278SOL     OW39292   0.074   2.191  14.555 -0.3665 -0.1621  0.5022
 9278SOL    HW139293   0.000   2.150  14.600 -0.6274  1.0082  1.1400
 9278SOL    HW239294   0.145   2.127  14.556 -0.0379  0.2547  4.7154
 9279SOL     OW39295   1.137   2.584   2.533  0.9130  0.0216  0.0053
 9279SOL    HW139296   1.119   2.527   2.458 -0.7278 -2.2777  2.1340
 9279SOL    HW239297   1.080   2.536   2.594  0.9469  0.8032  0.6448
 9280SOL     OW39298   1.551   4.072   6.153  0.4855  0.3206 -0.1408
 9280SOL    HW139299   1.509   4.043   6.234 -1.2203 -0.4128 -1.2862
 9280SOL    HW239300   1.581   4.161   6.172 -0.2008  0.5315 -0.0487
 9281SOL     OW39301   3.361   2.458  15.790 -0.5467  0.3291 -0.0256
 9281SOL    HW139302   3.346   2.479  15.698  0.0952 -1.1088 -0.4530
 9281SOL    HW239303   3.345   2.541  15.835  2.2930  1.1285 -0.4684
 9282SOL     OW39304   2.988   2.029  14.511 -0.0675  0.5538  0.2924
 9282SOL    HW139305   3.042   2.041  14.589  0.4833 -0.5585  0.0888
 9282SOL    HW239306   3.058   2.018  14.446  2.9775  0.5164  3.5925
 9283SOL     OW39307   2.241   3.846   7.643  0.4197  0.1912  0.6974
 9283SOL    HW139308   2.168   3.891   7.598 -0.2038 -1.7037 -0.1762
 9283SOL    HW239309   2.232   3.886   7.729  2.7702 -0.8438  1.4090
 9284SOL     OW39310   4.574   1.843   5.849 -0.0674 -0.1752 -1.0963
 9284SOL    HW139311   4.577   1.835   5.944 -0.1653  1.9901 -0.9074
 9284SOL    HW239312   4.635   1.914   5.830  0.8834 -0.3634  1.2158
 9285SOL     OW39313   2.335   2.429  12.067 -0.4459 -0.0881 -0.6018
 9285SOL    HW139314   2.340   2.519  12.035 -2.7897  1.1992  2.7471
 9285SOL    HW239315   2.240   2.423  12.063 -0.3647 -1.6814 -0.3557
 9286SOL     OW39316   3.668   2.887   1.067 -0.4089  0.3367  0.1059
 9286SOL    HW139317   3.638   2.891   0.977  0.5062  2.4277 -0.1241
 9286SOL    HW239318   3.675   2.792   1.076  1.9952  0.3285 -1.8328
 9287SOL     OW39319   0.160   3.574   5.734 -0.0333 -0.0542 -0.4011
 9287SOL    HW139320   0.152   3.513   5.662  1.1499 -0.7692  0.0916
 9287SOL    HW239321   0.070   3.600   5.757  0.5228  1.4136  0.1429
 9288SOL     OW39322   0.348   4.426   7.792 -0.2186 -0.6128 -0.2668
 9288SOL    HW139323   0.252   4.431   7.798 -0.1863 -1.1839  0.5948
 9288SOL    HW239324   0.374   4.505   7.839 -2.3277 -0.3121  0.4224
 9289SOL     OW39325   4.445   3.125  11.270 -0.2340  0.2989  0.2966
 9289SOL    HW139326   4.428   3.092  11.182 -1.6356  0.9688  0.3152
 9289SOL    HW239327   4.389   3.064  11.318  0.3984 -1.6908 -1.5340
 9290SOL     OW39328   1.243   0.097   8.089  0.2156 -0.1046 -0.0971
 9290SOL    HW139329   1.283   0.154   8.024 -0.4559  1.0127  0.4611
 9290SOL    HW239330   1.229   0.158   8.162 -0.2698  0.0319 -0.3041
 9291SOL     OW39331   0.943   0.059  10.289 -0.5731 -0.1268  0.2863
 9291SOL    HW139332   0.864   0.026  10.332 -0.1537  1.2459  2.1038
 9291SOL    HW239333   0.996   0.098  10.359  0.5567 -1.6464  0.2517
 9292SOL     OW39334   2.307   0.123   9.225  0.3197 -0.1296 -0.4164
 9292SOL    HW139335   2.339   0.145   9.313  3.0045 -0.2721 -1.3544
 9292SOL    HW239336   2.249   0.198   9.213  0.5314  0.0142 -0.5384
 9293SOL     OW39337   0.850   1.713   7.742  0.3900  0.2948  0.3035
 9293SOL    HW139338   0.761   1.748   7.739  0.1515 -0.4308 -1.4828
 9293SOL    HW239339   0.883   1.708   7.652 -1.0177 -2.5966 -0.0443
 9294SOL     OW39340   4.283   0.617  11.850  0.0655  0.1293  0.2382
 9294SOL    HW139341   4.337   0.688  11.885  1.1252 -0.2557 -0.6181
 9294SOL    HW239342   4.336   0.540  11.873  1.0481  1.0627  1.0769
 9295SOL     OW39343   4.667   3.120   8.096 -0.4520 -0.1545  0.1725
 9295SOL    HW139344   4.601   3.098   8.030 -0.9652 -2.4696  1.4403
 9295SOL    HW239345   4.685   3.212   8.076  0.8064 -0.7435 -1.3768
 9296SOL     OW39346   2.629   2.942   8.182 -0.5671  0.3882  0.1842
 9296SOL    HW139347   2.563   2.998   8.140 -1.5942 -1.2552 -0.3852
 9296SOL    HW239348   2.611   2.858   8.140  2.7573  0.5563 -1.5614
 9297SOL     OW39349   1.742   1.894   8.134 -1.1649  0.7358  0.5742
 9297SOL    HW139350   1.650   1.916   8.118 -1.6602 -1.5189  0.2771
 9297SOL    HW239351   1.795   1.971   8.111 -1.5121  0.7036 -0.3427
 9298SOL     OW39352   0.235   0.263   4.329 -0.3232  0.8672  0.5247
 9298SOL    HW139353   0.241   0.168   4.318  1.7320  1.2690 -1.7521
 9298SOL    HW239354   0.295   0.293   4.397 -0.5164  1.4666  0.4290
 9299SOL     OW39355   0.638   4.279  13.369  0.1006 -0.2569  0.3699
 9299SOL    HW139356   0.719   4.255  13.323 -0.4188  2.4988 -2.0255
 9299SOL    HW239357   0.619   4.188  13.389 -0.5681 -0.3122 -0.5387
 9300SOL     OW39358   3.709   3.492   4.928 -0.1591  0.0104  0.1607
 9300SOL    HW139359   3.702   3.586   4.945 -1.0241  0.1072 -0.6939
 9300SOL    HW239360   3.755   3.461   5.006  0.8689 -0.4153 -0.6313
 9301SOL     OW39361   1.416   1.591  14.814  0.6263 -0.6942 -0.8659
 9301SOL    HW139362   1.473   1.608  14.888  0.7633 -0.8496 -0.9350
 9301SOL    HW239363   1.439   1.663  14.755  0.5365  2.7144  3.2741
 9302SOL     OW39364   1.868   1.751   7.920  0.0407  0.5150 -0.0789
 9302SOL    HW139365   1.955   1.783   7.947  1.4546 -3.2916 -0.1612
 9302SOL    HW239366   1.807   1.818   7.951 -0.8884 -0.0912 -0.6211
 9303SOL     OW39367   0.847   2.137   7.525 -0.0875 -0.1408 -0.3861
 9303SOL    HW139368   0.774   2.123   7.584  0.0126 -1.8963 -0.6814
 9303SOL    HW239369   0.884   2.221   7.552 -1.2463  0.4144 -0.5516
 9304SOL     OW39370   3.260   2.309  14.920 -0.3695  0.3633  0.0736
 9304SOL    HW139371   3.186   2.307  14.860 -0.4168  0.2101  0.1382
 9304SOL    HW239372   3.283   2.216  14.922 -0.7033  0.2194 -2.3205
 9305SOL     OW39373   0.711   2.611   2.636 -0.2228  0.3160  0.1361
 9305SOL    HW139374   0.753   2.533   2.672 -1.4173  0.1136  1.0950
 9305SOL    HW239375   0.749   2.616   2.548 -0.8750  1.2222 -0.0907
 9306SOL     OW39376   2.772   3.217   2.987 -0.2084 -0.2132  0.0057
 9306SOL    HW139377   2.855   3.218   3.035 -0.4510  2.1644  0.3836
 9306SOL    HW239378   2.797   3.221   2.895  3.0409  1.2656  0.9686
 9307SOL     OW39379   3.075   2.486   6.710 -0.2327 -0.5301  0.2776
 9307SOL    HW139380   3.153   2.451   6.752  0.4374 -1.1329 -1.4431
 9307SOL    HW239381   3.093   2.454   6.621 -2.1366  1.1077 -0.7113
 9308SOL     OW39382   1.216   3.528   0.119  0.0860 -0.5412  0.4126
 9308SOL    HW139383   1.242   3.514   0.210  0.6833  1.3395  0.5130
 9308SOL    HW239384   1.301   3.504   0.081 -0.2730 -2.7743  0.9858
 9309SOL     OW39385   4.633   0.343   1.052 -0.1413 -0.1006 -0.1403
 9309SOL    HW139386   4.639   0.247   1.059  1.3974  0.0872  1.1359
 9309SOL    HW239387   4.561   0.351   0.990  0.0709  0.6521 -0.2907
 9310SOL     OW39388   0.766   2.999   8.192 -0.3272 -0.0711 -0.1928
 9310SOL    HW139389   0.791   3.011   8.100  2.2381 -1.7588  0.2882
 9310SOL    HW239390   0.851   3.023   8.230  0.2519 -0.9729 -0.9270
 9311SOL     OW39391   1.880   2.035  11.479 -0.4702  0.2342 -0.5269
 9311SOL    HW139392   1.929   1.982  11.543  0.5536  1.8555  0.0228
 9311SOL    HW239393   1.889   1.988  11.396 -0.1196 -2.7065  1.1626
 9312SOL     OW39394   2.288   2.570   8.456 -0.1261  0.4293 -0.1326
 9312SOL    HW139395   2.362   2.627   8.475  0.6305 -0.3074 -0.8599
 9312SOL    HW239396   2.298   2.546   8.363  1.7711 -3.1634  0.9856
 9313SOL     OW39397   1.622   2.367   7.244  0.1012 -0.1088 -0.4274
 9313SOL    HW139398   1.597   2.442   7.191  0.0015 -2.5890 -3.8779
 9313SOL    HW239399   1.618   2.407   7.330  0.0408 -1.0494  0.0112
 9314SOL     OW39400   2.993   0.982   1.158 -0.7623  0.2125 -0.1331
 9314SOL    HW139401   2.944   0.945   1.084 -2.9248  0.6616  1.0597
 9314SOL    HW239402   3.068   1.022   1.115 -0.1754 -0.1007  0.6101
 9315SOL     OW39403   2.605   2.963  11.810  0.4462  0.4134  0.2713
 9315SOL    HW139404   2.615   3.057  11.794 -1.1520  0.3680 -1.0291
 9315SOL    HW239405   2.509   2.960  11.813  0.4558  0.1830  0.3765
 9316SOL     OW39406   2.154   4.686   1.272  0.5058  0.3165  0.1489
 9316SOL    HW139407   2.239   4.658   1.306  0.2954 -0.2789  0.1713
 9316SOL    HW239408   2.105   4.692   1.354  1.5041  1.8471  0.6442
 9317SOL     OW39409   4.328   0.651   7.114 -0.4094 -0.2220 -0.7807
 9317SOL    HW139410   4.312   0.590   7.041  1.1118 -2.4508  0.7513
 9317SOL    HW239411   4.421   0.634   7.127 -0.4255 -0.1446 -0.5714
 9318SOL     OW39412   0.087   1.126  12.457 -0.3635  0.0063 -0.5153
 9318SOL    HW139413   0.064   1.083  12.374  1.4595 -2.0437  0.0487
 9318SOL    HW239414   0.063   1.216  12.435 -1.6800 -0.6433 -1.7640
 9319SOL     OW39415   4.129   1.899  11.425  0.4197 -0.8846  1.0762
 9319SOL    HW139416   4.221   1.908  11.452  0.2461  1.1008  1.0498
 9319SOL    HW239417   4.144   1.896  11.331 -1.1887 -1.1323  0.8288
 9320SOL     OW39418   3.155   2.108   6.706 -0.1345 -0.1954 -0.2705
 9320SOL    HW139419   3.084   2.044   6.699 -0.6984  0.0953  2.5359
 9320SOL    HW239420   3.230   2.048   6.707  0.2439  0.2830  0.1076
 9321SOL     OW39421   0.865   1.009   4.050  0.1134 -0.5184 -0.1424
 9321SOL    HW139422   0.860   0.982   4.141 -0.4259  0.6932  0.1934
 9321SOL    HW239423   0.955   1.031   4.028  0.0197 -2.0807 -2.0762
 9322SOL     OW39424   0.009   2.195   6.685 -0.1478 -0.0009 -0.3229
 9322SOL    HW139425   4.708   2.176   6.775 -0.4280  0.3420 -0.3273
 9322SOL    HW239426   4.685   2.132   6.632  0.1015  0.5750 -1.2359
 9323SOL     OW39427   0.836   3.452   1.032  0.1848 -0.0124 -0.2967
 9323SOL    HW139428   0.856   3.365   1.066 -1.1282 -0.4179 -0.5474
 9323SOL    HW239429   0.898   3.494   1.093 -3.7606  3.2897  1.4901
 9324SOL     OW39430   4.289   3.924  11.064  0.4029  0.3287 -0.2561
 9324SOL    HW139431   4.308   3.888  11.151  0.6524 -0.1494 -0.5087
 9324SOL    HW239432   4.193   3.920  11.066  0.4184 -1.3524 -2.9871
 9325SOL     OW39433   3.035   4.229   7.982  0.1569  0.4422 -0.2011
 9325SOL    HW139434   3.061   4.239   7.890 -1.3191  0.0713 -0.6532
 9325SOL    HW239435   2.940   4.225   7.974  0.0976  1.3643  0.0205
 9326SOL     OW39436   3.316   0.602   9.489  0.4169  0.4822 -0.3986
 9326SOL    HW139437   3.323   0.606   9.585 -2.1507 -1.8390 -0.1211
 9326SOL    HW239438   3.400   0.565   9.464 -2.2868 -3.3262 -3.8030
 9327SOL     OW39439   0.063   1.420   5.478 -0.0047 -0.6692 -0.1826
 9327SOL    HW139440   0.006   1.346   5.457  0.4923 -1.1737  0.2116
 9327SOL    HW239441   0.053   1.487   5.411  3.0043 -1.4855 -1.4375
 9328SOL     OW39442   3.863   2.732   8.577 -0.0099 -0.2050  0.0478
 9328SOL    HW139443   3.847   2.642   8.550 -2.3249  0.2864 -0.1908
 9328SOL    HW239444   3.773   2.763   8.572  0.4624  1.3132  0.6902
 9329SOL     OW39445   4.303   3.310  11.967  0.8452  0.2232  0.9968
 9329SOL    HW139446   4.367   3.328  11.898 -0.9032 -0.5237 -0.8332
 9329SOL    HW239447   4.360   3.321  12.043  0.8547  2.1454  0.7294
 9330SOL     OW39448   2.542   2.581  15.352  0.3500  0.0171 -0.6377
 9330SOL    HW139449   2.587   2.652  15.397  0.9093 -0.5793 -0.2456
 9330SOL    HW239450   2.454   2.618  15.343  0.7172  1.1499  0.4721
 9331SOL     OW39451   2.400   1.163  10.840  0.5802  0.3559 -0.4188
 9331SOL    HW139452   2.352   1.236  10.877  1.5439 -0.5595  2.6451
 9331SOL    HW239453   2.432   1.120  10.920 -0.1276 -0.4770 -0.5821
 9332SOL     OW39454   0.381   0.435   5.310 -0.2942 -0.0250  0.3802
 9332SOL    HW139455   0.380   0.531   5.320  1.1252 -0.1992  2.1820
 9332SOL    HW239456   0.382   0.421   5.215  1.2215  1.5040  0.1707
 9333SOL     OW39457   2.016   2.864   7.580 -0.1668  0.7403 -0.0869
 9333SOL    HW139458   1.929   2.849   7.543  0.6766 -0.9116 -1.3837
 9333SOL    HW239459   2.020   2.960   7.574 -2.4414  0.7605 -1.6831
 9334SOL     OW39460   4.431   1.977   3.488  0.1711 -0.5165 -0.2460
 9334SOL    HW139461   4.342   2.009   3.499 -0.3713 -2.7653  1.8981
 9334SOL    HW239462   4.487   2.042   3.532 -0.1093  0.5565 -1.4773
 9335SOL     OW39463   0.230   4.132   2.096 -0.3562 -0.0927 -0.2065
 9335SOL    HW139464   0.266   4.043   2.092 -0.0412  0.0407 -0.3428
 9335SOL    HW239465   0.312   4.182   2.100  1.1722 -2.4885 -1.2082
 9336SOL     OW39466   4.200   2.556  16.834 -0.1091 -0.5001 -0.1824
 9336SOL    HW139467   4.109   2.587  16.828  0.4353  0.8090 -1.6233
 9336SOL    HW239468   4.211   2.558  16.929 -0.4403 -2.5904 -0.0965
 9337SOL     OW39469   3.466   0.253   1.942  0.1943 -0.2527  0.1343
 9337SOL    HW139470   3.392   0.191   1.939 -2.3122  2.8258 -1.7427
 9337SOL    HW239471   3.478   0.277   1.850 -1.0112 -1.2858 -0.2909
 9338SOL     OW39472   0.601   0.808  13.729  0.9678  0.2752  0.7319
 9338SOL    HW139473   0.521   0.765  13.760  0.0288  1.1636 -0.4532
 9338SOL    HW239474   0.602   0.884  13.787 -1.7998  0.6571  0.2683
 9339SOL     OW39475   2.287   3.330   5.769 -0.0733  0.0053 -0.7854
 9339SOL    HW139476   2.236   3.382   5.831 -1.1290 -0.9243 -0.8757
 9339SOL    HW239477   2.346   3.269   5.814 -0.8320 -0.4355 -0.3909
 9340SOL     OW39478   1.192   0.703   6.002 -0.1693  0.2621  0.0100
 9340SOL    HW139479   1.100   0.717   6.021  0.0072  2.1936 -0.5787
 9340SOL    HW239480   1.216   0.641   6.072  0.2090  0.9749  0.5101
 9341SOL     OW39481   3.592   1.243   9.614  0.4128  0.5836 -0.2380
 9341SOL    HW139482   3.530   1.182   9.575  1.0894 -0.1100 -0.2432
 9341SOL    HW239483   3.560   1.329   9.588  0.0227  0.1864 -1.0560
 9342SOL     OW39484   4.678   3.877   6.824 -0.4625 -0.5522 -0.3648
 9342SOL    HW139485   0.011   3.854   6.898 -0.6868  1.4312  0.4284
 9342SOL    HW239486   4.601   3.825   6.845  0.4839 -0.5860  3.0089
 9343SOL     OW39487   2.609   4.239   4.571 -0.8229  0.1977 -0.2443
 9343SOL    HW139488   2.560   4.205   4.646 -0.7446 -1.0322 -0.7518
 9343SOL    HW239489   2.664   4.161   4.569  0.3896  1.0426  0.0691
 9344SOL     OW39490   2.345   0.984  14.925  0.5080  0.2768  0.3921
 9344SOL    HW139491   2.314   0.893  14.915  1.8327 -0.3535  2.0150
 9344SOL    HW239492   2.419   0.976  14.985  1.0675  0.8784 -0.2331
 9345SOL     OW39493   2.029   1.513   1.415  0.4875  0.2883 -0.1729
 9345SOL    HW139494   1.944   1.554   1.429 -0.5174 -1.6075 -0.6730
 9345SOL    HW239495   2.065   1.523   1.503  0.7115  1.7323 -0.4382
 9346SOL     OW39496   1.786   2.366   9.316  0.1302 -0.3926  0.3894
 9346SOL    HW139497   1.857   2.303   9.303 -0.6796 -1.0746 -0.7114
 9346SOL    HW239498   1.841   2.441   9.340  0.5238 -0.6621  0.3265
 9347SOL     OW39499   0.673   4.603   3.831  0.0813  0.4660  0.8166
 9347SOL    HW139500   0.650   4.675   3.890 -1.0840 -1.1324  2.3357
 9347SOL    HW239501   0.768   4.613   3.831  0.0492  0.7579  0.5662
 9348SOL     OW39502   2.580   2.973  16.762  0.7151  0.1532  0.3280
 9348SOL    HW139503   2.604   2.950  16.852  0.1696 -1.6724  0.0244
 9348SOL    HW239504   2.523   3.048  16.772  1.6895  1.0771 -1.0924
 9349SOL     OW39505   1.667   3.195   6.388  0.3555 -0.2817  0.3058
 9349SOL    HW139506   1.748   3.163   6.350 -0.6071 -0.7811 -1.3380
 9349SOL    HW239507   1.629   3.248   6.318 -2.7389  0.7543  2.7856
 9350SOL     OW39508   0.377   1.922   8.203  0.0326  0.0737  0.1922
 9350SOL    HW139509   0.433   1.930   8.280  1.2022  0.4825 -0.6968
 9350SOL    HW239510   0.397   1.829   8.195 -1.4643 -0.0492 -2.0109
 9351SOL     OW39511   1.185   2.978   1.065 -0.7927 -0.9078  0.0116
 9351SOL    HW139512   1.280   2.993   1.063 -0.4932 -3.0076 -0.5069
 9351SOL    HW239513   1.176   3.000   1.158  0.0499 -0.2332 -0.0616
 9352SOL     OW39514   1.101   1.868   5.865 -0.2483  0.3694 -0.3526
 9352SOL    HW139515   1.061   1.784   5.886 -1.3315  0.9589 -0.0822
 9352SOL    HW239516   1.174   1.868   5.927 -0.8137  1.2496  0.3164
 9353SOL     OW39517   1.769   0.450   4.131 -0.8558  0.1593  0.2481
 9353SOL    HW139518   1.756   0.536   4.091 -0.4517  0.7681  1.4141
 9353SOL    HW239519   1.831   0.469   4.202  0.6561 -3.0425 -0.2375
 9354SOL     OW39520   0.597   1.007   6.013  0.6594  0.2899  0.3645
 9354SOL    HW139521   0.648   1.026   5.934  3.0253 -0.5511  1.6876
 9354SOL    HW239522   0.521   1.065   6.012  0.1655 -0.4084 -3.3400
 9355SOL     OW39523   1.558   0.695   7.397 -0.0723  0.1054 -0.5239
 9355SOL    HW139524   1.511   0.768   7.439 -1.0448 -0.2693 -0.9644
 9355SOL    HW239525   1.533   0.622   7.454 -1.5172 -0.0373 -1.3451
 9356SOL     OW39526   3.379   2.649   1.836 -0.1635  0.8321 -0.1633
 9356SOL    HW139527   3.387   2.732   1.884  1.5755  1.6595 -1.8630
 9356SOL    HW239528   3.367   2.587   1.908 -0.3819  2.4405  1.1881
 9357SOL     OW39529   0.491   1.478   2.313  0.2897  0.4287 -0.8155
 9357SOL    HW139530   0.407   1.457   2.353 -0.0430 -1.1439 -2.3810
 9357SOL    HW239531   0.544   1.485   2.392 -1.1537  2.2790 -0.0009
 9358SOL     OW39532   0.529   3.156   8.200 -0.0879 -0.2184  0.4689
 9358SOL    HW139533   0.516   3.185   8.110 -0.2018 -0.2061  0.4899
 9358SOL    HW239534   0.617   3.118   8.199  0.3572  0.8050  1.2370
 9359SOL     OW39535   3.660   2.132   2.165 -0.1452  0.2190  0.0635
 9359SOL    HW139536   3.565   2.131   2.174 -0.3466  1.2259 -1.8230
 9359SOL    HW239537   3.696   2.048   2.192 -0.0936 -0.1724 -1.2478
 9360SOL     OW39538   1.288   1.414   6.229  0.1735 -0.4601  0.8257
 9360SOL    HW139539   1.265   1.489   6.283 -1.9653 -1.0834  0.7643
 9360SOL    HW239540   1.316   1.351   6.296 -0.3875 -0.2495  1.2618
 9361SOL     OW39541   2.962   2.167   0.659  1.2148  0.6604 -0.3770
 9361SOL    HW139542   2.987   2.227   0.730  0.2504 -0.2122  0.6933
 9361SOL    HW239543   2.978   2.228   0.587 -1.1685 -0.4697 -1.8203
 9362SOL     OW39544   3.069   0.189  13.224 -0.1757 -0.3022 -0.2559
 9362SOL    HW139545   3.109   0.229  13.301 -1.3105 -0.3864  0.3781
 9362SOL    HW239546   3.011   0.124  13.265  1.7143  0.0249  2.9276
 9363SOL     OW39547   0.220   2.716   0.590  0.1400 -0.5610  0.0034
 9363SOL    HW139548   0.259   2.695   0.674 -0.9817  0.1638  0.6971
 9363SOL    HW239549   0.131   2.744   0.608  0.2939  1.0061 -1.6402
 9364SOL     OW39550   2.129   1.646   5.800  0.0035 -0.0703  0.1717
 9364SOL    HW139551   2.214   1.641   5.755 -1.4272  3.2008 -2.9432
 9364SOL    HW239552   2.073   1.598   5.739  0.4796  0.7462 -0.9335
 9365SOL     OW39553   1.897   1.966   5.834 -0.1378 -0.1781 -0.1074
 9365SOL    HW139554   1.831   2.007   5.778  0.7320  1.5627  0.1453
 9365SOL    HW239555   1.959   2.038   5.842 -0.1821 -0.1959  0.3847
 9366SOL     OW39556   0.943   4.644   3.692 -0.0772 -0.1253  0.0591
 9366SOL    HW139557   0.884   4.712   3.726 -1.0919  0.0803 -2.1272
 9366SOL    HW239558   0.918   4.629   3.601 -1.0875  3.5040 -0.2697
 9367SOL     OW39559   4.336   4.014   2.196  0.0828  0.0090 -0.1032
 9367SOL    HW139560   4.259   3.957   2.201  2.2024 -2.7516  1.1646
 9367SOL    HW239561   4.328   4.039   2.104 -0.4867  1.4285  0.3391
 9368SOL     OW39562   0.482   2.953  16.587 -0.0537 -0.3504  0.7374
 9368SOL    HW139563   0.451   3.040  16.559  2.3226  0.0661 -0.6407
 9368SOL    HW239564   0.408   2.893  16.576  1.0179 -1.7201  1.0744
 9369SOL     OW39565   3.863   3.027  16.911 -0.5377  0.3354  0.0911
 9369SOL    HW139566   3.878   3.118  16.936  1.8950  0.9647 -3.7394
 9369SOL    HW239567   3.784   3.006  16.961  1.5721 -2.8763  2.0925
 9370SOL     OW39568   2.111   4.611  14.666  0.2297  0.3203 -0.1218
 9370SOL    HW139569   2.113   4.541  14.731  0.1008  0.3193 -0.1191
 9370SOL    HW239570   2.080   4.684  14.718  1.5051  1.2641 -0.6702
 9371SOL     OW39571   0.333   2.277  16.864 -0.8991  0.1870 -0.1021
 9371SOL    HW139572   0.334   2.183  16.882  1.9430 -0.0573 -1.5292
 9371SOL    HW239573   0.241   2.303  16.877 -0.7797  0.5787 -0.0483
 9372SOL     OW39574   3.222   4.135   4.126 -0.3432  0.2853  0.4945
 9372SOL    HW139575   3.237   4.192   4.201 -0.1879  0.9276 -0.0269
 9372SOL    HW239576   3.241   4.201   4.059 -2.1468 -1.5311 -1.7997
 9373SOL     OW39577   0.398   2.401   5.193 -0.0778  0.0655  0.1011
 9373SOL    HW139578   0.350   2.396   5.111  0.3593 -3.0586  0.0334
 9373SOL    HW239579   0.435   2.313   5.197 -1.6055 -0.4486  3.6152
 9374SOL     OW39580   0.441   0.769  14.140 -0.2079  0.3586 -0.1901
 9374SOL    HW139581   0.351   0.759  14.110 -0.5394  0.1652  0.8585
 9374SOL    HW239582   0.446   0.704  14.211 -0.3922 -0.3218 -0.8004
 9375SOL     OW39583   2.345   3.208  15.277  0.0633  0.0426 -0.0216
 9375SOL    HW139584   2.263   3.173  15.242  0.7276 -2.3993  0.8750
 9375SOL    HW239585   2.395   3.126  15.281 -0.0752 -0.1155 -1.4580
 9376SOL     OW39586   4.690   3.992   4.224 -0.2439 -0.1981 -0.5699
 9376SOL    HW139587   4.604   4.032   4.238 -1.8301 -3.2715 -1.6247
 9376SOL    HW239588   4.672   3.925   4.158  0.8479  0.4957 -1.5705
 9377SOL     OW39589   0.412   3.945   2.801 -0.2047 -0.1348 -0.7375
 9377SOL    HW139590   0.348   3.893   2.850  0.2697 -0.6397 -0.6576
 9377SOL    HW239591   0.460   3.880   2.750  0.4115  0.4878 -0.9608
 9378SOL     OW39592   1.438   4.217   6.545  0.2679  0.4875 -0.1008
 9378SOL    HW139593   1.412   4.282   6.610  1.1831 -0.4376  1.1873
 9378SOL    HW239594   1.367   4.222   6.481 -0.0631 -1.1955  0.1404
 9379SOL     OW39595   4.567   2.962   3.186  0.4686  0.0694  0.0250
 9379SOL    HW139596   4.644   2.946   3.132  0.3629  1.8197 -0.6581
 9379SOL    HW239597   4.601   2.958   3.276  1.3580  1.4009 -0.2451
 9380SOL     OW39598   1.023   1.777   5.562 -0.0540  0.1900 -0.0321
 9380SOL    HW139599   0.998   1.867   5.584  0.2111  0.5569 -1.2381
 9380SOL    HW239600   0.935   1.739   5.558 -0.3861  1.0127 -0.5332
 9381SOL     OW39601   4.076   4.347   6.145 -0.0010  0.2384  0.9278
 9381SOL    HW139602   4.127   4.271   6.120  0.8390  1.1062  0.0175
 9381SOL    HW239603   4.062   4.384   6.058  1.1901 -2.1371 -0.2416
 9382SOL     OW39604   2.248   3.577   5.488 -0.5045 -0.3574  0.1305
 9382SOL    HW139605   2.156   3.551   5.492  0.1062 -3.1009 -4.1104
 9382SOL    HW239606   2.251   3.623   5.572  1.6038 -0.1545 -0.0439
 9383SOL     OW39607   2.249   0.853   2.536 -0.4844  0.9005  0.0272
 9383SOL    HW139608   2.305   0.917   2.493 -0.1747  1.3316  1.0666
 9383SOL    HW239609   2.232   0.790   2.465 -0.7778  1.8209 -0.7142
 9384SOL     OW39610   3.623   2.095   9.552 -0.2483  0.0774 -0.5801
 9384SOL    HW139611   3.597   2.004   9.561 -1.5875  0.3145 -2.0188
 9384SOL    HW239612   3.718   2.095   9.556 -0.3101 -1.3392  0.9048
 9385SOL     OW39613   1.654   3.434   8.446  0.0532 -0.2561  0.0981
 9385SOL    HW139614   1.722   3.501   8.456 -0.9701  0.6296  1.0753
 9385SOL    HW239615   1.641   3.408   8.538 -0.2570  3.0622  0.9898
 9386SOL     OW39616   1.125   1.031   8.949 -0.2599  0.2983  0.3097
 9386SOL    HW139617   1.091   0.955   8.996  0.1121 -1.1519 -1.7478
 9386SOL    HW239618   1.211   1.004   8.918 -1.7359 -2.6840 -1.1942
 9387SOL     OW39619   0.945   0.559   4.443 -0.1961 -0.0006  0.1236
 9387SOL    HW139620   0.875   0.622   4.425 -0.2595 -0.8555 -2.6741
 9387SOL    HW239621   1.006   0.587   4.375 -1.2551 -0.9577 -1.2155
 9388SOL     OW39622   4.094   4.620   5.123  0.0681  0.7553 -0.2641
 9388SOL    HW139623   4.081   4.698   5.177  3.3152  2.2739 -1.6543
 9388SOL    HW239624   4.141   4.653   5.046 -0.8144 -0.2504 -1.2243
 9389SOL     OW39625   3.303   0.024  15.479  0.0716  0.5795  0.6438
 9389SOL    HW139626   3.385   0.071  15.466  0.4405 -0.4537 -0.7383
 9389SOL    HW239627   3.275   0.032  15.387  0.2982  0.9785  0.6115
 9390SOL     OW39628   3.380   0.448  14.698  0.8374 -0.1147 -0.2922
 9390SOL    HW139629   3.329   0.367  14.702  1.6130 -0.6130 -0.5938
 9390SOL    HW239630   3.332   0.484  14.623  0.3798  1.8869  0.9711
 9391SOL     OW39631   1.899   0.729   7.676  0.1208  0.0448 -0.0914
 9391SOL    HW139632   1.946   0.712   7.757 -1.9063  1.1746  1.3152
 9391SOL    HW239633   1.809   0.719   7.706  0.8821 -0.8387  1.8469
 9392SOL     OW39634   1.058   4.511   2.378  0.2087 -0.2701 -0.3941
 9392SOL    HW139635   1.039   4.515   2.472  4.4024 -0.1194  0.4464
 9392SOL    HW239636   1.025   4.596   2.350  1.4645  0.3457 -0.0379
 9393SOL     OW39637   0.583   1.735   2.275 -0.3390  0.0052 -0.5573
 9393SOL    HW139638   0.600   1.641   2.282  1.0627  0.2255 -1.0421
 9393SOL    HW239639   0.500   1.736   2.322  1.1920  0.4349  2.1538
 9394SOL     OW39640   2.412   2.092   2.104 -0.3921  0.0180 -0.9957
 9394SOL    HW139641   2.358   2.129   2.034  1.0956  0.2955 -1.9763
 9394SOL    HW239642   2.489   2.055   2.062 -0.3338 -0.7611 -0.2000
 9395SOL     OW39643   3.674   3.563  12.246  0.3399  0.0684 -0.5700
 9395SOL    HW139644   3.607   3.502  12.214  0.0194 -0.0283  0.2715
 9395SOL    HW239645   3.675   3.541  12.340  0.2883 -0.9855 -0.8076
 9396SOL     OW39646   0.326   2.486   7.999  0.6118 -0.4739 -0.1047
 9396SOL    HW139647   0.377   2.506   8.077  0.9536  1.8406 -0.9378
 9396SOL    HW239648   0.327   2.568   7.951  0.9452 -1.7734 -2.3326
 9397SOL     OW39649   0.126   3.641  16.497  0.0434 -0.2911 -0.3445
 9397SOL    HW139650   0.032   3.646  16.483 -0.5201 -2.1402  2.8248
 9397SOL    HW239651   0.136   3.551  16.526  0.4283 -0.3763 -0.7517
 9398SOL     OW39652   4.229   1.950   5.708 -0.4851 -0.5103 -0.0302
 9398SOL    HW139653   4.185   1.990   5.784 -1.6663  1.3794 -1.6985
 9398SOL    HW239654   4.283   2.018   5.668 -3.0418  0.6663 -1.4868
 9399SOL     OW39655   3.569   0.896  13.139 -0.0468  0.2917 -0.2020
 9399SOL    HW139656   3.513   0.848  13.200  0.4581  0.7456  0.6354
 9399SOL    HW239657   3.652   0.889  13.186 -0.5410 -2.4248  0.2515
 9400SOL     OW39658   2.801   1.478  13.634  0.5624  0.2708  0.1771
 9400SOL    HW139659   2.830   1.507  13.720  0.2633  3.7241 -0.8775
 9400SOL    HW239660   2.705   1.487  13.633  0.5657  0.2582 -0.5235
 9401SOL     OW39661   0.472   1.019   3.051 -1.2129  0.1995  0.0354
 9401SOL    HW139662   0.406   0.956   3.022 -0.4277 -0.4068 -0.4648
 9401SOL    HW239663   0.529   1.002   2.976 -0.9214  0.8758  0.0970
 9402SOL     OW39664   2.958   1.751   5.862  0.2082 -0.7352 -0.1443
 9402SOL    HW139665   3.040   1.783   5.899  0.7094 -1.7486 -0.3655
 9402SOL    HW239666   3.000   1.677   5.818 -0.3831 -1.0618 -0.1594
 9403SOL     OW39667   3.996   0.639   4.090  0.5547 -0.0235 -0.0892
 9403SOL    HW139668   4.058   0.569   4.114 -2.5099 -2.2654  1.2576
 9403SOL    HW239669   3.934   0.625   4.161  0.9894 -0.2515  0.2463
 9404SOL     OW39670   1.709   3.408   7.007 -0.2335 -0.2438 -0.1907
 9404SOL    HW139671   1.624   3.424   6.966 -0.7194 -0.7867  0.6043
 9404SOL    HW239672   1.745   3.355   6.936 -0.3821  1.1535 -1.3243
 9405SOL     OW39673   4.529   2.216   8.676 -0.2306  0.0170 -0.7457
 9405SOL    HW139674   4.516   2.170   8.759  0.9762  0.1754 -0.4745
 9405SOL    HW239675   4.623   2.205   8.662 -0.0424  1.6328 -0.7816
 9406SOL     OW39676   4.283   0.594   5.842  0.2665  0.3498 -0.3134
 9406SOL    HW139677   4.264   0.652   5.916  0.6594  1.6289 -1.2141
 9406SOL    HW239678   4.306   0.657   5.774 -0.5160 -0.5886 -1.4486
 9407SOL     OW39679   1.730   1.869   2.177 -0.3046 -0.1610 -0.0335
 9407SOL    HW139680   1.691   1.956   2.167  0.1974 -0.0017 -0.6077
 9407SOL    HW239681   1.822   1.898   2.176 -0.5917  0.7601 -0.2387
 9408SOL     OW39682   1.016   1.501   1.985  0.0771 -0.2220 -0.5405
 9408SOL    HW139683   0.965   1.438   1.934  0.4679  0.0282 -1.2483
 9408SOL    HW239684   0.962   1.580   1.984 -0.6064 -0.7296 -3.3131
 9409SOL     OW39685   3.458   2.235   9.294 -0.4664 -0.7020  0.4613
 9409SOL    HW139686   3.426   2.220   9.383  0.6447  0.0609  0.9854
 9409SOL    HW239687   3.376   2.226   9.246  1.5624  0.0131 -3.1353
 9410SOL     OW39688   1.892   2.400  17.511 -0.0239  0.3453  0.4656
 9410SOL    HW139689   1.873   2.493  17.523  0.0085  0.5312 -0.9524
 9410SOL    HW239690   1.855   2.360  17.590 -0.0880 -0.5051  0.0083
 9411SOL     OW39691   2.981   4.026  15.345  0.4001  0.2802 -0.1247
 9411SOL    HW139692   2.943   3.968  15.280  0.3904 -1.5525  1.5042
 9411SOL    HW239693   3.075   4.034  15.330  0.5020 -0.1879  0.2481
 9412SOL     OW39694   0.355   1.242  12.355  0.8744 -0.3899 -0.3040
 9412SOL    HW139695   0.376   1.292  12.275 -1.8414  0.6307 -0.3926
 9412SOL    HW239696   0.264   1.272  12.358  2.0045  3.0973 -0.1473
 9413SOL     OW39697   1.821   2.202   5.486 -0.7686  0.5774 -0.5691
 9413SOL    HW139698   1.804   2.275   5.427 -0.6155  1.5586  0.5934
 9413SOL    HW239699   1.906   2.163   5.467 -0.9274 -0.2267  0.3565
 9414SOL     OW39700   3.989   1.713   6.659 -0.1109  0.6008 -0.1081
 9414SOL    HW139701   3.996   1.672   6.746  1.7871 -2.5317 -1.7347
 9414SOL    HW239702   4.022   1.799   6.682 -0.8263  0.5667  1.0649
 9415SOL     OW39703   4.266   0.213   8.259  0.2539  0.3516  0.3291
 9415SOL    HW139704   4.306   0.166   8.187 -0.3108 -0.0643  0.2825
 9415SOL    HW239705   4.302   0.300   8.242 -1.4946  1.0769  0.2419
 9416SOL     OW39706   3.617   3.440   4.323 -0.5212 -0.3304 -0.1340
 9416SOL    HW139707   3.570   3.416   4.402 -2.3673 -1.3984 -1.5806
 9416SOL    HW239708   3.580   3.526   4.303 -0.4797 -0.5846 -1.2736
 9417SOL     OW39709   0.829   0.330  15.956 -0.2401  0.9593  0.6915
 9417SOL    HW139710   0.913   0.374  15.951 -0.3129  0.9530 -0.6455
 9417SOL    HW239711   0.776   0.406  15.978  1.9258  2.8290 -0.5781
 9418SOL     OW39712   2.973   2.958   4.003  0.7266 -0.4121  0.6700
 9418SOL    HW139713   2.966   2.877   4.054  0.7548 -0.4793  0.5672
 9418SOL    HW239714   2.916   3.005   4.064  2.8074  0.6856  1.7537
 9419SOL     OW39715   0.794   0.208   2.663  0.2256 -0.2682  0.1780
 9419SOL    HW139716   0.813   0.118   2.689 -0.9890  0.2113  2.7742
 9419SOL    HW239717   0.854   0.237   2.594  0.7445 -4.5975 -1.1470
 9420SOL     OW39718   0.422   2.034   0.855 -0.4256  0.5896 -0.0891
 9420SOL    HW139719   0.349   2.092   0.832 -1.6621 -0.0682  2.1665
 9420SOL    HW239720   0.493   2.088   0.819 -1.7767  1.0576 -2.0425
 9421SOL     OW39721   3.044   1.006  10.523 -0.3825  0.0419 -0.0165
 9421SOL    HW139722   2.960   0.992  10.479 -0.9035  2.2564  0.2441
 9421SOL    HW239723   3.083   0.925  10.491  0.6922  0.4771  0.1755
 9422SOL     OW39724   3.972   1.744   9.333 -0.1273  0.0056 -0.3741
 9422SOL    HW139725   4.015   1.749   9.247  2.1725 -3.2703  0.5722
 9422SOL    HW239726   3.894   1.799   9.325 -0.8709 -0.7105  1.9326
 9423SOL     OW39727   1.060   4.569  16.201 -0.2606  0.6343 -0.2599
 9423SOL    HW139728   1.058   4.634  16.272  2.1679  0.2644  0.1203
 9423SOL    HW239729   1.062   4.629  16.126  3.4916  1.9726  0.9484
 9424SOL     OW39730   1.948   1.285   1.674  0.3097 -0.4063  0.2048
 9424SOL    HW139731   2.000   1.363   1.690 -0.8794  0.3453  0.4387
 9424SOL    HW239732   1.877   1.310   1.734  1.1554  2.1836  0.1017
 9425SOL     OW39733   1.371   1.700   1.467 -0.3115  0.4937  0.5396
 9425SOL    HW139734   1.370   1.605   1.457  1.8384  0.3487  1.8505
 9425SOL    HW239735   1.287   1.715   1.510  0.5035  0.3709  2.1521
 9426SOL     OW39736   0.046   1.345   6.245  0.0623 -0.4423 -0.2107
 9426SOL    HW139737   0.094   1.336   6.162  0.6603  1.3959 -0.0691
 9426SOL    HW239738   4.683   1.312   6.221 -0.5552  1.3141 -0.4484
 9427SOL     OW39739   0.286   1.247   0.687  0.4656  0.1873 -0.2150
 9427SOL    HW139740   0.276   1.336   0.720 -0.2501 -0.1673  0.5221
 9427SOL    HW239741   0.375   1.232   0.719  0.0374 -1.0254  0.4368
 9428SOL     OW39742   1.975   3.186   4.419  1.1057  0.2642  0.1282
 9428SOL    HW139743   1.968   3.251   4.349  1.3479 -1.5713 -1.5826
 9428SOL    HW239744   1.944   3.106   4.376  2.0255  0.3861 -0.7542
 9429SOL     OW39745   3.574   2.747   3.003  0.3042 -0.5158  0.4590
 9429SOL    HW139746   3.511   2.819   3.001  0.4125 -0.4564 -0.4360
 9429SOL    HW239747   3.623   2.762   2.923  1.0554 -1.5200  0.7349
 9430SOL     OW39748   3.302   0.136  15.233  0.3057  0.4026  0.1099
 9430SOL    HW139749   3.395   0.152  15.218  0.2898  0.3561 -0.0419
 9430SOL    HW239750   3.287   0.108  15.142 -0.4604  3.9067 -0.8793
 9431SOL     OW39751   3.322   0.735  17.561  0.2349 -0.1493  0.0317
 9431SOL    HW139752   3.395   0.760  17.617  0.4436  0.1365 -0.3677
 9431SOL    HW239753   3.310   0.806  17.498 -2.3300 -1.7865 -1.3149
 9432SOL     OW39754   2.309   3.092   3.923  0.2071  0.2439 -0.3357
 9432SOL    HW139755   2.383   3.058   3.872  0.3911 -0.0064  0.0999
 9432SOL    HW239756   2.237   3.046   3.879 -0.0241  0.5456 -0.2693
 9433SOL     OW39757   3.442   2.212  13.382  0.2315 -0.1278  0.0536
 9433SOL    HW139758   3.415   2.139  13.438  0.4258 -0.7241 -0.6406
 9433SOL    HW239759   3.371   2.276  13.380 -0.9069 -1.4130 -0.3270
 9434SOL     OW39760   0.381   1.355  15.044  0.0824 -0.0305 -0.0849
 9434SOL    HW139761   0.359   1.437  15.088 -1.2106  0.5413 -1.8334
 9434SOL    HW239762   0.399   1.289  15.112 -0.2884  0.0623  0.1022
 9435SOL     OW39763   0.653   2.408  11.624  0.2952 -0.4241  0.1867
 9435SOL    HW139764   0.620   2.328  11.583 -1.3746  0.2621  0.1935
 9435SOL    HW239765   0.741   2.400  11.589  1.1233  1.4963  1.8413
 9436SOL     OW39766   2.162   1.251   7.891  0.4512  0.0892  0.8354
 9436SOL    HW139767   2.189   1.221   7.978  2.3259  0.4717  0.3889
 9436SOL    HW239768   2.086   1.306   7.913 -1.6214 -3.2965  2.1660
 9437SOL     OW39769   3.603   3.783   6.213  0.6058  0.0526  0.5606
 9437SOL    HW139770   3.642   3.737   6.288 -1.4021  0.4405  1.8642
 9437SOL    HW239771   3.515   3.751   6.235  1.3092 -1.8947  0.5059
 9438SOL     OW39772   2.742   1.483   1.516  0.8639  0.9837  0.3426
 9438SOL    HW139773   2.746   1.417   1.585  1.4615  0.6431 -0.0116
 9438SOL    HW239774   2.666   1.534   1.545  1.2022  1.0241  1.1271
 9439SOL     OW39775   0.489   4.242   9.690  0.2037 -0.1467  0.1492
 9439SOL    HW139776   0.524   4.217   9.605  0.7105  0.2730  0.2359
 9439SOL    HW239777   0.462   4.164   9.738 -2.9210  1.5576  1.2351
 9440SOL     OW39778   4.645   4.610   7.750  0.5681 -0.3282 -0.5405
 9440SOL    HW139779   4.684   4.691   7.717  0.0682  0.6349  1.2512
 9440SOL    HW239780   4.558   4.641   7.775  0.3704 -2.3205  1.2013
 9441SOL     OW39781   3.151   2.676  15.779  0.0193 -0.0787  0.3487
 9441SOL    HW139782   3.215   2.639  15.718  0.3389 -0.2268  0.7731
 9441SOL    HW239783   3.138   2.760  15.735  3.0262 -0.3878 -1.1199
 9442SOL     OW39784   1.645   0.731   7.792  0.1585 -0.1107 -0.1894
 9442SOL    HW139785   1.604   0.811   7.827 -0.6058 -0.4362 -0.3459
 9442SOL    HW239786   1.650   0.685   7.875 -2.8845  0.6097  0.4119
 9443SOL     OW39787   3.339   2.231   8.687  0.0917  0.9200 -0.0538
 9443SOL    HW139788   3.403   2.169   8.721  0.4414  0.0919 -2.2096
 9443SOL    HW239789   3.389   2.311   8.701 -0.1119  0.6962  2.0225
 9444SOL     OW39790   0.247   2.077   7.409  0.2239 -0.2276  0.2794
 9444SOL    HW139791   0.237   2.172   7.403 -0.8610 -0.4865 -2.1453
 9444SOL    HW239792   0.249   2.062   7.503  1.7780 -0.6888  0.1750
 9445SOL     OW39793   4.007   4.237   8.886 -0.4518  0.7544 -0.1794
 9445SOL    HW139794   4.051   4.161   8.923 -1.4449  0.5328  0.5602
 9445SOL    HW239795   4.067   4.262   8.816  0.3006 -1.9374 -0.4791
 9446SOL     OW39796   1.404   3.377   1.015  0.5296  0.1511  0.2412
 9446SOL    HW139797   1.404   3.351   0.923  1.7929  1.6597 -0.1840
 9446SOL    HW239798   1.449   3.299   1.048  0.3683  0.1269  0.4030
 9447SOL     OW39799   4.605   2.751  14.559  0.1579 -0.5821  0.0986
 9447SOL    HW139800   4.521   2.762  14.603 -0.4020  2.1409 -1.6863
 9447SOL    HW239801   4.657   2.758  14.639 -0.0790 -0.2738  0.2211
 9448SOL     OW39802   2.930   0.579  16.974  0.3183  0.8342  0.2035
 9448SOL    HW139803   2.836   0.597  16.966  0.4770  2.1131  1.2074
 9448SOL    HW239804   2.959   0.655  17.025  0.3021 -1.1640  3.2091
 9449SOL     OW39805   0.859   0.115   6.042  0.2577  0.3208 -0.3690
 9449SOL    HW139806   0.822   0.073   5.964  0.3384  2.0058 -1.3315
 9449SOL    HW239807   0.852   0.053   6.114  0.7531 -0.5406 -1.0705
 9450SOL     OW39808   1.630   2.043   8.931  0.0342  0.5221  0.0562
 9450SOL    HW139809   1.652   2.132   8.959 -2.0789  0.6560  1.2402
 9450SOL    HW239810   1.604   1.999   9.011 -0.0246 -0.0496 -0.2810
 9451SOL     OW39811   1.782   0.885   4.541 -0.4819 -0.4621  0.4915
 9451SOL    HW139812   1.710   0.821   4.546 -1.3691  0.4437 -0.8409
 9451SOL    HW239813   1.735   0.967   4.529 -0.1243 -0.4440 -0.8053
 9452SOL     OW39814   4.181   3.203   6.905 -0.3549 -0.5728 -0.0817
 9452SOL    HW139815   4.216   3.120   6.937 -0.8248 -1.0028 -0.6693
 9452SOL    HW239816   4.137   3.246   6.978  0.2897 -1.3883  0.7890
 9453SOL     OW39817   0.410   1.990   7.937 -0.2732 -0.6705 -0.5203
 9453SOL    HW139818   0.372   1.990   8.025 -3.0412 -0.8052 -1.7100
 9453SOL    HW239819   0.381   1.904   7.908 -0.6298 -1.0479  0.9516
 9454SOL     OW39820   2.233   4.342  12.387  0.1116 -0.0112  0.2977
 9454SOL    HW139821   2.243   4.437  12.379 -0.5572  0.1299  1.1992
 9454SOL    HW239822   2.270   4.314  12.303 -1.7686 -2.9411  0.4276
 9455SOL     OW39823   4.313   3.551   4.597  0.7071  0.5206  0.0498
 9455SOL    HW139824   4.384   3.489   4.583  0.8261  0.5449  0.5388
 9455SOL    HW239825   4.341   3.624   4.542 -1.4806 -0.0441 -1.7957
 9456SOL     OW39826   4.420   3.950   3.096  0.9477  0.6381 -0.0687
 9456SOL    HW139827   4.342   3.972   3.147  0.8579 -2.2556  0.9999
 9456SOL    HW239828   4.391   3.974   3.007  1.3843  0.2548 -0.3157
 9457SOL     OW39829   2.495   0.893   7.564  0.2235  0.1514  0.7302
 9457SOL    HW139830   2.513   0.967   7.621 -1.9409 -0.3992  2.1087
 9457SOL    HW239831   2.425   0.853   7.615  1.1205 -1.5218  0.6680
 9458SOL     OW39832   4.348   3.976   6.297 -0.0142 -0.1557 -0.4565
 9458SOL    HW139833   4.422   4.016   6.251  1.5235 -1.9416  0.4538
 9458SOL    HW239834   4.339   3.898   6.243  0.2760 -0.6418  0.1953
 9459SOL     OW39835   3.068   0.521   9.692 -0.3144 -0.3621 -0.2950
 9459SOL    HW139836   3.105   0.460   9.629 -2.1411 -3.8641  2.0553
 9459SOL    HW239837   3.121   0.501   9.770  0.4209 -0.0850 -0.7184
 9460SOL     OW39838   2.843   0.401   4.467  0.0317  0.6337 -0.1122
 9460SOL    HW139839   2.856   0.414   4.373  1.0684 -1.3527 -0.2409
 9460SOL    HW239840   2.761   0.446   4.487  0.7541  1.4398  1.0502
 9461SOL     OW39841   3.524   4.096   4.278 -0.2716  0.3958 -0.4110
 9461SOL    HW139842   3.526   4.181   4.234  1.1161  1.5989  1.9466
 9461SOL    HW239843   3.449   4.059   4.233  0.7026 -2.7063  0.5480
 9462SOL     OW39844   3.262   3.019   4.812  0.1562 -0.6351 -1.0366
 9462SOL    HW139845   3.336   3.079   4.796 -0.7959  1.1085  1.0227
 9462SOL    HW239846   3.200   3.057   4.749 -0.0297 -2.5539 -1.9987
 9463SOL     OW39847   0.586   3.735   7.737 -0.1605  0.8017  0.2849
 9463SOL    HW139848   0.591   3.649   7.779  2.4398  0.9842  0.3262
 9463SOL    HW239849   0.587   3.797   7.809  0.4739  0.8253  0.2520
 9464SOL     OW39850   0.186   3.246   2.812  0.3063  0.0606 -0.0844
 9464SOL    HW139851   0.272   3.268   2.775  0.0535  1.1769  0.0012
 9464SOL    HW239852   0.145   3.214   2.732  0.6471 -0.1361 -0.1815
 9465SOL     OW39853   1.616   2.337  10.649  0.2248  0.5773 -0.3645
 9465SOL    HW139854   1.561   2.395  10.596  1.2785  1.1964 -0.7938
 9465SOL    HW239855   1.568   2.255  10.646 -1.0508  1.2477  1.6150
 9466SOL     OW39856   1.113   3.010  17.413 -0.1167 -0.0750 -0.4142
 9466SOL    HW139857   1.053   3.029  17.485  1.8943  2.4257  0.5990
 9466SOL    HW239858   1.198   3.032  17.451 -0.3685 -0.7626  0.5343
 9467SOL     OW39859   3.148   1.453   8.588  0.0976  0.3188  0.6365
 9467SOL    HW139860   3.059   1.458   8.623  0.3160  1.4227  1.0368
 9467SOL    HW239861   3.139   1.435   8.495  0.0046  0.1021  0.6873
 9468SOL     OW39862   1.627   1.694   4.827  0.8631  0.4016  0.1445
 9468SOL    HW139863   1.603   1.645   4.906  0.0103 -0.6612 -0.7817
 9468SOL    HW239864   1.700   1.641   4.795  0.7431  1.0091 -1.1226
 9469SOL     OW39865   2.820   0.679   6.058 -0.3518 -0.5495 -0.2725
 9469SOL    HW139866   2.791   0.631   5.980 -2.6271 -0.2950  0.4164
 9469SOL    HW239867   2.914   0.661   6.054 -0.6505 -1.6964 -2.3617
 9470SOL     OW39868   4.623   1.886  14.305  0.7301 -0.4758 -0.3165
 9470SOL    HW139869   4.566   1.924  14.238  1.4896  0.6030 -0.3453
 9470SOL    HW239870   4.699   1.944  14.304  1.1899 -1.0613  1.8130
 9471SOL     OW39871   3.658   1.843  15.038  0.7096  0.7626 -0.1824
 9471SOL    HW139872   3.743   1.850  14.994  0.2042  1.4169 -1.0546
 9471SOL    HW239873   3.612   1.921  15.008  1.1229  1.0138 -0.1514
 9472SOL     OW39874   0.128   2.815   6.040  0.0731  0.1736  0.4016
 9472SOL    HW139875   0.170   2.881   5.986 -0.1774 -0.8922 -1.0965
 9472SOL    HW239876   0.045   2.794   5.997  1.1818  1.2615 -2.2433
 9473SOL     OW39877   2.028   4.513   5.491  0.3692  0.4983 -0.0579
 9473SOL    HW139878   1.952   4.483   5.442  0.7968  1.0210 -1.0479
 9473SOL    HW239879   2.083   4.541   5.418  0.9180  2.1626  0.9950
 9474SOL     OW39880   2.562   2.647   9.143  0.1972 -0.7874  0.3218
 9474SOL    HW139881   2.594   2.610   9.061 -0.6617 -1.5929  0.3472
 9474SOL    HW239882   2.503   2.713   9.107  1.0032  0.5008  1.3368
 9475SOL     OW39883   0.782   1.187   8.026 -0.3016 -0.7994  0.0994
 9475SOL    HW139884   0.704   1.218   8.072  0.4205  1.2778 -0.0858
 9475SOL    HW239885   0.832   1.155   8.102  1.2322  1.7246  0.1381
 9476SOL     OW39886   3.310   0.749   2.343  0.2059  0.0594  0.2567
 9476SOL    HW139887   3.401   0.776   2.345  0.0642  0.4345  1.6419
 9476SOL    HW239888   3.318   0.665   2.299  0.4991  1.3677 -2.1777
 9477SOL     OW39889   0.551   2.001   4.598  0.1572  0.1390 -0.1905
 9477SOL    HW139890   0.585   2.024   4.512  1.6378  1.5874  0.7876
 9477SOL    HW239891   0.476   1.945   4.576  1.8853 -1.3718 -2.1864
 9478SOL     OW39892   0.231   1.042  17.200  0.1338 -0.2420  0.1148
 9478SOL    HW139893   0.179   1.070  17.125  0.9660  0.8409 -0.0689
 9478SOL    HW239894   0.185   1.087  17.271  1.0833 -0.0869  0.6399
 9479SOL     OW39895   3.738   3.282   8.635 -0.7337  0.0390 -0.1511
 9479SOL    HW139896   3.775   3.316   8.553 -1.2988  2.7175  0.7184
 9479SOL    HW239897   3.810   3.244   8.686 -0.0438 -0.7805 -1.7005
 9480SOL     OW39898   4.625   2.567   5.835  0.1758  0.3666  0.0408
 9480SOL    HW139899   4.654   2.490   5.882  0.3601  0.9202  0.8302
 9480SOL    HW239900   4.642   2.550   5.742 -0.2831 -0.3678  0.0954
 9481SOL     OW39901   2.818   3.469   6.715  0.0823 -0.4590  0.2926
 9481SOL    HW139902   2.747   3.528   6.741 -0.0038 -0.1387 -0.6633
 9481SOL    HW239903   2.893   3.527   6.722  0.5424 -0.9867 -0.2171
 9482SOL     OW39904   3.485   3.506   4.030 -0.5235 -0.3290 -0.3878
 9482SOL    HW139905   3.398   3.522   3.993 -1.4420 -1.0359  1.4966
 9482SOL    HW239906   3.494   3.573   4.096 -0.6770  0.5806 -1.2898
 9483SOL     OW39907   3.927   0.184   2.926 -0.1806  0.3137 -0.3853
 9483SOL    HW139908   3.903   0.092   2.916  0.6020 -0.2064  2.6473
 9483SOL    HW239909   4.001   0.176   2.985 -1.7976 -1.7637  1.3447
 9484SOL     OW39910   3.409   3.378   1.838 -0.0561 -0.2332 -0.2601
 9484SOL    HW139911   3.336   3.386   1.777  0.4116  3.3487 -0.3562
 9484SOL    HW239912   3.353   3.362   1.914 -1.4217  1.7638 -0.8398
 9485SOL     OW39913   1.875   2.351   9.934  0.5497  0.1368 -0.3745
 9485SOL    HW139914   1.809   2.320   9.996  1.0383 -1.9121 -0.8729
 9485SOL    HW239915   1.840   2.308   9.856  2.3625 -0.8220 -0.6617
 9486SOL     OW39916   0.894   1.716   4.500 -0.5320  0.1204 -0.3597
 9486SOL    HW139917   0.947   1.691   4.424 -0.9268 -1.2429 -0.1769
 9486SOL    HW239918   0.809   1.710   4.456 -0.7613  1.8472 -0.1781
 9487SOL     OW39919   3.051   0.409   3.952 -0.0194  0.0236  0.4669
 9487SOL    HW139920   3.025   0.500   3.967 -2.2567 -0.4694 -0.5471
 9487SOL    HW239921   3.021   0.410   3.861 -2.0741 -0.4897  1.1635
 9488SOL     OW39922   3.587   3.716   3.177  0.0994  0.0785 -0.0406
 9488SOL    HW139923   3.667   3.665   3.190  0.5875  0.3352 -2.0148
 9488SOL    HW239924   3.615   3.771   3.250 -2.1437  1.0790  0.0609
 9489SOL     OW39925   2.135   3.324   2.915 -0.4024 -0.4411 -0.6799
 9489SOL    HW139926   2.173   3.398   2.962  0.0555 -0.2493 -1.3515
 9489SOL    HW239927   2.211   3.284   2.873  0.9903  0.8308  0.6638
 9490SOL     OW39928   0.395   4.369  11.951  0.0350  0.2069  0.0687
 9490SOL    HW139929   0.433   4.372  12.039 -0.7337  3.1848  0.2906
 9490SOL    HW239930   0.477   4.367  11.901 -0.3584 -1.3689 -0.4987
 9491SOL     OW39931   0.473   0.012   4.890  0.4665  0.4986 -0.1056
 9491SOL    HW139932   0.387   0.050   4.871  0.1151  0.0772  0.6434
 9491SOL    HW239933   0.533   0.084   4.905 -0.5568  1.4137 -0.3872
 9492SOL     OW39934   1.964   0.083   8.993 -0.5678 -0.1281  0.3283
 9492SOL    HW139935   1.903   0.024   8.948 -1.2883  2.0616 -1.5723
 9492SOL    HW239936   2.029   0.020   9.024  0.5755  1.1737  0.5553
 9493SOL     OW39937   2.036   4.389  12.624  0.0361  0.4311  0.4403
 9493SOL    HW139938   2.110   4.391  12.685 -0.9974  1.7407  1.6682
 9493SOL    HW239939   2.086   4.368  12.545  0.8890  0.5926  0.9315
 9494SOL     OW39940   3.313   0.646   7.885 -0.3140 -0.2620  0.1332
 9494SOL    HW139941   3.401   0.643   7.923 -1.1969  1.0934  2.2954
 9494SOL    HW239942   3.268   0.572   7.926 -0.0068  0.2709  1.4544
 9495SOL     OW39943   3.070   2.624   7.435  0.0396 -0.4679  0.0592
 9495SOL    HW139944   3.155   2.636   7.393 -0.1893 -0.5340 -0.4132
 9495SOL    HW239945   3.048   2.715   7.458 -0.0388 -0.9139  1.7776
 9496SOL     OW39946   2.742   3.761   0.118  0.2369 -0.1738 -0.4675
 9496SOL    HW139947   2.821   3.761   0.172 -0.1140  0.9902  0.0355
 9496SOL    HW239948   2.683   3.733   0.188  0.2427 -1.4567 -0.9734
 9497SOL     OW39949   0.346   3.873  15.451 -0.9717 -0.4562 -0.1670
 9497SOL    HW139950   0.371   3.965  15.443  0.9029 -1.0404 -1.1065
 9497SOL    HW239951   0.332   3.851  15.543 -1.3125 -1.2217 -0.4053
 9498SOL     OW39952   3.349   3.148   2.268 -1.0431 -0.1042  0.0780
 9498SOL    HW139953   3.282   3.081   2.252  0.4185 -1.0013 -2.2435
 9498SOL    HW239954   3.318   3.221   2.215 -2.9174 -0.1181  1.1440
 9499SOL     OW39955   1.912   1.973   8.994 -0.3495  0.1905 -0.3534
 9499SOL    HW139956   2.006   1.954   8.997 -0.2025  0.3934 -3.0558
 9499SOL    HW239957   1.908   2.048   8.934  0.2280  0.3674 -0.1734
 9500SOL     OW39958   2.001   3.243  10.356  1.3891 -0.4265  0.1020
 9500SOL    HW139959   1.929   3.180  10.363  0.7339  0.4480  1.2211
 9500SOL    HW239960   1.977   3.318  10.410 -0.2353 -0.5093 -0.5122
 9501SOL     OW39961   1.456   2.468   2.269  0.4973 -0.0404  0.3345
 9501SOL    HW139962   1.551   2.458   2.267  0.6424  1.3121  0.7909
 9501SOL    HW239963   1.442   2.468   2.174 -2.3179  0.6661  0.7477
 9502SOL     OW39964   3.693   3.850   2.637  0.9115  0.0168 -1.0292
 9502SOL    HW139965   3.749   3.773   2.643  1.3253  0.2851 -1.4797
 9502SOL    HW239966   3.682   3.853   2.542  0.8507  1.4097 -0.9800
 9503SOL     OW39967   0.838   1.609  13.244 -0.3782  0.1984  0.1824
 9503SOL    HW139968   0.895   1.681  13.271  0.5083 -0.5492  0.3226
 9503SOL    HW239969   0.824   1.621  13.150 -0.7820 -0.3753  0.1699
 9504SOL     OW39970   1.190   1.124  16.419  0.1581 -0.0191  0.0985
 9504SOL    HW139971   1.149   1.209  16.400  0.9996  0.8714  2.2168
 9504SOL    HW239972   1.174   1.079  16.336 -3.5303  0.2724  0.6344
 9505SOL     OW39973   0.994   0.651  16.038  0.1204  0.0616 -0.1075
 9505SOL    HW139974   1.034   0.576  15.994 -0.2340 -0.7355  0.9363
 9505SOL    HW239975   0.931   0.618  16.102 -0.5565  0.6793 -0.4592
 9506SOL     OW39976   4.580   2.089  10.380  0.0918  0.2085  0.4431
 9506SOL    HW139977   4.637   2.124  10.447  2.2672  0.4302 -1.5092
 9506SOL    HW239978   4.534   2.171  10.360 -0.9275 -1.0132 -2.3561
 9507SOL     OW39979   1.809   1.577   1.529  0.2254  0.1283 -0.3095
 9507SOL    HW139980   1.806   1.488   1.563 -1.0582  0.0069 -0.7739
 9507SOL    HW239981   1.792   1.624   1.611 -1.5832  1.1219 -1.2507
 9508SOL     OW39982   2.107   4.254   2.736 -0.1316  0.2770  0.1013
 9508SOL    HW139983   2.119   4.191   2.807  1.3572 -0.8132 -1.1013
 9508SOL    HW239984   2.054   4.206   2.673  1.9479 -2.2618  0.2575
 9509SOL     OW39985   1.390   1.913  10.147  0.0967 -0.1630  0.0753
 9509SOL    HW139986   1.413   1.892  10.237  0.1320  0.2017  0.1514
 9509SOL    HW239987   1.310   1.862  10.147 -0.8975  1.4089  0.6051
 9510SOL     OW39988   4.701   3.957   0.469 -0.7585  0.0026  0.3728
 9510SOL    HW139989   4.709   4.020   0.541  1.4712  2.4844 -2.0421
 9510SOL    HW239990   0.066   3.924   0.456 -1.5446 -1.9275 -0.0676
 9511SOL     OW39991   4.229   0.655  15.945  0.2053 -0.9675  0.2558
 9511SOL    HW139992   4.248   0.748  15.946  0.8070 -1.0990  1.1007
 9511SOL    HW239993   4.154   0.658  15.885 -1.0717 -1.5497  1.8353
 9512SOL     OW39994   0.323   3.174  13.761  0.4496  0.1003  1.0698
 9512SOL    HW139995   0.279   3.136  13.685 -1.5233  2.2301  1.1440
 9512SOL    HW239996   0.342   3.266  13.742 -1.4695  0.5544  1.3730
 9513SOL     OW39997   4.653   0.258   4.762  0.3046  0.1108  0.0205
 9513SOL    HW139998   4.624   0.241   4.673  1.3913  2.1660 -0.7179
 9513SOL    HW239999   4.690   0.346   4.761  0.5948 -0.0121 -0.1250
 9514SOL     OW40000   0.559   3.237   3.847  0.0540  0.0788 -0.2498
 9514SOL    HW140001   0.506   3.188   3.784 -1.1660  1.3033 -0.1497
 9514SOL    HW240002   0.492   3.272   3.905  1.2767 -0.7473  1.7049
 9515SOL     OW40003   1.039   1.056  11.598  0.0223  0.6210  0.6844
 9515SOL    HW140004   0.965   1.050  11.658 -1.2240 -1.5530 -1.0682
 9515SOL    HW240005   1.020   1.141  11.558  0.2470 -0.3114 -1.4373
 9516SOL     OW40006   0.227   3.964   6.206 -0.1366  0.0858 -0.1707
 9516SOL    HW140007   0.251   3.889   6.260  0.9544 -0.2726 -1.1361
 9516SOL    HW240008   0.169   4.007   6.269  0.3846 -1.4152  1.3290
 9517SOL     OW40009   1.607   4.479   9.207  0.1779 -0.9121  0.3196
 9517SOL    HW140010   1.546   4.438   9.268 -2.2037  0.1567 -1.3243
 9517SOL    HW240011   1.693   4.481   9.249  2.0526 -1.3716 -3.3873
 9518SOL     OW40012   3.101   2.770   8.879  0.1990  0.5456  0.1028
 9518SOL    HW140013   3.051   2.847   8.906 -1.9830 -0.7715 -0.2290
 9518SOL    HW240014   3.033   2.707   8.857  0.4054  0.4974 -0.4048
 9519SOL     OW40015   4.075   2.172   9.181 -0.0565  0.3326  0.0268
 9519SOL    HW140016   4.019   2.145   9.254 -1.0043  0.6549 -0.5887
 9519SOL    HW240017   4.064   2.101   9.118 -0.6141 -0.0801  0.5872
 9520SOL     OW40018   2.178   3.455   3.332 -0.4835 -0.5367  0.1137
 9520SOL    HW140019   2.230   3.533   3.314 -1.9476 -0.2972 -3.2592
 9520SOL    HW240020   2.178   3.445   3.427  0.0258 -1.5165  0.0113
 9521SOL     OW40021   3.999   3.829   2.578  0.9223  0.3301 -0.3252
 9521SOL    HW140022   4.089   3.797   2.586  0.2935 -1.2611  0.4109
 9521SOL    HW240023   3.997   3.902   2.639 -1.1377  1.4221 -1.6704
 9522SOL     OW40024   4.103   4.512  12.370  0.0717  0.3337 -0.3775
 9522SOL    HW140025   4.191   4.549  12.380  0.4277 -0.5738 -0.1472
 9522SOL    HW240026   4.064   4.536  12.454 -0.5778 -0.6133 -0.4070
 9523SOL     OW40027   2.138   4.029   6.812  0.8918  0.1853 -0.0819
 9523SOL    HW140028   2.052   4.017   6.852  1.8180  3.5960  2.9933
 9523SOL    HW240029   2.178   4.111   6.841  1.0728  0.9226 -2.3919
 9524SOL     OW40030   4.720   1.900  13.458  0.4770  0.4013 -0.0496
 9524SOL    HW140031   4.654   1.964  13.429  0.2674 -0.2801 -1.0819
 9524SOL    HW240032   0.028   1.867  13.374  0.5094 -2.5107  1.1157
 9525SOL     OW40033   3.053   3.317  17.540 -0.3511  0.0878 -0.0919
 9525SOL    HW140034   3.078   3.378  17.471  0.0458  0.4730  0.3904
 9525SOL    HW240035   3.137   3.285  17.574  0.4674  1.5409 -0.7828
 9526SOL     OW40036   3.420   0.674   6.330 -0.6105 -0.2918  0.7294
 9526SOL    HW140037   3.417   0.671   6.234 -0.3347  2.0200  0.6408
 9526SOL    HW240038   3.340   0.625   6.349 -1.5810  1.0387  0.0343
 9527SOL     OW40039   0.870   0.442   3.683 -0.0825  0.2099 -0.3475
 9527SOL    HW140040   0.936   0.401   3.628  1.3140  0.5010  1.1117
 9527SOL    HW240041   0.888   0.398   3.766  1.0685  0.3052 -0.5489
 9528SOL     OW40042   3.115   3.623   4.264  0.1674  0.0502  0.9341
 9528SOL    HW140043   3.088   3.681   4.193  0.4243 -2.4858 -1.2426
 9528SOL    HW240044   3.040   3.564   4.253  0.8121 -0.6607  0.3627
 9529SOL     OW40045   0.879   2.706   1.179 -0.3034 -0.4651  0.0014
 9529SOL    HW140046   0.926   2.715   1.262  1.1478 -1.0516 -0.7542
 9529SOL    HW240047   0.800   2.759   1.194  0.4838 -0.2146  3.2305
 9530SOL     OW40048   2.431   2.726  11.981  0.6326  0.4526  0.4695
 9530SOL    HW140049   2.403   2.818  11.976 -1.4922 -0.1029  1.9150
 9530SOL    HW240050   2.400   2.704  11.894 -1.6511 -2.1221  1.9247
 9531SOL     OW40051   4.088   4.541   4.769  0.2691 -0.5164 -0.9327
 9531SOL    HW140052   4.115   4.599   4.698  1.6053 -0.4906 -0.4229
 9531SOL    HW240053   4.013   4.494   4.733  0.4653 -0.6844 -1.1219
 9532SOL     OW40054   1.489   4.400   0.424 -0.8122 -0.1838  0.6318
 9532SOL    HW140055   1.575   4.413   0.463 -0.7729  0.9700  0.1705
 9532SOL    HW240056   1.492   4.305   0.429  1.4356 -0.2252 -1.6096
 9533SOL     OW40057   1.066   0.223   9.784 -0.0935 -0.1914 -0.4178
 9533SOL    HW140058   0.980   0.256   9.810  0.0516  0.7869 -1.1721
 9533SOL    HW240059   1.097   0.183   9.865  1.3211 -2.0372 -1.8780
 9534SOL     OW40060   4.571   2.561   8.621 -0.4822  0.0114 -0.3688
 9534SOL    HW140061   4.607   2.630   8.565 -0.0967 -0.1978 -0.3774
 9534SOL    HW240062   4.649   2.512   8.648 -1.1434 -0.8358 -0.0211
 9535SOL     OW40063   3.525   1.769   8.331 -0.0972  0.1832  0.2525
 9535SOL    HW140064   3.612   1.807   8.320  0.7464 -1.6049  0.7335
 9535SOL    HW240065   3.516   1.767   8.427 -4.1064 -0.9033 -0.1649
 9536SOL     OW40066   4.537   1.080  15.080  0.3103  0.2117  0.4408
 9536SOL    HW140067   4.458   1.026  15.088  0.4109  0.2286  1.5684
 9536SOL    HW240068   4.505   1.136  15.009  2.4874 -0.2721 -0.9152
 9537SOL     OW40069   0.637   0.167  10.283 -0.0801  0.4119  0.3443
 9537SOL    HW140070   0.580   0.103  10.240  0.6219  1.6700 -2.4759
 9537SOL    HW240071   0.664   0.114  10.358  1.4447  1.3250  0.4393
 9538SOL     OW40072   2.692   4.338   5.233 -0.0659  0.0729  0.1293
 9538SOL    HW140073   2.605   4.353   5.270  0.1604 -0.1936  0.7641
 9538SOL    HW240074   2.747   4.370   5.304 -1.8570 -3.3545  3.0824
 9539SOL     OW40075   3.343   0.427   4.971 -0.1327  0.2479 -0.4889
 9539SOL    HW140076   3.416   0.429   5.033  0.2839 -0.5051 -0.9613
 9539SOL    HW240077   3.379   0.357   4.917  0.9744 -0.4218  1.1306
 9540SOL     OW40078   2.207   3.355  10.646  0.1774  0.2988 -0.0940
 9540SOL    HW140079   2.282   3.409  10.670 -0.8275  1.1140  1.1747
 9540SOL    HW240080   2.203   3.304  10.727  2.0254 -0.4681 -0.4937
 9541SOL     OW40081   0.957   2.968   8.722 -0.2279  0.0632  0.2501
 9541SOL    HW140082   0.887   3.034   8.721  0.8589  1.2305  0.6381
 9541SOL    HW240083   1.019   2.990   8.792  0.0932  0.7429 -0.2429
 9542SOL     OW40084   2.303   0.080  11.063  0.2287  0.0220 -0.2108
 9542SOL    HW140085   2.351   0.012  11.017 -0.9774 -0.8444 -0.2101
 9542SOL    HW240086   2.372   0.110  11.121  1.1246 -1.4810 -0.5022
 9543SOL     OW40087   3.257   0.553   5.637 -0.2213  0.1719  0.4718
 9543SOL    HW140088   3.296   0.639   5.623  1.0110 -0.7723 -1.7681
 9543SOL    HW240089   3.254   0.544   5.732 -1.1210  1.3613  0.5607
 9544SOL     OW40090   0.092   0.834   4.574 -0.3225  0.1499 -0.3446
 9544SOL    HW140091   0.007   0.789   4.576 -0.9754  1.3703 -0.8043
 9544SOL    HW240092   0.159   0.771   4.598  0.8637  1.5159 -0.0801
 9545SOL     OW40093   1.472   2.048   2.539  0.3226  0.6246 -0.2232
 9545SOL    HW140094   1.381   2.032   2.565 -0.1242 -1.7207 -3.3457
 9545SOL    HW240095   1.500   1.958   2.526 -1.1525  0.1637 -0.2439
 9546SOL     OW40096   2.023   3.917   0.344 -0.2880  0.2095 -0.2441
 9546SOL    HW140097   1.983   3.989   0.294  1.1581  2.6631  2.1165
 9546SOL    HW240098   1.947   3.863   0.364 -0.5870  1.0584  0.9414
 9547SOL     OW40099   2.784   0.386  17.420 -0.9580 -0.0300  0.1653
 9547SOL    HW140100   2.830   0.386  17.336 -1.0155 -2.4425  0.1216
 9547SOL    HW240101   2.783   0.293  17.445  0.3438  0.1604  0.9427
 9548SOL     OW40102   2.779   1.925   2.438  0.2851 -0.3228 -0.2648
 9548SOL    HW140103   2.861   1.878   2.428  2.0216  2.2063  2.1651
 9548SOL    HW240104   2.809   1.985   2.506 -1.1492  1.4767 -1.1915
 9549SOL     OW40105   3.650   3.099  12.611  0.0107  0.4683  0.4204
 9549SOL    HW140106   3.634   3.039  12.684 -1.5411 -0.1322 -0.4220
 9549SOL    HW240107   3.612   3.041  12.546  2.5782 -0.3161 -0.3551
 9550SOL     OW40108   3.051   0.451  14.087  0.6495  0.3395 -0.1453
 9550SOL    HW140109   3.050   0.512  14.160  0.6507  2.1738 -1.6756
 9550SOL    HW240110   2.961   0.420  14.074  1.2662 -1.5527  0.0199
 9551SOL     OW40111   1.303   2.604   5.950  0.5780  0.4361 -0.3347
 9551SOL    HW140112   1.367   2.550   5.903 -0.3421 -0.8488 -0.1429
 9551SOL    HW240113   1.230   2.546   5.973  1.1023 -0.8387 -1.8764
 9552SOL     OW40114   4.209   1.924   3.818 -0.1255 -0.4739  0.0812
 9552SOL    HW140115   4.193   1.884   3.733 -0.4513  0.9001 -0.5091
 9552SOL    HW240116   4.219   2.017   3.795 -0.5730 -0.3290  0.4687
 9553SOL     OW40117   2.247   3.178   1.360  0.0355 -0.5092 -0.0424
 9553SOL    HW140118   2.154   3.174   1.382 -0.0608 -1.7593 -0.7391
 9553SOL    HW240119   2.287   3.176   1.448 -0.4174 -0.3382  0.1683
 9554SOL     OW40120   2.286   2.638   4.579 -0.0413 -0.0773 -0.3489
 9554SOL    HW140121   2.300   2.591   4.497  0.4528 -1.3257  0.4546
 9554SOL    HW240122   2.374   2.654   4.612 -0.0237  1.3696 -1.1318
 9555SOL     OW40123   2.618   2.929  17.020 -0.3289 -0.5474 -0.2133
 9555SOL    HW140124   2.703   2.938  17.063 -0.8784 -0.8292  0.9347
 9555SOL    HW240125   2.576   2.865  17.077 -0.6814 -0.3148 -0.2137
 9556SOL     OW40126   1.226   4.667   6.626  0.0852 -0.2503  0.2299
 9556SOL    HW140127   1.233   0.017   6.566 -0.4447 -1.0914 -0.8563
 9556SOL    HW240128   1.312   4.680   6.666 -0.7995  2.2917  1.3508
 9557SOL     OW40129   0.496   2.934  13.564 -0.4891 -0.2279  0.2132
 9557SOL    HW140130   0.413   2.982  13.556 -1.3801 -1.4653  1.9258
 9557SOL    HW240131   0.496   2.857  13.508  1.1143 -0.8460  1.0528
 9558SOL     OW40132   0.178   2.097  13.236  0.0882 -0.6538 -0.4095
 9558SOL    HW140133   0.250   2.106  13.299 -0.0833 -1.8980 -0.0424
 9558SOL    HW240134   0.160   2.007  13.262  0.1351 -0.5582 -0.0421
 9559SOL     OW40135   2.712   2.809   5.130 -0.3553 -0.1683  0.2375
 9559SOL    HW140136   2.736   2.865   5.204 -0.8025 -2.2868  1.9903
 9559SOL    HW240137   2.662   2.870   5.077  0.6932  0.0383 -0.5026
 9560SOL     OW40138   3.602   4.286  15.907 -0.3664  0.2770  0.4151
 9560SOL    HW140139   3.605   4.250  15.819 -0.1319  4.1664 -1.1287
 9560SOL    HW240140   3.693   4.315  15.905 -0.4027  0.4063  0.6628
 9561SOL     OW40141   4.085   0.221  13.713  0.0768 -0.4958 -0.0711
 9561SOL    HW140142   4.151   0.222  13.643 -1.0332  0.6465 -1.0978
 9561SOL    HW240143   4.107   0.133  13.744 -0.5565 -1.4126 -2.1965
 9562SOL     OW40144   1.441   3.588   7.148  0.3318  0.1565  0.3050
 9562SOL    HW140145   1.354   3.573   7.110  1.0634  0.4408 -1.4968
 9562SOL    HW240146   1.412   3.607   7.237  0.1893 -0.5404  0.4089
 9563SOL     OW40147   0.771   3.482  14.360 -0.1971  0.9854 -0.1415
 9563SOL    HW140148   0.730   3.560  14.397  0.0205  0.6628  0.7763
 9563SOL    HW240149   0.776   3.428  14.439  2.6154  3.0076  1.0596
 9564SOL     OW40150   0.336   2.899   6.862  0.4312 -0.8203 -0.1187
 9564SOL    HW140151   0.251   2.856   6.866 -1.1965  2.4344  0.1278
 9564SOL    HW240152   0.386   2.842   6.804 -1.1466 -2.3969  0.0897
 9565SOL     OW40153   2.848   3.863   8.815  0.2022  0.1417  0.3006
 9565SOL    HW140154   2.919   3.870   8.879 -1.0193 -1.5977  1.8422
 9565SOL    HW240155   2.840   3.955   8.790  1.0982  0.2602  0.4287
   4.72358   4.72358  17.69612
