Membrane in water
40155
    1TCq1    O1    1   3.968   2.846  11.081  0.3809 -0.2308  0.8221
    1TCq1    C1    2   4.027   2.823  11.201  0.1494 -0.6540 -0.1500
    1TCq1    O2    3   3.969   2.810  11.308  0.4472  0.1804  0.4336
    1TCq1    C2    4   4.172   2.841  11.201  0.0315  0.1447 -0.0108
    1TCq1    C3    5   4.238   2.808  11.085  0.4488 -0.3317 -0.3021
    1TCq1    C4    6   4.372   2.832  11.077 -0.2030 -0.3542  0.2747
    1TCq1    C5    7   4.441   2.880  11.183  0.5538  0.7377  0.4175
    1TCq1    C6    8   4.373   2.911  11.297  0.6632  0.8067 -0.0183
    1TCq1    C7    9   4.242   2.885  11.316 -0.1252 -0.1389  0.1076
    1TCq1    C8   10   4.435   3.014  11.384 -0.0188  0.6007 -0.2495
    1TCq1    O4   11   4.406   3.020  11.504  0.2455  0.4031 -0.2014
    1TCq1    C9   12   4.429   2.807  10.946 -0.0105  0.3889 -0.0097
    1TCq1    O5   13   4.351   2.745  10.865 -0.9376  0.3968  0.5218
    1TCq1    O6   14   4.545   2.848  10.931 -0.3019 -0.2208 -0.2825
    1TCq1    H1   15   4.027   2.881  11.010  1.0168  0.1518  1.5449
    1TCq1    H2   16   4.178   2.768  11.004 -1.9937  0.0059  1.3533
    1TCq1    H3   17   4.546   2.905  11.166  0.1878  1.8798 -0.2496
    1TCq1    H4   18   4.195   2.915  11.409 -2.0234 -0.7276 -0.6519
    2MPD2     C   19   0.009   3.418  11.456 -0.0942  0.3391  0.5705
    2MPD2    C1   20   4.645   3.369  11.542  0.1450 -0.0754  0.2298
    2MPD2    C2   21   4.559   3.271  11.501  0.4714 -0.5681  0.2964
    2MPD2    C3   22   4.568   3.228  11.363  0.6319  0.2277 -0.5322
    2MPD2    C4   23   4.655   3.287  11.279  0.0332 -0.4207 -0.1615
    2MPD2    C5   24   0.013   3.387  11.325  0.4759  0.2681 -0.1719
    2MPD2     H   25   4.488   3.225  11.569 -1.0178  2.2005  0.6250
    2MPD2    H1   26   4.668   3.252  11.177  1.0923  0.3143 -0.2807
    2MPD2    H2   27   0.087   3.490  11.478  0.2147  0.3414 -0.5443
    2MPD2    H3   28   0.085   3.424  11.254 -1.9220  0.0851 -2.7362
    2MPD2     N   29   4.504   3.107  11.312  0.3969 -0.3603  0.4179
    2MPD2    H5   30   4.506   3.096  11.211  0.5285  0.1296  0.3688
    2MPD2    N1   31   4.631   3.415  11.679 -0.0011  0.1412  0.7521
    2MPD2    H7   32   4.555   3.366  11.725 -0.0635  0.4314  0.9554
    3TCq1    O1   33   4.181   4.214  11.191  0.1564 -0.6123 -0.5279
    3TCq1    C1   34   4.204   4.325  11.268 -0.2577  0.5507  0.2406
    3TCq1    O2   35   4.200   4.316  11.392  0.6389 -0.5834  0.1479
    3TCq1    C2   36   4.195   4.440  11.186  0.2082 -0.3077  0.2668
    3TCq1    C3   37   4.261   4.452  11.070  0.6102  0.3590  0.7837
    3TCq1    C4   38   4.227   4.555  10.989  0.2394  0.3007  0.0356
    3TCq1    C5   39   4.119   4.638  11.020 -0.7419  0.1714  0.3508
    3TCq1    C6   40   4.069   4.632  11.150 -0.6859 -0.9281  0.0265
    3TCq1    C7   41   4.112   4.538  11.237 -0.5766  0.0658  0.2329
    3TCq1    C8   42   3.939   4.689  11.180  0.2331  0.3852 -0.3622
    3TCq1    O4   43   3.904   4.674  11.297 -0.1431 -0.1010 -0.1367
    3TCq1    C9   44   4.273   4.562  10.850 -0.1341  0.5135  0.6507
    3TCq1    O5   45   4.370   4.486  10.813 -0.0587  0.5273 -0.1456
    3TCq1    O6   46   4.226   4.655  10.776  0.3215 -0.1336 -0.6486
    3TCq1    H1   47   4.168   4.239  11.097 -2.2417  0.1421  0.0207
    3TCq1    H2   48   4.328   4.377  11.029  0.3041  0.2273  0.5167
    3TCq1    H3   49   4.076   4.707  10.948  0.9816 -4.2240 -4.8561
    3TCq1    H4   50   4.063   4.513  11.330 -1.4260  0.9796  0.0292
    4MPD2     C   51   3.484   0.178  11.115 -0.4591 -0.7301  0.7040
    4MPD2    C1   52   3.567   0.215  11.006 -0.3138 -0.0446  0.4379
    4MPD2    C2   53   3.696   0.178  11.007  0.2602 -0.8044 -0.5813
    4MPD2    C3   54   3.740   0.088  11.100 -0.7983  0.2180 -0.5433
    4MPD2    C4   55   3.653   0.035  11.194 -0.0884 -0.2578 -0.0787
    4MPD2    C5   56   3.527   0.085  11.207 -0.4576 -0.6232 -0.0396
    4MPD2     H   57   3.766   0.200  10.927 -0.5681  0.1900 -1.0295
    4MPD2    H1   58   3.681   4.681  11.262 -0.6557 -1.4344 -1.2207
    4MPD2    H2   59   3.383   0.215  11.126  0.0339  0.9845 -0.6074
    4MPD2    H3   60   3.464   0.044  11.285 -0.5971 -0.1267  0.1042
    4MPD2     N   61   3.876   0.040  11.087  0.3287 -0.1296  0.2942
    4MPD2    H5   62   3.931   0.056  11.003  0.3553 -3.4664 -0.3345
    4MPD2    N1   63   3.527   0.300  10.894 -0.4627 -0.4978 -0.0819
    4MPD2    H7   64   3.597   0.318  10.823  0.6567 -0.5501  1.0045
    5TCq1    O1   65   4.258   2.489  10.239  0.3705  0.2299  0.3441
    5TCq1    C1   66   4.374   2.449  10.301  0.6301  0.1732 -0.5907
    5TCq1    O2   67   4.401   2.442  10.419  0.0125  0.2716  0.2742
    5TCq1    C2   68   4.454   2.375  10.197 -0.3600 -0.4903 -0.1103
    5TCq1    C3   69   4.439   2.411  10.065 -0.0097  0.2561 -0.0517
    5TCq1    C4   70   4.502   2.337   9.967  0.2015  0.0793 -0.1274
    5TCq1    C5   71   4.582   2.234  10.003  0.2238 -0.8755 -0.0803
    5TCq1    C6   72   4.602   2.207  10.135 -0.4459  0.4923  0.0745
    5TCq1    C7   73   4.539   2.280  10.232 -0.0738  0.5250 -0.6231
    5TCq1    C8   74   4.690   2.096  10.176  0.3537  0.6053  0.3266
    5TCq1    O4   75   4.669   2.040  10.288 -0.3195  0.0946  0.5825
    5TCq1    C9   76   4.489   2.358   9.824 -0.1519 -0.3433  0.0287
    5TCq1    O5   77   4.388   2.422   9.786 -0.5170 -0.2978 -0.0394
    5TCq1    O6   78   4.596   2.337   9.764  0.2221 -0.2074 -0.1148
    5TCq1    H1   79   4.252   2.449  10.149  1.6093  0.8529 -0.0307
    5TCq1    H2   80   4.379   2.494  10.029 -0.0771 -0.5354 -1.7327
    5TCq1    H3   81   4.631   2.173   9.927  0.7201  2.8191 -2.6884
    5TCq1    H4   82   4.558   2.252  10.335  0.9295  0.8865 -0.7125
    6MPD2     C   83   0.301   2.046  10.029 -0.5156 -0.5479  1.2082
    6MPD2    C1   84   0.188   2.016  10.104  0.4147 -0.1109  0.0447
    6MPD2    C2   85   0.194   1.903  10.186  0.0373 -0.2398  0.2624
    6MPD2    C3   86   0.304   1.822  10.196 -0.4739  0.6976  0.3380
    6MPD2    C4   87   0.408   1.840  10.099  0.0400  0.0067 -0.3862
    6MPD2    C5   88   0.410   1.962  10.029  0.3901 -0.7426 -0.2998
    6MPD2     H   89   0.107   1.877  10.245 -0.6977 -0.4732 -0.9247
    6MPD2    H1   90   0.495   1.776  10.099 -0.0465 -0.0996  1.9851
    6MPD2    H2   91   0.312   2.139   9.974  0.0348 -1.8268 -0.8585
    6MPD2    H3   92   0.494   1.980   9.963  0.1390 -2.0618 -0.9667
    6MPD2     N   93   0.305   1.720  10.295 -0.5030 -0.1766 -0.5974
    6MPD2    H5   94   0.215   1.706  10.340 -0.0774  1.6938  0.8404
    6MPD2    N1   95   0.072   2.095  10.097 -0.1233  0.0282  0.7895
    6MPD2    H7   96   0.078   2.176  10.036  0.5925 -0.3379  0.3795
    7TCq1    O1   97   1.699   1.572  13.377  0.1586  0.0812 -0.1572
    7TCq1    C1   98   1.778   1.552  13.269 -0.3345 -0.7243 -0.1816
    7TCq1    O2   99   1.867   1.628  13.229  0.3001  0.0198  0.4472
    7TCq1    C2  100   1.736   1.437  13.211  1.6091 -0.2625 -0.3519
    7TCq1    C3  101   1.713   1.443  13.074 -0.4401  0.3269 -0.3197
    7TCq1    C4  102   1.678   1.323  13.022 -0.0903  0.5989 -0.6416
    7TCq1    C5  103   1.677   1.208  13.093  0.2040  1.0845 -0.1175
    7TCq1    C6  104   1.693   1.208  13.230  0.3097  0.3111  0.2016
    7TCq1    C7  105   1.732   1.322  13.287  0.5939  0.6738 -0.2041
    7TCq1    C8  106   1.698   1.075  13.289  0.6391 -0.4546  0.0836
    7TCq1    O4  107   1.700   0.979  13.218 -0.2008  0.0064  0.3397
    7TCq1    C9  108   1.647   1.318  12.883 -0.0767  0.4350  0.4234
    7TCq1    O5  109   1.653   1.202  12.829  0.0008  0.3641  0.0302
    7TCq1    O6  110   1.592   1.420  12.831 -0.1189  0.5738 -0.4446
    7TCq1    H1  111   1.628   1.504  13.377 -1.4531  1.7661 -1.8954
    7TCq1    H2  112   1.716   1.534  13.016  1.4311 -1.3689 -2.9292
    7TCq1    H3  113   1.656   1.111  13.049 -0.6811  1.1936  0.0719
    7TCq1    H4  114   1.788   1.319  13.380  0.5079 -1.8601 -0.2515
    8MPD2     C  115   1.786   0.752  13.683 -0.1981 -0.8162 -0.4658
    8MPD2    C1  116   1.799   0.734  13.543 -0.1398  0.2843 -0.3955
    8MPD2    C2  117   1.782   0.847  13.462 -0.4909 -0.4224 -0.2005
    8MPD2    C3  118   1.736   0.969  13.504  0.2638  0.2475 -0.8437
    8MPD2    C4  119   1.721   0.984  13.648  0.2854 -1.4370 -0.5722
    8MPD2    C5  120   1.747   0.870  13.731 -0.3218 -0.1976 -0.6751
    8MPD2     H  121   1.806   0.833  13.357 -0.1735  2.1588 -0.4816
    8MPD2    H1  122   1.686   1.077  13.690 -0.0810 -1.9375  0.2235
    8MPD2    H2  123   1.804   0.675  13.757  1.0116 -1.8189 -1.8005
    8MPD2    H3  124   1.747   0.889  13.838 -0.1012 -1.2166 -0.4988
    8MPD2     N  125   1.705   1.083  13.421  0.2199 -0.2473  0.4359
    8MPD2    H5  126   1.675   1.169  13.466  0.1056  0.2074 -0.5034
    8MPD2    N1  127   1.829   0.596  13.511 -0.0981 -0.4424  0.2250
    8MPD2    H7  128   1.851   0.537  13.590  0.5248  0.3906  0.6741
    9TCq1    O1  129   0.101   0.532  11.027  0.3481 -0.7735 -0.1533
    9TCq1    C1  130   0.064   0.509  10.900  0.2769  0.2695  0.4674
    9TCq1    O2  131   4.720   0.583  10.834  0.4366  0.4224 -0.4868
    9TCq1    C2  132   0.069   0.366  10.884  0.4011 -0.4925 -0.1629
    9TCq1    C3  133   4.691   0.297  10.833  0.4470 -0.6272  0.8180
    9TCq1    C4  134   4.692   0.161  10.850  0.5004  0.4116 -0.4367
    9TCq1    C5  135   0.070   0.094  10.917  0.1603 -0.4844  0.2745
    9TCq1    C6  136   0.171   0.166  10.966 -0.2466 -0.7256  0.3274
    9TCq1    C7  137   0.169   0.303  10.954  0.8628 -0.2031 -0.4184
    9TCq1    C8  138   0.258   0.114  11.073 -0.1604 -0.6096  0.8536
    9TCq1    O4  139   0.376   0.149  11.070  0.0319 -0.2072  0.2923
    9TCq1    C9  140   4.591   0.083  10.788  0.1460 -0.2414 -0.6226
    9TCq1    O5  141   4.513   0.140  10.703 -0.1784 -0.1527 -0.3486
    9TCq1    O6  142   4.581   4.686  10.808 -0.3327 -0.0699 -0.3120
    9TCq1    H1  143   0.111   0.443  11.066  0.8841 -0.2112  0.9958
    9TCq1    H2  144   4.611   0.351  10.782 -0.5344 -0.2996  2.7073
    9TCq1    H3  145   0.068   4.712  10.927 -1.7205 -0.5773 -1.0376
    9TCq1    H4  146   0.262   0.348  10.985 -0.0745  2.0032 -0.8041
   10MPD2     C  147   0.369   4.705  11.307 -0.0278 -0.0495 -0.6758
   10MPD2    C1  148   0.242   0.039  11.300 -0.4191  0.7724 -0.1701
   10MPD2    C2  149   0.161   0.042  11.417 -0.0943 -0.6633  0.3056
   10MPD2    C3  150   0.207   4.719  11.537  0.9533  0.1951  0.4866
   10MPD2    C4  151   0.345   4.687  11.547  0.0283 -0.3351 -0.4980
   10MPD2    C5  152   0.418   4.673  11.431  0.4834 -0.0228 -0.1143
   10MPD2     H  153   0.056   0.063  11.399  0.3665  1.6723  0.3831
   10MPD2    H1  154   0.393   4.666  11.642  0.1505  0.7331 -0.3247
   10MPD2    H2  155   0.437   4.700  11.223  1.8879 -0.8892  0.9190
   10MPD2    H3  156   0.521   4.640  11.436  0.4062 -0.2780 -0.2091
   10MPD2     N  157   0.133   4.720  11.655 -0.1152 -0.4136  0.6192
   10MPD2    H5  158   0.183   4.679  11.733  2.1133  1.3530  0.1312
   10MPD2    N1  159   0.181   0.082  11.184  0.3258  0.0596  0.1083
   10MPD2    H7  160   0.082   0.101  11.171  0.4090 -0.6337 -1.5069
   11TCq1    O1  161   0.793   3.997  14.791  0.1871  0.9262  0.9221
   11TCq1    C1  162   0.711   3.984  14.685  0.0136 -0.9819 -0.1018
   11TCq1    O2  163   0.617   3.904  14.671  0.3866  0.3284 -0.0575
   11TCq1    C2  164   0.707   4.111  14.614  0.1031 -1.1683  0.3758
   11TCq1    C3  165   0.829   4.165  14.579  0.0304  0.2864  0.2250
   11TCq1    C4  166   0.832   4.253  14.474  0.3377  0.1163  0.1424
   11TCq1    C5  167   0.719   4.289  14.408  0.3223  0.0631  0.0736
   11TCq1    C6  168   0.600   4.234  14.442 -0.5319  0.6815 -0.4592
   11TCq1    C7  169   0.590   4.140  14.547 -0.2717  0.5862 -0.2706
   11TCq1    C8  170   0.484   4.250  14.360 -0.4215  0.3844 -0.5226
   11TCq1    O4  171   0.382   4.181  14.379 -0.0932  0.2738 -0.2529
   11TCq1    C9  172   0.951   4.315  14.429 -0.0783  0.5748 -0.0556
   11TCq1    O5  173   1.057   4.291  14.490 -0.3142 -0.2933  0.1794
   11TCq1    O6  174   0.947   4.410  14.343 -0.2641  0.3977 -0.3558
   11TCq1    H1  175   0.844   4.080  14.776 -0.5061  1.0773 -0.5716
   11TCq1    H2  176   0.924   4.136  14.622  0.9116  0.4099 -1.6416
   11TCq1    H3  177   0.734   4.366  14.334  2.9442 -0.7369 -0.2466
   11TCq1    H4  178   0.493   4.097  14.572  1.0001 -1.7062  0.6803
   12MPD2     C  179   0.488   4.375  14.028  0.0856  0.7411 -0.2176
   12MPD2    C1  180   0.446   4.292  14.124 -0.0274 -0.3866  0.6041
   12MPD2    C2  181   0.344   4.201  14.096 -0.2114 -0.1116 -0.1450
   12MPD2    C3  182   0.303   4.182  13.963 -0.2270  0.8095 -0.1605
   12MPD2    C4  183   0.345   4.280  13.868 -0.0477  0.3612  0.1937
   12MPD2    C5  184   0.433   4.382  13.905 -0.4142  0.5836 -0.5032
   12MPD2     H  185   0.315   4.128  14.170 -2.2178 -1.2970 -2.0993
   12MPD2    H1  186   0.316   4.269  13.764  0.0773 -1.2128  0.3142
   12MPD2    H2  187   0.564   4.450  14.049  1.4013 -0.4948 -0.6141
   12MPD2    H3  188   0.475   4.454  13.835 -0.1975  1.1395  0.2049
   12MPD2     N  189   0.208   4.093  13.913  0.5927  0.3562 -0.3506
   12MPD2    H5  190   0.172   4.115  13.821  0.8925  0.3462 -0.4675
   12MPD2    N1  191   0.506   4.324  14.246 -0.0974 -0.3864 -1.3358
   12MPD2    H7  192   0.590   4.380  14.243  0.3500 -0.9852  0.3775
   13TCq1    O1  193   4.466   3.661  11.369  0.1158  0.3465 -0.0909
   13TCq1    C1  194   4.571   3.707  11.440 -0.8001  0.0714 -0.4577
   13TCq1    O2  195   4.658   3.769  11.377  0.5908 -0.3058  0.4554
   13TCq1    C2  196   4.506   3.742  11.557 -0.2811  0.1043  0.7041
   13TCq1    C3  197   4.407   3.668  11.612  0.0874  0.4067  0.3793
   13TCq1    C4  198   4.330   3.734  11.706  0.1783 -0.1068  0.1665
   13TCq1    C5  199   4.333   3.870  11.727 -0.2744 -0.4538 -0.7733
   13TCq1    C6  200   4.430   3.946  11.662 -0.1416  0.0238  0.3320
   13TCq1    C7  201   4.521   3.876  11.578 -0.2114 -1.0691  0.3484
   13TCq1    C8  202   4.407   4.094  11.631 -0.4705 -0.1204 -0.4626
   13TCq1    O4  203   4.297   4.136  11.647  0.7874 -0.4865 -0.3028
   13TCq1    C9  204   4.233   3.659  11.783 -0.3097  0.6006  0.6781
   13TCq1    O5  205   4.210   3.543  11.741 -0.3700 -0.3212  0.2657
   13TCq1    O6  206   4.168   3.720  11.875 -0.2229  0.4206  0.0277
   13TCq1    H1  207   4.380   3.669  11.415  0.2767  0.8613  0.1133
   13TCq1    H2  208   4.406   3.562  11.592 -0.7097  0.5058 -0.0861
   13TCq1    H3  209   4.262   3.921  11.790 -1.2725 -1.5838 -0.9829
   13TCq1    H4  210   4.598   3.925  11.519 -2.2815  0.2649 -1.2452
   14MPD2     C  211   4.656   4.315  11.468  0.3536  0.5920  0.0607
   14MPD2    C1  212   4.539   4.282  11.531 -0.6164 -0.7907  0.1834
   14MPD2    C2  213   4.446   4.384  11.536  0.1576  0.1539  0.1521
   14MPD2    C3  214   4.464   4.510  11.481  0.2017  0.4316  0.2243
   14MPD2    C4  215   4.583   4.540  11.415 -0.0500 -0.3227  0.3787
   14MPD2    C5  216   4.676   4.440  11.410 -0.1403 -0.1176  0.1728
   14MPD2     H  217   4.355   4.367  11.592  0.8322 -0.2027  1.1426
   14MPD2    H1  218   4.607   4.639  11.377  0.7618 -1.2027 -1.3917
   14MPD2    H2  219   0.013   4.245  11.463  1.2200  1.7988 -2.5912
   14MPD2    H3  220   0.049   4.461  11.370 -0.3937 -0.6704 -0.7282
   14MPD2     N  221   4.374   4.611  11.521 -1.3142 -0.1498  0.2261
   14MPD2    H5  222   4.307   4.585  11.593 -0.3998  0.8901  1.4301
   14MPD2    N1  223   4.521   4.151  11.578 -0.1078  0.4771  0.4780
   14MPD2    H7  224   4.609   4.101  11.586 -0.2105 -0.0452 -1.7115
   15TCq1    O1  225   1.213   3.352   2.275 -0.3541 -0.3614  0.1107
   15TCq1    C1  226   1.337   3.307   2.241 -0.5595 -0.8820  0.2947
   15TCq1    O2  227   1.425   3.267   2.320 -0.7646 -0.3780  0.1967
   15TCq1    C2  228   1.343   3.355   2.104 -0.5450 -0.6895 -0.5236
   15TCq1    C3  229   1.266   3.465   2.067  0.1031  0.5793 -0.5855
   15TCq1    C4  230   1.267   3.491   1.934  0.1419 -0.2258  0.0554
   15TCq1    C5  231   1.322   3.408   1.841 -0.3144  0.4107  0.4580
   15TCq1    C6  232   1.412   3.318   1.883  0.2877  0.0319  0.0160
   15TCq1    C7  233   1.424   3.293   2.017  0.7546  0.0573  0.7173
   15TCq1    C8  234   1.448   3.216   1.792  0.1716 -0.2584 -0.0877
   15TCq1    O4  235   1.544   3.150   1.831 -0.3961  0.4178  0.3767
   15TCq1    C9  236   1.204   3.618   1.890 -0.9548 -0.6621 -0.6107
   15TCq1    O5  237   1.198   3.635   1.765 -0.8145 -0.5750  0.2074
   15TCq1    O6  238   1.146   3.686   1.980 -0.2242 -0.4613  0.1325
   15TCq1    H1  239   1.153   3.364   2.199 -1.2396 -1.5602  0.6366
   15TCq1    H2  240   1.209   3.532   2.130 -0.1791  0.7913 -1.0688
   15TCq1    H3  241   1.326   3.451   1.741 -0.5165  0.0456  0.2919
   15TCq1    H4  242   1.488   3.214   2.054 -0.8402 -0.9639  1.2443
   16MPD2     C  243   1.297   3.132   1.465  0.2157  0.2498  0.2235
   16MPD2    C1  244   1.393   3.133   1.566 -0.6276 -0.1437  0.1060
   16MPD2    C2  245   1.484   3.030   1.566  0.1275 -0.1431 -0.6415
   16MPD2    C3  246   1.491   2.938   1.461 -0.5539  0.1443  0.0626
   16MPD2    C4  247   1.401   2.958   1.357 -0.0813 -0.4863 -0.2233
   16MPD2    C5  248   1.299   3.042   1.366  0.4064  0.1833 -0.8788
   16MPD2     H  249   1.566   3.035   1.637 -0.4066 -0.8964  0.0299
   16MPD2    H1  250   1.382   2.897   1.270 -2.1754 -0.2778  0.0773
   16MPD2    H2  251   1.220   3.208   1.475  1.2118  1.4745 -1.3922
   16MPD2    H3  252   1.236   3.062   1.280 -1.2325 -0.0470  0.2727
   16MPD2     N  253   1.593   2.842   1.456  0.1632 -0.5604  0.4644
   16MPD2    H5  254   1.644   2.827   1.543 -1.6392  0.5874  1.7409
   16MPD2    N1  255   1.385   3.226   1.674 -0.0286  0.1706 -0.1640
   16MPD2    H7  256   1.306   3.288   1.663 -0.5666 -0.4931 -0.0421
   17TCq1    O1  257   3.481   3.696  10.802 -0.2643 -0.3878 -0.1408
   17TCq1    C1  258   3.536   3.603  10.879 -0.3062 -0.1070 -0.5797
   17TCq1    O2  259   3.553   3.488  10.848 -0.3158 -0.3928  0.7229
   17TCq1    C2  260   3.590   3.685  10.993  0.1741 -0.7000 -0.7385
   17TCq1    C3  261   3.533   3.799  11.047 -0.0341  0.3144 -0.4258
   17TCq1    C4  262   3.593   3.858  11.156  0.1714 -0.1632 -0.6087
   17TCq1    C5  263   3.707   3.799  11.208  0.1606 -0.5944 -0.3773
   17TCq1    C6  264   3.762   3.695  11.140 -0.1967  0.4336 -0.1902
   17TCq1    C7  265   3.712   3.639  11.029  0.5688 -0.3586 -0.7196
   17TCq1    C8  266   3.882   3.635  11.193  0.4087 -0.1979 -0.7080
   17TCq1    O4  267   3.882   3.603  11.312 -0.4860 -0.1375  0.3233
   17TCq1    C9  268   3.535   3.966  11.219  0.3399 -0.0733  0.8900
   17TCq1    O5  269   3.596   4.030  11.307  0.5662  0.0101 -0.2534
   17TCq1    O6  270   3.438   4.017  11.152  0.4213  0.0391  0.1246
   17TCq1    H1  271   3.508   3.787  10.825 -0.6229 -0.3857  0.2702
   17TCq1    H2  272   3.437   3.841  11.020 -0.2529 -0.3302 -0.6421
   17TCq1    H3  273   3.764   3.844  11.289 -0.4062 -1.1376  0.3261
   17TCq1    H4  274   3.759   3.552  10.986  2.5261  0.4981 -0.3144
   18MPD2     C  275   4.090   3.433  11.206  0.3670  0.2828  0.3855
   18MPD2    C1  276   4.083   3.524  11.103  0.3248 -0.5162 -0.1121
   18MPD2    C2  277   4.186   3.537  11.014  0.1815  0.2197 -0.0896
   18MPD2    C3  278   4.286   3.441  11.021  0.7285  0.3544  0.6632
   18MPD2    C4  279   4.287   3.340  11.115  0.3648  0.2342 -0.1254
   18MPD2    C5  280   4.194   3.350  11.215 -0.9321 -0.2018  0.9353
   18MPD2     H  281   4.185   3.611  10.935 -0.7143  0.7818  0.4548
   18MPD2    H1  282   4.360   3.259  11.118 -0.0369 -0.2330 -3.7261
   18MPD2    H2  283   4.014   3.431  11.284 -1.1235 -0.4462 -1.0780
   18MPD2    H3  284   4.188   3.278  11.296 -0.1398 -1.4477 -0.1242
   18MPD2     N  285   4.393   3.443  10.927 -0.3258 -0.1232  0.1132
   18MPD2    H5  286   4.446   3.356  10.932 -1.6474 -0.7918  2.2301
   18MPD2    N1  287   3.980   3.625  11.102  1.1186  0.5136  0.4924
   18MPD2    H7  288   3.961   3.678  11.018 -0.8342 -0.6142  0.2197
   19TMC2    C1  289   1.437   3.962  13.986  0.2137 -0.4562 -0.4518
   19TMC2    C2  290   1.417   4.059  13.893  0.6871  0.4675  0.0174
   19TMC2    C3  291   1.328   4.025  13.791 -0.2049  0.6217  0.3688
   19TMC2    C4  292   1.373   3.842  13.989 -0.2542  0.5760  0.4106
   19TMC2    C5  293   1.279   3.823  13.897  1.0177 -1.0959 -0.1528
   19TMC2    C6  294   1.253   3.914  13.795 -0.3024  0.0985 -0.5209
   19TMC2     C  295   1.528   4.008  14.093 -0.3054 -1.0897  0.2635
   19TMC2     O  296   1.542   4.123  14.112  0.1667 -0.9232 -0.8700
   19TMC2     H  297   1.486   4.142  13.880  4.5276 -2.5303  1.4100
   19TMC2    H1  298   1.375   3.780  14.078 -0.7724  2.1808  1.5289
   19TMC2    H2  299   1.162   3.904  13.737  0.0754 -1.0802 -0.9052
   19TMC2    C7  300   1.185   3.718  13.918  0.7728 -0.1606 -0.0917
   19TMC2    C8  301   1.312   4.118  13.679  0.3097  0.5132 -0.0557
   19TMC2    O1  302   1.221   3.608  13.960  0.4784 -0.6134  0.2766
   19TMC2    O2  303   1.369   4.226  13.676  0.2196  0.5075  0.2760
   19TMC2    O5  304   1.302   4.049  13.564 -0.2839  0.1336 -0.0162
   19TMC2    H5  305   1.280   3.956  13.582  3.3397 -0.1405  3.2164
   20MPD2     C  306   1.743   4.042  14.288 -0.5835  0.1618 -0.4393
   20MPD2    C1  307   1.652   3.942  14.302 -0.8549  0.1534 -0.5250
   20MPD2    C2  308   1.671   3.843  14.401  0.0470  0.0072 -0.4962
   20MPD2    C3  309   1.762   3.859  14.502  0.3306  0.6479  0.7177
   20MPD2    C4  310   1.847   3.968  14.494 -0.3399  0.1743  0.3915
   20MPD2    C5  311   1.843   4.052  14.387  0.2497 -0.4253 -0.0536
   20MPD2     H  312   1.605   3.757  14.397  2.1147 -1.5529 -1.1274
   20MPD2    H1  313   1.921   3.993  14.569 -0.9046  2.7005  0.1125
   20MPD2    H2  314   1.740   4.115  14.208 -1.6692  2.2098  1.4855
   20MPD2    H3  315   1.911   4.136  14.385 -0.8172  0.4888  2.5619
   20MPD2     N  316   1.771   3.769  14.614  0.3206 -0.4846  0.2605
   20MPD2    H5  317   1.838   3.790  14.687 -1.2117 -1.4326  1.9455
   20MPD2    N1  318   1.567   3.913  14.192  0.3437 -0.0184 -0.2011
   20MPD2    H7  319   1.528   3.819  14.197 -0.0202  0.1134 -0.5657
   21MPD2     C  320   3.839   4.395  14.170  0.9457  0.2778 -0.9419
   21MPD2    C1  321   3.875   4.259  14.164 -0.0679 -0.2293  0.7506
   21MPD2    C2  322   3.786   4.158  14.203 -0.1347  0.0593  0.0251
   21MPD2    C3  323   3.666   4.197  14.261  0.1196 -0.5400 -0.6421
   21MPD2    C4  324   3.634   4.329  14.262  0.2392 -0.1233 -0.6007
   21MPD2    C5  325   3.720   4.428  14.222  0.2198 -0.0940  0.6286
   21MPD2     H  326   3.814   4.056  14.182  1.5039  1.1500 -3.0229
   21MPD2    H1  327   3.533   4.352  14.291  1.1063 -0.2624  2.5473
   21MPD2    H2  328   3.907   4.477  14.147  0.6373  0.6670 -0.4680
   21MPD2    H3  329   3.697   4.533  14.230 -0.3482 -0.1481 -0.2500
   21MPD2     N  330   3.566   4.101  14.302  0.1599  0.5222 -0.3674
   21MPD2    H5  331   3.489   4.135  14.359 -0.1697 -2.0046  0.6962
   21MPD2    N1  332   4.012   4.223  14.131  0.3700 -0.2700  0.2733
   21MPD2    H7  333   4.046   4.128  14.137 -2.7541 -1.4179 -0.0489
   22TCq2    C1  334   3.575   3.965  14.313 -0.9669  0.3643  0.9085
   22TCq2    O2  335   3.653   3.892  14.260 -0.0856 -0.8146  0.6703
   22TCq2    C2  336   3.479   3.898  14.394  0.4656 -0.4630 -0.1977
   22TCq2    C3  337   3.501   3.770  14.430 -0.5858 -0.5374 -0.0355
   22TCq2    C4  338   3.427   3.722  14.535  0.2413  0.3155 -0.3202
   22TCq2    C5  339   3.337   3.790  14.612 -0.6162  0.2932 -0.9282
   22TCq2    C6  340   3.326   3.923  14.573  0.1481  0.3953  0.3244
   22TCq2    C7  341   3.392   3.976  14.467 -1.2384  0.7553  0.0732
   22TCq2    C8  342   3.302   4.010  14.690 -0.2201  0.4121  0.1364
   22TCq2    O4  343   3.330   3.969  14.800  0.2425  0.2224 -0.1605
   22TCq2    C9  344   3.457   3.587  14.583 -0.2620 -0.1349 -0.2079
   22TCq2    O5  345   3.414   3.553  14.695  0.3987  0.7079  0.6014
   22TCq2    O6  346   3.527   3.523  14.502  0.5887 -0.0454 -0.6726
   22TCq2    H2  347   3.576   3.706  14.384 -0.8357 -0.6871 -0.2318
   22TCq2    H3  348   3.295   3.750  14.703  1.5164  0.2084  0.0173
   22TCq2    H4  349   3.399   4.083  14.477  0.8654  0.6638 -0.4296
   23MPD2     C  350   0.635   0.294  14.467 -0.6742  0.6507  0.2995
   23MPD2    C1  351   0.506   0.266  14.487  0.3788  0.0641  0.6411
   23MPD2    C2  352   0.420   0.318  14.393  0.4024 -0.2420  0.4881
   23MPD2    C3  353   0.460   0.393  14.288  0.2821 -0.1649  0.3629
   23MPD2    C4  354   0.591   0.422  14.269  0.1962 -0.8568  0.4085
   23MPD2    C5  355   0.675   0.377  14.360 -0.3464  0.1903  0.1248
   23MPD2     H  356   0.317   0.293  14.417  0.4785 -2.6042 -1.6178
   23MPD2    H1  357   0.626   0.469  14.178  2.2678  0.6610  1.9971
   23MPD2    H2  358   0.713   0.245  14.523 -0.2023 -0.2033 -1.1009
   23MPD2    H3  359   0.781   0.394  14.346 -0.9583  1.6984 -2.7587
   23MPD2     N  360   0.366   0.441  14.196  0.7670  0.3178  0.3512
   23MPD2    H5  361   0.401   0.510  14.130 -0.3040 -0.4883 -1.0748
   23MPD2    N1  362   0.470   0.219  14.616  0.7560  0.1376 -0.6744
   23MPD2    H7  363   0.370   0.215  14.632  0.7129 -1.4976 -1.3554
   24TCq2    C1  364   0.234   0.398  14.178 -0.3010 -0.6109 -0.1261
   24TCq2    O2  365   0.178   0.303  14.230 -0.0190 -0.1700 -0.2093
   24TCq2    C2  366   0.148   0.478  14.085 -0.3383  0.2510 -0.0279
   24TCq2    C3  367   0.172   0.609  14.097  0.5771  0.5927 -0.3251
   24TCq2    C4  368   0.079   0.694  14.036 -0.2151 -0.4442  0.1283
   24TCq2    C5  369   4.695   0.641  13.972 -0.6331 -0.7926  0.8055
   24TCq2    C6  370   4.688   0.504  13.959  0.2046  0.0186  0.2151
   24TCq2    C7  371   0.048   0.422  14.017  0.3721  0.8284  0.3599
   24TCq2    C8  372   4.579   0.443  13.879 -0.4022  0.5012  0.1295
   24TCq2    O4  373   4.611   0.344  13.817  0.0363  0.3336 -0.1703
   24TCq2    C9  374   0.088   0.839  14.027  0.5191  0.2491 -0.7882
   24TCq2    O5  375   4.706   0.899  13.991 -0.6525 -0.3447  0.1245
   24TCq2    O6  376   0.202   0.892  14.042  0.0124 -0.8165 -0.2753
   24TCq2    H2  377   0.258   0.646  14.152 -0.6192 -0.6435  2.4013
   24TCq2    H3  378   4.628   0.708  13.921 -1.0942 -0.7871  1.4129
   24TCq2    H4  379   0.044   0.314  14.010  1.6292  0.7493  0.8436
   25TMC2    C1  380   3.060   2.861  11.069 -0.0229 -0.0051 -0.4004
   25TMC2    C2  381   2.945   2.930  11.035 -0.3889  0.5084  0.2970
   25TMC2    C3  382   2.896   3.019  11.126 -0.8728  0.1238 -0.1041
   25TMC2    C4  383   3.129   2.873  11.185  0.9966 -0.3438 -0.4753
   25TMC2    C5  384   3.071   2.952  11.279  0.5259  0.7352  0.2876
   25TMC2    C6  385   2.954   3.027  11.254  0.3378  0.0555 -0.9734
   25TMC2     C  386   3.089   2.746  10.987  0.4317 -0.0195 -0.1812
   25TMC2     O  387   3.061   2.749  10.865  0.5551 -0.2720  0.7880
   25TMC2     H  388   2.896   2.903  10.942 -1.8341 -2.7098  1.9988
   25TMC2    H1  389   3.217   2.812  11.201  0.7922 -0.3394  0.6765
   25TMC2    H2  390   2.918   3.102  11.324  1.0860  0.8298 -1.4172
   25TMC2    C7  391   3.152   2.997  11.385 -0.3034  0.6457  0.6471
   25TMC2    C8  392   2.764   3.068  11.119 -0.4421  0.9536  0.2781
   25TMC2    O1  393   3.095   2.986  11.496 -0.3976 -0.3566  0.2944
   25TMC2    O2  394   2.696   3.087  11.216  0.0940  0.6354  0.8508
   25TMC2    O5  395   2.738   3.103  10.997  0.4019  0.4074  0.5028
   25TMC2    H5  396   2.818   3.101  10.940  0.8410  1.8806  1.0687
   26MPD2     C  397   3.297   2.285  10.945 -0.7037  0.3047  0.1098
   26MPD2    C1  398   3.268   2.300  11.078 -0.8828 -0.0077 -0.2525
   26MPD2    C2  399   3.223   2.422  11.120 -0.7148  0.3293  0.8765
   26MPD2    C3  400   3.190   2.521  11.022 -0.0285  0.7996  0.0950
   26MPD2    C4  401   3.206   2.498  10.890 -0.4747 -0.9737 -0.9626
   26MPD2    C5  402   3.251   2.377  10.849 -0.0533 -0.3528 -0.3026
   26MPD2     H  403   3.211   2.442  11.226 -0.1599  1.3307  0.7467
   26MPD2    H1  404   3.179   2.563  10.807  0.8734  0.9426  0.1161
   26MPD2    H2  405   3.328   2.187  10.909 -1.9108 -0.6737  1.7171
   26MPD2    H3  406   3.269   2.356  10.744  0.5499  1.6036 -0.5788
   26MPD2     N  407   3.130   2.640  11.065 -0.4432  0.0117 -0.1129
   26MPD2    H5  408   3.138   2.648  11.166  0.8787 -2.5378  0.0002
   26MPD2    N1  409   3.267   2.180  11.158 -0.0627  0.5464  0.1056
   26MPD2    H7  410   3.306   2.097  11.115 -0.7171 -0.5859  1.7123
   27TMC2    C1  411   2.833   0.309  11.754 -0.0330  0.3007 -0.5774
   27TMC2    C2  412   2.823   0.323  11.616  0.0997  0.2603  0.1318
   27TMC2    C3  413   2.813   0.453  11.567 -0.3968  0.3840  0.1028
   27TMC2    C4  414   2.816   0.416  11.842 -0.2144  0.7868  0.4631
   27TMC2    C5  415   2.794   0.541  11.783 -0.4065 -0.5470  0.4663
   27TMC2    C6  416   2.785   0.560  11.645 -0.2783 -0.2047  0.5267
   27TMC2     C  417   2.812   0.180  11.815  0.4858 -0.1013 -0.3316
   27TMC2     O  418   2.846   0.080  11.757  0.6553  0.1575  0.1595
   27TMC2     H  419   2.823   0.234  11.555 -2.0167 -0.9607  1.9199
   27TMC2    H1  420   2.856   0.411  11.943 -0.2788  0.5392  0.4757
   27TMC2    H2  421   2.765   0.657  11.600  0.2161  0.0440  0.8328
   27TMC2    C7  422   2.728   0.639  11.867 -0.5021  0.4163 -0.2998
   27TMC2    C8  423   2.773   0.462  11.424 -0.3188 -0.3373 -0.0218
   27TMC2    O1  424   2.690   0.595  11.971  0.2039  0.4438  0.1374
   27TMC2    O2  425   2.678   0.530  11.384  0.2637  0.4569 -0.2499
   27TMC2    O5  426   2.859   0.406  11.339 -0.1478  0.1048 -0.0519
   27TMC2    H5  427   2.928   0.357  11.389 -0.7780 -0.8745 -0.1506
   28MPD2     C  428   2.714   4.713  12.278  0.3417  0.1357  0.2707
   28MPD2    C1  429   2.680   0.119  12.275  0.1094  0.2000 -0.5466
   28MPD2    C2  430   2.690   0.187  12.157 -0.4963  0.2219 -0.9927
   28MPD2    C3  431   2.737   0.121  12.044  0.4136  0.2583  0.1969
   28MPD2    C4  432   2.764   4.713  12.050 -0.1270  0.4247 -0.2803
   28MPD2    C5  433   2.751   4.647  12.167  0.5673  0.7589  0.3227
   28MPD2     H  434   2.666   0.293  12.154  2.0890  0.8314  0.3462
   28MPD2    H1  435   2.788   4.659  11.958 -0.5494 -0.0353 -0.1178
   28MPD2    H2  436   2.715   4.659  12.372 -2.0207  0.8878  0.7107
   28MPD2    H3  437   2.774   4.543  12.185  0.3782  0.7088  0.2774
   28MPD2     N  438   2.746   0.205  11.933  0.3428  0.9235  0.3875
   28MPD2    H5  439   2.724   0.302  11.949 -2.7751  0.1801  0.5049
   28MPD2    N1  440   2.633   0.170  12.398 -0.4971 -0.0130 -0.1310
   28MPD2    H7  441   2.621   0.113  12.481  2.9528  0.4822  0.7446
   29MPD2     C  442   1.846   2.323  14.083  0.0249 -0.2884  0.1426
   29MPD2    C1  443   1.956   2.265  14.141 -0.4156 -0.1800 -0.2219
   29MPD2    C2  444   2.038   2.341  14.222  0.0918  0.6403 -0.2111
   29MPD2    C3  445   2.003   2.474  14.261 -0.0666  0.5811 -0.2888
   29MPD2    C4  446   1.882   2.530  14.211  0.7149 -0.2970 -0.6207
   29MPD2    C5  447   1.816   2.457  14.115 -0.4543  0.0340 -0.0388
   29MPD2     H  448   2.131   2.296  14.253 -0.3265 -0.4494 -0.5272
   29MPD2    H1  449   1.849   2.629  14.239 -1.0572 -1.0416 -0.0871
   29MPD2    H2  450   1.777   2.280  14.011  0.2383  1.4467 -1.1090
   29MPD2    H3  451   1.734   2.508  14.064  1.1883  1.3418 -1.3591
   29MPD2     N  452   2.080   2.555  14.349 -0.0496 -0.0198  0.5816
   29MPD2    H5  453   2.046   2.645  14.381 -0.5288  0.2078 -0.5654
   29MPD2    N1  454   1.986   2.130  14.135  0.5803 -0.7956 -0.1691
   29MPD2    H7  455   2.066   2.097  14.187 -1.1516 -0.4161  2.7278
   30TCq2    C1  456   2.211   2.533  14.382  0.2504  0.9369 -0.2072
   30TCq2    O2  457   2.282   2.473  14.305  0.3980 -0.3888 -0.9504
   30TCq2    C2  458   2.259   2.643  14.463  0.5226 -0.5624 -0.9403
   30TCq2    C3  459   2.180   2.709  14.556 -0.2491  0.3286 -0.5114
   30TCq2    C4  460   2.226   2.821  14.621 -0.0140  0.2726 -0.9335
   30TCq2    C5  461   2.346   2.870  14.592  0.5465  0.4886 -0.2494
   30TCq2    C6  462   2.411   2.818  14.482  0.4003 -0.2374 -0.0935
   30TCq2    C7  463   2.377   2.702  14.413 -0.0374  0.1675 -0.2833
   30TCq2    C8  464   2.509   2.907  14.427  0.2510 -0.4503  0.0442
   30TCq2    O4  465   2.562   2.985  14.507  0.4645  0.1118  0.4724
   30TCq2    C9  466   2.147   2.883  14.718  0.4368  0.0985 -0.9052
   30TCq2    O5  467   2.184   2.993  14.767  0.4133  0.9513 -0.2323
   30TCq2    O6  468   2.024   2.846  14.727 -0.4593 -0.2533  0.0060
   30TCq2    H2  469   2.084   2.666  14.580 -0.4438  1.7904  1.3630
   30TCq2    H3  470   2.368   2.965  14.638 -0.8917 -0.5966  2.6893
   30TCq2    H4  471   2.420   2.668  14.320 -1.8946 -3.4218  0.1588
   31MPD2     C  472   4.686   1.493  14.586  0.9219  1.0402 -0.5818
   31MPD2    C1  473   4.562   1.467  14.536 -0.7171 -0.2093 -0.2682
   31MPD2    C2  474   4.495   1.351  14.569  0.9008 -0.8149  0.0693
   31MPD2    C3  475   4.548   1.273  14.667  0.2763  0.1944 -0.5266
   31MPD2    C4  476   4.671   1.304  14.723  0.4320 -0.4031 -0.1745
   31MPD2    C5  477   0.013   1.414  14.681 -0.2611  0.1383  0.2818
   31MPD2     H  478   4.399   1.331  14.523 -0.3503  0.1030  2.2710
   31MPD2    H1  479   4.706   1.231  14.795  0.6823  1.0109  1.1389
   31MPD2    H2  480   0.025   1.573  14.552  0.6160  1.5077 -0.0499
   31MPD2    H3  481   0.111   1.441  14.720 -0.8017 -0.6832  2.2521
   31MPD2     N  482   4.490   1.150  14.719  0.3098  0.6205  0.5821
   31MPD2    H5  483   4.536   1.098  14.792 -0.0996  0.0999  0.4726
   31MPD2    N1  484   4.532   1.550  14.427  0.6547 -0.5717 -0.1620
   31MPD2    H7  485   4.617   1.591  14.391 -0.2942  0.5526 -1.1068
   32TCq2    C1  486   4.366   1.106  14.686 -0.6238  0.2974 -0.4651
   32TCq2    O2  487   4.290   1.129  14.590 -0.1774  0.0150 -0.2623
   32TCq2    C2  488   4.314   1.000  14.772 -0.9853 -0.5741 -0.5756
   32TCq2    C3  489   4.181   0.962  14.755  0.4368 -0.0739 -0.5581
   32TCq2    C4  490   4.139   0.845  14.800  0.4108  0.0879  0.6898
   32TCq2    C5  491   4.232   0.755  14.849 -0.1812 -0.5579 -0.3668
   32TCq2    C6  492   4.358   0.797  14.864  0.1718  0.3814 -0.2106
   32TCq2    C7  493   4.403   0.920  14.831  0.4171 -0.1719 -0.3163
   32TCq2    C8  494   4.445   0.714  14.938  0.1660  0.2396 -0.3478
   32TCq2    O4  495   4.521   0.772  15.013 -0.2209  0.1003 -0.0905
   32TCq2    C9  496   4.005   0.796  14.784 -0.0975 -0.8060  0.1888
   32TCq2    O5  497   3.922   0.881  14.731  0.5129 -0.5503 -0.4740
   32TCq2    O6  498   3.972   0.682  14.832 -0.2361  0.0139 -0.0953
   32TCq2    H2  499   4.118   1.039  14.710 -0.6103 -1.1480 -0.9202
   32TCq2    H3  500   4.191   0.662  14.887 -0.2903 -0.7398 -0.9302
   32TCq2    H4  501   4.506   0.944  14.852  0.7568 -0.2566 -1.9040
   33MPD2     C  502   0.405   3.837  10.491  0.5571 -0.0253 -0.3480
   33MPD2    C1  503   0.269   3.857  10.511 -0.3577 -0.2428  0.2533
   33MPD2    C2  504   0.207   3.960  10.445 -0.3236 -0.8756 -0.9068
   33MPD2    C3  505   0.277   4.043  10.357  0.2587  0.0005  0.5756
   33MPD2    C4  506   0.405   4.013  10.331  0.0794  1.3406 -0.0385
   33MPD2    C5  507   0.471   3.913  10.398  0.3113 -0.1592  0.2596
   33MPD2     H  508   0.099   3.968  10.449 -0.2174 -0.3367  1.1571
   33MPD2    H1  509   0.465   4.071  10.262  1.1463 -0.7173 -0.8384
   33MPD2    H2  510   0.456   3.757  10.543 -0.2304  0.6623  1.4749
   33MPD2    H3  511   0.575   3.887  10.386  0.3689  0.1504  0.0871
   33MPD2     N  512   0.231   4.160  10.290  0.0565  0.0191  0.1406
   33MPD2    H5  513   0.300   4.229  10.262 -1.5904  1.4797 -0.2548
   33MPD2    N1  514   0.206   3.756  10.594 -0.1133  0.9011 -0.0362
   33MPD2    H7  515   0.260   3.680  10.634 -1.7963 -0.1919  0.1713
   34TCq2    C1  516   0.100   4.205  10.293 -0.0500 -0.2916 -0.0925
   34TCq2    O2  517   0.002   4.146  10.336 -0.6671  0.3245 -0.0405
   34TCq2    C2  518   0.092   4.348  10.264 -0.1749  0.1747  0.1044
   34TCq2    C3  519   0.010   4.413  10.349 -0.2463  0.6944  0.6234
   34TCq2    C4  520   0.001   4.551  10.347 -0.0057  0.3553  0.3634
   34TCq2    C5  521   0.083   4.618  10.257  0.3049  0.8330 -1.2587
   34TCq2    C6  522   0.160   4.551  10.155 -0.2155  0.3170 -0.1715
   34TCq2    C7  523   0.170   4.415  10.171  0.5253 -0.2738 -0.0355
   34TCq2    C8  524   0.235   4.620  10.047 -0.2802  0.3461 -0.2189
   34TCq2    O4  525   0.297   0.000  10.071 -0.0460 -0.0922  0.0140
   34TCq2    C9  526   4.633   4.616  10.427  0.0280 -0.6813  0.1408
   34TCq2    O5  527   4.554   4.543  10.490  0.1077 -0.7307  0.3650
   34TCq2    O6  528   4.657   0.010  10.456 -0.1411  0.0467 -0.2500
   34TCq2    H2  529   4.668   4.366  10.419 -1.2462  0.0158 -0.7918
   34TCq2    H3  530   0.061   4.724  10.250  3.4835  1.6747  1.6908
   34TCq2    H4  531   0.248   4.356  10.123  1.7454  2.3274 -1.2450
   35MPD2     C  532   2.271   0.383  11.400  0.4640 -0.6110 -0.4878
   35MPD2    C1  533   2.221   0.348  11.520  0.5781  1.1774 -0.6317
   35MPD2    C2  534   2.094   0.390  11.555 -0.0393  0.3160 -0.6745
   35MPD2    C3  535   2.029   0.479  11.470  0.0410  0.1702  0.1797
   35MPD2    C4  536   2.075   0.501  11.347 -0.1094 -0.6843 -0.2999
   35MPD2    C5  537   2.196   0.453  11.307 -0.8088  0.4625  0.2843
   35MPD2     H  538   2.048   0.354  11.646  1.0261  3.4657  1.1185
   35MPD2    H1  539   2.013   0.551  11.273 -0.5122 -0.4677  0.1901
   35MPD2    H2  540   2.367   0.349  11.363  0.8535 -0.8953  0.8101
   35MPD2    H3  541   2.235   0.480  11.209  0.8200  1.4576  1.2030
   35MPD2     N  542   1.898   0.517  11.512 -0.3830 -0.1360 -0.1448
   35MPD2    H5  543   1.867   0.480  11.601 -3.4328  0.0076 -1.1599
   35MPD2    N1  544   2.308   0.274  11.603  0.0883  0.5882 -0.3126
   35MPD2    H7  545   2.404   0.254  11.577  1.6739  2.7836  3.8584
   36TCq2    C1  546   1.833   0.627  11.459  0.5011  0.1794  0.1251
   36TCq2    O2  547   1.874   0.713  11.380  0.2207  0.0011  0.8009
   36TCq2    C2  548   1.711   0.650  11.535  0.2432 -0.0203  0.2319
   36TCq2    C3  549   1.671   0.780  11.528  0.5219 -0.4639 -0.7738
   36TCq2    C4  550   1.538   0.817  11.549 -0.8294 -0.1103 -0.2868
   36TCq2    C5  551   1.445   0.717  11.569 -0.1585  0.4528  0.8026
   36TCq2    C6  552   1.496   0.585  11.570  0.4506  0.4199  0.2992
   36TCq2    C7  553   1.623   0.549  11.563  0.3926 -0.1457 -0.6100
   36TCq2    C8  554   1.394   0.487  11.605  0.4598  0.6128  1.1324
   36TCq2    O4  555   1.431   0.394  11.678  0.0810 -0.3065  0.0676
   36TCq2    C9  556   1.499   0.954  11.569  0.3235 -0.3224 -0.0402
   36TCq2    O5  557   1.393   0.971  11.634 -0.2562 -0.3746 -0.1401
   36TCq2    O6  558   1.561   1.038  11.505 -0.2151  0.3586 -0.2483
   36TCq2    H2  559   1.750   0.854  11.523 -0.9619  1.1352 -0.5338
   36TCq2    H3  560   1.346   0.750  11.596 -0.7292 -0.8032  0.2588
   36TCq2    H4  561   1.650   0.444  11.568 -0.4580 -0.2845  0.9221
   37TMC2    C1  562   3.807   0.705  11.506  0.9857 -0.2891 -0.2193
   37TMC2    C2  563   3.763   0.752  11.381  0.0378  0.0256  0.3389
   37TMC2    C3  564   3.855   0.737  11.285 -0.3623 -0.8570 -0.1450
   37TMC2    C4  565   3.929   0.643  11.519  0.3250  0.6540  0.3088
   37TMC2    C5  566   4.021   0.644  11.417  0.2331 -0.3013  0.0207
   37TMC2    C6  567   3.986   0.696  11.297  0.9598  0.4019  0.1518
   37TMC2     C  568   3.703   0.684  11.609  0.3309 -0.4245 -0.4234
   37TMC2     O  569   3.592   0.699  11.568 -0.0558  0.1595 -0.6924
   37TMC2     H  570   3.672   0.810  11.373  1.8623  3.2272  2.5021
   37TMC2    H1  571   3.956   0.616  11.620 -0.2053  0.8924  0.5179
   37TMC2    H2  572   4.061   0.708  11.220  1.0436 -0.7574  0.0532
   37TMC2    C7  573   4.159   0.627  11.454 -0.2301  0.2396  0.9927
   37TMC2    C8  574   3.831   0.815  11.162  0.5935 -0.1989  0.6197
   37TMC2    O1  575   4.183   0.542  11.542 -0.1785  0.2995  1.1413
   37TMC2    O2  576   3.910   0.896  11.113  0.2655 -0.0413 -0.1916
   37TMC2    O5  577   3.692   0.824  11.141  0.0777  0.2961  0.3085
   37TMC2    H5  578   3.640   0.751  11.182  2.2475 -0.3455  1.9276
   38MPD2     C  579   3.487   0.655  12.081  0.6198 -0.6051  0.2541
   38MPD2    C1  580   3.620   0.612  12.093  0.2583 -0.2916  0.4920
   38MPD2    C2  581   3.699   0.613  11.977  0.2296  0.9987  0.0701
   38MPD2    C3  582   3.656   0.654  11.856  0.4619 -0.1413  0.0909
   38MPD2    C4  583   3.531   0.709  11.846  0.5088 -0.1090  0.1009
   38MPD2    C5  584   3.448   0.708  11.959  0.7094 -0.6931  0.2518
   38MPD2     H  585   3.803   0.581  11.973  0.2955  1.2642 -0.3821
   38MPD2    H1  586   3.494   0.764  11.760  0.6584 -0.6588 -0.3067
   38MPD2    H2  587   3.420   0.657  12.166 -0.4748 -0.2478 -0.6149
   38MPD2    H3  588   3.350   0.751  11.943 -0.2385 -3.0962 -0.4241
   38MPD2     N  589   3.744   0.648  11.737 -0.3508 -0.2250  0.0552
   38MPD2    H5  590   3.843   0.639  11.758  0.2902 -1.1588 -3.2462
   38MPD2    N1  591   3.683   0.570  12.210 -0.7872  0.2606  0.1525
   38MPD2    H7  592   3.783   0.555  12.202 -0.8172 -0.8527  1.7535
   39MPD2     C  593   2.817   1.710   1.291  0.6108  0.8470 -0.2076
   39MPD2    C1  594   2.754   1.756   1.401 -0.2814  0.3023  0.1414
   39MPD2    C2  595   2.625   1.805   1.373  0.1136 -0.1036  0.5641
   39MPD2    C3  596   2.567   1.788   1.249 -0.0585 -0.0920 -0.4902
   39MPD2    C4  597   2.634   1.726   1.146 -0.3113  0.1178  0.5256
   39MPD2    C5  598   2.759   1.686   1.169  0.5007 -0.1732  0.3746
   39MPD2     H  599   2.571   1.861   1.449  0.3322  3.3438 -1.7987
   39MPD2    H1  600   2.597   1.692   1.049 -1.2454 -1.9446  1.6008
   39MPD2    H2  601   2.920   1.678   1.293  0.0914 -0.7469  2.3245
   39MPD2    H3  602   2.810   1.628   1.092 -0.0550  0.0844 -0.1875
   39MPD2     N  603   2.429   1.824   1.219  0.1901 -0.4285  0.6713
   39MPD2    H5  604   2.401   1.819   1.122  0.6793  0.2522  0.4941
   39MPD2    N1  605   2.814   1.766   1.522 -0.7931 -0.6485  1.1622
   39MPD2    H7  606   2.913   1.741   1.520 -0.5528  0.2398  1.8963
   40TCq2    C1  607   2.747   1.779   1.639  0.0697 -0.2952 -0.5847
   40TCq2    O2  608   2.627   1.785   1.658  0.1555  0.2916  0.1292
   40TCq2    C2  609   2.833   1.778   1.758  0.2189 -0.2535 -0.3059
   40TCq2    C3  610   2.779   1.754   1.880 -0.4192 -0.4915  0.2529
   40TCq2    C4  611   2.857   1.742   1.987  0.1897 -0.0950  0.6836
   40TCq2    C5  612   2.993   1.755   1.972  0.2726 -0.3288  0.4496
   40TCq2    C6  613   3.053   1.775   1.847  0.0229  0.0209 -0.6142
   40TCq2    C7  614   2.972   1.790   1.741  0.3810 -0.0500  0.7383
   40TCq2    C8  615   3.195   1.772   1.819  0.5394  0.3092  0.3736
   40TCq2    O4  616   3.235   1.748   1.708 -0.3485  0.5337  0.1796
   40TCq2    C9  617   2.800   1.724   2.115  0.0741 -0.0239 -0.0035
   40TCq2    O5  618   2.678   1.727   2.131 -0.0767 -0.2071  0.6626
   40TCq2    O6  619   2.886   1.727   2.207 -0.0948  0.3413 -0.1459
   40TCq2    H2  620   2.671   1.743   1.885 -0.5873  0.5126 -0.9482
   40TCq2    H3  621   3.056   1.755   2.060 -0.3490  1.2843  0.8807
   40TCq2    H4  622   3.014   1.829   1.648 -1.0344  1.2098  0.6145
   41TMC2    C1  623   1.034   0.814  14.256  0.1095 -0.4820  0.0282
   41TMC2    C2  624   1.077   0.921  14.328 -0.4163  0.0251  0.2335
   41TMC2    C3  625   1.093   1.032  14.252 -0.4349 -0.6658  0.2153
   41TMC2    C4  626   1.022   0.815  14.119 -0.1306  0.0015  0.0287
   41TMC2    C5  627   1.066   0.924  14.052  0.9139  0.7137  0.1785
   41TMC2    C6  628   1.106   1.034  14.116  0.1139 -0.0377  0.1785
   41TMC2     C  629   1.047   0.681  14.313  0.6562  0.0540  0.5173
   41TMC2     O  630   1.069   0.593  14.234  0.3650 -0.2873  0.1394
   41TMC2     H  631   1.104   0.917  14.433  0.2332 -3.7122 -0.0941
   41TMC2    H1  632   1.003   0.724  14.062  0.0952 -0.8620  1.3299
   41TMC2    H2  633   1.149   1.115  14.059 -0.0434  0.0919  0.2466
   41TMC2    C7  634   1.150   0.876  13.947  0.3529  0.0392  0.6341
   41TMC2    C8  635   1.142   1.144  14.327  0.0031 -0.1901  0.7971
   41TMC2    O1  636   1.208   0.771  13.976 -0.3523 -0.0894 -0.2863
   41TMC2    O2  637   1.147   1.145  14.448  0.0037  0.0458  0.2544
   41TMC2    O5  638   1.121   1.263  14.258  0.2991 -0.0917  0.1405
   41TMC2    H5  639   1.072   1.258  14.173  1.8155 -0.9187 -0.7015
   42MPD2     C  640   1.036   0.427  14.467  0.0542 -0.5191 -0.1963
   42MPD2    C1  641   0.989   0.552  14.518  0.4262  1.0091  0.0020
   42MPD2    C2  642   0.927   0.557  14.641 -0.4145  0.2887  0.1057
   42MPD2    C3  643   0.897   0.441  14.707  0.0808 -0.5709 -0.5556
   42MPD2    C4  644   0.929   0.320  14.654  0.1693 -0.1680  0.4950
   42MPD2    C5  645   1.006   0.316  14.547 -0.1674 -0.6275  0.0603
   42MPD2     H  646   0.905   0.651  14.689  0.6847 -0.0108  1.1984
   42MPD2    H1  647   0.905   0.226  14.703 -0.1994 -1.4057 -2.0773
   42MPD2    H2  648   1.108   0.416  14.386  0.6159  2.9660 -0.2014
   42MPD2    H3  649   1.053   0.223  14.518 -1.1083 -1.6205  1.6796
   42MPD2     N  650   0.833   0.457  14.832 -0.3108 -0.2792  0.5185
   42MPD2    H5  651   0.819   0.554  14.861 -1.8420 -0.6797  1.1628
   42MPD2    N1  652   1.000   0.677  14.442  0.5791 -0.6828 -0.3653
   42MPD2    H7  653   0.966   0.766  14.476 -0.4233 -0.9397 -0.6926
   43MPD2     C  654   2.508   3.625   0.834 -0.0654  0.0563 -0.7903
   43MPD2    C1  655   2.574   3.518   0.886 -0.1111  0.4337  0.8352
   43MPD2    C2  656   2.590   3.506   1.026 -0.6890  0.3084 -0.0595
   43MPD2    C3  657   2.536   3.610   1.108 -0.1972 -0.7827 -0.2469
   43MPD2    C4  658   2.463   3.709   1.048 -0.0384  0.5879  0.4759
   43MPD2    C5  659   2.445   3.718   0.910 -0.2091  0.4176  0.0828
   43MPD2     H  660   2.642   3.422   1.070 -1.1031 -0.4778 -1.0835
   43MPD2    H1  661   2.416   3.783   1.112  0.3166  2.5455 -1.5474
   43MPD2    H2  662   2.513   3.652   0.729  0.7620 -1.2741 -1.1079
   43MPD2    H3  663   2.396   3.808   0.875  1.2066  0.1882 -2.5006
   43MPD2     N  664   2.553   3.629   1.250 -0.1833  0.0834  1.0971
   43MPD2    H5  665   2.501   3.704   1.294  2.1594  1.4772  1.4935
   43MPD2    N1  666   2.617   3.406   0.811  0.5814  0.3183 -0.4088
   43MPD2    H7  667   2.648   3.326   0.865  1.4839  0.7955 -0.2232
   44TCq2    C1  668   2.599   3.786   1.746  0.2311 -0.8439  0.9105
   44TCq2    O2  669   2.638   3.890   1.696  0.4030  0.3935 -0.1551
   44TCq2    C2  670   2.608   3.666   1.672 -0.4640  0.5479  0.2562
   44TCq2    C3  671   2.601   3.549   1.738  0.4938 -0.6371 -0.4389
   44TCq2    C4  672   2.615   3.432   1.671 -0.3612 -0.4450 -0.6108
   44TCq2    C5  673   2.613   3.421   1.541 -0.0023 -0.0482 -0.7724
   44TCq2    C6  674   2.605   3.540   1.470  0.2838  0.5483  0.0016
   44TCq2    C7  675   2.607   3.667   1.532  0.3079 -0.7932  0.3029
   44TCq2    C8  676   2.624   3.533   1.324 -0.9263 -0.4303  0.4596
   44TCq2    O4  677   2.675   3.429   1.283  0.0285  0.1233  0.2353
   44TCq2    C9  678   2.604   3.315   1.750  0.8519  0.3826  0.4055
   44TCq2    O5  679   2.616   3.206   1.688  0.3569 -0.4246 -0.1803
   44TCq2    O6  680   2.591   3.329   1.872 -0.2339  0.0112 -0.3399
   44TCq2    H2  681   2.606   3.548   1.846  2.0507  0.3469 -0.5177
   44TCq2    H3  682   2.611   3.326   1.488  0.5653  0.3624 -1.5281
   44TCq2    H4  683   2.626   3.753   1.469  1.9826 -0.8432  0.7158
   45TMC2    C1  684   3.548   0.895   9.607 -0.0815 -0.8493 -0.2429
   45TMC2    C2  685   3.587   0.853   9.487 -0.6836 -0.3235 -0.1547
   45TMC2    C3  686   3.677   0.932   9.412 -0.0655  0.1331 -0.8567
   45TMC2    C4  687   3.605   1.005   9.668 -0.1002 -0.3540  0.1257
   45TMC2    C5  688   3.695   1.078   9.595 -1.0892  0.6055 -0.0752
   45TMC2    C6  689   3.723   1.052   9.467  0.5537  0.1768  0.0957
   45TMC2     C  690   3.454   0.816   9.696 -0.1684  0.1619 -0.2405
   45TMC2     O  691   3.449   0.841   9.816 -0.1435  0.1358 -0.3533
   45TMC2     H  692   3.544   0.767   9.437  0.5455 -1.3812  0.5867
   45TMC2    H1  693   3.567   1.049   9.760 -0.4296 -0.4416  0.0320
   45TMC2    H2  694   3.776   1.120   9.401  5.0713 -2.0596  1.3842
   45TMC2    C7  695   3.780   1.164   9.665  0.3005 -0.1427  0.1276
   45TMC2    C8  696   3.691   0.900   9.271  0.2048 -0.2614  0.2847
   45TMC2    O1  697   3.842   1.246   9.600 -0.0768  0.2357 -0.2004
   45TMC2    O2  698   3.588   0.913   9.200  0.1925 -0.1854  0.4268
   45TMC2    O5  699   3.816   0.936   9.236 -0.0445 -0.4427  0.0574
   45TMC2    H5  700   3.878   0.913   9.309 -0.4298 -2.6311 -0.2978
   46MPD2     C  701   3.241   0.616   9.774 -0.0378  0.6584  0.2109
   46MPD2    C1  702   3.260   0.668   9.645  0.7109 -0.0154  0.5064
   46MPD2    C2  703   3.169   0.645   9.546  0.0825  0.1335  0.4673
   46MPD2    C3  704   3.053   0.573   9.585 -0.1102  0.0916 -0.0950
   46MPD2    C4  705   3.040   0.517   9.715  0.3231 -0.6486  0.5053
   46MPD2    C5  706   3.136   0.535   9.804  0.4249  0.8234  0.2481
   46MPD2     H  707   3.175   0.683   9.445 -0.4186 -0.9013  0.0377
   46MPD2    H1  708   2.953   0.454   9.733  2.1959 -2.3453  3.6942
   46MPD2    H2  709   3.301   0.647   9.859  0.3407  0.4215  0.0261
   46MPD2    H3  710   3.115   0.503   9.906 -1.9111 -1.8280 -1.0766
   46MPD2     N  711   2.958   0.552   9.484 -0.0284 -0.3509  0.3750
   46MPD2    H5  712   2.977   0.616   9.407  1.0153 -1.0207  0.0695
   46MPD2    N1  713   3.369   0.749   9.614  0.5156  0.3182 -0.4282
   46MPD2    H7  714   3.382   0.773   9.516 -0.7126  0.9463 -0.4344
   47TMC2    C1  715   1.411   1.994   9.057 -0.4707  0.3227 -1.1369
   47TMC2    C2  716   1.500   2.093   9.090  0.5903 -0.3096  0.9971
   47TMC2    C3  717   1.464   2.163   9.198 -0.0025  0.2510  0.7062
   47TMC2    C4  718   1.287   1.981   9.113 -0.4528  0.4641 -0.8247
   47TMC2    C5  719   1.248   2.068   9.211 -0.0615 -0.0535  0.0815
   47TMC2    C6  720   1.346   2.163   9.255  0.5281  1.1213  0.9094
   47TMC2     C  721   1.462   1.891   8.965  0.3376  0.6608  0.2278
   47TMC2     O  722   1.553   1.922   8.885 -0.6892  0.4310  0.0317
   47TMC2     H  723   1.602   2.097   9.053  0.1546 -1.8966 -0.4200
   47TMC2    H1  724   1.213   1.913   9.072  0.2081 -2.5839  2.9860
   47TMC2    H2  725   1.324   2.227   9.340  2.4018  2.2031  0.5890
   47TMC2    C7  726   1.110   2.081   9.262 -0.4660 -0.6543  0.2099
   47TMC2    C8  727   1.542   2.286   9.219  0.6515  0.0422  0.1305
   47TMC2    O1  728   1.080   2.189   9.309  0.0034 -0.2086  0.2974
   47TMC2    O2  729   1.614   2.334   9.130  0.8089  0.7063 -0.3498
   47TMC2    O5  730   1.535   2.338   9.338 -0.6311  0.0568 -0.0331
   47TMC2    H5  731   1.489   2.283   9.405  0.4783 -0.9501 -0.1028
   48MPD2     C  732   1.509   1.624   8.826  0.7856  1.0319  0.1443
   48MPD2    C1  733   1.459   1.641   8.956  0.0751 -0.0212  0.5760
   48MPD2    C2  734   1.426   1.526   9.023 -0.3074 -0.5196  0.4677
   48MPD2    C3  735   1.450   1.403   8.973 -0.4396  0.1613  0.1393
   48MPD2    C4  736   1.499   1.387   8.850  0.2783 -0.1497  0.7064
   48MPD2    C5  737   1.525   1.498   8.777  0.7630  0.1313  0.3048
   48MPD2     H  738   1.391   1.531   9.126  0.1443  0.3857  0.5811
   48MPD2    H1  739   1.522   1.288   8.811 -1.3425 -0.1360 -0.3224
   48MPD2    H2  740   1.529   1.712   8.768 -1.1534  1.1326 -0.3737
   48MPD2    H3  741   1.577   1.479   8.684  2.2214 -1.6978  1.4897
   48MPD2     N  742   1.421   1.295   9.057 -0.1557 -0.3874  0.0588
   48MPD2    H5  743   1.411   1.312   9.157  0.1131 -0.9403  0.1765
   48MPD2    N1  744   1.419   1.765   9.011 -0.3574 -0.1466 -0.1051
   48MPD2    H7  745   1.368   1.760   9.099  0.4201 -0.2012  0.3476
   49MPD2     C  746   3.479   3.655  10.003  0.4246 -0.3490 -0.0728
   49MPD2    C1  747   3.577   3.666  10.098 -0.2567  0.2305  0.8745
   49MPD2    C2  748   3.573   3.580  10.200  0.1673 -0.3032 -0.7817
   49MPD2    C3  749   3.476   3.480  10.208  0.5675 -0.3936 -0.3277
   49MPD2    C4  750   3.379   3.478  10.118  0.6262  0.3792 -0.0527
   49MPD2    C5  751   3.380   3.563  10.016 -0.1890  0.5399  0.3277
   49MPD2     H  752   3.643   3.598  10.281 -1.9708  2.3915  0.4579
   49MPD2    H1  753   3.288   3.418  10.127  1.2527 -0.3554  1.4930
   49MPD2    H2  754   3.479   3.720   9.916  0.0458 -1.0487 -0.6000
   49MPD2    H3  755   3.293   3.559   9.951  0.8276 -0.7333 -0.9472
   49MPD2     N  756   3.454   3.391  10.314  0.1711 -0.1844 -0.6856
   49MPD2    H5  757   3.374   3.329  10.309  1.4555 -2.0193  1.2887
   49MPD2    N1  758   3.672   3.771  10.117  0.1805 -0.0440 -0.1988
   49MPD2    H7  759   3.747   3.760  10.184 -0.3083  3.1609  0.8819
   50TCq2    C1  760   3.661   3.896  10.055  0.0090  0.0880  0.1229
   50TCq2    O2  761   3.571   3.942   9.984  0.0360  0.4758 -0.1444
   50TCq2    C2  762   3.750   3.995  10.111  0.5240  0.3218  0.6307
   50TCq2    C3  763   3.820   3.962  10.227  0.0195 -0.2303 -0.4599
   50TCq2    C4  764   3.919   4.047  10.269 -0.5310  0.3705  0.7401
   50TCq2    C5  765   3.969   4.136  10.178  0.0324  0.3525 -0.0021
   50TCq2    C6  766   3.903   4.167  10.064 -0.2567 -0.0319 -0.1896
   50TCq2    C7  767   3.788   4.098  10.026 -0.7207  0.4816  0.2766
   50TCq2    C8  768   3.963   4.278   9.983  0.1691 -0.0021  0.2060
   50TCq2    O4  769   4.072   4.323  10.019  0.0611 -0.2922 -0.1623
   50TCq2    C9  770   3.990   4.019  10.386  0.1286 -0.0774  0.1329
   50TCq2    O5  771   3.948   3.923  10.456 -0.1747 -0.1687 -1.1405
   50TCq2    O6  772   4.101   4.072  10.409 -0.5707 -0.7295 -0.3897
   50TCq2    H2  773   3.776   3.901  10.305  0.3316 -0.1621 -0.2296
   50TCq2    H3  774   4.057   4.189  10.211 -1.1561  1.2525  1.7324
   50TCq2    H4  775   3.716   4.128   9.950  0.8198  0.8712 -1.0428
   51MPD2     C  776   4.490   1.976   1.131 -0.1108  0.3071 -0.6279
   51MPD2    C1  777   4.352   2.003   1.146  0.2686  0.1406 -0.5603
   51MPD2    C2  778   4.313   2.094   1.246  0.2263 -0.3293  0.0183
   51MPD2    C3  779   4.408   2.164   1.314 -0.1930 -0.3246  0.1627
   51MPD2    C4  780   4.546   2.141   1.294 -0.3243  0.4818 -0.8622
   51MPD2    C5  781   4.579   2.038   1.212 -0.4519  0.0535 -0.0122
   51MPD2     H  782   4.208   2.114   1.258  0.2940 -0.2428  0.4508
   51MPD2    H1  783   4.620   2.163   1.371  1.3896  0.6973 -2.5784
   51MPD2    H2  784   4.522   1.886   1.080  0.2665  0.0253  0.1032
   51MPD2    H3  785   4.681   2.002   1.215 -0.4434  0.1612  0.9181
   51MPD2     N  786   4.378   2.248   1.425  0.8646 -0.1017  0.3839
   51MPD2    H5  787   4.459   2.291   1.470  1.6068  0.2494 -1.2984
   51MPD2    N1  788   4.260   1.944   1.057  0.0189  0.5690 -0.9111
   51MPD2    H7  789   4.161   1.963   1.070  0.2832  0.5965  1.1601
   52TCq2    C1  790   4.257   2.246   1.492  0.2151 -0.4594  0.1320
   52TCq2    O2  791   4.153   2.190   1.470  0.3136 -0.6331 -0.1880
   52TCq2    C2  792   4.254   2.337   1.611 -0.0118  0.7162  0.1970
   52TCq2    C3  793   4.146   2.320   1.699  0.2115 -0.2962 -0.1585
   52TCq2    C4  794   4.125   2.414   1.791 -0.7551 -0.2562 -0.4336
   52TCq2    C5  795   4.213   2.520   1.804 -0.0110  0.8907 -0.4832
   52TCq2    C6  796   4.319   2.535   1.717 -0.0813  0.3376 -0.2968
   52TCq2    C7  797   4.336   2.444   1.610 -0.4238 -0.4955  0.7183
   52TCq2    C8  798   4.399   2.655   1.714 -0.6711  0.4964 -0.4974
   52TCq2    O4  799   4.502   2.665   1.645 -0.2189 -0.8862  0.5094
   52TCq2    C9  800   4.008   2.402   1.882 -0.5466 -0.1736  0.8344
   52TCq2    O5  801   3.986   2.499   1.960  0.0441  0.5837 -0.0729
   52TCq2    O6  802   3.926   2.302   1.870  0.6843  0.2930 -0.1010
   52TCq2    H2  803   4.079   2.235   1.700  0.9267 -0.8959 -4.0920
   52TCq2    H3  804   4.185   2.587   1.884 -0.7904  0.3871 -0.3297
   52TCq2    H4  805   4.407   2.462   1.530  1.6177  1.7050  3.0312
   53TMC2    C1  806   0.056   0.637  11.843  0.0991  0.6906  0.2333
   53TMC2    C2  807   0.165   0.704  11.892 -0.3253 -0.3513 -0.8380
   53TMC2    C3  808   0.168   0.732  12.027  0.2487 -0.3437  0.4723
   53TMC2    C4  809   4.680   0.599  11.925  0.5970  0.1685 -0.0172
   53TMC2    C5  810   4.684   0.638  12.059  0.7175  0.5256 -0.7243
   53TMC2    C6  811   0.065   0.698  12.115  1.3240 -0.6945 -0.8202
   53TMC2     C  812   0.040   0.665  11.704 -0.3889 -0.3217 -0.2779
   53TMC2     O  813   0.143   0.685  11.641  0.2208 -0.9402 -0.3742
   53TMC2     H  814   0.237   0.742  11.821 -0.0132 -0.8511 -0.7912
   53TMC2    H1  815   4.591   0.559  11.879  1.9154 -3.1741  0.3282
   53TMC2    H2  816   0.078   0.713  12.221  3.1148  2.7859 -1.5522
   53TMC2    C7  817   4.564   0.651  12.130 -0.5497 -0.3727 -0.0129
   53TMC2    C8  818   0.242   0.845  12.073 -0.0935 -0.0342  0.0249
   53TMC2    O1  819   4.469   0.603  12.068  0.5332  0.0033 -0.0434
   53TMC2    O2  820   0.248   0.955  12.024 -0.9782 -0.1975  0.6411
   53TMC2    O5  821   0.306   0.813  12.184 -0.4107 -0.2488 -0.1605
   53TMC2    H5  822   0.312   0.717  12.204  2.7075  0.3930  1.9094
   54MPD2     C  823   4.665   0.675  11.423 -0.9462 -0.8798  0.0162
   54MPD2    C1  824   4.582   0.657  11.531  0.6392 -0.1651 -0.5291
   54MPD2    C2  825   4.443   0.666  11.512  0.0101  0.4723 -1.2671
   54MPD2    C3  826   4.394   0.687  11.385  0.4863  0.3093 -0.6141
   54MPD2    C4  827   4.483   0.704  11.281  0.0839 -0.8542 -0.0874
   54MPD2    C5  828   4.619   0.701  11.298 -0.0771  0.4521  0.3836
   54MPD2     H  829   4.383   0.662  11.602 -0.9531  0.6712 -1.9086
   54MPD2    H1  830   4.438   0.729  11.185  0.2001 -2.6217 -0.6201
   54MPD2    H2  831   0.047   0.671  11.438 -1.1090  2.5767  2.2895
   54MPD2    H3  832   4.688   0.714  11.216 -0.9586 -1.8790 -0.7481
   54MPD2     N  833   4.252   0.685  11.365  0.2559 -0.1043 -0.2033
   54MPD2    H5  834   4.229   0.713  11.270 -0.4776 -0.5457 -0.1597
   54MPD2    N1  835   4.638   0.648  11.664  0.1923 -0.0382  0.4399
   54MPD2    H7  836   4.568   0.638  11.738  0.5304 -1.5456  0.5643
   55MPD2     C  837   0.261   3.270   0.961 -0.8070 -0.9678  0.0358
   55MPD2    C1  838   0.192   3.163   0.918  0.3128 -0.4971 -1.2638
   55MPD2    C2  839   0.058   3.146   0.955  1.0989  0.1429 -0.2270
   55MPD2    C3  840   4.723   3.237   1.033  0.3926  0.2952 -0.6982
   55MPD2    C4  841   0.067   3.345   1.078  0.6020 -0.4427  0.1651
   55MPD2    C5  842   0.202   3.360   1.040 -0.0263  0.0241 -0.5093
   55MPD2     H  843   4.723   3.069   0.907  2.0441 -0.1913 -0.8911
   55MPD2    H1  844   0.026   3.429   1.133  0.9252  0.2607 -0.6916
   55MPD2    H2  845   0.366   3.282   0.940 -0.4864 -2.2689  0.8724
   55MPD2    H3  846   0.256   3.449   1.073 -1.8039  1.3211 -1.0814
   55MPD2     N  847   4.595   3.211   1.078  0.3800  0.5038 -0.2336
   55MPD2    H5  848   4.555   3.138   1.021  1.0139 -0.8981  1.0960
   55MPD2    N1  849   0.266   3.065   0.842  0.1367 -0.1947 -0.0750
   55MPD2    H7  850   0.362   3.094   0.828  0.7650 -1.7541  1.1146
   56TCq2    C1  851   0.223   2.942   0.794 -0.0742  0.0679  0.3489
   56TCq2    O2  852   0.114   2.880   0.794 -0.1749 -0.0535 -0.1181
   56TCq2    C2  853   0.332   2.864   0.725 -0.2935 -0.2098 -0.0397
   56TCq2    C3  854   0.437   2.925   0.675 -0.2449 -0.5796  0.1734
   56TCq2    C4  855   0.534   2.856   0.619 -0.2103  0.2577  0.1025
   56TCq2    C5  856   0.523   2.716   0.608  0.6480 -0.6869  0.0307
   56TCq2    C6  857   0.422   2.658   0.673  0.8136  0.2091 -0.2489
   56TCq2    C7  858   0.318   2.726   0.735 -0.1557  0.2872 -0.0602
   56TCq2    C8  859   0.403   2.520   0.641 -0.5719  0.0239  0.3923
   56TCq2    O4  860   0.492   2.450   0.590 -0.7908  1.1323  0.2781
   56TCq2    C9  861   0.638   2.922   0.544 -0.6414  0.1184 -0.0216
   56TCq2    O5  862   0.641   3.049   0.539  0.1800  0.2896 -0.2370
   56TCq2    O6  863   0.742   2.855   0.528  0.4549 -0.0874  0.1307
   56TCq2    H2  864   0.440   3.033   0.660  0.8916 -0.6097  0.1772
   56TCq2    H3  865   0.593   2.653   0.555 -0.6387 -0.2609 -2.1612
   56TCq2    H4  866   0.243   2.679   0.798  0.9133 -0.0061  0.9731
   57TMC2    C1  867   4.394   4.161  13.555 -0.1962  0.1677 -0.2292
   57TMC2    C2  868   4.457   4.187  13.675  0.2817  0.0739 -0.4391
   57TMC2    C3  869   4.541   4.295  13.679  0.4998 -0.6503  0.2239
   57TMC2    C4  870   4.437   4.222  13.440 -0.1835 -0.9318 -0.2226
   57TMC2    C5  871   4.528   4.324  13.457 -0.8164  0.0666  0.6159
   57TMC2    C6  872   4.582   4.368  13.573 -0.3908  0.3648 -0.5321
   57TMC2     C  873   4.262   4.101  13.550  0.6371  0.3711 -0.2598
   57TMC2     O  874   4.188   4.134  13.455 -0.3909 -1.1150  0.0575
   57TMC2     H  875   4.426   4.144  13.770 -1.2006 -1.2615 -1.5401
   57TMC2    H1  876   4.397   4.204  13.341 -2.4024  1.2498  0.2644
   57TMC2    H2  877   4.642   4.458  13.573 -0.2094  0.2459 -3.1496
   57TMC2    C7  878   4.626   4.337  13.353 -0.1087  0.2891 -0.4124
   57TMC2    C8  879   4.624   4.299  13.796 -0.0295 -0.2338  0.3642
   57TMC2    O1  880   4.649   4.453  13.315 -0.3025  0.0622 -0.2347
   57TMC2    O2  881   4.596   4.224  13.887 -0.7496  0.0365  0.1210
   57TMC2    O5  882   0.027   4.312  13.761 -0.3611  0.4131 -0.7660
   57TMC2    H5  883   0.056   4.346  13.673  0.9380 -0.8040 -0.8147
   58MPD2     C  884   3.885   4.040  13.875 -1.0102 -0.1574  0.0378
   58MPD2    C1  885   3.919   4.141  13.792  0.5290  0.4647  0.0368
   58MPD2    C2  886   4.032   4.133  13.711 -0.0514  0.0071  0.0512
   58MPD2    C3  887   4.116   4.026  13.727  0.0411 -0.1551  0.2121
   58MPD2    C4  888   4.076   3.919  13.803 -0.2012  0.2465 -0.0716
   58MPD2    C5  889   3.965   3.934  13.877  0.3465 -0.0009  0.4874
   58MPD2     H  890   4.057   4.219  13.650 -1.2841  0.7890  0.6271
   58MPD2    H1  891   4.130   3.826  13.811 -0.9441 -0.1786 -0.0196
   58MPD2    H2  892   3.810   4.043  13.954 -0.8375  0.7184  0.1723
   58MPD2    H3  893   3.944   3.858  13.951 -1.1573  0.5019  0.5789
   58MPD2     N  894   4.241   4.027  13.663 -0.5565 -0.0460 -0.7752
   58MPD2    H5  895   4.316   3.997  13.723 -1.3004 -0.6211 -0.1308
   58MPD2    N1  896   3.836   4.254  13.785 -0.6128 -0.0275 -0.0090
   58MPD2    H7  897   3.872   4.328  13.725 -0.4254  1.7293  2.2530
   59MPD2     C  898   2.133   0.252  13.017 -0.3405 -0.6464  1.0299
   59MPD2    C1  899   2.163   0.132  13.071 -0.1842 -0.6838  0.2783
   59MPD2    C2  900   2.250   0.124  13.178 -0.6415  0.0613  0.1719
   59MPD2    C3  901   2.313   0.243  13.221  0.2451  0.7783  0.0979
   59MPD2    C4  902   2.287   0.363  13.162 -0.0722 -0.2418 -0.5182
   59MPD2    C5  903   2.202   0.364  13.052  0.2445  0.4305  0.0100
   59MPD2     H  904   2.285   0.031  13.219 -1.9733  0.0029  1.1567
   59MPD2    H1  905   2.345   0.446  13.199  2.9293 -2.8676  0.6594
   59MPD2    H2  906   2.055   0.262  12.943  0.0413  0.0269  0.7204
   59MPD2    H3  907   2.187   0.453  12.993 -1.0170  1.5869  2.0876
   59MPD2     N  908   2.417   0.245  13.322 -0.0244  0.1178 -0.3944
   59MPD2    H5  909   2.489   0.314  13.303  2.0574 -1.9384 -0.0292
   59MPD2    N1  910   2.112   0.016  13.012 -0.9223  0.0450 -0.2137
   59MPD2    H7  911   2.049   0.032  12.934 -2.4117 -0.3933  0.8908
   60TCq2    C1  912   2.138   4.613  13.044  0.2901 -0.4433  0.0503
   60TCq2    O2  913   2.203   4.560  13.133 -0.1363  0.3519  0.2146
   60TCq2    C2  914   2.088   4.520  12.940  0.0551  0.5728 -0.8704
   60TCq2    C3  915   2.044   4.402  12.998  0.5956  0.0534 -0.1823
   60TCq2    C4  916   2.014   4.297  12.913 -0.1923 -0.0848 -0.2687
   60TCq2    C5  917   2.039   4.311  12.781  0.5825  0.3513 -0.2652
   60TCq2    C6  918   2.082   4.427  12.734  0.6305 -0.5000 -0.6346
   60TCq2    C7  919   2.110   4.536  12.808  0.3086 -1.0491  0.0732
   60TCq2    C8  920   2.166   4.400  12.619 -0.0897  0.0561  0.4591
   60TCq2    O4  921   2.214   4.285  12.613 -0.2557 -0.5153 -0.5350
   60TCq2    C9  922   1.970   4.168  12.961  0.3728 -0.4299 -0.1083
   60TCq2    O5  923   1.937   4.086  12.869  0.2583 -0.1948 -0.0826
   60TCq2    O6  924   1.937   4.154  13.087 -0.4543 -0.2998 -0.8024
   60TCq2    H2  925   2.023   4.390  13.104 -1.3585  0.3030 -0.5387
   60TCq2    H3  926   2.016   4.229  12.714  0.0917 -0.2443  0.6377
   60TCq2    H4  927   2.163   4.623  12.771 -0.7586 -0.3445  0.1821
   61MPD2     C  928   0.705   0.835  14.666  0.2096 -0.3657  0.4894
   61MPD2    C1  929   0.816   0.914  14.672  0.2936  0.6084  0.2666
   61MPD2    C2  930   0.822   1.008  14.566 -0.1453  0.3354  0.3711
   61MPD2    C3  931   0.712   1.031  14.484 -0.6858  0.5161  0.3659
   61MPD2    C4  932   0.607   0.946  14.479 -0.2584 -0.6240  0.3240
   61MPD2    C5  933   0.604   0.846  14.572 -0.1051  0.1935 -0.2637
   61MPD2     H  934   0.906   1.076  14.556  0.1990  0.2149  2.3160
   61MPD2    H1  935   0.522   0.946  14.412 -1.4520 -0.6063  1.8093
   61MPD2    H2  936   0.697   0.762  14.746 -1.4558 -0.0874  0.5862
   61MPD2    H3  937   0.520   0.778  14.572  0.3176 -0.3275  0.3472
   61MPD2     N  938   0.707   1.140  14.396  0.1947  0.1051  0.6512
   61MPD2    H5  939   0.653   1.117  14.314  1.5215  1.3028 -0.5779
   61MPD2    N1  940   0.911   0.922  14.779  0.1213  0.5365 -0.1005
   61MPD2    H7  941   0.983   0.993  14.779 -1.1359  1.7875 -2.4326
   62TCq2    C1  942   0.914   0.829  14.879  0.3187 -0.1796  0.1045
   62TCq2    O2  943   0.841   0.733  14.899  0.1584 -0.1385 -0.2934
   62TCq2    C2  944   1.012   0.858  14.975  0.2073 -0.0169  0.0146
   62TCq2    C3  945   1.023   0.759  15.072 -0.6026  0.2562  0.8848
   62TCq2    C4  946   1.030   0.794  15.206  0.4633  0.0100  0.3908
   62TCq2    C5  947   1.016   0.923  15.249  0.4351  0.3771 -0.0130
   62TCq2    C6  948   0.997   1.016  15.149  0.0890  0.4546 -0.3598
   62TCq2    C7  949   1.008   0.989  15.020  0.2525  0.2836 -0.1463
   62TCq2    C8  950   1.004   1.155  15.176 -0.0874  0.5296  0.3984
   62TCq2    O4  951   1.063   1.221  15.095  0.3581 -0.0474 -0.1306
   62TCq2    C9  952   1.065   0.698  15.303 -0.0831  0.6128 -0.4998
   62TCq2    O5  953   1.076   0.734  15.426 -0.2705 -0.1943 -0.0332
   62TCq2    O6  954   1.062   0.574  15.268  0.0225 -0.3167 -0.6562
   62TCq2    H2  955   1.018   0.653  15.048  0.0602  0.1071  1.3774
   62TCq2    H3  956   1.020   0.961  15.351  0.9948 -0.5290  0.3034
   62TCq2    H4  957   0.988   1.073  14.954  0.8188 -1.2407 -2.2472
   63TMC2    C1  958   1.125   1.132  11.421  0.4836  0.5764  0.3096
   63TMC2    C2  959   1.200   1.190  11.519  0.3923  0.2578 -0.4330
   63TMC2    C3  960   1.289   1.287  11.484  0.4239 -0.3721 -0.3292
   63TMC2    C4  961   1.146   1.167  11.285 -0.0598 -0.3186  0.1244
   63TMC2    C5  962   1.246   1.262  11.254 -0.4035  0.0916  0.0665
   63TMC2    C6  963   1.318   1.322  11.354 -0.0550  0.1917  0.9399
   63TMC2     C  964   1.040   1.017  11.456  0.6730  0.2382 -0.6826
   63TMC2     O  965   0.982   1.011  11.563  0.2075  0.5151  0.5601
   63TMC2     H  966   1.193   1.161  11.624  0.2690  0.7954 -0.2941
   63TMC2    H1  967   1.089   1.128  11.201  3.0053 -0.4572 -1.8644
   63TMC2    H2  968   1.384   1.406  11.336  2.0715 -1.6374  0.2763
   63TMC2    C7  969   1.280   1.272  11.110 -0.1997 -0.6368  0.0168
   63TMC2    C8  970   1.361   1.348  11.587  0.1401 -0.2295 -0.5981
   63TMC2    O1  971   1.195   1.237  11.030 -0.1825 -0.1146 -0.0913
   63TMC2    O2  972   1.421   1.453  11.559  0.1908  0.2328 -0.1174
   63TMC2    O5  973   1.423   1.245  11.647  0.2023  0.6057 -0.5874
   63TMC2    H5  974   1.403   1.154  11.619  0.4657  0.3484  0.0500
   64MPD2     C  975   0.742   0.643  11.276  0.5761  0.7230 -0.3457
   64MPD2    C1  976   0.823   0.682  11.174  0.2677 -0.3208 -0.2838
   64MPD2    C2  977   0.915   0.776  11.201  0.5503  0.2023 -0.1170
   64MPD2    C3  978   0.924   0.840  11.320  0.0557  0.0860  0.6831
   64MPD2    C4  979   0.831   0.807  11.422 -0.7548  0.1636 -0.4601
   64MPD2    C5  980   0.746   0.706  11.397  0.0330  1.0160  0.5913
   64MPD2     H  981   0.988   0.794  11.123  0.6578  1.1734  0.2146
   64MPD2    H1  982   0.830   0.848  11.522 -0.9417 -0.6924 -0.1142
   64MPD2    H2  983   0.677   0.557  11.270  1.6858 -0.2198  1.4236
   64MPD2    H3  984   0.684   0.678  11.481 -0.6854  1.8390  0.3371
   64MPD2     N  985   1.021   0.940  11.343  0.2033  0.4290 -0.5341
   64MPD2    H5  986   1.098   0.954  11.278  0.5453 -0.6844 -0.3641
   64MPD2    N1  987   0.824   0.631  11.039 -0.8471  0.3694  0.2976
   64MPD2    H7  988   0.898   0.660  10.976 -0.8718 -0.0869  0.0629
   65MPD2     C  989   1.820   0.203  15.723  0.2473 -0.0975 -0.8805
   65MPD2    C1  990   1.880   0.170  15.601  0.3312 -0.7066  0.0205
   65MPD2    C2  991   1.900   0.038  15.578 -0.4514 -0.7916 -0.9957
   65MPD2    C3  992   1.856   4.666  15.660  0.2983 -0.2605 -1.2846
   65MPD2    C4  993   1.809   4.698  15.790 -0.9281  0.0335 -0.2045
   65MPD2    C5  994   1.786   0.110  15.819 -0.8794 -0.0802 -0.2877
   65MPD2     H  995   1.927   0.014  15.476 -1.1661 -0.6789 -1.2173
   65MPD2    H1  996   1.776   4.628  15.866 -1.8213 -0.2299 -0.8218
   65MPD2    H2  997   1.801   0.304  15.757  0.0320 -0.4087 -0.0816
   65MPD2    H3  998   1.732   0.140  15.908  0.8457  0.3354  0.6162
   65MPD2     N  999   1.849   4.529  15.617  0.2716  0.5898 -0.1951
   65MPD2    H5 1000   1.799   4.461  15.674 -0.5928  0.7766 -0.7352
   65MPD2    N1 1001   1.908   0.266  15.496  0.0984  0.5664  0.4096
   65MPD2    H7 1002   1.933   0.230  15.405 -0.2714 -0.2989  0.6593
   66TCq2    C1 1003   1.895   0.403  15.515 -0.2817  0.2771 -0.1446
   66TCq2    O2 1004   1.847   0.469  15.610 -0.2326  0.4276 -0.1039
   66TCq2    C2 1005   1.923   0.486  15.399  0.2958 -0.0051 -0.4250
   66TCq2    C3 1006   2.001   0.431  15.297 -0.4184 -0.0446  0.1409
   66TCq2    C4 1007   1.987   0.489  15.176 -0.4986  0.6407  0.2285
   66TCq2    C5 1008   1.919   0.604  15.154  0.8079  0.0739  0.1721
   66TCq2    C6 1009   1.849   0.654  15.262  0.3388 -0.4692  0.2485
   66TCq2    C7 1010   1.839   0.594  15.379  0.6631  0.2060  0.2005
   66TCq2    C8 1011   1.778   0.783  15.245 -0.1278  0.1234  0.8867
   66TCq2    O4 1012   1.768   0.813  15.129 -0.1458 -0.3544  0.2651
   66TCq2    C9 1013   2.029   0.407  15.066  0.2552  0.0571 -0.5721
   66TCq2    O5 1014   2.016   0.455  14.951  0.0337 -0.4387 -0.1029
   66TCq2    O6 1015   2.047   0.283  15.081 -0.6980 -0.0595 -0.0125
   66TCq2    H2 1016   2.064   0.344  15.313 -0.7843 -0.0619  1.4458
   66TCq2    H3 1017   1.923   0.655  15.058 -1.3128 -0.9929 -0.5008
   66TCq2    H4 1018   1.796   0.633  15.471 -0.4325  1.1902 -0.7293
   67MPD2     C 1019   1.964   4.347  14.178  0.1918  0.1166  0.6921
   67MPD2    C1 1020   1.933   4.458  14.252 -0.4860 -0.1068 -0.2353
   67MPD2    C2 1021   1.807   4.515  14.235  0.1666  0.0678 -0.4628
   67MPD2    C3 1022   1.720   4.474  14.136 -0.3312 -0.2841  0.5770
   67MPD2    C4 1023   1.762   4.375  14.059  0.2508  0.7132  0.4563
   67MPD2    C5 1024   1.879   4.311  14.077  0.1869  0.3485  0.1667
   67MPD2     H 1025   1.791   4.595  14.306  1.0316  1.8081 -2.1976
   67MPD2    H1 1026   1.692   4.345  13.982  0.5217  0.1211  0.4432
   67MPD2    H2 1027   2.060   4.299  14.187 -0.0312 -0.3952  0.3304
   67MPD2    H3 1028   1.903   4.230  14.010 -2.0392 -0.2624  0.1121
   67MPD2     N 1029   1.600   4.541  14.109 -0.3047 -0.3437  0.5012
   67MPD2    H5 1030   1.550   4.523  14.022  0.9185  1.0753 -0.4821
   67MPD2    N1 1031   2.010   4.516  14.359  0.0317 -0.2650 -0.4220
   67MPD2    H7 1032   1.971   4.602  14.397 -0.3668 -1.1166  1.0854
   68TCq2    C1 1033   2.131   4.468  14.411  0.4136 -0.1631  0.6668
   68TCq2    O2 1034   2.199   4.378  14.360  0.3367  0.2836  0.4091
   68TCq2    C2 1035   2.176   4.524  14.540  0.4039 -0.8373  0.1572
   68TCq2    C3 1036   2.096   4.610  14.611 -0.0215 -0.3932  0.3000
   68TCq2    C4 1037   2.161   4.708  14.671  0.0630 -0.0235 -0.7490
   68TCq2    C5 1038   2.298   4.714  14.688  0.0883 -0.0707  0.2767
   68TCq2    C6 1039   2.368   4.612  14.638 -0.3285  0.4697  0.3071
   68TCq2    C7 1040   2.314   4.519  14.550  0.3699 -0.3557  0.5594
   68TCq2    C8 1041   2.475   4.562  14.722  0.1917  0.0141 -0.3045
   68TCq2    O4 1042   2.552   4.476  14.683 -0.2425  0.4500 -0.3131
   68TCq2    C9 1043   2.095   0.089  14.734 -0.2647 -0.7298 -0.3699
   68TCq2    O5 1044   2.164   0.184  14.781  0.5353  0.4230  0.0988
   68TCq2    O6 1045   1.969   0.100  14.712  0.2795 -0.1907 -0.7882
   68TCq2    H2 1046   1.988   4.611  14.616  0.0427 -2.2254  1.8448
   68TCq2    H3 1047   2.347   0.079  14.723 -0.8898  0.8686 -0.7567
   68TCq2    H4 1048   2.374   4.445  14.500 -1.1421 -0.5447 -0.9769
   69TMC2    C1 1049   4.160   1.318  11.740  0.8167  0.3921 -0.1638
   69TMC2    C2 1050   4.068   1.428  11.708 -0.2950 -0.2303 -0.6915
   69TMC2    C3 1051   4.083   1.475  11.585  0.5728  0.4185  0.6236
   69TMC2    C4 1052   4.240   1.258  11.651 -0.3351  0.2946  0.4515
   69TMC2    C5 1053   4.246   1.317  11.528 -0.3687 -0.7105 -0.4280
   69TMC2    C6 1054   4.172   1.427  11.501 -0.3988  0.0067  0.0334
   69TMC2     C 1055   4.153   1.273  11.878  0.5715  0.1096  0.0726
   69TMC2     O 1056   4.057   1.306  11.943 -0.9637  0.3435 -0.2594
   69TMC2     H 1057   3.999   1.470  11.780 -0.2242 -2.7222  0.8147
   69TMC2    H1 1058   4.310   1.182  11.683 -0.1003  0.6272  0.7263
   69TMC2    H2 1059   4.186   1.482  11.409 -0.0571  1.9818  1.2483
   69TMC2    C7 1060   4.348   1.262  11.440 -0.1547 -0.1842 -0.2206
   69TMC2    C8 1061   4.015   1.597  11.548  0.4079  0.0960 -0.1842
   69TMC2    O1 1062   4.419   1.177  11.488  0.1523 -0.0492 -0.1856
   69TMC2    O2 1063   3.967   1.623  11.441 -0.2061  0.0026  0.6971
   69TMC2    O5 1064   4.031   1.684  11.653  0.2578  0.2654  0.1162
   69TMC2    H5 1065   4.061   1.628  11.727  0.7380  0.6065  0.1740
   70MPD2     C 1066   4.435   1.153  12.091  0.3489  0.3583 -0.6716
   70MPD2    C1 1067   4.303   1.184  12.067  0.2716 -0.4168  0.3754
   70MPD2    C2 1068   4.205   1.186  12.169 -0.8451 -0.2056  0.1700
   70MPD2    C3 1069   4.250   1.192  12.300 -0.4827  0.1025  0.3758
   70MPD2    C4 1070   4.389   1.170  12.322  0.1176  1.1291  0.3896
   70MPD2    C5 1071   4.478   1.146  12.220 -0.2029  0.6036 -0.0827
   70MPD2     H 1072   4.099   1.196  12.154 -0.5497 -1.2508 -2.5612
   70MPD2    H1 1073   4.428   1.164  12.423 -1.4959  0.6574  0.9994
   70MPD2    H2 1074   4.507   1.148  12.010  1.8846  1.0008  0.6495
   70MPD2    H3 1075   4.584   1.141  12.243 -0.7061 -2.1768  1.5747
   70MPD2     N 1076   4.171   1.205  12.416  1.1815 -0.6208 -0.4610
   70MPD2    H5 1077   4.221   1.208  12.504 -0.2323  0.0319  0.3200
   70MPD2    N1 1078   4.270   1.226  11.929  0.2191  0.0802  0.4847
   70MPD2    H7 1079   4.354   1.229  11.873 -0.1671  0.2310 -0.0897
   71TMC2    C1 1080   2.317   1.401   1.296  0.4065 -0.4917 -0.0464
   71TMC2    C2 1081   2.451   1.401   1.333  0.6074  0.2416 -0.1682
   71TMC2    C3 1082   2.488   1.476   1.443 -0.3646  0.4760  0.2418
   71TMC2    C4 1083   2.224   1.454   1.380  0.0633 -0.5457 -0.4991
   71TMC2    C5 1084   2.264   1.517   1.498  0.2673 -0.4818 -0.6299
   71TMC2    C6 1085   2.402   1.528   1.532  1.3199  0.3227  0.4587
   71TMC2     C 1086   2.304   1.449   1.166  0.4370 -0.3381  0.1169
   71TMC2     O 1087   2.263   1.563   1.162  0.7559 -0.0401  0.6634
   71TMC2     H 1088   2.525   1.377   1.258 -0.0807 -0.8500 -0.5081
   71TMC2    H1 1089   2.119   1.459   1.355  0.5637  1.8265 -2.1349
   71TMC2    H2 1090   2.435   1.584   1.619 -2.5558  0.3110  1.9320
   71TMC2    C7 1091   2.174   1.601   1.583  0.7530 -0.4218 -0.1959
   71TMC2    C8 1092   2.627   1.462   1.470  0.4554 -0.0891  0.3126
   71TMC2    O1 1093   2.224   1.685   1.655  0.1965  0.6371 -0.1642
   71TMC2    O2 1094   2.692   1.375   1.412  0.0513 -0.1598 -0.5784
   71TMC2    O5 1095   2.652   1.507   1.599 -0.1662 -0.0419  0.4230
   71TMC2    H5 1096   2.616   1.598   1.613  1.0975  0.0726  2.7068
   72MPD2     C 1097   2.516   1.507   0.706  0.0005 -0.1621  0.0744
   72MPD2    C1 1098   2.442   1.594   0.777  0.6486 -0.0936 -0.3502
   72MPD2    C2 1099   2.390   1.549   0.895  0.0046 -0.2877 -0.1912
   72MPD2    C3 1100   2.412   1.422   0.941  0.2129 -0.2603 -0.4914
   72MPD2    C4 1101   2.504   1.349   0.875  1.0281  0.3629 -0.0302
   72MPD2    C5 1102   2.558   1.389   0.760  0.0616  1.3600  0.5947
   72MPD2     H 1103   2.324   1.608   0.957 -1.6756 -0.5767 -1.6965
   72MPD2    H1 1104   2.551   1.258   0.910  2.2535  1.4403  1.1408
   72MPD2    H2 1105   2.582   1.523   0.622 -1.9447  1.2934 -1.1955
   72MPD2    H3 1106   2.639   1.342   0.705 -0.7795  1.3675 -0.6459
   72MPD2     N 1107   2.358   1.371   1.062 -0.5103 -0.1069 -0.5946
   72MPD2    H5 1108   2.382   1.277   1.090 -0.3254  0.1468  0.0845
   72MPD2    N1 1109   2.412   1.727   0.744  0.2084 -0.0395 -0.0424
   72MPD2    H7 1110   2.376   1.782   0.821 -1.0251 -2.8783  1.4457
   73TMC2    C1 1111   2.104   3.521  14.484  0.2810  0.0868  0.1582
   73TMC2    C2 1112   2.237   3.500  14.500  0.1916  0.4606 -0.9098
   73TMC2    C3 1113   2.320   3.603  14.463 -0.3158 -0.2141 -0.3671
   73TMC2    C4 1114   2.051   3.640  14.449 -0.1116 -0.0193 -0.3710
   73TMC2    C5 1115   2.137   3.741  14.414  0.0379 -0.4236  0.0382
   73TMC2    C6 1116   2.272   3.725  14.418 -0.3178 -0.3542  0.4524
   73TMC2     C 1117   2.027   3.413  14.421 -0.1991  0.3625  0.6312
   73TMC2     O 1118   1.908   3.443  14.410  0.5236 -0.5057  0.0433
   73TMC2     H 1119   2.276   3.412  14.551 -0.8221  1.2533  1.2732
   73TMC2    H1 1120   1.944   3.655  14.449 -0.2135 -0.7238 -1.0194
   73TMC2    H2 1121   2.331   3.791  14.356 -0.5802  1.2223  1.8971
   73TMC2    C7 1122   2.085   3.809  14.292  0.0165  0.0204  0.4367
   73TMC2    C8 1123   2.463   3.584  14.484  0.3084 -0.3227  0.9186
   73TMC2    O1 1124   2.151   3.907  14.261  0.2037 -0.2862  0.0183
   73TMC2    O2 1125   2.522   3.478  14.496  0.6145 -0.3163 -0.3676
   73TMC2    O5 1126   2.518   3.704  14.506 -0.1550 -0.4652 -0.6189
   73TMC2    H5 1127   2.452   3.776  14.511  1.4674  0.9506  0.1338
   74MPD2     C 1128   2.081   3.149  13.987  0.3930  0.2423  0.2312
   74MPD2    C1 1129   1.970   3.220  14.034 -0.0216  0.0737 -0.1578
   74MPD2    C2 1130   1.967   3.278  14.156 -0.4097 -0.5581 -0.3546
   74MPD2    C3 1131   2.076   3.256  14.239  0.4533 -0.0106  0.0813
   74MPD2    C4 1132   2.180   3.183  14.197 -0.2159  0.1487  0.4639
   74MPD2    C5 1133   2.194   3.125  14.074 -0.1745  0.2657  0.3102
   74MPD2     H 1134   1.889   3.351  14.177 -2.4852 -2.7766 -0.3785
   74MPD2    H1 1135   2.262   3.157  14.263  0.0919 -0.3541 -0.1177
   74MPD2    H2 1136   2.085   3.113  13.885 -0.0885 -0.3911  0.4350
   74MPD2    H3 1137   2.274   3.061  14.039 -1.0042 -0.4157 -0.3549
   74MPD2     N 1138   2.108   3.318  14.361  0.0398 -0.2804 -0.4067
   74MPD2    H5 1139   2.203   3.310  14.395 -0.1148 -0.8628 -0.0941
   74MPD2    N1 1140   1.864   3.222  13.936 -0.0796 -0.7227 -0.3222
   74MPD2    H7 1141   1.870   3.165  13.852  0.8630  0.1134 -0.8190
   75TCq2    C1 1142   1.534   4.619  14.206 -0.1653 -0.0488 -0.3098
   75TCq2    O2 1143   1.557   4.633  14.326  0.0248 -0.0904  0.0245
   75TCq2    C2 1144   1.426   4.698  14.146 -0.3232  0.3086 -0.3265
   75TCq2    C3 1145   1.308   4.695  14.219 -0.8286  0.0984  0.0495
   75TCq2    C4 1146   1.187   4.725  14.166  0.3586 -0.7428 -0.5374
   75TCq2    C5 1147   1.189   0.037  14.033  0.4519 -0.6876 -0.4080
   75TCq2    C6 1148   1.306   0.056  13.965 -0.3029 -0.1306 -0.1219
   75TCq2    C7 1149   1.432   0.022  14.017 -0.3919 -0.3863  0.3504
   75TCq2    C8 1150   1.298   0.120  13.840 -0.4952  0.6708  0.3257
   75TCq2    O4 1151   1.206   0.082  13.767 -0.3844  0.4350  0.4441
   75TCq2    C9 1152   1.065   4.706  14.249  0.0099  0.3825  0.3984
   75TCq2    O5 1153   0.955   0.001  14.195 -0.8327 -0.1452  0.0291
   75TCq2    O6 1154   1.082   4.660  14.365 -0.2497 -0.4972  0.1841
   75TCq2    H2 1155   1.316   4.666  14.323 -0.1830 -1.7647 -0.5210
   75TCq2    H3 1156   1.096   0.062  13.984 -0.6695  0.0738  2.1114
   75TCq2    H4 1157   1.522   0.034  13.959 -0.5377 -0.5662  0.0878
   76MPD2     C 1158   0.450   0.605  11.722  0.5074 -0.9331  0.7533
   76MPD2    C1 1159   0.468   0.743  11.706  1.1094 -0.7239  0.3959
   76MPD2    C2 1160   0.547   0.809  11.804  0.3887  0.6374  0.2074
   76MPD2    C3 1161   0.591   0.744  11.919  0.3802  0.2495  0.7291
   76MPD2    C4 1162   0.568   0.609  11.927 -0.7744  0.8782 -0.1364
   76MPD2    C5 1163   0.491   0.544  11.833  0.0202 -0.0901 -0.2898
   76MPD2     H 1164   0.560   0.916  11.790  0.9547  0.4250 -0.9220
   76MPD2    H1 1165   0.611   0.554  12.009 -0.6020  1.6013  0.2565
   76MPD2    H2 1166   0.412   0.535  11.649  0.4046 -2.7730  2.5813
   76MPD2    H3 1167   0.465   0.439  11.847  0.0792 -0.1540 -0.6447
   76MPD2     N 1168   0.663   0.809  12.020 -0.1971 -1.3105 -0.1647
   76MPD2    H5 1169   0.692   0.744  12.092 -1.0217  2.1037  3.2506
   76MPD2    N1 1170   0.433   0.812  11.586 -0.0867 -0.4353 -0.6852
   76MPD2    H7 1171   0.447   0.913  11.590 -4.2359  0.0615  1.2456
   77TCq2    C1 1172   0.723   0.932  12.015  0.2976 -0.3881 -0.0630
   77TCq2    O2 1173   0.720   1.017  11.923  0.1524 -0.4108  0.4694
   77TCq2    C2 1174   0.803   0.950  12.137 -0.4916  0.6345  0.8264
   77TCq2    C3 1175   0.753   0.873  12.242 -0.3723 -0.5653 -0.3858
   77TCq2    C4 1176   0.830   0.838  12.351 -1.2189 -0.0381  0.3967
   77TCq2    C5 1177   0.961   0.874  12.351 -0.2342  0.0565  0.6839
   77TCq2    C6 1178   1.005   0.959  12.250 -0.3503 -0.2135 -0.0518
   77TCq2    C7 1179   0.931   0.988  12.137 -0.3008  0.0678  1.1933
   77TCq2    C8 1180   1.126   1.039  12.269  0.7184  0.0430 -0.1401
   77TCq2    O4 1181   1.167   1.101  12.170  0.1299 -0.1696 -0.5541
   77TCq2    C9 1182   0.770   0.769  12.462 -0.6573 -0.0810 -0.3606
   77TCq2    O5 1183   0.834   0.782  12.574 -0.6378 -0.6834  0.7191
   77TCq2    O6 1184   0.659   0.727  12.437  0.2351  0.0969 -0.5510
   77TCq2    H2 1185   0.649   0.845  12.255  0.1900 -2.4047  0.2171
   77TCq2    H3 1186   1.017   0.854  12.442 -0.3556 -1.6463  0.3741
   77TCq2    H4 1187   0.960   1.067  12.069  3.9373 -0.9525  1.8391
   78MPD1     C 1188   3.045   2.968   3.045 -0.1975 -0.2577 -0.0476
   78MPD1    C1 1189   3.142   2.877   3.064 -0.5842  0.3461  0.6632
   78MPD1    C2 1190   3.175   2.801   2.953 -0.1696  0.2060  0.5172
   78MPD1    C3 1191   3.092   2.799   2.840  0.5883  0.1508 -0.0900
   78MPD1    C4 1192   2.992   2.888   2.829  1.1264 -0.0097  0.3979
   78MPD1    C5 1193   2.982   2.982   2.926  0.8412  0.0668 -0.3269
   78MPD1     H 1194   3.253   2.726   2.959  0.2989  0.6386 -0.2203
   78MPD1    H1 1195   2.914   2.876   2.754  0.9288  0.4252  0.5350
   78MPD1    H2 1196   3.024   3.045   3.119  1.4992 -0.5335  0.7128
   78MPD1    H3 1197   2.905   3.057   2.912 -0.4717 -1.3305 -0.5402
   78MPD1     N 1198   3.102   2.708   2.730  0.0525  1.1823 -0.3496
   78MPD1    H5 1199   3.028   2.712   2.660  0.6685  0.1771 -1.0551
   78MPD1    N1 1200   3.217   2.882   3.182 -0.1897 -0.3923  0.7907
   78MPD1    H6 1201   3.259   2.791   3.202  0.9777 -0.1309 -0.4642
   78MPD1    H7 1202   3.172   2.906   3.270  2.9193  1.7748  1.7832
   79TCq2    C1 1203   3.201   2.618   2.714  0.7233  0.1475 -0.1863
   79TCq2    O2 1204   3.294   2.584   2.783  0.2733 -0.5277  0.0632
   79TCq2    C2 1205   3.180   2.534   2.593  0.1831 -0.2445 -0.6980
   79TCq2    C3 1206   3.087   2.576   2.501 -0.8784  0.2277 -0.3742
   79TCq2    C4 1207   3.065   2.496   2.396 -0.1379  0.4230 -0.3977
   79TCq2    C5 1208   3.132   2.381   2.377 -0.5824  0.7079  0.1463
   79TCq2    C6 1209   3.232   2.349   2.465 -0.3996 -0.1732 -0.1690
   79TCq2    C7 1210   3.260   2.425   2.573  0.8673  0.0324  0.0239
   79TCq2    C8 1211   3.292   2.221   2.444  0.5951 -0.4734  0.5666
   79TCq2    O4 1212   3.291   2.178   2.328 -0.0409 -0.0010 -0.2679
   79TCq2    C9 1213   2.963   2.536   2.297  0.4085 -0.3028  0.6124
   79TCq2    O5 1214   2.862   2.595   2.343 -0.2864 -0.2613  0.2352
   79TCq2    O6 1215   2.955   2.464   2.197 -0.0729 -0.0639  0.3217
   79TCq2    H2 1216   3.034   2.670   2.498 -0.7817  0.2695 -0.6956
   79TCq2    H3 1217   3.106   2.311   2.299 -1.8088  0.6154  0.6352
   79TCq2    H4 1218   3.348   2.415   2.636  0.2694  0.3284  0.9067
   80MPD2     C 1219   4.447   0.621  12.875  0.1206 -0.2121 -0.4121
   80MPD2    C1 1220   4.449   0.608  12.740 -0.4233 -0.4233 -0.1230
   80MPD2    C2 1221   4.330   0.618  12.666  0.5365 -0.3444  0.0251
   80MPD2    C3 1222   4.210   0.645  12.731  0.3889 -0.4374  0.0042
   80MPD2    C4 1223   4.218   0.682  12.871 -0.6106  0.5227 -1.1627
   80MPD2    C5 1224   4.334   0.667  12.937 -0.3248  0.4313 -0.1148
   80MPD2     H 1225   4.332   0.592  12.561  0.4629 -2.3014  0.5074
   80MPD2    H1 1226   4.134   0.723  12.926 -1.7291 -1.3013 -1.4803
   80MPD2    H2 1227   4.528   0.606  12.945  1.7732 -0.2136 -2.3038
   80MPD2    H3 1228   4.332   0.682  13.044 -1.6774 -0.5483 -0.0088
   80MPD2     N 1229   4.082   0.648  12.671 -0.5186 -0.0076 -0.5967
   80MPD2    H5 1230   4.014   0.689  12.734  1.1346 -0.0226  1.1991
   80MPD2    N1 1231   4.559   0.560  12.670 -0.2509  0.3530 -0.7160
   80MPD2    H7 1232   4.531   0.510  12.586  0.8293  0.3038 -1.0503
   81TCq2    C1 1233   4.679   0.530  12.718 -0.2860  0.6067  0.0993
   81TCq2    O2 1234   0.015   0.568  12.820  0.7484  0.0755  0.0670
   81TCq2    C2 1235   0.038   0.460  12.615 -0.4573  0.0722  0.2603
   81TCq2    C3 1236   0.144   0.528  12.561  0.2834 -0.1511  0.5504
   81TCq2    C4 1237   0.185   0.507  12.431  0.4224 -0.2923  0.2956
   81TCq2    C5 1238   0.118   0.412  12.357 -0.7101 -0.0444  0.3388
   81TCq2    C6 1239   0.019   0.342  12.413 -0.7034 -0.3124  0.4262
   81TCq2    C7 1240   4.701   0.364  12.539  0.0329  0.2553 -0.5054
   81TCq2    C8 1241   4.664   0.259  12.320  0.1276  0.3425 -0.3602
   81TCq2    O4 1242   4.665   0.284  12.200  0.2050 -0.4395 -0.0769
   81TCq2    C9 1243   0.286   0.591  12.386 -0.2241 -0.0449  0.2098
   81TCq2    O5 1244   0.304   0.693  12.457 -0.2547  0.4426 -0.1006
   81TCq2    O6 1245   0.330   0.573  12.270 -0.0360  0.0462 -0.3675
   81TCq2    H2 1246   0.182   0.606  12.627 -0.0988  0.7976 -0.3614
   81TCq2    H3 1247   0.158   0.387  12.259 -1.6668 -0.6710  0.1109
   81TCq2    H4 1248   4.615   0.307  12.573 -0.1260  0.3164 -0.7982
   82MPD2     C 1249   2.783   0.441  10.779 -0.1361  0.3044  0.8133
   82MPD2    C1 1250   2.685   0.351  10.813  0.1973  0.4413 -0.1015
   82MPD2    C2 1251   2.706   0.243  10.902 -0.2328  0.3331 -0.3059
   82MPD2    C3 1252   2.830   0.236  10.966  0.5084 -0.1039 -0.5160
   82MPD2    C4 1253   2.928   0.333  10.941 -0.2447 -0.5205  0.2807
   82MPD2    C5 1254   2.906   0.437  10.843  0.2497 -0.0636  0.4300
   82MPD2     H 1255   2.622   0.185  10.938  0.1248  0.7311  1.1931
   82MPD2    H1 1256   3.022   0.340  10.994  0.5136  0.4279 -1.1858
   82MPD2    H2 1257   2.755   0.523  10.715 -0.0627 -0.2225  0.1079
   82MPD2    H3 1258   2.984   0.507  10.816  0.1026 -0.8471 -2.0619
   82MPD2     N 1259   2.854   0.129  11.052  0.2741  0.2264  0.4660
   82MPD2    H5 1260   2.930   0.142  11.118 -0.2843 -0.1016  1.1696
   82MPD2    N1 1261   2.564   0.360  10.739 -0.1651  0.1263 -0.4407
   82MPD2    H7 1262   2.558   0.433  10.668  2.8267 -1.6332 -2.5177
   83TCq2    C1 1263   2.784   0.013  11.051  0.3893  0.2487 -0.6602
   83TCq2    O2 1264   2.741   4.688  10.950  0.3392 -0.4545 -1.0565
   83TCq2    C2 1265   2.812   4.644  11.161 -0.7568 -0.1312 -0.3173
   83TCq2    C3 1266   2.900   4.674  11.263 -0.4106 -0.7626  0.1392
   83TCq2    C4 1267   2.914   4.582  11.361  0.6550  0.4163  0.8121
   83TCq2    C5 1268   2.845   4.465  11.359 -0.3566 -0.3367  0.8146
   83TCq2    C6 1269   2.754   4.432  11.257  0.0810 -1.2016 -0.7149
   83TCq2    C7 1270   2.736   4.528  11.158 -0.0751 -0.2141  0.0398
   83TCq2    C8 1271   2.645   4.350  11.306  0.4429  0.2616  0.3963
   83TCq2    O4 1272   2.638   4.319  11.423 -0.1021  0.3730  0.7483
   83TCq2    C9 1273   2.991   4.621  11.472  0.3911 -0.3737  0.5381
   83TCq2    O5 1274   3.042   4.527  11.543  0.5806 -0.0763  0.2592
   83TCq2    O6 1275   3.049   0.006  11.462  0.3571  0.6528  0.4856
   83TCq2    H2 1276   2.934   0.051  11.273 -0.6785 -0.8346  1.9072
   83TCq2    H3 1277   2.869   4.393  11.436  1.9342  0.5997  0.9691
   83TCq2    H4 1278   2.663   4.517  11.079  1.0483  0.2054 -1.0674
   84TCq2    C1 1279   3.526   3.386  10.427 -0.3540  0.5256  0.0006
   84TCq2    O2 1280   3.627   3.440  10.458 -0.1789 -0.2257 -0.6030
   84TCq2    C2 1281   3.500   3.262  10.503 -0.0824 -0.5396  0.2863
   84TCq2    C3 1282   3.494   3.147  10.421 -0.0129  0.0876 -0.7187
   84TCq2    C4 1283   3.563   3.038  10.469  0.2543  0.1959 -0.1733
   84TCq2    C5 1284   3.637   3.035  10.582 -0.0357 -1.2640  0.4283
   84TCq2    C6 1285   3.648   3.150  10.661  0.1843 -0.3006  0.1570
   84TCq2    C7 1286   3.578   3.267  10.620  1.0496  0.6659  0.6254
   84TCq2    C8 1287   3.726   3.142  10.784 -0.7074 -1.3601  0.1041
   84TCq2    O4 1288   3.825   3.071  10.784  0.3884 -0.1683  0.1483
   84TCq2    C9 1289   3.558   2.918  10.393 -0.9055 -0.0025  0.3193
   84TCq2    O5 1290   3.463   2.909  10.313  0.3436 -0.3422  0.9306
   84TCq2    O6 1291   3.656   2.840  10.392 -0.1538  0.6588 -0.4753
   84TCq2    H2 1292   3.436   3.138  10.329 -1.2072 -2.9487  0.3242
   84TCq2    H3 1293   3.691   2.944  10.608  1.4504 -0.6325 -0.4500
   84TCq2    H4 1294   3.601   3.363  10.666  1.1173  0.3054  1.3399
   85MPD2     C 1295   3.797   1.379  16.254  0.7095 -1.5081  0.2027
   85MPD2    C1 1296   3.817   1.276  16.161 -0.6325 -0.0255 -0.2721
   85MPD2    C2 1297   3.857   1.312  16.033 -0.1669  0.0586  1.1941
   85MPD2    C3 1298   3.866   1.445  15.989  0.4528 -0.5558 -0.0719
   85MPD2    C4 1299   3.849   1.538  16.088 -0.6189 -0.0339  0.5782
   85MPD2    C5 1300   3.817   1.507  16.216 -0.6748 -0.1782  0.4587
   85MPD2     H 1301   3.881   1.236  15.959  2.4589  0.0457  2.0687
   85MPD2    H1 1302   3.871   1.643  16.073 -3.1672  0.0648 -2.6060
   85MPD2    H2 1303   3.753   1.367  16.352 -1.0559 -1.5159 -0.5740
   85MPD2    H3 1304   3.797   1.576  16.297 -1.8708 -0.2745  0.2571
   85MPD2     N 1305   3.922   1.475  15.860 -0.4707  0.8789 -0.1747
   85MPD2    H5 1306   3.922   1.396  15.796  0.1350  1.1631 -0.5221
   85MPD2    N1 1307   3.791   1.143  16.193 -0.1285 -0.8848 -0.0100
   85MPD2    H7 1308   3.784   1.076  16.117  1.2502 -0.1281 -0.7950
   86TCq2    C1 1309   3.949   1.605  15.816  0.4789 -0.1721  0.0740
   86TCq2    O2 1310   3.918   1.716  15.860 -0.1215 -0.0033 -0.4099
   86TCq2    C2 1311   4.047   1.596  15.707 -0.1073  0.0861  0.1669
   86TCq2    C3 1312   4.057   1.700  15.616  0.6678  0.3681  0.3937
   86TCq2    C4 1313   4.125   1.676  15.498 -0.2096 -0.4222 -1.1020
   86TCq2    C5 1314   4.186   1.555  15.466 -0.3908 -0.3494 -0.1289
   86TCq2    C6 1315   4.187   1.463  15.570 -0.4883  0.1312  0.7869
   86TCq2    C7 1316   4.121   1.485  15.688  0.5871 -0.1921 -0.4457
   86TCq2    C8 1317   4.219   1.324  15.544 -0.3106  0.1417 -0.1260
   86TCq2    O4 1318   4.184   1.245  15.633 -0.1731  0.8077  0.0392
   86TCq2    C9 1319   4.132   1.777  15.399 -0.2309 -0.2159 -0.5032
   86TCq2    O5 1320   4.195   1.745  15.301 -0.9013  0.2501  0.6134
   86TCq2    O6 1321   4.089   1.891  15.425  0.7013 -0.1069 -0.5009
   86TCq2    H2 1322   4.007   1.796  15.619  1.4111  0.6873  2.1322
   86TCq2    H3 1323   4.239   1.531  15.375 -1.1893  2.0505 -1.2197
   86TCq2    H4 1324   4.138   1.411  15.766  2.5027  0.5757 -0.1215
   87MPD2     C 1325   1.481   4.724   1.313 -0.8082 -0.2953  1.1101
   87MPD2    C1 1326   1.521   4.713   1.181  0.2404  0.1326 -0.9064
   87MPD2    C2 1327   1.427   4.719   1.077  0.2593 -0.1479 -0.1146
   87MPD2    C3 1328   1.295   0.015   1.109 -0.1250  0.4231 -0.0816
   87MPD2    C4 1329   1.261   0.042   1.239 -0.1035  0.2372 -0.5220
   87MPD2    C5 1330   1.351   0.029   1.343  0.9568 -0.5043  0.0491
   87MPD2     H 1331   1.450   4.695   0.973 -1.4184 -3.7568  0.3148
   87MPD2    H1 1332   1.158   0.066   1.262 -0.0612  0.3469 -0.4483
   87MPD2    H2 1333   1.555   4.722   1.392 -0.6723 -1.3688  0.9527
   87MPD2    H3 1334   1.314   0.040   1.444  2.1360  1.9803  0.2409
   87MPD2     N 1335   1.195   0.038   1.010  0.2827  0.1173 -0.1685
   87MPD2    H5 1336   1.106   0.078   1.037  0.4425  0.4409 -0.1128
   87MPD2    N1 1337   1.664   4.696   1.162 -0.2778  0.1648 -0.2579
   87MPD2    H7 1338   1.730   4.690   1.239  0.0953 -0.0921 -0.5985
   88TCq2    C1 1339   1.731   4.719   1.044 -0.0195 -0.1961 -0.0144
   88TCq2    O2 1340   1.687   0.011   0.933 -0.1649  0.1249 -0.2499
   88TCq2    C2 1341   1.876   4.725   1.061  1.1626 -0.1995 -0.2498
   88TCq2    C3 1342   1.938   0.044   1.181 -0.1521  0.4520  0.5647
   88TCq2    C4 1343   2.069   0.063   1.182 -0.4261  0.1886  0.1271
   88TCq2    C5 1344   2.145   0.054   1.066  0.2874  0.6096 -0.2612
   88TCq2    C6 1345   2.086   0.022   0.953  0.0360  0.1004  0.2865
   88TCq2    C7 1346   1.948   0.000   0.945 -0.6200  1.0226 -0.1705
   88TCq2    C8 1347   2.175   0.013   0.837 -0.2152  0.6700  0.1060
   88TCq2    O4 1348   2.285   0.067   0.847 -0.1918  0.0335 -0.1579
   88TCq2    C9 1349   2.131   0.098   1.307 -0.0071 -0.3800 -0.0659
   88TCq2    O5 1350   2.054   0.129   1.405 -0.5294  0.0596  0.2857
   88TCq2    O6 1351   2.262   0.105   1.305  0.4692 -0.0728  0.0775
   88TCq2    H2 1352   1.894   0.029   1.279 -0.0538 -0.3525  0.4792
   88TCq2    H3 1353   2.250   0.077   1.056  0.1009  1.7411  0.4382
   88TCq2    H4 1354   1.901   4.699   0.851 -0.0742  2.6722 -0.9204
   89MPD2     C 1355   3.489   1.743   1.850 -0.2126 -0.0819  0.0635
   89MPD2    C1 1356   3.404   1.803   1.938  0.1777  0.5012  0.3555
   89MPD2    C2 1357   3.464   1.852   2.053 -0.0881  0.0391  0.1507
   89MPD2    C3 1358   3.602   1.844   2.080 -0.1267 -0.9105  0.1258
   89MPD2    C4 1359   3.682   1.771   1.995 -0.0284 -0.3644  0.2495
   89MPD2    C5 1360   3.627   1.730   1.879 -0.5743  0.5983  0.2810
   89MPD2     H 1361   3.402   1.916   2.115  1.1203  1.2877  0.0504
   89MPD2    H1 1362   3.789   1.754   2.005 -0.2372  0.0375  3.1389
   89MPD2    H2 1363   3.440   1.704   1.762  1.9272 -0.0707 -1.1380
   89MPD2    H3 1364   3.689   1.674   1.809  0.2916  1.9433 -0.0263
   89MPD2     N 1365   3.652   1.888   2.209 -0.2401  0.6694 -0.2251
   89MPD2    H5 1366   3.583   1.927   2.274 -1.2903 -3.0102  0.8758
   89MPD2    N1 1367   3.263   1.821   1.924 -0.0974 -0.1661  0.3557
   89MPD2    H7 1368   3.225   1.868   2.005 -2.6821 -0.1442 -0.8773
   90TCq2    C1 1369   3.780   1.886   2.242 -0.8223  0.0120  0.0168
   90TCq2    O2 1370   3.882   1.827   2.203  0.3525  0.4003 -0.0282
   90TCq2    C2 1371   3.797   1.975   2.354  0.2106 -0.4139  0.2707
   90TCq2    C3 1372   3.885   1.954   2.455  0.0456  0.5052  0.2320
   90TCq2    C4 1373   3.912   2.053   2.546  0.9881  0.1660 -0.3904
   90TCq2    C5 1374   3.839   2.171   2.540  0.6950  0.3049 -0.7767
   90TCq2    C6 1375   3.746   2.182   2.440 -0.3872  0.2346 -0.2994
   90TCq2    C7 1376   3.714   2.079   2.360 -0.3340 -0.2499  0.1003
   90TCq2    C8 1377   3.676   2.308   2.431  0.5238  0.5328 -0.4242
   90TCq2    O4 1378   3.640   2.369   2.532  0.1901 -0.0982 -0.3333
   90TCq2    C9 1379   4.015   2.041   2.650  0.0880  0.2203 -0.7165
   90TCq2    O5 1380   4.050   1.923   2.668  0.1788 -0.6791 -0.3154
   90TCq2    O6 1381   4.066   2.142   2.708 -0.3153 -0.0782 -0.1024
   90TCq2    H2 1382   3.949   1.867   2.452 -0.4091  0.1485  0.9660
   90TCq2    H3 1383   3.856   2.255   2.606 -0.0847 -1.5028  1.6899
   90TCq2    H4 1384   3.657   2.098   2.270 -0.5445 -3.5397 -0.4780
   91TMC2    C1 1385   3.954   2.516  16.484  0.1877  0.5792  0.5964
   91TMC2    C2 1386   3.968   2.647  16.529  0.6903 -0.0573 -0.1063
   91TMC2    C3 1387   3.857   2.713  16.577  0.2363  0.6724  0.0479
   91TMC2    C4 1388   3.834   2.468  16.490  0.2273  1.0780 -0.1088
   91TMC2    C5 1389   3.726   2.541  16.524 -0.7216 -0.1501 -0.0905
   91TMC2    C6 1390   3.738   2.662  16.581 -0.8559 -0.2494 -0.2925
   91TMC2     C 1391   4.070   2.420  16.489 -0.2759  0.1170  0.2590
   91TMC2     O 1392   4.048   2.302  16.511  0.2351 -0.3760 -0.0576
   91TMC2     H 1393   4.056   2.708  16.514  1.2869 -0.0772  3.3111
   91TMC2    H1 1394   3.819   2.366  16.457 -1.1167  1.0910  0.4728
   91TMC2    H2 1395   3.654   2.715  16.625 -2.9721 -1.1211 -3.3229
   91TMC2    C7 1396   3.600   2.483  16.518 -0.0369 -0.0238  0.6869
   91TMC2    C8 1397   3.856   2.855  16.609  0.6265 -0.1597 -0.2395
   91TMC2    O1 1398   3.527   2.503  16.618  0.4224 -0.4552  0.6880
   91TMC2    O2 1399   3.757   2.922  16.608 -0.2625 -0.0883  0.6834
   91TMC2    O5 1400   3.977   2.885  16.672  0.0721 -0.3711 -0.2585
   91TMC2    H5 1401   4.043   2.816  16.693  0.1749 -0.1136  0.2519
   92MPD2     C 1402   4.335   2.264  16.492 -0.1505 -0.2066  0.2417
   92MPD2    C1 1403   4.314   2.403  16.465 -0.2875 -0.7729 -0.0951
   92MPD2    C2 1404   4.424   2.480  16.429  0.5035 -0.1288  0.1484
   92MPD2    C3 1405   4.546   2.425  16.428  0.5315 -0.3887  0.3566
   92MPD2    C4 1406   4.566   2.288  16.447  0.5126 -0.2207 -0.4291
   92MPD2    C5 1407   4.461   2.209  16.483 -0.4767  0.2678  0.0657
   92MPD2     H 1408   4.402   2.583  16.405 -1.1041 -0.5151 -0.0826
   92MPD2    H1 1409   4.661   2.236  16.452  0.0935 -0.8642  0.8152
   92MPD2    H2 1410   4.252   2.199  16.516  0.4075 -1.1541 -0.4091
   92MPD2    H3 1411   4.477   2.103  16.501 -1.3226 -0.1897 -1.8246
   92MPD2     N 1412   4.655   2.508  16.392 -0.3476  0.1058  0.2418
   92MPD2    H5 1413   4.619   2.601  16.371 -0.7144 -0.1769 -0.3625
   92MPD2    N1 1414   4.191   2.476  16.466 -0.3564  0.1464  0.2118
   92MPD2    H7 1415   4.201   2.575  16.448 -0.5437  0.2436  0.6416
   93MPD2     C 1416   1.092   2.360  13.676  0.2047 -0.5102 -0.6793
   93MPD2    C1 1417   1.033   2.444  13.765 -0.5011 -0.0522 -0.2567
   93MPD2    C2 1418   0.895   2.457  13.758 -0.5508  0.4120  0.4186
   93MPD2    C3 1419   0.820   2.370  13.678  0.6212  0.4635  0.8679
   93MPD2    C4 1420   0.887   2.286  13.593 -0.0762  0.1611 -0.2728
   93MPD2    C5 1421   1.023   2.286  13.588 -0.6233  0.6025 -1.0692
   93MPD2     H 1422   0.849   2.512  13.839  2.5345  0.7141  1.9811
   93MPD2    H1 1423   0.836   2.235  13.512  1.2884  1.3730 -1.8956
   93MPD2    H2 1424   1.196   2.331  13.683  0.7189  1.7325  0.6271
   93MPD2    H3 1425   1.073   2.219  13.519 -2.1396 -0.1404 -1.4628
   93MPD2     N 1426   0.682   2.362  13.661  0.0617  0.0993 -0.0463
   93MPD2    H5 1427   0.644   2.282  13.612  1.2860 -0.7033  0.3351
   93MPD2    N1 1428   1.108   2.530  13.847  0.3725  0.3645  0.4003
   93MPD2    H7 1429   1.056   2.595  13.905 -0.6259 -0.7462  0.7588
   94TCq2    C1 1430   1.247   2.551  13.838  0.0111  0.2470 -0.5549
   94TCq2    O2 1431   1.330   2.503  13.758 -0.4776 -0.7518  0.2652
   94TCq2    C2 1432   1.291   2.652  13.931 -0.5468 -0.5247 -0.5732
   94TCq2    C3 1433   1.213   2.693  14.034  0.3157 -0.3605 -0.1079
   94TCq2    C4 1434   1.270   2.768  14.137  0.2929 -0.4486  0.0650
   94TCq2    C5 1435   1.395   2.811  14.129  0.1103 -0.1117  0.2842
   94TCq2    C6 1436   1.470   2.773  14.019  0.0631 -0.0400 -0.9788
   94TCq2    C7 1437   1.424   2.683  13.928  0.9236 -0.7311 -0.2877
   94TCq2    C8 1438   1.611   2.797  14.009 -0.4950 -0.5990 -0.2128
   94TCq2    O4 1439   1.672   2.755  13.910  0.3937 -0.8314  0.5661
   94TCq2    C9 1440   1.182   2.816  14.240  0.2077 -0.1865  0.2812
   94TCq2    O5 1441   1.069   2.763  14.248  0.2399  0.1882 -0.2976
   94TCq2    O6 1442   1.226   2.899  14.321  0.4006 -0.0594  0.5809
   94TCq2    H2 1443   1.116   2.653  14.060 -0.2533  0.3444 -1.1535
   94TCq2    H3 1444   1.429   2.878  14.208  0.8618  0.1256 -0.2319
   94TCq2    H4 1445   1.491   2.634  13.857  1.1215 -2.7127  1.2659
   95TMC2    C1 1446   0.969   4.189  15.809  0.0866  0.0350 -0.3490
   95TMC2    C2 1447   0.988   4.138  15.936  0.0037 -0.2486 -0.3587
   95TMC2    C3 1448   0.908   4.185  16.036  0.2992  0.0572  1.0098
   95TMC2    C4 1449   0.877   4.291  15.785  0.9451  0.1748 -0.9246
   95TMC2    C5 1450   0.806   4.333  15.895 -0.6399 -0.3939 -0.2462
   95TMC2    C6 1451   0.824   4.291  16.025  0.1184  0.0441 -0.0783
   95TMC2     C 1452   1.057   4.145  15.703  0.1700 -0.4920  0.0032
   95TMC2     O 1453   1.164   4.090  15.728  0.4545  0.1355  0.3570
   95TMC2     H 1454   1.053   4.053  15.950  1.2739  0.1643 -3.8406
   95TMC2    H1 1455   0.868   4.332  15.685  0.5805 -2.0499 -1.8104
   95TMC2    H2 1456   0.753   4.315  16.104  0.0154  0.5889 -0.3343
   95TMC2    C7 1457   0.714   4.446  15.882  0.0547 -0.3039 -0.0135
   95TMC2    C8 1458   0.966   4.157  16.165 -0.0295 -0.8923  0.1764
   95TMC2    O1 1459   0.689   4.482  15.770 -0.7928 -0.1849 -0.3250
   95TMC2    O2 1460   1.089   4.152  16.184  0.0526  0.1328  0.1549
   95TMC2    O5 1461   0.879   4.070  16.212  0.2565 -0.4542 -0.1088
   95TMC2    H5 1462   0.791   4.074  16.167  0.3670  0.6224 -0.2255
   96MPD2     C 1463   1.248   4.175  15.234  0.1208 -0.5729 -0.2512
   96MPD2    C1 1464   1.315   4.187  15.352 -0.3107  0.2768 -0.2236
   96MPD2    C2 1465   1.239   4.193  15.466  0.0318  0.7037  0.7909
   96MPD2    C3 1466   1.099   4.178  15.467  0.1567  0.6880  0.3758
   96MPD2    C4 1467   1.039   4.172  15.347 -0.7625  0.1066  0.6734
   96MPD2    C5 1468   1.114   4.173  15.233 -0.2663  0.3630 -0.6954
   96MPD2     H 1469   1.296   4.190  15.558 -0.7931 -0.5919  1.2627
   96MPD2    H1 1470   0.933   4.157  15.337 -0.4590 -1.4863 -0.2259
   96MPD2    H2 1471   1.300   4.194  15.141  0.9651 -0.0450  0.3343
   96MPD2    H3 1472   1.075   4.145  15.136 -0.1478 -0.1757 -0.5876
   96MPD2     N 1473   1.016   4.181  15.581 -0.3959  0.4730  0.1409
   96MPD2    H5 1474   0.917   4.201  15.568 -0.3675 -2.0196 -3.7342
   96MPD2    N1 1475   1.453   4.210  15.341  0.0393  0.0452 -0.0359
   96MPD2    H7 1476   1.489   4.233  15.249  0.7334 -0.4579  0.1089
   97MPD2     C 1477   3.758   2.061   0.832  0.0380 -0.3305  0.1884
   97MPD2    C1 1478   3.636   2.033   0.870 -0.0315  0.4491  0.7933
   97MPD2    C2 1479   3.525   2.067   0.795  0.6034 -0.2272  0.4239
   97MPD2    C3 1480   3.525   2.155   0.694  0.3694  0.1856  0.3507
   97MPD2    C4 1481   3.649   2.197   0.658 -0.0587  0.1961 -0.2333
   97MPD2    C5 1482   3.764   2.155   0.729 -0.2136  0.0341  0.2604
   97MPD2     H 1483   3.429   2.032   0.831  0.5011  2.0211  2.2997
   97MPD2    H1 1484   3.666   2.267   0.577  1.7717  0.3448  0.2661
   97MPD2    H2 1485   3.849   2.034   0.884  1.0102  2.5113 -0.0371
   97MPD2    H3 1486   3.862   2.194   0.704 -0.2590 -0.8685 -1.3205
   97MPD2     N 1487   3.420   2.191   0.610  0.4963 -0.1308  0.1009
   97MPD2    H5 1488   3.441   2.231   0.519  0.0244 -0.3938 -0.1260
   97MPD2    N1 1489   3.622   1.986   1.005 -0.1118 -0.0572 -0.3751
   97MPD2    H7 1490   3.707   1.981   1.060 -0.5312 -0.2708  0.2683
   98TCq2    C1 1491   3.289   2.180   0.654  0.8492  0.8665  0.3446
   98TCq2    O2 1492   3.250   2.161   0.770  0.1852 -0.5358 -0.0317
   98TCq2    C2 1493   3.200   2.225   0.545 -0.1295  1.0599 -0.3093
   98TCq2    C3 1494   3.076   2.267   0.584  0.4047  0.3097  0.6648
   98TCq2    C4 1495   3.009   2.352   0.503  0.3429  0.3524 -0.5086
   98TCq2    C5 1496   3.052   2.401   0.386 -0.1111 -0.1305  0.1627
   98TCq2    C6 1497   3.173   2.347   0.339 -0.3447  0.8160  0.2438
   98TCq2    C7 1498   3.243   2.263   0.419 -0.7662  0.5371 -0.0160
   98TCq2    C8 1499   3.245   2.428   0.235 -0.1007 -0.1901 -0.7067
   98TCq2    O4 1500   3.358   2.386   0.203  0.5237  0.2902  0.1119
   98TCq2    C9 1501   2.876   2.400   0.537 -0.0113 -0.3050  0.2143
   98TCq2    O5 1502   2.822   2.369   0.643  0.1330 -0.6363 -0.4182
   98TCq2    O6 1503   2.826   2.487   0.462 -0.0567 -0.2707 -0.5399
   98TCq2    H2 1504   3.033   2.254   0.682 -2.0413  1.0242 -0.3128
   98TCq2    H3 1505   2.982   2.456   0.324 -1.5355 -1.4541  0.5999
   98TCq2    H4 1506   3.341   2.229   0.390 -1.0715  0.3161 -0.7806
   99MPD2     C 1507   2.395   4.044   2.138  0.3586 -0.2617  0.1420
   99MPD2    C1 1508   2.337   3.921   2.136  0.3196 -0.2254 -0.4345
   99MPD2    C2 1509   2.379   3.831   2.043 -0.6985 -0.7783 -0.6927
   99MPD2    C3 1510   2.483   3.864   1.953 -0.3644  0.0400 -0.2028
   99MPD2    C4 1511   2.543   3.987   1.965 -0.4411 -0.5333 -0.3061
   99MPD2    C5 1512   2.501   4.074   2.057 -0.2477  0.0528 -0.0418
   99MPD2     H 1513   2.334   3.733   2.028 -2.8103  0.2929 -1.3712
   99MPD2    H1 1514   2.603   4.027   1.884  0.1992 -0.8462  0.0121
   99MPD2    H2 1515   2.366   4.131   2.196 -0.1177 -0.8526  0.7934
   99MPD2    H3 1516   2.528   4.179   2.045 -0.9832  0.2717  0.1991
   99MPD2     N 1517   2.516   3.770   1.853 -0.9964  1.0202 -0.8043
   99MPD2    H5 1518   2.459   3.686   1.862  0.3657  0.1511 -0.2719
   99MPD2    N1 1519   2.230   3.890   2.223  0.2308  0.0322 -0.0304
   99MPD2    H7 1520   2.197   3.794   2.226  0.1967  0.0519  0.1819
  100TCq2    C1 1521   2.180   3.976   2.323  0.9188  0.1210  0.3171
  100TCq2    O2 1522   2.219   4.083   2.372  0.6052  0.4131 -0.0097
  100TCq2    C2 1523   2.084   3.902   2.398 -0.2973 -0.1008  0.1591
  100TCq2    C3 1524   2.056   3.944   2.517  0.0844 -0.6140  0.0010
  100TCq2    C4 1525   1.956   3.888   2.586  0.3992  0.5134  0.4127
  100TCq2    C5 1526   1.887   3.779   2.529  0.7459 -0.5911  0.2002
  100TCq2    C6 1527   1.920   3.736   2.402  0.2424  0.4007  0.8885
  100TCq2    C7 1528   2.018   3.798   2.334 -0.2044 -0.3929  0.2360
  100TCq2    C8 1529   1.853   3.615   2.361 -0.3402  0.2840 -0.0234
  100TCq2    O4 1530   1.830   3.539   2.455  0.0201 -0.0113  0.3475
  100TCq2    C9 1531   1.919   3.939   2.715 -0.5221 -0.9720  0.6293
  100TCq2    O5 1532   1.813   3.891   2.770 -0.5083  0.0275  0.1293
  100TCq2    O6 1533   1.993   4.035   2.760  0.6945  0.1891 -0.0916
  100TCq2    H2 1534   2.118   4.018   2.566 -0.3931  0.8026 -1.5692
  100TCq2    H3 1535   1.805   3.724   2.574 -0.0975 -0.0705 -0.7117
  100TCq2    H4 1536   2.029   3.769   2.231  0.5368 -3.9492  1.3181
  101MPD2     C 1537   3.196   0.552  13.069 -0.0070  0.5078  0.3845
  101MPD2    C1 1538   3.063   0.579  13.055 -0.1435  0.2556 -0.6184
  101MPD2    C2 1539   2.968   0.505  13.130  0.0479 -0.3011  0.2027
  101MPD2    C3 1540   3.003   0.408  13.221 -0.6611 -0.3056  0.0861
  101MPD2    C4 1541   3.135   0.377  13.224 -0.1046  0.3942  0.1761
  101MPD2    C5 1542   3.224   0.453  13.153 -0.0480  0.7207  0.3985
  101MPD2     H 1543   2.863   0.532  13.122  0.5531  1.6288 -0.0466
  101MPD2    H1 1544   3.173   0.294  13.283 -0.8026 -0.7349 -0.9752
  101MPD2    H2 1545   3.278   0.606  13.023  0.5799 -1.4595 -0.8831
  101MPD2    H3 1546   3.329   0.430  13.171 -0.4390  0.7169  2.7320
  101MPD2     N 1547   2.903   0.344  13.293 -0.1637  0.3388 -0.4919
  101MPD2    H5 1548   2.812   0.378  13.262  0.6124  1.5728 -1.3733
  101MPD2    N1 1549   3.041   0.684  12.958  0.1039 -0.0803  0.1931
  101MPD2    H7 1550   3.113   0.698  12.888  2.1488  2.1833  2.7779
  102TCq2    C1 1551   3.107   0.992  12.562 -0.4908  0.5395  0.6874
  102TCq2    O2 1552   3.200   0.909  12.554 -0.4068  0.5556 -0.4003
  102TCq2    C2 1553   3.031   0.992  12.690 -0.6520 -0.2243 -0.1072
  102TCq2    C3 1554   2.968   1.102  12.734  0.6753  1.0032  0.2335
  102TCq2    C4 1555   2.888   1.104  12.842 -0.0522  0.4847  0.5469
  102TCq2    C5 1556   2.879   0.994  12.920  0.7105  0.3788  0.6473
  102TCq2    C6 1557   2.947   0.881  12.880 -0.4350  0.2455  0.3589
  102TCq2    C7 1558   3.027   0.879  12.767  0.6959 -0.0131 -0.2177
  102TCq2    C8 1559   2.931   0.760  12.960  0.0023 -0.2162  0.6874
  102TCq2    O4 1560   2.833   0.757  13.039  0.0401  0.4575 -0.3109
  102TCq2    C9 1561   2.813   1.227  12.869 -0.3561 -0.0344 -0.3794
  102TCq2    O5 1562   2.710   1.205  12.936  0.3855 -0.6561 -0.2625
  102TCq2    O6 1563   2.850   1.335  12.812  0.3658  0.2116 -0.0200
  102TCq2    H2 1564   2.982   1.195  12.681 -2.2124  0.6046 -1.2149
  102TCq2    H3 1565   2.812   0.980  13.004  0.9209 -2.4564  0.3657
  102TCq2    H4 1566   3.063   0.788  12.719  0.1306  0.0971 -0.8353
  103TMC2    C1 1567   1.290   1.305  13.015  0.6513 -0.5883  0.1601
  103TMC2    C2 1568   1.341   1.429  13.033  0.7912  0.8564 -0.1824
  103TMC2    C3 1569   1.337   1.479  13.159  1.2277 -0.8139 -0.4382
  103TMC2    C4 1570   1.234   1.230  13.124 -0.1556 -0.0616  0.4691
  103TMC2    C5 1571   1.219   1.291  13.244 -0.1626 -0.2538 -0.2221
  103TMC2    C6 1572   1.264   1.419  13.263  0.5626 -0.3456  0.3701
  103TMC2     C 1573   1.255   1.259  12.881  0.2250 -0.5056 -0.4436
  103TMC2     O 1574   1.155   1.186  12.879  0.2254 -0.3390 -0.0920
  103TMC2     H 1575   1.391   1.479  12.950  0.5061  0.4813 -0.5788
  103TMC2    H1 1576   1.194   1.130  13.113  2.6591 -1.1845  0.3200
  103TMC2    H2 1577   1.228   1.469  13.352 -1.6449 -1.4290  0.0878
  103TMC2    C7 1578   1.182   1.215  13.362  0.2173 -0.2311  0.4395
  103TMC2    C8 1579   1.419   1.597  13.185 -0.0960  0.1936 -0.6700
  103TMC2    O1 1580   1.115   1.281  13.442  0.5350 -0.0818  0.3000
  103TMC2    O2 1581   1.433   1.685  13.102  0.2692 -0.1779 -0.2701
  103TMC2    O5 1582   1.390   1.629  13.312  0.0548  0.2719 -0.1825
  103TMC2    H5 1583   1.401   1.550  13.369  0.1187 -0.7530 -1.6171
  104MPD2     C 1584   1.427   1.318  12.566 -0.4159  0.2982  0.1553
  104MPD2    C1 1585   1.333   1.270  12.647  1.1370 -1.2921  0.3563
  104MPD2    C2 1586   1.239   1.182  12.597  0.5773  0.9007 -0.2338
  104MPD2    C3 1587   1.242   1.153  12.462  1.0003  0.0618  0.9998
  104MPD2    C4 1588   1.338   1.212  12.385  0.1006  0.4227  0.1480
  104MPD2    C5 1589   1.432   1.294  12.437  0.5208 -0.0737 -0.4501
  104MPD2     H 1590   1.171   1.128  12.662  2.6351  0.2657  1.3997
  104MPD2    H1 1591   1.350   1.179  12.283  0.8423  0.5413  0.1942
  104MPD2    H2 1592   1.506   1.387  12.593 -0.3700 -0.7570  2.6957
  104MPD2    H3 1593   1.523   1.315  12.382  0.3882  1.5457 -0.0503
  104MPD2     N 1594   1.155   1.057  12.407  0.8030 -0.4375 -0.1840
  104MPD2    H5 1595   1.081   1.026  12.469  1.4381 -1.0024  0.2905
  104MPD2    N1 1596   1.336   1.310  12.787 -0.0079  0.1112  0.2534
  104MPD2    H7 1597   1.423   1.354  12.816  0.0359  1.0600 -1.2915
  105MPD2     C 1598   2.988   4.380  17.332 -0.4812  0.1226  0.0914
  105MPD2    C1 1599   2.876   4.469  17.341  0.1435 -0.6907  0.1412
  105MPD2    C2 1600   2.850   4.523  17.468  0.0287  0.0179 -0.4011
  105MPD2    C3 1601   2.926   4.484  17.580  0.1986  0.3617  0.0516
  105MPD2    C4 1602   3.034   4.398  17.567 -0.5465  0.3264  0.0877
  105MPD2    C5 1603   3.050   4.334  17.450 -0.1936 -1.0504  0.4590
  105MPD2     H 1604   2.785   4.608  17.483 -1.2764 -1.3628  1.8392
  105MPD2    H1 1605   3.082   4.362  17.658  0.6854  1.8028  0.0178
  105MPD2    H2 1606   3.007   4.327  17.239  0.5628 -0.9781  0.9356
  105MPD2    H3 1607   3.126   4.260  17.429  1.2401 -0.3273  3.0283
  105MPD2     N 1608   2.884   4.536  17.703  0.1103  0.1406 -0.1141
  105MPD2    H5 1609   2.801   4.594  17.702  0.4046  0.5484 -0.9250
  105MPD2    N1 1610   2.784   4.500  17.234 -0.1843 -0.7619 -0.0254
  105MPD2    H7 1611   2.700   4.552  17.257  1.1326  2.1143 -1.8023
  106TCq2    C1 1612   2.947   4.524   0.120 -0.5953 -0.2724 -0.0542
  106TCq2    O2 1613   3.061   4.486   0.143  0.3384 -0.5072  0.6365
  106TCq2    C2 1614   2.877   4.601   0.231  0.2114  0.1195 -0.4411
  106TCq2    C3 1615   2.949   4.649   0.341 -0.1873 -0.8423 -0.8583
  106TCq2    C4 1616   2.881   4.720   0.432 -0.5300 -0.3884  0.0917
  106TCq2    C5 1617   2.750   0.011   0.423 -0.0055 -0.4309 -0.5033
  106TCq2    C6 1618   2.685   4.697   0.305 -0.2641 -0.1891 -0.4856
  106TCq2    C7 1619   2.748   4.629   0.203 -0.3899 -0.0239  0.3614
  106TCq2    C8 1620   2.536   4.678   0.298 -0.2322  0.0534 -0.1807
  106TCq2    O4 1621   2.491   4.654   0.187  0.6278 -0.2474  0.7017
  106TCq2    C9 1622   2.957   0.053   0.537 -0.1932 -0.1601 -0.3321
  106TCq2    O5 1623   3.082   0.045   0.530  0.2062  0.0810 -0.1324
  106TCq2    O6 1624   2.895   0.109   0.629  0.4632  0.1859  0.2711
  106TCq2    H2 1625   3.055   4.628   0.343 -0.0406 -0.1062 -0.8574
  106TCq2    H3 1626   2.702   0.072   0.499 -1.2232  0.5605 -2.0687
  106TCq2    H4 1627   2.691   4.563   0.140  0.2029 -0.4527  0.2711
  107TMC2    C1 1628   3.366   3.546  11.717  0.1029 -0.0403 -0.3366
  107TMC2    C2 1629   3.244   3.497  11.666 -0.2527 -0.8846 -0.1203
  107TMC2    C3 1630   3.245   3.440  11.540  0.0649  0.1302 -0.0156
  107TMC2    C4 1631   3.483   3.520  11.655  0.4277  0.4874  0.0443
  107TMC2    C5 1632   3.474   3.462  11.528 -0.0014 -0.2786 -0.0640
  107TMC2    C6 1633   3.354   3.423  11.471  0.1427 -0.4185  0.5122
  107TMC2     C 1634   3.365   3.567  11.860  0.6464 -0.0137 -0.7182
  107TMC2     O 1635   3.258   3.573  11.921  0.2352  0.1987 -0.8275
  107TMC2     H 1636   3.150   3.520  11.716  0.4097 -0.2569  0.8471
  107TMC2    H1 1637   3.580   3.550  11.691  1.5341 -1.7210 -1.1162
  107TMC2    H2 1638   3.352   3.385  11.370  0.8690  2.1578 -0.4793
  107TMC2    C7 1639   3.596   3.433  11.448 -0.0336  0.1754 -0.3717
  107TMC2    C8 1640   3.126   3.425  11.453 -0.5049 -0.5367 -0.0164
  107TMC2    O1 1641   3.699   3.436  11.514  0.3168  0.7580 -0.1293
  107TMC2    O2 1642   3.126   3.354  11.357 -0.0788 -0.1956  0.0643
  107TMC2    O5 1643   3.026   3.477  11.518  0.4748  0.0109  0.0346
  107TMC2    H5 1644   3.045   3.558  11.569 -2.2926  0.8469 -0.2208
  108MPD2     C 1645   3.650   3.579  12.081  0.1327 -0.4034 -0.3243
  108MPD2    C1 1646   3.518   3.608  12.049 -0.3980 -0.5990 -0.2052
  108MPD2    C2 1647   3.429   3.649  12.145  0.6879 -0.0052  0.8227
  108MPD2    C3 1648   3.476   3.677  12.273 -0.4548  0.3848 -1.4208
  108MPD2    C4 1649   3.605   3.653  12.312  0.3852 -0.6597 -1.1744
  108MPD2    C5 1650   3.690   3.613  12.211 -0.3231 -0.1069 -0.4893
  108MPD2     H 1651   3.325   3.664  12.120  0.5715  0.1627  1.4189
  108MPD2    H1 1652   3.652   3.656  12.410  1.2389 -0.5931 -1.5897
  108MPD2    H2 1653   3.725   3.551  12.008 -0.3536 -1.0795 -0.5642
  108MPD2    H3 1654   3.793   3.592  12.240 -0.5662 -2.7932 -1.5379
  108MPD2     N 1655   3.389   3.731  12.364  0.0875  0.1493 -0.4102
  108MPD2    H5 1656   3.293   3.743  12.333 -0.0050  0.0056 -0.1782
  108MPD2    N1 1657   3.488   3.572  11.915  0.0255 -0.3935  0.2203
  108MPD2    H7 1658   3.562   3.530  11.859 -1.2421 -0.7133 -1.2188
  109MPD2     C 1659   3.747   1.107   2.371 -0.4877  0.1635  0.1014
  109MPD2    C1 1660   3.690   1.136   2.250 -0.5362 -0.5664  0.1099
  109MPD2    C2 1661   3.763   1.118   2.133  0.5594 -0.3216 -0.3612
  109MPD2    C3 1662   3.891   1.075   2.140 -0.8615  0.7051 -0.1120
  109MPD2    C4 1663   3.947   1.042   2.260  0.7315  0.1647 -0.3653
  109MPD2    C5 1664   3.872   1.057   2.375  0.9039 -0.0695 -0.3305
  109MPD2     H 1665   3.715   1.133   2.037  2.7893  0.1666 -1.3991
  109MPD2    H1 1666   4.046   1.003   2.282 -0.4106 -1.6524  1.6026
  109MPD2    H2 1667   3.708   1.126   2.470  0.5880 -0.3022  0.6226
  109MPD2    H3 1668   3.923   1.045   2.470  2.5277  2.5031 -0.8607
  109MPD2     N 1669   3.962   1.067   2.019 -0.4718 -0.0871  0.1481
  109MPD2    H5 1670   3.925   1.120   1.941 -0.9740 -2.2587 -1.0921
  109MPD2    N1 1671   3.564   1.207   2.244 -0.8294  0.2523  0.2006
  109MPD2    H7 1672   3.533   1.240   2.154  0.5599  0.2103 -0.2992
  110TCq2    C1 1673   4.091   1.026   2.004  0.2389 -0.3654 -0.0971
  110TCq2    O2 1674   4.162   0.951   2.073  0.4109 -0.6776  0.4235
  110TCq2    C2 1675   4.145   1.093   1.877  0.2180  0.0643  0.0352
  110TCq2    C3 1676   4.253   1.040   1.816 -0.1818 -0.0871 -0.0967
  110TCq2    C4 1677   4.300   1.091   1.699 -0.5139 -0.0719  0.2924
  110TCq2    C5 1678   4.246   1.199   1.642 -0.0229  0.1628 -0.4229
  110TCq2    C6 1679   4.129   1.249   1.706  0.4202 -0.0594  0.1088
  110TCq2    C7 1680   4.080   1.203   1.824  0.1757  0.5271  0.2214
  110TCq2    C8 1681   4.073   1.378   1.655 -0.2611 -0.7216  0.5307
  110TCq2    O4 1682   3.966   1.409   1.704 -0.5514  0.1895 -0.1379
  110TCq2    C9 1683   4.414   1.048   1.648 -0.8368  0.0249  0.5536
  110TCq2    O5 1684   4.480   1.133   1.576  0.1401 -0.6385  0.8446
  110TCq2    O6 1685   4.469   0.943   1.697  0.0307 -0.3220  0.0811
  110TCq2    H2 1686   4.313   0.962   1.862  1.3437 -0.0742 -2.0766
  110TCq2    H3 1687   4.272   1.219   1.539  0.9874  2.7561  0.3584
  110TCq2    H4 1688   3.998   1.256   1.869 -0.3320 -0.4096  0.4016
  111TMC2    C1 1689   3.426   1.278  11.096  0.7893 -0.2127 -0.3167
  111TMC2    C2 1690   3.471   1.235  10.974 -0.4158 -0.2374 -0.0710
  111TMC2    C3 1691   3.595   1.162  10.978  0.1419  0.5246  0.0307
  111TMC2    C4 1692   3.487   1.250  11.213 -0.3915  0.0386  0.0047
  111TMC2    C5 1693   3.606   1.180  11.216 -0.5985  0.4206  0.8819
  111TMC2    C6 1694   3.666   1.144  11.097 -0.9261 -0.1393  0.2921
  111TMC2     C 1695   3.337   1.394  11.093 -0.5944  0.6282 -1.2021
  111TMC2     O 1696   3.332   1.447  10.982  0.2629  0.5497 -0.0229
  111TMC2     H 1697   3.417   1.259  10.883 -0.0273 -0.0838 -0.2604
  111TMC2    H1 1698   3.460   1.296  11.307 -1.4546  0.1533 -0.3534
  111TMC2    H2 1699   3.763   1.097  11.090 -1.2941 -0.7787 -0.6170
  111TMC2    C7 1700   3.678   1.155  11.337  0.7122  0.5323 -0.0886
  111TMC2    C8 1701   3.660   1.125  10.858 -0.2086 -0.1470 -0.3913
  111TMC2    O1 1702   3.610   1.152  11.436 -0.4552  0.1259  0.1389
  111TMC2    O2 1703   3.780   1.125  10.845  0.2894 -0.3013 -0.2673
  111TMC2    O5 1704   3.566   1.095  10.765  0.0706  0.1553 -0.2029
  111TMC2    H5 1705   3.478   1.068  10.800  0.6004 -0.4668  0.6343
  112MPD2     C 1706   2.981   1.706  11.289  0.2594 -0.5283  0.6232
  112MPD2    C1 1707   3.042   1.713  11.169  0.3422 -0.0947 -0.2405
  112MPD2    C2 1708   3.119   1.606  11.136 -0.2638 -0.2694 -0.2160
  112MPD2    C3 1709   3.150   1.505  11.225 -0.0537 -0.0114  0.1796
  112MPD2    C4 1710   3.090   1.507  11.344  0.7453 -0.6998 -0.1592
  112MPD2    C5 1711   3.004   1.603  11.371 -0.6873  0.7038  0.0175
  112MPD2     H 1712   3.168   1.596  11.040  0.5002  0.2736  0.1240
  112MPD2    H1 1713   3.111   1.429  11.416  1.2847  0.4511  0.9282
  112MPD2    H2 1714   2.918   1.782  11.335 -1.5031 -0.1826 -2.3365
  112MPD2    H3 1715   2.956   1.603  11.469  0.5463  2.2530  0.6119
  112MPD2     N 1716   3.264   1.415  11.205  0.1350  0.2162 -0.4576
  112MPD2    H5 1717   3.272   1.344  11.276  1.9654 -0.2966 -1.1694
  112MPD2    N1 1718   3.038   1.819  11.078  0.3304  0.3941  0.6737
  112MPD2    H7 1719   3.064   1.813  10.980 -0.1341  0.9715  0.5158
  113MPD2     C 1720   1.904   3.290   1.066 -1.0294 -0.2240  0.1424
  113MPD2    C1 1721   1.803   3.379   1.017  0.7272 -0.0553 -0.8076
  113MPD2    C2 1722   1.736   3.356   0.899  0.4320 -0.1546  0.9006
  113MPD2    C3 1723   1.765   3.241   0.830 -0.5326 -0.0775  0.9031
  113MPD2    C4 1724   1.863   3.160   0.876  0.0378 -0.1494 -0.1761
  113MPD2    C5 1725   1.937   3.189   0.983 -0.0434 -0.0769  0.4740
  113MPD2     H 1726   1.657   3.423   0.867  0.7626 -0.5617 -0.7582
  113MPD2    H1 1727   1.887   3.064   0.831  2.9208  0.4415  0.1147
  113MPD2    H2 1728   1.961   3.292   1.158 -4.1790 -0.4267  2.1248
  113MPD2    H3 1729   2.007   3.116   1.023 -0.3783 -0.8768 -0.3863
  113MPD2     N 1730   1.703   3.194   0.717  0.0563  0.2619 -0.1314
  113MPD2    H5 1731   1.744   3.114   0.669  1.3100  0.1071  1.1779
  113MPD2    N1 1732   1.764   3.493   1.090 -0.8916  0.0129  0.8306
  113MPD2    H7 1733   1.697   3.550   1.041  1.2445  0.9652 -0.9783
  114TCq2    C1 1734   1.580   3.244   0.668 -0.0137  0.3815  0.1994
  114TCq2    O2 1735   1.519   3.349   0.695  0.0552 -0.2408 -0.7543
  114TCq2    C2 1736   1.508   3.144   0.584 -0.3365 -0.4169 -0.3829
  114TCq2    C3 1737   1.369   3.172   0.559 -0.1915  0.6938  0.3915
  114TCq2    C4 1738   1.282   3.068   0.558 -0.5830  0.2010 -0.0041
  114TCq2    C5 1739   1.327   2.944   0.572  0.0491 -0.0359  0.6867
  114TCq2    C6 1740   1.463   2.919   0.579 -0.2252  0.4138  0.4263
  114TCq2    C7 1741   1.552   3.020   0.585 -0.0812  0.1884 -0.4788
  114TCq2    C8 1742   1.505   2.797   0.633 -0.1202  0.3972  0.1516
  114TCq2    O4 1743   1.588   2.739   0.564  0.6072  0.0510  0.4346
  114TCq2    C9 1744   1.135   3.080   0.559  0.2106 -0.3342 -0.2823
  114TCq2    O5 1745   1.065   2.975   0.574 -0.4633 -0.3174 -0.7419
  114TCq2    O6 1746   1.094   3.183   0.500 -0.0082 -0.5314 -0.3281
  114TCq2    H2 1747   1.336   3.275   0.563  3.3723  1.9030 -1.2817
  114TCq2    H3 1748   1.260   2.859   0.577  1.1744 -1.0484 -1.1716
  114TCq2    H4 1749   1.656   2.998   0.607  0.0049  0.3288 -0.7402
  115TMC2    C1 1750   1.583   1.944  17.361 -0.7886 -0.1851 -0.3511
  115TMC2    C2 1751   1.522   2.002  17.252  0.3278  0.2891 -0.0877
  115TMC2    C3 1752   1.556   2.123  17.213 -0.0478 -0.1394  0.1053
  115TMC2    C4 1753   1.687   2.007  17.426 -0.2082  0.2653 -0.1352
  115TMC2    C5 1754   1.719   2.133  17.381  0.4370  0.9047  0.1455
  115TMC2    C6 1755   1.656   2.189  17.270  0.2835 -0.1464  0.5565
  115TMC2     C 1756   1.557   1.797  17.383  0.1037  0.2733  0.0940
  115TMC2     O 1757   1.501   1.743  17.291  0.0893  0.1919  0.9439
  115TMC2     H 1758   1.449   1.947  17.194  0.4777  2.1003 -2.0044
  115TMC2    H1 1759   1.741   1.955  17.503 -1.7024  0.7609  1.2350
  115TMC2    H2 1760   1.686   2.288  17.239  0.8789 -0.5167 -0.0382
  115TMC2    C7 1761   1.818   2.196  17.460  0.2359  0.8740 -0.7983
  115TMC2    C8 1762   1.492   2.182  17.097 -0.5770  0.7991  0.0529
  115TMC2    O1 1763   1.825   2.161  17.578  0.3799 -0.4310 -0.2359
  115TMC2    O2 1764   1.464   2.106  17.001 -0.2358  0.0259  0.9869
  115TMC2    O5 1765   1.432   2.297  17.138  0.1333  0.1616  0.0259
  115TMC2    H5 1766   1.438   2.305  17.236  2.8933 -5.0802  0.2506
  116MPD2     C 1767   1.697   1.336  17.589  0.0448  0.4936  0.5440
  116MPD2    C1 1768   1.650   1.370  17.461  0.9274 -0.3470 -0.3024
  116MPD2    C2 1769   1.619   1.498  17.422  0.4180  0.0534 -0.3461
  116MPD2    C3 1770   1.638   1.600  17.518 -0.7396 -0.2766  0.2710
  116MPD2    C4 1771   1.695   1.572  17.634 -0.1144 -0.0250  0.0157
  116MPD2    C5 1772   1.721   1.443  17.678  0.4703 -0.3262  0.1372
  116MPD2     H 1773   1.587   1.531  17.323 -0.6951  1.4727  0.4855
  116MPD2    H1 1774   1.731   1.641   0.006 -0.3036  1.0680 -0.8909
  116MPD2    H2 1775   1.705   1.232  17.618  0.9416  0.3799 -0.1123
  116MPD2    H3 1776   1.753   1.424   0.075 -1.1403 -3.0329  0.1495
  116MPD2     N 1777   1.608   1.739  17.493  0.6339  0.0282 -0.0535
  116MPD2    H5 1778   1.620   1.803  17.571 -0.8835  0.1332  0.0842
  116MPD2    N1 1779   1.632   1.264  17.364  0.5109  0.0644 -0.4113
  116MPD2    H7 1780   1.586   1.296  17.280 -2.5877 -0.5605  1.0424
  117TMC2    C1 1781   0.609   3.041  13.874  0.8219  0.1101  0.4927
  117TMC2    C2 1782   0.679   2.928  13.855  0.2586 -0.4339  0.1262
  117TMC2    C3 1783   0.820   2.932  13.871 -0.6368  0.6473  0.2029
  117TMC2    C4 1784   0.662   3.158  13.923 -0.2073 -0.3945  0.5570
  117TMC2    C5 1785   0.796   3.158  13.947  0.6210  0.3574  0.3677
  117TMC2    C6 1786   0.878   3.045  13.926  0.3944  0.5837  0.8557
  117TMC2     C 1787   0.473   3.036  13.831  0.5385  0.4181 -0.4871
  117TMC2     O 1788   0.451   2.942  13.756  0.0583 -0.6244 -0.2917
  117TMC2     H 1789   0.635   2.838  13.814 -0.9736 -0.0028  0.4868
  117TMC2    H1 1790   0.609   3.252  13.921  0.2623 -0.1546 -0.1675
  117TMC2    H2 1791   0.986   3.052  13.933  0.4348  1.6191 -0.6251
  117TMC2    C7 1792   0.866   3.278  13.965 -0.2042 -0.0751  0.6219
  117TMC2    C8 1793   0.895   2.809  13.842  0.5122  0.3388 -0.5565
  117TMC2    O1 1794   0.983   3.275  13.926  0.8176  0.5518  0.1247
  117TMC2    O2 1795   0.926   2.730  13.927  0.4479 -0.4343  0.4196
  117TMC2    O5 1796   0.887   2.788  13.710  0.9058 -0.4731 -0.2721
  117TMC2    H5 1797   0.861   2.876  13.675  0.8584 -0.8850 -1.2579
  118MPD2     C 1798   0.694   3.594  14.036  0.9349  0.2306 -0.5831
  118MPD2    C1 1799   0.803   3.516  14.010  0.5438  0.1961 -0.5034
  118MPD2    C2 1800   0.925   3.576  13.978 -0.5046  0.5269  0.1337
  118MPD2    C3 1801   0.941   3.710  13.951 -0.2751 -0.6754 -0.5655
  118MPD2    C4 1802   0.820   3.790  13.970  0.4164 -0.5988 -0.4158
  118MPD2    C5 1803   0.700   3.731  14.008  0.0702  1.0713  0.3022
  118MPD2     H 1804   1.008   3.510  13.957 -0.5596 -0.8419  4.2217
  118MPD2    H1 1805   0.818   3.896  13.946 -2.9551 -0.4920  0.3055
  118MPD2    H2 1806   0.604   3.539  14.062  0.5758  0.2257 -1.8463
  118MPD2    H3 1807   0.610   3.790  14.019 -0.6650 -0.2498  1.4255
  118MPD2     N 1808   1.061   3.772  13.914  0.2717  0.0277  0.2333
  118MPD2    H5 1809   1.045   3.868  13.885  0.0678 -0.5616 -1.5439
  118MPD2    N1 1810   0.782   3.375  14.020 -0.0795  0.0159  0.0131
  118MPD2    H7 1811   0.686   3.346  14.037 -0.4219  1.1626  0.0283
  119MPD2     C 1812   3.842   4.643  13.275  0.2433 -0.0970 -0.1134
  119MPD2    C1 1813   3.727   4.607  13.344 -0.2156  0.3219 -0.2692
  119MPD2    C2 1814   3.624   4.556  13.270  0.0893  0.0710  0.7790
  119MPD2    C3 1815   3.639   4.526  13.137 -0.1320  0.9104  0.2772
  119MPD2    C4 1816   3.754   4.560  13.069  0.3854 -0.7539  1.0422
  119MPD2    C5 1817   3.854   4.617  13.141  0.1583 -0.0502  0.0054
  119MPD2     H 1818   3.525   4.541  13.311  0.7229 -0.5608  2.1016
  119MPD2    H1 1819   3.763   4.545  12.962 -1.3260 -0.7782  0.9069
  119MPD2    H2 1820   3.924   4.688  13.330 -0.0370 -0.3515  0.5093
  119MPD2    H3 1821   3.943   4.644  13.085  1.6655 -3.2646  0.8527
  119MPD2     N 1822   3.530   4.471  13.062 -0.1421 -0.1932 -0.2391
  119MPD2    H5 1823   3.515   4.497  12.965 -2.0189 -1.3244 -0.2689
  119MPD2    N1 1824   3.725   4.626  13.483  0.5750 -0.4372  0.1848
  119MPD2    H7 1825   3.812   4.663  13.521 -1.5465  1.5583  3.0005
  120TCq2    C1 1826   3.427   4.400  13.120 -0.5680  0.1657 -0.3771
  120TCq2    O2 1827   3.427   4.331  13.220 -0.0878 -0.0648  0.2635
  120TCq2    C2 1828   3.310   4.390  13.037  0.2262 -0.5039  0.0573
  120TCq2    C3 1829   3.323   4.356  12.905 -0.1052 -0.0096  0.2141
  120TCq2    C4 1830   3.204   4.359  12.829 -0.6561  0.4084 -0.3682
  120TCq2    C5 1831   3.087   4.370  12.895 -0.6764  0.8560  0.1091
  120TCq2    C6 1832   3.079   4.402  13.024 -0.7271  0.2060 -0.4395
  120TCq2    C7 1833   3.192   4.407  13.105 -0.0043  0.1744 -0.4688
  120TCq2    C8 1834   2.947   4.427  13.084 -0.6206 -0.4210 -0.4647
  120TCq2    O4 1835   2.859   4.486  13.021 -0.4116 -0.0902  0.5119
  120TCq2    C9 1836   3.205   4.338  12.685 -1.3031 -0.2622  0.3221
  120TCq2    O5 1837   3.312   4.296  12.637 -0.2791 -0.4013  0.1950
  120TCq2    O6 1838   3.094   4.304  12.632 -0.3996 -0.2714 -0.2243
  120TCq2    H2 1839   3.419   4.340  12.857  0.3570  1.2073  0.7280
  120TCq2    H3 1840   2.995   4.377  12.837  0.3950  1.3133 -1.5136
  120TCq2    H4 1841   3.187   4.446  13.206  0.0884 -0.7447 -0.1089
  121TMC2    C1 1842   4.592   1.406  14.092  0.1599  0.2533 -0.3746
  121TMC2    C2 1843   4.535   1.322  14.181 -0.3712 -0.3766  0.3272
  121TMC2    C3 1844   4.413   1.268  14.150  0.4996 -0.0172  0.2059
  121TMC2    C4 1845   4.516   1.466  13.992  0.6453 -0.6286 -0.3593
  121TMC2    C5 1846   4.377   1.435  13.986  0.0856  0.3412  0.2646
  121TMC2    C6 1847   4.333   1.333  14.058 -0.4098  0.1826 -0.0986
  121TMC2     C 1848   4.712   1.460  14.122  0.2397 -0.0343 -0.1293
  121TMC2     O 1849   0.017   1.481  14.242 -0.5518  0.6238 -0.1735
  121TMC2     H 1850   4.592   1.289  14.268 -0.0137 -1.9938 -0.5317
  121TMC2    H1 1851   4.560   1.551  13.940 -2.1066  1.0203  0.0255
  121TMC2    H2 1852   4.237   1.286  14.040 -1.0452  1.5731 -0.3433
  121TMC2    C7 1853   4.298   1.495  13.876  0.0612 -0.2794 -0.0730
  121TMC2    C8 1854   4.334   1.195  14.255 -0.3799 -0.5353  0.2895
  121TMC2    O1 1855   4.347   1.591  13.825 -0.5787 -0.3508  0.1558
  121TMC2    O2 1856   4.210   1.208  14.258 -0.3229  0.3605  0.0106
  121TMC2    O5 1857   4.404   1.094  14.296  0.3285  0.3938 -0.4531
  121TMC2    H5 1858   4.495   1.097  14.259  0.8907 -0.9183  0.8187
  122MPD2     C 1859   0.226   1.643  14.106  0.2779  0.0239  0.3462
  122MPD2    C1 1860   0.168   1.577  13.994 -0.5881 -0.0275  0.0989
  122MPD2    C2 1861   0.212   1.604  13.869 -0.0386 -0.0508  0.8578
  122MPD2    C3 1862   0.303   1.702  13.853  0.1403 -0.2599  0.6074
  122MPD2    C4 1863   0.372   1.741  13.959 -0.2273  0.3327  0.5100
  122MPD2    C5 1864   0.328   1.720  14.083  0.0172 -0.0633  0.5268
  122MPD2     H 1865   0.146   1.574  13.788 -0.1181  0.6751  0.6511
  122MPD2    H1 1866   0.457   1.806  13.938  2.8591 -3.5021  1.0799
  122MPD2    H2 1867   0.193   1.626  14.209  0.0091 -1.9419 -0.0635
  122MPD2    H3 1868   0.381   1.765  14.166  1.6342 -1.2928  0.1574
  122MPD2     N 1869   0.336   1.758  13.726  0.2443  0.1570  0.1534
  122MPD2    H5 1870   0.417   1.819  13.718  0.3736 -0.1337 -0.7101
  122MPD2    N1 1871   0.047   1.501  14.012 -0.5368  0.2024  0.4282
  122MPD2    H7 1872   0.010   1.471  13.922  0.1102 -1.1763  0.6161
  123MPD2     C 1873   3.531   4.183  10.485  0.0160  0.3857 -0.1553
  123MPD2    C1 1874   3.506   4.242  10.360  1.4905  1.3845 -0.8493
  123MPD2    C2 1875   3.612   4.311  10.303 -0.1538 -0.1935  0.0333
  123MPD2    C3 1876   3.724   4.347  10.376 -0.6660  0.8221  0.0823
  123MPD2    C4 1877   3.733   4.303  10.506 -0.4672 -0.0879 -0.4525
  123MPD2    C5 1878   3.638   4.211  10.556 -0.1702  0.1249  0.2178
  123MPD2     H 1879   3.582   4.362  10.212  0.4844 -0.4141 -0.3054
  123MPD2    H1 1880   3.816   4.332  10.570 -3.4823  1.0223  2.9545
  123MPD2    H2 1881   3.457   4.116  10.527  0.6492  0.2961  0.8222
  123MPD2    H3 1882   3.659   4.158  10.648  1.2607  0.9073  0.3418
  123MPD2     N 1883   3.813   4.433  10.311 -0.3827 -0.6799 -0.6829
  123MPD2    H5 1884   3.793   4.468  10.218 -2.7514  1.0918  0.5059
  123MPD2    N1 1885   3.378   4.217  10.305 -0.0290 -0.6573 -0.1716
  123MPD2    H7 1886   3.302   4.194  10.369  0.0855 -0.3368  0.0772
  124TCq2    C1 1887   3.948   4.456  10.356  0.2374 -0.4193  0.0917
  124TCq2    O2 1888   4.007   4.388  10.441 -0.2045  0.2139  0.5033
  124TCq2    C2 1889   4.025   4.551  10.280 -0.0979  0.2386  0.0583
  124TCq2    C3 1890   4.141   4.599  10.347 -0.1703  0.8844  0.0915
  124TCq2    C4 1891   4.191   4.725  10.313  0.4660  0.0499  0.0195
  124TCq2    C5 1892   4.141   0.069  10.201  0.2006  0.1691 -0.5793
  124TCq2    C6 1893   4.033   0.018  10.135  1.0193  0.8205  0.3897
  124TCq2    C7 1894   3.969   4.630  10.184  0.3739 -0.5894 -1.2950
  124TCq2    C8 1895   4.011   0.064  10.002 -0.1014 -0.1038  0.1182
  124TCq2    O4 1896   4.105   0.119   9.946  0.3662 -0.3044 -0.2626
  124TCq2    C9 1897   4.300   0.066  10.391  0.4319  0.3448  0.1623
  124TCq2    O5 1898   4.301   0.035  10.517  0.0105 -0.5182 -0.0067
  124TCq2    O6 1899   4.381   0.144  10.333 -0.3528 -0.6747  0.3546
  124TCq2    H2 1900   4.172   4.551  10.440  0.8701 -0.4050 -0.9234
  124TCq2    H3 1901   4.179   0.168  10.181 -0.0106  0.5830  1.1273
  124TCq2    H4 1902   3.888   4.593  10.123  0.3542  0.2291 -1.7578
  125TMC2    C1 1903   0.406   1.408   8.882  0.2557 -0.2779  0.2409
  125TMC2    C2 1904   0.454   1.303   8.944  0.2763  0.2847 -0.3679
  125TMC2    C3 1905   0.534   1.326   9.054 -0.3568 -0.5678  0.1806
  125TMC2    C4 1906   0.432   1.541   8.917  0.0187 -0.1033  0.3908
  125TMC2    C5 1907   0.520   1.558   9.024 -0.2029  0.0543  0.2789
  125TMC2    C6 1908   0.566   1.452   9.095  0.7819 -0.6369 -0.0280
  125TMC2     C 1909   0.322   1.388   8.762  0.4446 -0.2242  0.9947
  125TMC2     O 1910   0.241   1.296   8.753  0.0447  0.5300 -0.3258
  125TMC2     H 1911   0.422   1.205   8.911 -0.2996  0.6878 -1.0113
  125TMC2    H1 1912   0.390   1.627   8.865 -0.4209 -1.2563 -1.1734
  125TMC2    H2 1913   0.584   1.474   9.200  0.2638  0.5750 -0.1945
  125TMC2    C7 1914   0.535   1.689   9.079 -0.1193 -0.0332  0.3738
  125TMC2    C8 1915   0.586   1.212   9.120  0.2931  0.3525 -0.1718
  125TMC2    O1 1916   0.437   1.760   9.066  0.0968  0.6760  0.0137
  125TMC2    O2 1917   0.548   1.097   9.089  0.2663 -0.2355  0.0793
  125TMC2    O5 1918   0.709   1.256   9.145  0.6568  0.0745 -0.1322
  125TMC2    H5 1919   0.721   1.344   9.187 -2.7566 -1.1280  3.4225
  126MPD1     C 1920   0.191   1.572   8.304 -0.5043  1.0747  0.4430
  126MPD1    C1 1921   0.277   1.653   8.359  0.3176  0.8015  0.0082
  126MPD1    C2 1922   0.346   1.616   8.477  0.2992  0.0227 -0.1897
  126MPD1    C3 1923   0.308   1.502   8.542  0.2402  0.2586 -0.4669
  126MPD1    C4 1924   0.217   1.424   8.484 -0.1539 -0.1069 -0.0692
  126MPD1    C5 1925   0.159   1.452   8.365  0.2257 -0.3958 -0.3209
  126MPD1     H 1926   0.416   1.683   8.526 -1.3950 -0.1238  2.4626
  126MPD1    H1 1927   0.179   1.339   8.539 -1.0091  0.8961  0.8922
  126MPD1    H2 1928   0.143   1.603   8.212 -1.1097 -0.7971  0.1125
  126MPD1    H3 1929   0.093   1.381   8.318 -0.0869 -1.0486  1.1064
  126MPD1     N 1930   0.361   1.482   8.669 -0.0769  0.0737  0.3670
  126MPD1    H5 1931   0.428   1.553   8.695 -0.2392  1.2209 -2.3777
  126MPD1    N1 1932   0.330   1.767   8.292 -0.1290  0.0478 -0.5263
  126MPD1    H6 1933   0.259   1.813   8.235 -0.5194  1.6836  1.2610
  126MPD1    H7 1934   0.379   1.837   8.348  2.3334 -1.3220 -0.9996
  127MPD2     C 1935   1.114   0.244   9.190 -0.9490 -0.4179 -0.4070
  127MPD2    C1 1936   1.119   0.312   9.307  0.0310  0.3515 -0.1018
  127MPD2    C2 1937   1.163   0.442   9.314  0.1209 -0.2611 -0.2829
  127MPD2    C3 1938   1.201   0.510   9.202 -0.0146  0.2557 -0.2086
  127MPD2    C4 1939   1.180   0.444   9.079  0.0357  0.4133 -0.0978
  127MPD2    C5 1940   1.141   0.318   9.077 -0.0477 -0.1942  0.1702
  127MPD2     H 1941   1.153   0.486   9.412 -1.3161  3.1589 -1.9615
  127MPD2    H1 1942   1.198   0.489   8.982  0.3043 -2.3429 -1.3354
  127MPD2    H2 1943   1.081   0.141   9.180 -1.9106 -0.0888 -0.5599
  127MPD2    H3 1944   1.138   0.269   8.980 -1.7639  0.4394 -0.0852
  127MPD2     N 1945   1.234   0.643   9.217 -0.2065  0.5390  0.5099
  127MPD2    H5 1946   1.235   0.679   9.312  1.8322  0.0930  0.6516
  127MPD2    N1 1947   1.087   0.243   9.423  0.1984 -0.9313 -0.2267
  127MPD2    H7 1948   1.047   0.152   9.401 -0.5538 -0.8207  0.6973
  128TCq2    C1 1949   1.101   0.280   9.554 -0.7153 -0.1811  0.6198
  128TCq2    O2 1950   1.156   0.381   9.601 -0.2853  0.3798  0.1830
  128TCq2    C2 1951   1.028   0.200   9.653  0.1480 -0.3528  0.1284
  128TCq2    C3 1952   1.017   0.262   9.776 -0.2442  0.2874  0.0999
  128TCq2    C4 1953   0.936   0.202   9.861  0.2397  0.2587 -0.6151
  128TCq2    C5 1954   0.852   0.095   9.825  0.3114  0.1518 -0.8916
  128TCq2    C6 1955   0.856   0.046   9.699 -0.2262 -0.5716  0.0323
  128TCq2    C7 1956   0.943   0.093   9.605  0.6106  0.0901  0.7514
  128TCq2    C8 1957   0.744   4.692   9.657 -0.8258  0.5195  0.5246
  128TCq2    O4 1958   0.762   4.625   9.561  0.3867 -0.5680 -0.0056
  128TCq2    C9 1959   0.918   0.246  10.000 -0.4093 -0.3014  0.6485
  128TCq2    O5 1960   0.799   0.243  10.039  0.0045  0.6288 -0.1397
  128TCq2    O6 1961   1.013   0.316  10.040  0.2594  0.4355 -0.5842
  128TCq2    H2 1962   1.084   0.340   9.808 -1.5680  0.2541  2.9326
  128TCq2    H3 1963   0.789   0.055   9.904 -0.9815  0.3912 -1.7998
  128TCq2    H4 1964   0.945   0.047   9.507 -0.8795  0.9320  0.3246
  129MPD2     C 1965   3.655   1.346   1.274 -0.2048 -0.2084  0.3526
  129MPD2    C1 1966   3.796   1.344   1.276 -0.4792 -0.8770  0.6075
  129MPD2    C2 1967   3.866   1.434   1.199  0.1273 -0.2960 -0.1767
  129MPD2    C3 1968   3.797   1.530   1.124  0.3216  0.2472 -0.3977
  129MPD2    C4 1969   3.659   1.534   1.143  0.2496  0.6344  0.1773
  129MPD2    C5 1970   3.587   1.448   1.219  0.3347 -0.2482 -0.1045
  129MPD2     H 1971   3.974   1.431   1.193  0.0837 -0.8370 -0.7438
  129MPD2    H1 1972   3.606   1.614   1.094  0.1113 -0.2229 -1.0539
  129MPD2    H2 1973   3.596   1.279   1.335  0.0348 -0.0718  0.7356
  129MPD2    H3 1974   3.479   1.451   1.213  0.2861 -2.3188 -0.3131
  129MPD2     N 1975   3.878   1.610   1.035  0.2483  0.3247 -0.3056
  129MPD2    H5 1976   3.978   1.599   1.047  0.1400  0.4321  0.7328
  129MPD2    N1 1977   3.873   1.258   1.356 -0.0781 -0.4428 -0.6210
  129MPD2    H7 1978   3.974   1.269   1.346  0.2051 -0.2458  2.5037
  130TCq2    C1 1979   3.825   1.177   1.453 -0.0645  0.9674  0.7677
  130TCq2    O2 1980   3.725   1.191   1.522  0.2995 -0.0039  0.1216
  130TCq2    C2 1981   3.919   1.069   1.496 -0.1252 -0.6695 -0.1063
  130TCq2    C3 1982   4.031   1.037   1.418  0.5864 -0.3631 -0.2514
  130TCq2    C4 1983   4.098   0.920   1.448  0.3088 -0.1801 -0.7482
  130TCq2    C5 1984   4.050   0.849   1.554 -0.0551 -0.6253 -0.0959
  130TCq2    C6 1985   3.937   0.878   1.621 -0.5416 -0.3767 -1.1024
  130TCq2    C7 1986   3.869   0.987   1.587  0.1394 -0.1661 -0.6340
  130TCq2    C8 1987   3.882   0.791   1.719 -0.1245 -0.3178 -0.2858
  130TCq2    O4 1988   3.764   0.787   1.739  0.4311 -0.1965  0.0742
  130TCq2    C9 1989   4.227   0.894   1.396 -0.2887 -0.0574 -0.0227
  130TCq2    O5 1990   4.250   0.941   1.284  0.0328  0.1212 -0.0293
  130TCq2    O6 1991   4.291   0.795   1.442  0.3842 -0.3741  0.0427
  130TCq2    H2 1992   4.072   1.096   1.338  0.1695 -1.9576 -1.6417
  130TCq2    H3 1993   4.099   0.754   1.571 -2.6965 -1.6657  1.7348
  130TCq2    H4 1994   3.780   1.013   1.644  1.1358  0.3566  0.6735
  131MPD2     C 1995   3.020   0.163   9.720 -0.1604  0.2587  1.1478
  131MPD2    C1 1996   3.142   0.125   9.774 -0.6984  0.2469  0.0602
  131MPD2    C2 1997   3.161   4.725   9.824  0.0460 -0.0879  0.0384
  131MPD2    C3 1998   3.056   4.636   9.826  0.4320  0.4849 -0.3253
  131MPD2    C4 1999   2.933   4.670   9.768  0.1377 -0.2898 -0.8028
  131MPD2    C5 2000   2.915   0.079   9.737 -0.7617  0.5390  0.7769
  131MPD2     H 2001   3.258   4.698   9.865  0.3734 -0.2429 -0.8365
  131MPD2    H1 2002   2.844   4.610   9.778  0.0631 -0.3062 -1.5674
  131MPD2    H2 2003   3.002   0.255   9.665 -0.2157 -0.0759  0.6045
  131MPD2    H3 2004   2.818   0.099   9.695 -0.1655  2.4513  0.2949
  131MPD2     N 2005   3.078   4.508   9.886 -0.3674  0.0919 -0.7750
  131MPD2    H5 2006   3.172   4.494   9.922  0.9025  2.9214 -2.9759
  131MPD2    N1 2007   3.239   0.225   9.776 -0.2667  0.1993 -0.3698
  131MPD2    H7 2008   3.220   0.305   9.716  1.0436 -0.4589 -1.6354
  132TCq2    C1 2009   3.561   0.488   9.534  0.4265 -0.1684 -0.4935
  132TCq2    O2 2010   3.476   0.456   9.452 -0.1243 -0.2060 -0.1366
  132TCq2    C2 2011   3.527   0.458   9.674  0.3880  0.8798 -0.1808
  132TCq2    C3 2012   3.591   0.532   9.773 -0.0378  0.2646  0.1402
  132TCq2    C4 2013   3.560   0.504   9.901 -0.3149 -0.6588  0.0356
  132TCq2    C5 2014   3.489   0.395   9.930  0.4368  0.6427  0.1231
  132TCq2    C6 2015   3.435   0.324   9.828 -0.2466  0.0910 -0.6333
  132TCq2    C7 2016   3.442   0.359   9.699 -0.1357 -0.0800 -0.0753
  132TCq2    C8 2017   3.343   0.221   9.860 -0.2721 -0.0646  0.5998
  132TCq2    O4 2018   3.367   0.160   9.959 -0.7634 -0.1907 -0.4475
  132TCq2    C9 2019   3.626   0.587   9.999 -0.0201 -0.0632  0.6744
  132TCq2    O5 2020   3.728   0.648   9.962  0.5249 -0.0316  0.0715
  132TCq2    O6 2021   3.584   0.583  10.117 -0.6467 -0.4085  0.2182
  132TCq2    H2 2022   3.661   0.609   9.746 -0.3699  1.2202  2.0234
  132TCq2    H3 2023   3.483   0.365  10.034  1.2669  1.0862  0.2985
  132TCq2    H4 2024   3.400   0.298   9.620  0.1544  2.1080 -1.9323
  133MPD2     C 2025   2.459   1.310   9.276 -1.3185  0.0900 -0.5887
  133MPD2    C1 2026   2.589   1.270   9.233  0.5016 -0.4415 -0.3407
  133MPD2    C2 2027   2.622   1.134   9.223 -0.1189 -0.9003 -0.4377
  133MPD2    C3 2028   2.528   1.035   9.248 -0.3614 -0.4873 -0.5783
  133MPD2    C4 2029   2.405   1.079   9.289 -0.4168  0.4580 -0.7470
  133MPD2    C5 2030   2.366   1.211   9.300 -0.5800  0.0602  0.5452
  133MPD2     H 2031   2.719   1.099   9.190 -0.1384  0.2923 -1.7798
  133MPD2    H1 2032   2.341   1.001   9.329  1.0180 -1.0668 -1.4348
  133MPD2    H2 2033   2.423   1.409   9.303 -1.2218 -0.5712  1.9512
  133MPD2    H3 2034   2.272   1.241   9.343 -0.7860  1.7998 -1.1339
  133MPD2     N 2035   2.554   0.898   9.253 -0.0722 -0.5079 -0.1240
  133MPD2    H5 2036   2.473   0.840   9.268 -1.2545  1.4846  1.2389
  133MPD2    N1 2037   2.689   1.370   9.213 -0.4431  0.8446 -0.0448
  133MPD2    H7 2038   2.656   1.462   9.238  1.8086  1.2509  1.3605
  134TCq2    C1 2039   2.812   1.349   9.168 -0.3501  0.2209  0.5949
  134TCq2    O2 2040   2.870   1.248   9.133  0.2997 -0.0456  0.0701
  134TCq2    C2 2041   2.892   1.469   9.180  0.4540  0.0156 -0.0159
  134TCq2    C3 2042   3.004   1.482   9.101 -0.3977 -0.0648  0.4155
  134TCq2    C4 2043   3.054   1.606   9.083 -0.3985 -0.8140 -0.0510
  134TCq2    C5 2044   3.004   1.717   9.149  0.5350  0.5828  0.4064
  134TCq2    C6 2045   2.896   1.695   9.230 -0.0160 -0.7033 -0.7508
  134TCq2    C7 2046   2.838   1.574   9.245 -0.1671  0.0517  1.0902
  134TCq2    C8 2047   2.830   1.819   9.286  0.1710 -0.5883  0.4379
  134TCq2    O4 2048   2.902   1.920   9.288  0.1927 -0.1970  0.1698
  134TCq2    C9 2049   3.159   1.627   8.988  0.4854 -0.1375 -0.4417
  134TCq2    O5 2050   3.227   1.738   8.997 -0.4720  0.1785  0.4687
  134TCq2    O6 2051   3.194   1.530   8.913  0.5962  0.0561 -0.1777
  134TCq2    H2 2052   3.037   1.398   9.041 -0.9207  0.7536 -1.0271
  134TCq2    H3 2053   3.036   1.817   9.120  0.4750  0.4248 -0.1948
  134TCq2    H4 2054   2.756   1.565   9.316 -1.3884 -2.0263 -0.5828
  135MPD2     C 2055   1.575   1.821   9.329  0.6389  0.3822  0.1648
  135MPD2    C1 2056   1.549   1.734   9.432 -0.2065 -0.0986 -0.5323
  135MPD2    C2 2057   1.642   1.701   9.522  0.5081 -0.0490  0.6819
  135MPD2    C3 2058   1.771   1.731   9.492 -0.5637  0.2328 -0.5459
  135MPD2    C4 2059   1.807   1.801   9.380 -0.2237  0.3838 -0.3189
  135MPD2    C5 2060   1.705   1.840   9.296 -0.1013 -0.3409  0.2695
  135MPD2     H 2061   1.619   1.643   9.610 -0.3015 -0.0331  0.4791
  135MPD2    H1 2062   1.912   1.817   9.359 -0.0178  0.0411  0.4601
  135MPD2    H2 2063   1.497   1.861   9.266  0.0917 -1.1196 -0.0926
  135MPD2    H3 2064   1.738   1.895   9.209 -0.3151  0.0171  0.4156
  135MPD2     N 2065   1.878   1.705   9.585 -0.1974  0.4936  0.3578
  135MPD2    H5 2066   1.967   1.741   9.553  0.6348 -2.0156 -0.2013
  135MPD2    N1 2067   1.419   1.694   9.469 -0.3258 -0.4127  0.4874
  135MPD2    H7 2068   1.403   1.649   9.559 -1.9280  1.7133  1.2504
  136TCq2    C1 2069   1.306   1.708   9.388  0.4987  0.0011  0.5681
  136TCq2    O2 2070   1.315   1.734   9.269 -0.1858 -0.1058 -0.1211
  136TCq2    C2 2071   1.181   1.656   9.431  0.9073 -0.0637  0.1305
  136TCq2    C3 2072   1.085   1.620   9.337 -0.4888 -0.0131  0.9012
  136TCq2    C4 2073   0.976   1.547   9.377  0.7470 -0.2805  0.3158
  136TCq2    C5 2074   0.942   1.527   9.508 -0.5002  0.3352 -1.3510
  136TCq2    C6 2075   1.039   1.569   9.602  0.7110 -0.3708 -0.4204
  136TCq2    C7 2076   1.155   1.628   9.563 -0.4188 -0.2552 -0.0016
  136TCq2    C8 2077   0.995   1.568   9.740 -0.4408  0.1120 -0.1538
  136TCq2    O4 2078   1.064   1.630   9.821  0.4307  0.2913 -0.4059
  136TCq2    C9 2079   0.879   1.493   9.280 -0.2322  0.5478  0.6580
  136TCq2    O5 2080   0.884   1.518   9.157  0.7246  0.1698  0.7344
  136TCq2    O6 2081   0.777   1.441   9.330  0.0122  0.4708 -0.9349
  136TCq2    H2 2082   1.101   1.640   9.232  4.2542 -2.4367  1.1413
  136TCq2    H3 2083   0.850   1.475   9.531  0.1374 -0.1873 -0.0217
  136TCq2    H4 2084   1.225   1.659   9.640 -0.0105 -2.1453  0.3947
  137MPD2     C 2085   0.737   1.346   8.510  0.3327 -0.8487  0.0472
  137MPD2    C1 2086   0.659   1.255   8.578 -0.2221  0.1301  0.4582
  137MPD2    C2 2087   0.710   1.193   8.695 -0.7125 -0.8119  0.1530
  137MPD2    C3 2088   0.836   1.237   8.737  0.2925 -0.1849 -0.4754
  137MPD2    C4 2089   0.916   1.315   8.657  0.3128 -0.4603 -0.0201
  137MPD2    C5 2090   0.871   1.365   8.540 -0.1566 -0.6491 -0.1895
  137MPD2     H 2091   0.653   1.129   8.760 -0.7969 -1.6628 -0.7564
  137MPD2    H1 2092   1.013   1.352   8.688  0.0836 -1.1956  1.5951
  137MPD2    H2 2093   0.712   1.373   8.408 -0.5414 -0.3219  0.3947
  137MPD2    H3 2094   0.928   1.432   8.475 -1.3878  0.7079  0.1156
  137MPD2     N 2095   0.884   1.190   8.867 -0.6216 -0.4509  0.7967
  137MPD2    H5 2096   0.823   1.124   8.915 -1.3416  0.9617  1.8439
  137MPD2    N1 2097   0.539   1.211   8.524 -0.5518  0.5107 -0.1936
  137MPD2    H7 2098   0.514   1.268   8.444  0.7479  0.7488 -0.4281
  138TCq2    C1 2099   0.461   1.109   8.561 -0.1665 -0.3579  0.5083
  138TCq2    O2 2100   0.463   1.048   8.665 -0.1079 -0.3386 -0.2846
  138TCq2    C2 2101   0.356   1.079   8.468 -0.3908  0.2251 -0.1960
  138TCq2    C3 2102   0.368   1.111   8.336  0.3312 -0.4929  0.4243
  138TCq2    C4 2103   0.269   1.081   8.250 -0.0039 -0.3702 -0.0343
  138TCq2    C5 2104   0.160   1.018   8.298  0.0723 -0.5645  0.4077
  138TCq2    C6 2105   0.148   0.995   8.425  0.3484 -0.9416  0.0183
  138TCq2    C7 2106   0.249   1.017   8.514 -0.1051  0.3217  0.1125
  138TCq2    C8 2107   0.054   0.892   8.464  0.3194  0.1568 -0.1394
  138TCq2    O4 2108   0.015   0.816   8.376 -0.2483 -0.1190  0.1073
  138TCq2    C9 2109   0.289   1.096   8.109 -0.0567 -0.5628 -0.4705
  138TCq2    O5 2110   0.185   1.100   8.034  0.5076  0.0088  0.4719
  138TCq2    O6 2111   0.403   1.133   8.069  0.0465 -0.6477 -0.3187
  138TCq2    H2 2112   0.464   1.146   8.300 -0.8714  1.3530 -1.0445
  138TCq2    H3 2113   0.076   1.002   8.232 -0.4730 -1.7727  1.3903
  138TCq2    H4 2114   0.247   0.999   8.621 -3.6956 -0.6989 -0.1242
  139TMC2    C1 2115   0.599   3.996  13.626  0.0515 -0.3896  0.0540
  139TMC2    C2 2116   0.732   3.999  13.671 -0.1929 -0.6247 -0.1362
  139TMC2    C3 2117   0.803   4.118  13.661 -0.5626  0.1815 -0.3698
  139TMC2    C4 2118   0.554   4.106  13.560 -0.0272 -0.2291  0.7717
  139TMC2    C5 2119   0.628   4.219  13.560  0.1206  0.1330 -0.3630
  139TMC2    C6 2120   0.758   4.231  13.604  0.0503 -0.0807 -0.8340
  139TMC2     C 2121   0.523   3.873  13.624  0.5751  0.0947 -0.4232
  139TMC2     O 2122   0.566   3.785  13.695 -0.7367  0.1325 -0.3225
  139TMC2     H 2123   0.777   3.908  13.709  1.9898  0.3309 -0.3969
  139TMC2    H1 2124   0.451   4.114  13.528  0.1858  1.5279  0.5244
  139TMC2    H2 2125   0.819   4.320  13.596  1.3865 -0.9640 -0.6042
  139TMC2    C7 2126   0.551   4.338  13.537 -0.2687  0.2488  0.0820
  139TMC2    C8 2127   0.932   4.120  13.721 -0.1902  0.4734  0.7166
  139TMC2    O1 2128   0.434   4.329  13.498 -0.1461  0.1574 -0.1307
  139TMC2    O2 2129   0.979   4.050  13.815  0.3937 -0.0056 -0.7086
  139TMC2    O5 2130   1.001   4.206  13.648 -0.4045  0.2677 -0.7017
  139TMC2    H5 2131   0.973   4.212  13.554 -2.2676 -2.7773 -0.3471
  140MPD2     C 2132   0.218   3.771  13.430  0.0593  0.8092  0.5094
  140MPD2    C1 2133   0.334   3.761  13.511  0.5852  0.2641 -0.5469
  140MPD2    C2 2134   0.373   3.629  13.540 -0.0690 -0.3961 -0.2334
  140MPD2    C3 2135   0.314   3.520  13.478 -0.2167  1.0165 -0.7790
  140MPD2    C4 2136   0.198   3.531  13.404  0.4065 -0.3972  0.6410
  140MPD2    C5 2137   0.149   3.663  13.385  0.7546 -0.5444  0.7014
  140MPD2     H 2138   0.466   3.605  13.591  0.0416  2.5406  0.9035
  140MPD2    H1 2139   0.153   3.446  13.354  2.2035 -1.3261  0.6093
  140MPD2    H2 2140   0.192   3.869  13.391  1.3947  0.8476 -0.2808
  140MPD2    H3 2141   0.068   3.678  13.315  0.5546 -1.9811  0.6355
  140MPD2     N 2142   0.374   3.398  13.495  0.1131  0.0175  0.7342
  140MPD2    H5 2143   0.456   3.388  13.554  0.9836 -1.3045 -0.7023
  140MPD2    N1 2144   0.407   3.879  13.547  0.0672 -0.1429  0.6115
  140MPD2    H7 2145   0.362   3.968  13.528 -1.0004 -0.6328  0.8476
  141TCq2    C1 2146   0.831   0.356  14.926  0.2484 -0.1212  0.1802
  141TCq2    O2 2147   0.867   0.241  14.919 -0.1008  0.3447  0.1556
  141TCq2    C2 2148   0.778   0.405  15.053  0.0630 -0.1700 -0.1938
  141TCq2    C3 2149   0.819   0.335  15.163 -0.5640 -0.1613  0.2004
  141TCq2    C4 2150   0.799   0.394  15.283 -0.3631  0.1836 -0.3716
  141TCq2    C5 2151   0.743   0.513  15.298 -0.1720  0.6135 -0.0835
  141TCq2    C6 2152   0.704   0.580  15.186  0.7171 -0.0420 -0.0929
  141TCq2    C7 2153   0.724   0.534  15.055  0.6307 -0.6090  0.6300
  141TCq2    C8 2154   0.638   0.708  15.205 -0.3997 -0.3953  0.2796
  141TCq2    O4 2155   0.604   0.747  15.315 -0.0639  0.0346 -0.2479
  141TCq2    C9 2156   0.816   0.319  15.403 -0.1019  0.3262  0.1918
  141TCq2    O5 2157   0.868   0.383  15.504  0.5221  0.0105  0.0495
  141TCq2    O6 2158   0.813   0.194  15.396 -0.3834  0.5849 -0.4230
  141TCq2    H2 2159   0.858   0.235  15.152  1.7995  0.7362  0.4692
  141TCq2    H3 2160   0.710   0.546  15.396  1.7729  0.9969  0.4603
  141TCq2    H4 2161   0.669   0.569  14.968  3.3037  0.5031 -0.6309
  142MPD2     C 2162   2.618   4.196   9.590  0.5750 -0.0519  0.2424
  142MPD2    C1 2163   2.738   4.157   9.655  0.1686 -0.3702 -0.1433
  142MPD2    C2 2164   2.850   4.240   9.633  0.1987 -0.2785 -0.1479
  142MPD2    C3 2165   2.838   4.345   9.545  0.5208 -0.4917 -0.0111
  142MPD2    C4 2166   2.725   4.376   9.480  0.2855 -0.2699  0.2433
  142MPD2    C5 2167   2.614   4.304   9.506  0.7401 -0.3068 -0.1896
  142MPD2     H 2168   2.937   4.227   9.696 -0.4353 -0.5880  0.6753
  142MPD2    H1 2169   2.726   4.451   9.402 -0.1026  0.7554  1.2185
  142MPD2    H2 2170   2.521   4.150   9.604 -0.1689  1.7704  1.0336
  142MPD2    H3 2171   2.528   4.323   9.443 -0.7531  1.1364  2.2832
  142MPD2     N 2172   2.955   4.421   9.518 -1.4417 -0.3196  0.4226
  142MPD2    H5 2173   2.952   4.505   9.462  0.0901 -1.3437 -1.1771
  142MPD2    N1 2174   2.731   4.050   9.749 -0.2815  0.0049 -0.5440
  142MPD2    H7 2175   2.647   3.994   9.737  0.5365 -0.5908 -3.3825
  143TCq2    C1 2176   3.081   4.397   9.557  0.7868  0.3122 -0.1949
  143TCq2    O2 2177   3.131   4.306   9.625  0.6766  0.1187 -0.1060
  143TCq2    C2 2178   3.166   4.509   9.509  0.0676 -0.1772 -0.4253
  143TCq2    C3 2179   3.118   4.599   9.412 -0.7545  0.2036 -0.0934
  143TCq2    C4 2180   3.193   4.713   9.387 -0.7254  0.4637  0.2983
  143TCq2    C5 2181   3.314   0.001   9.449  0.1985  0.4795  0.2370
  143TCq2    C6 2182   3.364   4.635   9.540  0.1853 -0.1210 -1.0441
  143TCq2    C7 2183   3.284   4.525   9.571 -0.1116  0.2394 -0.2281
  143TCq2    C8 2184   3.469   4.660   9.630  0.2927  0.8378 -0.1461
  143TCq2    O4 2185   3.475   4.589   9.730  0.5223 -0.4625  0.1985
  143TCq2    C9 2186   3.147   0.085   9.290 -0.4753  1.2560  0.1820
  143TCq2    O5 2187   3.237   0.163   9.250  0.5273 -0.0673  0.0822
  143TCq2    O6 2188   3.026   0.101   9.275 -0.1257  0.1682  0.2204
  143TCq2    H2 2189   3.019   4.597   9.369 -0.7579 -1.0460 -0.0211
  143TCq2    H3 2190   3.377   0.087   9.428  2.7739 -1.5449 -0.1858
  143TCq2    H4 2191   3.322   4.459   9.648  1.9716 -1.3281 -2.5969
  144MPD2     C 2192   1.805   3.232   0.373  0.3138  0.5434 -0.0769
  144MPD2    C1 2193   1.778   3.094   0.367 -0.4745  0.6579  0.3824
  144MPD2    C2 2194   1.859   3.005   0.438  0.2765  0.3136  0.6576
  144MPD2    C3 2195   1.974   3.043   0.492  0.5702  0.2866  0.4366
  144MPD2    C4 2196   2.012   3.172   0.484 -0.7279 -0.4633 -0.1927
  144MPD2    C5 2197   1.922   3.268   0.432 -0.0569 -1.0779 -0.8076
  144MPD2     H 2198   1.836   2.899   0.439  0.4910  0.2707  1.1129
  144MPD2    H1 2199   2.100   3.210   0.534  0.8712 -2.8741 -1.1924
  144MPD2    H2 2200   1.744   3.307   0.325 -1.0779 -1.1655 -0.9393
  144MPD2    H3 2201   1.945   3.374   0.439  0.5872 -1.3108  0.4195
  144MPD2     N 2202   2.065   2.955   0.558  0.2406 -0.0143 -0.6832
  144MPD2    H5 2203   2.166   2.965   0.547  0.3342  1.0909  1.2325
  144MPD2    N1 2204   1.665   3.044   0.293 -0.6249 -0.9631  0.1615
  144MPD2    H7 2205   1.653   2.944   0.281 -0.6651 -1.1031  1.4121
  145TCq2    C1 2206   2.017   2.861   0.637  0.8841  0.2328  0.1608
  145TCq2    O2 2207   1.912   2.873   0.699 -0.2052  0.0605 -0.2853
  145TCq2    C2 2208   2.114   2.774   0.697 -0.3629  0.3277  0.5389
  145TCq2    C3 2209   2.213   2.708   0.631  0.6086  0.3586 -0.3808
  145TCq2    C4 2210   2.292   2.617   0.703 -0.6806 -0.3725  0.0343
  145TCq2    C5 2211   2.271   2.599   0.833  0.1822 -0.4607 -0.0542
  145TCq2    C6 2212   2.183   2.686   0.901  0.5394 -0.1636 -0.2242
  145TCq2    C7 2213   2.111   2.773   0.831 -0.0848 -0.6607  1.0533
  145TCq2    C8 2214   2.188   2.695   1.054 -0.1655  0.0243  0.2113
  145TCq2    O4 2215   2.294   2.657   1.098 -0.2001 -0.3528  0.0214
  145TCq2    C9 2216   2.380   2.525   0.628 -0.0532 -0.4661  0.0115
  145TCq2    O5 2217   2.399   2.552   0.510  0.0678 -0.3116 -0.5246
  145TCq2    O6 2218   2.459   2.448   0.691  0.4320 -0.2236  0.5355
  145TCq2    H2 2219   2.205   2.699   0.524  1.2578  0.6650 -0.4613
  145TCq2    H3 2220   2.336   2.529   0.885  2.0722  2.5474  1.6497
  145TCq2    H4 2221   2.041   2.837   0.884  1.7936  1.7827  0.5897
  146TMC2    C1 2222   3.017   1.617  12.369  0.3959  0.1072 -0.2610
  146TMC2    C2 2223   2.977   1.637  12.241  0.0058  0.1016  0.4855
  146TMC2    C3 2224   3.049   1.571  12.140 -0.6234  1.1794 -0.8258
  146TMC2    C4 2225   3.118   1.532  12.403  0.1892 -0.3343 -0.4666
  146TMC2    C5 2226   3.190   1.480  12.297  0.0756 -0.0939  0.8666
  146TMC2    C6 2227   3.161   1.499  12.168  0.7362 -0.2361 -0.0620
  146TMC2     C 2228   2.949   1.708  12.469 -0.0248 -0.3896 -0.3405
  146TMC2     O 2229   2.886   1.799  12.413  0.6029 -0.1478  0.2826
  146TMC2     H 2230   2.883   1.685  12.218  1.5935  1.9362 -2.1386
  146TMC2    H1 2231   3.167   1.543  12.499  0.1065 -3.1381 -0.0843
  146TMC2    H2 2232   3.217   1.447  12.091 -0.7639  0.2103 -1.4561
  146TMC2    C7 2233   3.318   1.422  12.323  0.2277  0.9966 -0.6909
  146TMC2    C8 2234   3.011   1.577  12.000  0.2465 -0.4583 -0.0367
  146TMC2    O1 2235   3.409   1.441  12.241  0.5644 -0.2821 -0.6321
  146TMC2    O2 2236   3.098   1.583  11.915  0.1310  0.1675  0.5029
  146TMC2    O5 2237   2.877   1.570  11.993 -0.0173 -0.1156 -0.2931
  146TMC2    H5 2238   2.831   1.545  12.076  2.6509 -1.7821  0.6624
  147MPD2     C 2239   3.643   1.235  12.680  0.3832 -0.1728 -0.5281
  147MPD2    C1 2240   3.510   1.194  12.708 -0.0817  0.9364 -0.1333
  147MPD2    C2 2241   3.407   1.233  12.621  0.2258 -0.0671 -0.1290
  147MPD2    C3 2242   3.430   1.319  12.516  0.3093  0.1161 -0.7714
  147MPD2    C4 2243   3.557   1.355  12.488 -0.2620 -0.4123 -0.2896
  147MPD2    C5 2244   3.655   1.313  12.565  0.4252  0.5532  0.0483
  147MPD2     H 2245   3.308   1.196  12.646  0.2340 -0.2420 -0.3512
  147MPD2    H1 2246   3.577   1.431  12.413 -0.2896  0.0310  0.1557
  147MPD2    H2 2247   3.726   1.215  12.746 -1.4680 -3.1381  0.8884
  147MPD2    H3 2248   3.748   1.367  12.551  1.0027 -0.1450  1.1958
  147MPD2     N 2249   3.311   1.352  12.443 -0.1600  0.0107  0.3061
  147MPD2    H5 2250   3.218   1.330  12.476 -1.6277  0.7395 -3.3623
  147MPD2    N1 2251   3.488   1.115  12.820 -0.2436  0.3637 -0.4542
  147MPD2    H7 2252   3.574   1.080  12.862  0.1713  1.1854 -0.6160
  148MPD2     C 2253   3.325   4.450  11.059 -0.1488 -0.0491 -0.0980
  148MPD2    C1 2254   3.387   4.544  10.986 -0.1097  0.3416 -0.2326
  148MPD2    C2 2255   3.303   4.635  10.917  0.2291  0.0345 -0.0977
  148MPD2    C3 2256   3.163   4.632  10.922 -0.2158 -0.2362  0.2554
  148MPD2    C4 2257   3.100   4.539  11.003  0.1915  0.3097 -0.0871
  148MPD2    C5 2258   3.187   4.447  11.057 -0.2046  0.2933 -0.1625
  148MPD2     H 2259   3.356   4.711  10.861  0.3426 -0.0924 -0.1634
  148MPD2    H1 2260   2.993   4.524  11.011  0.5768 -1.6416  1.3184
  148MPD2    H2 2261   3.378   4.365  11.102 -0.0566  0.4565  0.7913
  148MPD2    H3 2262   3.133   4.375  11.117  1.0770 -1.2555 -0.8676
  148MPD2     N 2263   3.083   0.003  10.853  0.4791 -0.3172  0.5152
  148MPD2    H5 2264   2.985   4.706  10.860  0.3869 -0.3343 -0.9190
  148MPD2    N1 2265   3.523   4.549  10.948  0.2811  0.5473  0.4616
  148MPD2    H7 2266   3.543   4.615  10.874  0.9621 -1.8232 -1.4861
  149TCq2    C1 2267   3.624   4.468  10.997  1.0404  0.0969  0.0729
  149TCq2    O2 2268   3.623   4.376  11.080  0.2618  0.3295 -0.0089
  149TCq2    C2 2269   3.745   4.496  10.918 -0.9755 -0.6674 -0.5798
  149TCq2    C3 2270   3.845   4.398  10.930 -0.4654  0.1240  0.4221
  149TCq2    C4 2271   3.950   4.406  10.845 -0.6064 -0.4093 -0.8015
  149TCq2    C5 2272   3.950   4.498  10.744  0.1127  0.8899  0.1065
  149TCq2    C6 2273   3.863   4.601  10.740  0.3076 -0.7241 -0.1143
  149TCq2    C7 2274   3.757   4.599  10.822  0.0075 -0.7015 -0.5030
  149TCq2    C8 2275   3.862   4.690  10.632  0.6545 -0.0120 -1.1130
  149TCq2    O4 2276   3.969   0.013  10.596 -0.0989  0.2697  0.1186
  149TCq2    C9 2277   4.043   4.297  10.833  0.6622  0.2535  0.5286
  149TCq2    O5 2278   4.122   4.296  10.736  0.8834  0.0120  0.5300
  149TCq2    O6 2279   4.061   4.228  10.941 -0.1315 -0.3579  0.3681
  149TCq2    H2 2280   3.822   4.315  10.995 -2.7166  0.6225  0.2590
  149TCq2    H3 2281   4.035   4.499  10.678  1.3352 -0.9603  1.6674
  149TCq2    H4 2282   3.690   4.683  10.811  0.4247 -0.0520  1.9111
  150MPD2     C 2283   0.007   4.556  12.470 -0.5472  0.0446 -0.1749
  150MPD2    C1 2284   0.079   4.629  12.378 -0.4224  0.5662 -0.7971
  150MPD2    C2 2285   0.174   4.717  12.418  0.3410  0.1617  0.1802
  150MPD2    C3 2286   0.196   0.010  12.554 -1.0453 -0.2424  0.2335
  150MPD2    C4 2287   0.139   4.655  12.650 -0.0229 -0.1979  0.7194
  150MPD2    C5 2288   0.045   4.564  12.605  1.4979 -0.3847  0.3464
  150MPD2     H 2289   0.217   0.064  12.350  0.1442 -1.1025 -1.2993
  150MPD2    H1 2290   0.149   4.678  12.755 -2.3219  0.0395  0.8827
  150MPD2    H2 2291   4.654   4.490  12.437  2.5835 -2.7141 -2.2141
  150MPD2    H3 2292   4.702   4.536  12.684  1.3947  0.4739  0.5619
  150MPD2     N 2293   0.282   0.112  12.593  0.1940  0.2504 -0.4007
  150MPD2    H5 2294   0.322   0.168  12.518  0.2241 -0.5177 -0.9524
  150MPD2    N1 2295   0.037   4.617  12.241 -0.7436 -0.1161 -0.3414
  150MPD2    H7 2296   4.694   4.546  12.217 -1.8170  0.3353  1.3869
  151TCq2    C1 2297   0.309   0.158  12.723  0.4236  0.2761  0.5990
  151TCq2    O2 2298   0.253   0.138  12.827  0.3957 -0.0051 -0.0680
  151TCq2    C2 2299   0.406   0.264  12.729  0.0279 -0.2839  0.1102
  151TCq2    C3 2300   0.378   0.379  12.792 -0.5181 -0.7190 -0.1422
  151TCq2    C4 2301   0.460   0.486  12.768 -0.1847 -0.0709  0.1120
  151TCq2    C5 2302   0.583   0.465  12.706  0.4886 -0.3191  0.1024
  151TCq2    C6 2303   0.609   0.335  12.665 -0.7004 -0.2792 -0.2324
  151TCq2    C7 2304   0.522   0.235  12.675  0.2860 -0.1420 -0.6322
  151TCq2    C8 2305   0.750   0.311  12.619 -0.6208  0.5040 -0.2503
  151TCq2    O4 2306   0.820   0.409  12.605  0.9273  0.1703  0.2953
  151TCq2    C9 2307   0.422   0.619  12.815 -0.0285  0.3663 -0.1600
  151TCq2    O5 2308   0.304   0.646  12.867  0.2793 -0.0929  0.6417
  151TCq2    O6 2309   0.495   0.711  12.769  0.9699 -0.1479  0.4305
  151TCq2    H2 2310   0.281   0.395  12.839 -0.3962  0.7617 -0.3848
  151TCq2    H3 2311   0.654   0.546  12.695  0.2093 -0.1641 -0.5548
  151TCq2    H4 2312   0.540   0.136  12.634  1.0052  0.9906 -3.0828
  152MPD2     C 2313   4.710   3.863  12.825 -0.2849 -0.1746  0.7301
  152MPD2    C1 2314   0.005   3.994  12.812  0.1283  0.1898 -0.0263
  152MPD2    C2 2315   4.617   4.076  12.806  0.5548 -0.4198  0.8270
  152MPD2    C3 2316   4.491   4.029  12.833  0.3229  0.5262  0.2102
  152MPD2    C4 2317   4.469   3.892  12.846  0.0131 -0.3594  0.4631
  152MPD2    C5 2318   4.584   3.812  12.840  0.0242  0.2661  0.1556
  152MPD2     H 2319   4.631   4.183  12.796  0.1359 -0.3180  1.3200
  152MPD2    H1 2320   4.368   3.854  12.848 -0.1959  0.2194  1.3999
  152MPD2    H2 2321   0.063   3.789  12.815 -1.0688 -0.9899  0.4810
  152MPD2    H3 2322   4.556   3.709  12.856 -0.0067  0.1704 -0.5164
  152MPD2     N 2323   4.391   4.126  12.830  0.3526 -0.4479  0.4165
  152MPD2    H5 2324   4.424   4.222  12.836  0.5950 -0.4773 -0.4579
  152MPD2    N1 2325   0.137   4.044  12.799 -0.0574  0.0049  0.1575
  152MPD2    H7 2326   0.212   3.977  12.791 -1.0935 -1.3441  1.7543
  153TCq2    C1 2327   0.180   4.177  12.787 -0.3845  0.2662 -0.0653
  153TCq2    O2 2328   0.112   4.277  12.782  0.1532 -0.1371 -0.3291
  153TCq2    C2 2329   0.324   4.191  12.804  0.3755  0.6888 -0.2206
  153TCq2    C3 2330   0.406   4.100  12.861 -0.6476 -0.6835 -0.3177
  153TCq2    C4 2331   0.533   4.132  12.900  0.2629  0.1178  0.4041
  153TCq2    C5 2332   0.580   4.262  12.898 -0.0585  0.2451 -0.8913
  153TCq2    C6 2333   0.483   4.365  12.858 -0.1365  0.4088 -0.5546
  153TCq2    C7 2334   0.363   4.324  12.809  0.4339  0.6984  0.5340
  153TCq2    C8 2335   0.512   4.506  12.860  0.1233  0.2894  0.4003
  153TCq2    O4 2336   0.438   4.584  12.798  0.1289  0.2708  0.6371
  153TCq2    C9 2337   0.611   4.031  12.971  0.1650 -0.4315 -0.7012
  153TCq2    O5 2338   0.727   4.065  13.001 -0.1785  0.5078  0.0050
  153TCq2    O6 2339   0.548   3.928  13.006 -0.1895  0.0712  0.1726
  153TCq2    H2 2340   0.363   4.001  12.873  0.7675 -1.3135 -0.5135
  153TCq2    H3 2341   0.686   4.282  12.901 -0.3009  1.2102  0.9415
  153TCq2    H4 2342   0.296   4.394  12.760 -0.4698  0.2327  1.1151
  154MPD2     C 2343   2.051   3.658   0.445 -0.1173  0.5433 -0.1760
  154MPD2    C1 2344   1.959   3.663   0.555  0.1666  1.1184 -0.4634
  154MPD2    C2 2345   1.826   3.682   0.536 -0.1222  0.0162  0.1546
  154MPD2    C3 2346   1.774   3.703   0.411 -0.4135  0.1745 -1.1015
  154MPD2    C4 2347   1.857   3.692   0.302  0.0445 -0.1176  0.5024
  154MPD2    C5 2348   1.991   3.684   0.322  0.2757 -0.6433  0.3657
  154MPD2     H 2349   1.758   3.688   0.620  0.7759 -0.2830  0.9010
  154MPD2    H1 2350   1.830   3.725   0.202 -1.0258 -0.0636  0.8032
  154MPD2    H2 2351   2.158   3.648   0.455 -0.0681  0.1111 -1.1250
  154MPD2    H3 2352   2.056   3.696   0.236 -0.2785  0.2728  0.0792
  154MPD2     N 2353   1.631   3.732   0.396  0.2195  0.4090 -0.7638
  154MPD2    H5 2354   1.570   3.718   0.476  0.7548  0.6165 -0.3121
  154MPD2    N1 2355   2.015   3.643   0.684 -0.0688 -0.0427  0.3249
  154MPD2    H7 2356   2.111   3.612   0.687  0.6587  2.1398 -0.2565
  155TCq2    C1 2357   1.963   3.684   0.804  0.7685 -1.3973 -0.0532
  155TCq2    O2 2358   1.871   3.762   0.825  0.7878 -0.8834 -0.2306
  155TCq2    C2 2359   2.037   3.652   0.920 -0.4299  0.4413  0.5501
  155TCq2    C3 2360   2.039   3.749   1.022 -0.1253 -0.6489  0.4823
  155TCq2    C4 2361   2.112   3.711   1.130 -0.1163 -0.1850 -0.3140
  155TCq2    C5 2362   2.175   3.587   1.143  0.1314  0.1273 -0.4346
  155TCq2    C6 2363   2.179   3.503   1.035  0.4348 -0.1471  0.7105
  155TCq2    C7 2364   2.096   3.531   0.927 -0.1382  0.3635  0.1868
  155TCq2    C8 2365   2.239   3.375   1.041  0.6464 -0.3041 -0.0697
  155TCq2    O4 2366   2.254   3.325   1.153 -0.1549 -0.1559  0.1012
  155TCq2    C9 2367   2.114   3.800   1.246 -0.5834  0.5241 -0.2137
  155TCq2    O5 2368   2.102   3.926   1.224  0.1744  0.2803 -0.2312
  155TCq2    O6 2369   2.156   3.759   1.358  0.3438  0.0295 -0.8470
  155TCq2    H2 2370   1.979   3.840   1.019 -1.9984 -1.8926  0.3741
  155TCq2    H3 2371   2.240   3.561   1.226  0.3992  0.9778 -0.3780
  155TCq2    H4 2372   2.078   3.461   0.847  3.1340  1.2110 -1.2915
  156MPD2     C 2373   4.397   1.515  12.195 -0.6564  0.0492 -0.3395
  156MPD2    C1 2374   4.330   1.601  12.106  0.0271 -0.5024 -0.2915
  156MPD2    C2 2375   4.231   1.687  12.143  0.1228  0.5172 -0.6993
  156MPD2    C3 2376   4.198   1.702  12.275 -0.1269 -0.0839 -0.1487
  156MPD2    C4 2377   4.278   1.625  12.366 -0.0694  0.1375 -0.9453
  156MPD2    C5 2378   4.372   1.530  12.330  0.8274 -0.9309 -0.0317
  156MPD2     H 2379   4.201   1.770  12.080 -2.4288 -0.2507 -0.5269
  156MPD2    H1 2380   4.275   1.642  12.473 -1.7226 -0.2048 -0.9374
  156MPD2    H2 2381   4.462   1.441  12.151 -0.3798  0.8346 -1.2619
  156MPD2    H3 2382   4.419   1.465  12.403  1.8923 -1.7917 -1.4832
  156MPD2     N 2383   4.120   1.809  12.313 -0.4250 -0.7878 -0.0696
  156MPD2    H5 2384   4.087   1.873  12.241  0.3285 -1.0179 -0.6190
  156MPD2    N1 2385   4.374   1.598  11.978  0.4966  0.3346 -0.2090
  156MPD2    H7 2386   4.470   1.570  11.964  0.5336 -0.6064  1.9729
  157TCq2    C1 2387   4.311   1.654  11.871  0.1906  0.3049 -0.0212
  157TCq2    O2 2388   4.193   1.687  11.864  0.3095  0.8053 -0.0429
  157TCq2    C2 2389   4.394   1.674  11.756  0.5528 -0.3805 -0.2477
  157TCq2    C3 2390   4.489   1.581  11.727  0.4037 -0.1201 -0.0620
  157TCq2    C4 2391   4.580   1.612  11.628 -0.6088  0.4577 -0.5574
  157TCq2    C5 2392   4.578   1.737  11.562 -0.7215 -0.1727  0.1410
  157TCq2    C6 2393   4.473   1.824  11.597 -0.3789  0.2549  0.2608
  157TCq2    C7 2394   4.379   1.793  11.689 -0.7842 -0.4565 -0.3202
  157TCq2    C8 2395   4.495   1.961  11.562 -0.5059 -0.3819  0.2582
  157TCq2    O4 2396   4.565   1.982  11.461 -0.5742 -0.0437 -0.7222
  157TCq2    C9 2397   4.704   1.534  11.631 -0.7581  0.2002 -0.1403
  157TCq2    O5 2398   0.061   1.552  11.538 -0.3511 -0.3144 -0.2918
  157TCq2    O6 2399   0.003   1.461  11.730  0.2490  0.0205 -0.5405
  157TCq2    H2 2400   4.491   1.490  11.785  2.2366 -1.7305 -2.6813
  157TCq2    H3 2401   4.660   1.752  11.492 -0.4188 -1.2130  0.2702
  157TCq2    H4 2402   4.308   1.868  11.719  0.4882  1.3021 -1.6953
  158TMC2    C1 2403   0.903   0.727  13.556  0.0798  0.3567  0.4157
  158TMC2    C2 2404   0.966   0.776  13.444  0.2933 -0.5056  0.2783
  158TMC2    C3 2405   0.902   0.875  13.369 -1.3502 -0.1976  0.7709
  158TMC2    C4 2406   0.780   0.771  13.597  1.0455  0.2748  0.0377
  158TMC2    C5 2407   0.724   0.866  13.517  0.2591  0.6193 -0.4844
  158TMC2    C6 2408   0.781   0.916  13.406 -0.7835 -0.7280  0.2755
  158TMC2     C 2409   0.980   0.633  13.642  0.0378 -0.2520  0.6558
  158TMC2     O 2410   1.098   0.614  13.615  0.4624 -0.0669  0.4804
  158TMC2     H 2411   1.067   0.749  13.416 -0.5447 -1.1805 -2.0840
  158TMC2    H1 2412   0.734   0.748  13.692  0.5809 -0.6517 -0.4035
  158TMC2    H2 2413   0.726   0.986  13.343  0.0342 -1.1404 -0.9035
  158TMC2    C7 2414   0.583   0.881  13.524  0.3110 -0.3344  0.6409
  158TMC2    C8 2415   0.947   0.901  13.235  0.3961 -0.0970  0.0270
  158TMC2    O1 2416   0.533   0.989  13.495  0.3732 -0.2407 -0.5904
  158TMC2    O2 2417   1.045   0.845  13.186  0.0955  0.3631  0.4115
  158TMC2    O5 2418   0.887   1.008  13.181  0.0738 -0.1365 -0.1454
  158TMC2    H5 2419   0.826   1.052  13.244  1.1559 -1.2918  1.7242
  159MPD2     C 2420   1.013   0.305  14.038 -0.4280  0.0341  0.1737
  159MPD2    C1 2421   0.885   0.317  14.003 -0.0673  0.0931 -0.8864
  159MPD2    C2 2422   0.853   0.414  13.909 -0.3426 -0.4449  0.0273
  159MPD2    C3 2423   0.952   0.484  13.847  0.3482  0.1402 -0.6019
  159MPD2    C4 2424   1.078   0.472  13.889 -0.8176  0.4474  0.0185
  159MPD2    C5 2425   1.107   0.375  13.976 -0.1560 -0.8528  0.3037
  159MPD2     H 2426   0.754   0.431  13.869 -1.1810 -1.2276  1.7732
  159MPD2    H1 2427   1.159   0.532  13.848 -1.4196 -0.9067 -3.1176
  159MPD2    H2 2428   1.042   0.238  14.118  1.2200  0.2052 -0.2736
  159MPD2    H3 2429   1.210   0.360  14.006  0.8863  5.1321 -0.2130
  159MPD2     N 2430   0.909   0.576  13.747  0.0042  0.4958  0.5422
  159MPD2    H5 2431   0.810   0.595  13.738 -0.3405 -1.4447  0.2384
  159MPD2    N1 2432   0.795   0.227  14.064 -0.2651  0.6705 -0.2684
  159MPD2    H7 2433   0.837   0.149  14.114 -0.3024  2.3267  2.3216
  160TMC2    C1 2434   0.116   3.298   1.411  0.1242 -0.1981 -0.1651
  160TMC2    C2 2435   4.724   3.234   1.440 -0.2652 -0.4389 -0.2356
  160TMC2    C3 2436   0.003   3.099   1.431 -0.0834  0.7643  0.1627
  160TMC2    C4 2437   0.230   3.240   1.358 -0.3889  0.8150 -0.8366
  160TMC2    C5 2438   0.227   3.103   1.353 -0.1576  0.5311  0.1729
  160TMC2    C6 2439   0.117   3.032   1.391 -1.0272 -0.2081 -0.3542
  160TMC2     C 2440   0.130   3.437   1.424 -0.2222 -0.1501 -0.2076
  160TMC2     O 2441   0.229   3.487   1.370 -0.3400 -0.2390  0.0465
  160TMC2     H 2442   4.636   3.288   1.472 -1.3057 -0.8023 -2.5037
  160TMC2    H1 2443   0.321   3.299   1.349 -0.2995  1.1733  2.4036
  160TMC2    H2 2444   0.116   2.926   1.369 -1.7833 -0.9364  3.1232
  160TMC2    C7 2445   0.310   3.028   1.257  0.0124  0.0750 -0.4552
  160TMC2    C8 2446   4.605   3.034   1.443 -0.4995 -0.2091  0.6639
  160TMC2    O1 2447   0.271   2.919   1.219 -0.4501  0.3370 -0.3768
  160TMC2    O2 2448   4.505   3.091   1.473  0.1765  0.3403 -0.2009
  160TMC2    O5 2449   4.611   2.928   1.354  0.1996  0.3971  0.3968
  160TMC2    H5 2450   4.694   2.922   1.302  0.1021 -1.8204  0.5006
  161MPD2     C 2451   0.091   3.731   1.427 -0.2354 -0.2441  0.1349
  161MPD2    C1 2452   4.723   3.637   1.471 -1.1934 -0.2430 -0.2579
  161MPD2    C2 2453   4.604   3.674   1.531 -0.5610  0.6937  0.3318
  161MPD2    C3 2454   4.572   3.814   1.540 -0.0132  1.0489 -0.1006
  161MPD2    C4 2455   4.659   3.903   1.481  0.4178 -0.5460  0.3038
  161MPD2    C5 2456   0.061   3.863   1.436  0.3911  0.1329  0.0834
  161MPD2     H 2457   4.524   3.607   1.560 -0.1625  0.3481  0.6237
  161MPD2    H1 2458   4.638   4.009   1.482  0.9308 -0.4395 -0.2165
  161MPD2    H2 2459   0.196   3.712   1.408 -0.1903 -1.2391  1.3507
  161MPD2    H3 2460   0.134   3.933   1.396 -0.3340  0.9038  0.0996
  161MPD2     N 2461   4.446   3.860   1.591 -0.2402  0.2835 -0.2492
  161MPD2    H5 2462   4.425   3.953   1.556 -0.0299 -0.4856 -2.4732
  161MPD2    N1 2463   0.019   3.496   1.471 -0.4537  0.6812  0.2289
  161MPD2    H7 2464   4.684   3.443   1.533 -0.5004  0.8151  0.2982
  162TMC2    C1 2465   2.799   1.058   1.550 -0.0178 -0.4288  0.1456
  162TMC2    C2 2466   2.679   1.112   1.556 -0.5107 -0.1360 -0.0155
  162TMC2    C3 2467   2.638   1.161   1.675  0.3171  0.1933 -0.1585
  162TMC2    C4 2468   2.877   1.028   1.662  0.2742  0.4639 -0.7343
  162TMC2    C5 2469   2.831   1.076   1.780  0.3487 -0.0043  0.6494
  162TMC2    C6 2470   2.712   1.141   1.787 -0.0219  0.1119  0.1699
  162TMC2     C 2471   2.849   1.023   1.417  0.6440  0.0235 -0.7846
  162TMC2     O 2472   2.928   0.928   1.416  0.2538  0.1891  0.0496
  162TMC2     H 2473   2.614   1.116   1.469 -0.3165  0.6600 -0.1206
  162TMC2    H1 2474   2.977   0.988   1.651  0.0950 -0.5926  1.5190
  162TMC2    H2 2475   2.671   1.163   1.885 -0.0411 -1.6696  0.5523
  162TMC2    C7 2476   2.907   1.053   1.898  0.0467 -0.4159 -0.1837
  162TMC2    C8 2477   2.491   1.177   1.687  0.2371 -1.0564  0.0659
  162TMC2    O1 2478   2.878   1.120   1.997 -0.0594 -0.1379  0.2402
  162TMC2    O2 2479   2.416   1.127   1.602  0.2337  0.4043  0.0001
  162TMC2    O5 2480   2.460   1.270   1.780 -0.3531  0.0251 -0.5255
  162TMC2    H5 2481   2.532   1.315   1.829 -0.9960 -3.0277  3.2272
  163MPD2     C 2482   2.939   1.200   0.937 -0.0095  0.5684  0.0937
  163MPD2    C1 2483   2.993   1.086   0.998  0.7672 -0.2214 -0.9517
  163MPD2    C2 2484   2.951   1.062   1.126  0.6755  0.7323  0.4761
  163MPD2    C3 2485   2.868   1.146   1.198  0.0365  0.4434  0.6954
  163MPD2    C4 2486   2.831   1.260   1.142 -0.4505  0.5854  0.3380
  163MPD2    C5 2487   2.875   1.297   1.017  0.2864  0.0172 -0.0300
  163MPD2     H 2488   2.982   0.966   1.166 -0.3861  1.0664  2.0987
  163MPD2    H1 2489   2.785   1.338   1.203 -1.0769  0.2009  0.3602
  163MPD2    H2 2490   2.977   1.221   0.838  0.0627  2.3797  0.5038
  163MPD2    H3 2491   2.847   1.395   0.980 -0.9875 -0.2578  0.2107
  163MPD2     N 2492   2.813   1.118   1.326  0.6113 -0.2082  0.3461
  163MPD2    H5 2493   2.751   1.187   1.367  0.8668  0.2215  0.0050
  163MPD2    N1 2494   3.074   0.995   0.919 -0.7507 -0.4741 -0.1029
  163MPD2    H7 2495   3.109   1.039   0.835 -1.0133 -1.2393 -0.6157
  164TCq2    C1 2496   3.419   0.383  10.899  0.3602  0.4267  0.5966
  164TCq2    O2 2497   3.331   0.375  10.988 -0.2145  0.0657 -1.0130
  164TCq2    C2 2498   3.446   0.513  10.832 -0.2259 -0.5716  0.2171
  164TCq2    C3 2499   3.556   0.524  10.749 -0.9900  0.2401 -0.2084
  164TCq2    C4 2500   3.598   0.644  10.703  0.0508  0.1917  0.4814
  164TCq2    C5 2501   3.540   0.755  10.758 -0.6173 -0.6158 -0.0430
  164TCq2    C6 2502   3.437   0.745  10.855 -0.3355 -0.5609  0.2263
  164TCq2    C7 2503   3.378   0.621  10.886 -0.1351  0.3295 -0.2325
  164TCq2    C8 2504   3.386   0.866  10.915 -0.6174  0.2367 -0.0964
  164TCq2    O4 2505   3.358   0.965  10.850  0.3214 -0.3952  0.1895
  164TCq2    C9 2506   3.708   0.655  10.610  0.3604 -0.6380  0.0720
  164TCq2    O5 2507   3.758   0.771  10.597 -0.6450 -0.7924 -0.2374
  164TCq2    O6 2508   3.742   0.551  10.548  0.5678  0.1669  0.1508
  164TCq2    H2 2509   3.610   0.442  10.701  2.2849  0.3916  3.2398
  164TCq2    H3 2510   3.578   0.855  10.738  2.0002 -2.0210 -2.0267
  164TCq2    H4 2511   3.293   0.612  10.953  1.2764  0.6083  1.6124
  165MPD2     C 2512   4.313   2.974   1.878  0.3754 -0.3771  0.2653
  165MPD2    C1 2513   4.395   2.884   1.820 -0.2781  0.1244  0.8506
  165MPD2    C2 2514   4.531   2.914   1.802 -0.4372  0.2663 -0.5688
  165MPD2    C3 2515   4.573   3.041   1.825  0.9248 -0.1916 -0.8628
  165MPD2    C4 2516   4.483   3.128   1.874  0.1728 -0.3506  0.2712
  165MPD2    C5 2517   4.352   3.100   1.893  0.0028  0.3062  0.0530
  165MPD2     H 2518   4.591   2.830   1.768 -2.2217 -0.5094 -1.8630
  165MPD2    H1 2519   4.516   3.231   1.874  0.2880 -0.3923  1.2998
  165MPD2    H2 2520   4.207   2.954   1.882  0.0011  1.6840  0.6512
  165MPD2    H3 2521   4.279   3.172   1.926 -1.0552 -1.1431  0.9029
  165MPD2     N 2522   4.695   3.095   1.795 -0.0670  0.4339  0.3813
  165MPD2    H5 2523   4.716   3.193   1.813  3.1477 -0.2144  0.1176
  165MPD2    N1 2524   4.340   2.755   1.789  0.1864 -0.0071 -0.2580
  165MPD2    H7 2525   4.247   2.736   1.824  0.6183 -1.6676  0.0057
  166TCq2    C1 2526   0.074   3.025   1.746  0.1262  0.4142  0.2220
  166TCq2    O2 2527   0.090   2.902   1.754  0.3397  0.3079 -0.0138
  166TCq2    C2 2528   0.197   3.097   1.730  0.6139 -0.5906 -0.1093
  166TCq2    C3 2529   0.198   3.231   1.772 -0.2589  0.0436  0.2308
  166TCq2    C4 2530   0.301   3.313   1.721  0.5270 -0.2767  0.2654
  166TCq2    C5 2531   0.408   3.264   1.652 -0.0758 -0.1073 -0.1100
  166TCq2    C6 2532   0.404   3.127   1.623  0.1537 -0.9714  0.2204
  166TCq2    C7 2533   0.298   3.046   1.665 -0.3742 -0.2230 -0.1120
  166TCq2    C8 2534   0.542   3.063   1.610 -0.2390 -0.0768  0.3728
  166TCq2    O4 2535   0.550   2.946   1.572 -0.5293 -0.0707  0.0677
  166TCq2    C9 2536   0.304   3.452   1.760  0.2777  0.4798  0.0624
  166TCq2    O5 2537   0.222   3.495   1.846  0.2913 -0.2310  0.2135
  166TCq2    O6 2538   0.417   3.508   1.737  0.3042  0.0794 -0.6847
  166TCq2    H2 2539   0.117   3.277   1.827 -1.4298 -1.9733  0.2026
  166TCq2    H3 2540   0.476   3.334   1.606  0.1543 -0.3789 -0.1813
  166TCq2    H4 2541   0.297   2.941   1.637 -1.0242  0.0134 -1.0062
  167TMC2    C1 2542   2.628   1.045  12.472 -0.1061 -0.0437 -0.0146
  167TMC2    C2 2543   2.567   1.131  12.563  0.0031 -0.2813 -0.5339
  167TMC2    C3 2544   2.542   1.078  12.687  0.8539  0.3403  0.9723
  167TMC2    C4 2545   2.676   0.918  12.508  0.3179  0.2622 -0.2820
  167TMC2    C5 2546   2.660   0.886  12.636  0.4525 -0.3937  0.2927
  167TMC2    C6 2547   2.582   0.957  12.729 -0.3894 -0.4076 -0.0834
  167TMC2     C 2548   2.654   1.089  12.332 -0.2927  0.3732 -0.4204
  167TMC2     O 2549   2.647   1.208  12.309  0.2150  0.1316  0.0782
  167TMC2     H 2550   2.524   1.225  12.530 -0.1566 -0.4830 -0.9045
  167TMC2    H1 2551   2.713   0.845  12.436 -2.0727  1.7310 -3.0055
  167TMC2    H2 2552   2.559   0.925  12.830  3.2774  0.6076  1.0626
  167TMC2    C7 2553   2.688   0.746  12.668  0.1641 -0.0277  0.0450
  167TMC2    C8 2554   2.427   1.132  12.762 -0.4015 -0.1117  0.4067
  167TMC2    O1 2555   2.612   0.704  12.754  0.0474 -0.3963  0.1321
  167TMC2    O2 2556   2.312   1.095  12.733  0.3273  0.6007  0.5185
  167TMC2    O5 2557   2.466   1.113  12.892  0.1213 -0.7008 -0.2346
  167TMC2    H5 2558   2.559   1.144  12.897 -0.4098  0.5670  2.0481
  168MPD2     C 2559   2.663   1.115  12.036 -0.4206  0.6791  0.1578
  168MPD2    C1 2560   2.673   0.992  12.098  0.8007  0.3742  0.8068
  168MPD2    C2 2561   2.686   0.871  12.029  0.7191 -0.4752  0.5495
  168MPD2    C3 2562   2.692   0.877  11.889 -0.2078 -0.7482  0.0079
  168MPD2    C4 2563   2.683   0.999  11.828 -0.6296 -0.8208 -0.3418
  168MPD2    C5 2564   2.682   1.115  11.900  0.2473 -0.2818 -0.0863
  168MPD2     H 2565   2.700   0.782  12.089  0.3045  0.5892  2.2123
  168MPD2    H1 2566   2.691   1.011  11.720  0.6573 -0.1496 -0.1655
  168MPD2    H2 2567   2.649   1.210  12.086 -0.4820 -0.5594  2.5068
  168MPD2    H3 2568   2.702   1.205  11.844 -0.3554 -0.1439 -0.0818
  168MPD2     N 2569   2.706   0.761  11.812 -0.6040 -0.4676  0.8184
  168MPD2    H5 2570   2.702   0.765  11.710 -2.4246  0.2318  0.9224
  168MPD2    N1 2571   2.665   0.984  12.244 -1.3669  0.6345  0.3153
  168MPD2    H7 2572   2.651   0.888  12.273 -0.6429  0.8431  1.3442
  169MPD1     C 2573   2.427   4.605  10.263 -0.3148  0.4045  0.6863
  169MPD1    C1 2574   2.298   4.620  10.296  0.1349 -0.0620  0.9151
  169MPD1    C2 2575   2.198   4.553  10.227  0.3514 -0.0470  0.7456
  169MPD1    C3 2576   2.231   4.469  10.124  0.1309 -0.2629 -1.0410
  169MPD1    C4 2577   2.364   4.455  10.096 -0.7634 -0.4572 -0.2883
  169MPD1    C5 2578   2.463   4.520  10.162  0.2480  0.1973 -0.6710
  169MPD1     H 2579   2.095   4.559  10.259 -0.0598  2.0163 -0.9454
  169MPD1    H1 2580   2.395   4.386  10.018 -0.2358 -1.1050  0.5017
  169MPD1    H2 2581   2.508   4.661  10.307 -0.0970 -1.9765  3.3511
  169MPD1    H3 2582   2.566   4.501  10.137  1.1661  1.0806  2.4471
  169MPD1     N 2583   2.129   4.402  10.054 -0.4087 -0.8587 -0.0268
  169MPD1    H5 2584   2.034   4.417  10.087 -0.7937 -0.7041 -1.1802
  169MPD1    N1 2585   2.258   4.708  10.390  0.0421  0.7384 -0.2809
  169MPD1    H6 2586   2.167   4.683  10.430  0.2487  0.0499 -0.2280
  169MPD1    H7 2587   2.320   4.714  10.471 -0.9210  1.6513  0.3936
  170MPD1     C 2588   2.994   2.852  13.078  0.8085 -0.1639  0.1279
  170MPD1    C1 2589   3.036   2.962  13.147 -0.8679 -0.1888 -0.0673
  170MPD1    C2 2590   3.103   2.955  13.262  0.3618 -0.1597 -0.2093
  170MPD1    C3 2591   3.149   2.832  13.312  0.1471  0.1260  0.5125
  170MPD1    C4 2592   3.103   2.716  13.241  0.7197  0.1207  0.0165
  170MPD1    C5 2593   3.022   2.729  13.133  0.8186 -0.1730  0.6829
  170MPD1     H 2594   3.141   3.048  13.303 -2.1307  0.7975 -0.0650
  170MPD1    H1 2595   3.134   2.616  13.270  1.1301 -0.0314 -0.9596
  170MPD1    H2 2596   2.931   2.860  12.991  2.1705  2.6370 -0.6112
  170MPD1    H3 2597   2.993   2.646  13.071 -2.6594  0.7414  1.0984
  170MPD1     N 2598   3.262   2.819  13.406  0.3873 -0.8006  0.3537
  170MPD1    H5 2599   3.307   2.905  13.436  0.0209 -0.5507  0.1979
  170MPD1    N1 2600   3.018   3.078  13.073 -0.0334 -0.2619  0.3514
  170MPD1    H6 2601   3.012   3.161  13.132 -0.1011  0.5271 -0.7647
  170MPD1    H7 2602   2.939   3.078  13.010  0.6883 -3.0265 -0.5604
  171MPD1     C 2603   2.589   3.833  15.422 -0.2947 -0.3204 -0.4663
  171MPD1    C1 2604   2.521   3.774  15.317 -0.2792 -0.4990 -0.3056
  171MPD1    C2 2605   2.509   3.637  15.319 -0.0681 -0.3985  0.2298
  171MPD1    C3 2606   2.549   3.567  15.426 -0.7890  0.3937  0.5356
  171MPD1    C4 2607   2.614   3.631  15.533 -0.3995 -0.5240 -0.0555
  171MPD1    C5 2608   2.639   3.763  15.526 -0.3788  0.1048  0.1521
  171MPD1     H 2609   2.445   3.603  15.237  1.6010 -3.3293  0.1557
  171MPD1    H1 2610   2.663   3.572  15.610 -0.2779 -3.4159 -2.3431
  171MPD1    H2 2611   2.610   3.938  15.408  1.8957 -0.4345  1.9802
  171MPD1    H3 2612   2.700   3.811  15.601  0.2676  0.1888 -0.4219
  171MPD1     N 2613   2.523   3.428  15.438 -0.2614 -0.3422  0.3968
  171MPD1    H5 2614   2.557   3.384  15.523  2.1762 -1.1684 -1.0011
  171MPD1    N1 2615   2.459   3.852  15.215 -0.5614 -0.1069 -0.1783
  171MPD1    H6 2616   2.525   3.915  15.171  0.3793 -1.2890 -0.4417
  171MPD1    H7 2617   2.410   3.802  15.140 -0.0262 -3.2340  1.5614
  172MPD1     C 2618   1.687   2.566  17.593 -0.5409  0.7885 -1.0318
  172MPD1    C1 2619   1.633   2.692  17.566  0.2786 -0.0244  0.0857
  172MPD1    C2 2620   1.703   2.799  17.600  0.2586  0.2420  0.6157
  172MPD1    C3 2621   1.831   2.794  17.666 -0.0215  0.4436  0.5421
  172MPD1    C4 2622   1.889   2.676  17.696  0.1139  0.1508  0.2563
  172MPD1    C5 2623   1.812   2.560  17.661 -0.4128  0.1044  0.1915
  172MPD1     H 2624   1.657   2.894  17.574 -0.2039 -0.1253  0.0747
  172MPD1    H1 2625   1.980   2.664   0.049 -0.0180 -0.6072  0.3132
  172MPD1    H2 2626   1.634   2.472  17.583  1.1449 -0.6560  3.4756
  172MPD1    H3 2627   1.841   2.466   0.003  1.2385  1.4886  1.9638
  172MPD1     N 2628   1.897   2.908   0.011  1.0729  0.1748 -0.2836
  172MPD1    H5 2629   1.985   2.880   0.054  0.4803 -1.9001 -0.4033
  172MPD1    N1 2630   1.519   2.695  17.487  0.5715  0.0037 -1.2131
  172MPD1    H6 2631   1.455   2.619  17.510  2.0367 -0.3723  1.6635
  172MPD1    H7 2632   1.467   2.781  17.506  0.8413  0.1489 -1.1423
  173MPD1     C 2633   3.079   2.945  13.944 -0.1035 -0.0256 -0.2854
  173MPD1    C1 2634   3.149   2.831  13.970  0.1699 -0.6416  0.1284
  173MPD1    C2 2635   3.089   2.727  14.037 -0.2220 -0.8510  0.7105
  173MPD1    C3 2636   2.956   2.730  14.079  0.2205  0.2363  0.2102
  173MPD1    C4 2637   2.886   2.850  14.055  0.3544  0.2733 -0.5754
  173MPD1    C5 2638   2.945   2.946  13.978  0.8918  0.1916 -0.6211
  173MPD1     H 2639   3.158   2.647  14.058  1.4320 -0.2063 -2.2543
  173MPD1    H1 2640   2.782   2.861  14.082  0.5728 -0.8330  0.7222
  173MPD1    H2 2641   3.128   3.028  13.893  0.5996 -0.2384  0.0427
  173MPD1    H3 2642   2.887   3.036  13.961  0.0992 -0.2928 -0.4845
  173MPD1     N 2643   2.899   2.615  14.147  0.3126 -0.5285 -0.0869
  173MPD1    H5 2644   2.958   2.533  14.143 -0.9818 -1.4273 -0.8793
  173MPD1    N1 2645   3.277   2.814  13.916 -0.0622  0.0682 -0.2134
  173MPD1    H6 2646   3.293   2.722  13.957  0.2214  0.2892  0.1798
  173MPD1    H7 2647   3.328   2.883  13.972  2.6798 -0.2821 -2.3049
  174MPD1     C 2648   3.233   1.879  14.315 -0.7560  0.9231 -0.0733
  174MPD1    C1 2649   3.104   1.841  14.328  0.8258  0.4815  0.1154
  174MPD1    C2 2650   3.016   1.939  14.304  0.0780 -0.3871 -0.0922
  174MPD1    C3 2651   3.038   2.051  14.230 -0.9780 -0.1767 -0.5578
  174MPD1    C4 2652   3.167   2.071  14.190  0.8949 -0.7542  0.7054
  174MPD1    C5 2653   3.267   1.989  14.243 -0.5245 -0.1690  1.1067
  174MPD1     H 2654   2.914   1.916  14.332 -0.1183  1.0456  0.3976
  174MPD1    H1 2655   3.190   2.155  14.126  2.9519 -2.5516 -0.9220
  174MPD1    H2 2656   3.313   1.810  14.340 -1.1549 -0.2360 -2.0297
  174MPD1    H3 2657   3.370   2.001  14.213 -0.2247  0.4008  2.4029
  174MPD1     N 2658   2.936   2.140  14.193 -0.0918 -0.3445  1.1148
  174MPD1    H5 2659   2.965   2.229  14.154 -0.5733 -0.5022  0.3980
  174MPD1    N1 2660   3.060   1.737  14.417 -0.3158  0.2493 -0.5018
  174MPD1    H6 2661   2.962   1.720  14.395 -0.7645 -1.1692  2.6582
  174MPD1    H7 2662   3.113   1.651  14.404 -2.7191 -1.2238 -0.4945
  175MPD1     C 2663   0.985   3.821  15.457 -0.1397  0.2392  0.1355
  175MPD1    C1 2664   0.864   3.817  15.514  0.1123  0.6428 -0.9133
  175MPD1    C2 2665   0.853   3.794  15.650  0.2661  0.0789  0.1674
  175MPD1    C3 2666   0.960   3.772  15.735 -0.7538  0.6189 -0.1032
  175MPD1    C4 2667   1.080   3.773  15.667 -0.8622  0.3154  0.8261
  175MPD1    C5 2668   1.094   3.798  15.532  0.8062  0.1774 -0.5129
  175MPD1     H 2669   0.754   3.790  15.695 -0.2393  0.6644 -0.8946
  175MPD1    H1 2670   1.167   3.746  15.726 -0.4924 -0.0034  0.1409
  175MPD1    H2 2671   1.002   3.851  15.354  1.3552 -0.0467  0.3023
  175MPD1    H3 2672   1.184   3.779  15.475  0.4455 -1.3467 -0.5742
  175MPD1     N 2673   0.961   3.742  15.874  0.3912 -0.7831 -0.5250
  175MPD1    H5 2674   1.052   3.719  15.912 -0.0231  1.1161  1.6280
  175MPD1    N1 2675   0.745   3.873  15.451  0.1859 -0.4872  0.0183
  175MPD1    H6 2676   0.667   3.825  15.496  0.6685 -1.8938 -0.6451
  175MPD1    H7 2677   0.747   3.855  15.351  0.1214 -0.0141 -0.0674
  176MPD1     C 2678   2.829   0.396  16.317  0.0159 -0.7921 -0.2788
  176MPD1    C1 2679   2.843   0.518  16.375  0.3610  0.3723  0.7405
  176MPD1    C2 2680   2.801   0.541  16.501  0.0542  0.0194  0.1561
  176MPD1    C3 2681   2.734   0.435  16.568 -0.1321 -0.2943 -0.0596
  176MPD1    C4 2682   2.717   0.311  16.512 -0.4308  0.9410 -0.2212
  176MPD1    C5 2683   2.768   0.291  16.384  0.3755  0.6512  0.1699
  176MPD1     H 2684   2.816   0.641  16.540  0.1027  0.1496 -0.1902
  176MPD1    H1 2685   2.667   0.231  16.565  1.1753  0.8443  1.1609
  176MPD1    H2 2686   2.873   0.384  16.219  0.6039  1.4934 -0.3041
  176MPD1    H3 2687   2.759   0.190  16.347 -0.3597  1.5204 -1.9790
  176MPD1     N 2688   2.686   0.473  16.693 -0.4352 -0.1611  0.0369
  176MPD1    H5 2689   2.699   0.570  16.720 -1.0835 -0.4067  1.2235
  176MPD1    N1 2690   2.934   0.603  16.312 -0.1442 -0.3327 -0.1144
  176MPD1    H6 2691   2.910   0.699  16.337  0.8623 -0.1060 -0.0224
  176MPD1    H7 2692   2.920   0.599  16.211  1.6647  0.6164 -0.4016
  177MPD1     C 2693   1.849   0.713   9.764 -0.3588 -0.2462  0.4981
  177MPD1    C1 2694   1.841   0.633   9.650  0.5241  0.3519  1.1074
  177MPD1    C2 2695   1.766   0.666   9.540 -0.5145 -0.5853  0.1914
  177MPD1    C3 2696   1.715   0.791   9.530 -0.7180 -0.1227  0.4448
  177MPD1    C4 2697   1.730   0.879   9.631  0.0285 -0.1721  0.2445
  177MPD1    C5 2698   1.790   0.844   9.751  0.0621  0.3614  0.2469
  177MPD1     H 2699   1.756   0.596   9.457  0.9429 -2.7938  1.8584
  177MPD1    H1 2700   1.680   0.975   9.622 -2.3716 -1.4029  0.5422
  177MPD1    H2 2701   1.898   0.691   9.858  0.4395  0.8611  0.3460
  177MPD1    H3 2702   1.791   0.913   9.835  2.4877  2.1871 -1.2756
  177MPD1     N 2703   1.648   0.826   9.412  0.0085  0.2864 -0.1089
  177MPD1    H5 2704   1.641   0.758   9.336 -0.7689 -1.1916  1.2714
  177MPD1    N1 2705   1.909   0.508   9.649  0.0131  0.1143  0.7234
  177MPD1    H6 2706   1.991   0.512   9.708  0.6697 -0.2181 -0.1691
  177MPD1    H7 2707   1.942   0.487   9.555 -2.6983 -0.8337 -0.0428
  178MPD1     C 2708   3.652   1.825   0.476  0.5218 -0.9563 -0.2265
  178MPD1    C1 2709   3.750   1.893   0.404  0.6400 -0.3092  0.2763
  178MPD1    C2 2710   3.777   1.854   0.275  0.0108  0.4352 -0.4220
  178MPD1    C3 2711   3.706   1.754   0.216  0.1566 -0.5960 -0.3875
  178MPD1    C4 2712   3.600   1.690   0.285  0.9816  0.6201  0.5071
  178MPD1    C5 2713   3.579   1.726   0.415 -0.6144 -0.0478  0.1735
  178MPD1     H 2714   3.863   1.897   0.226  0.7229  0.1049  0.5318
  178MPD1    H1 2715   3.543   1.614   0.232  2.4615 -1.1576  1.4611
  178MPD1    H2 2716   3.622   1.851   0.577  1.1470  1.9525 -0.7990
  178MPD1    H3 2717   3.499   1.675   0.467 -1.0899  2.9972  2.4607
  178MPD1     N 2718   3.713   1.723   0.080  0.2180  0.5660 -0.2660
  178MPD1    H5 2719   3.638   1.664   0.047  0.6803  0.2308 -0.7170
  178MPD1    N1 2720   3.813   2.007   0.456 -0.1281  0.0346  0.1693
  178MPD1    H6 2721   3.907   2.019   0.420 -1.2717  1.1939 -2.4093
  178MPD1    H7 2722   3.823   2.014   0.557  2.1346  0.8526 -0.1086
  179MPD1     C 2723   3.239   0.111  16.390 -0.2500 -0.0867  0.0786
  179MPD1    C1 2724   3.312   0.080  16.273 -0.2587 -0.1515 -0.3470
  179MPD1    C2 2725   3.281   4.682  16.213  0.4577  0.1830 -0.1282
  179MPD1    C3 2726   3.216   4.585  16.289 -0.1920 -0.7971 -0.2866
  179MPD1    C4 2727   3.161   4.616  16.414 -0.1631  0.3628  0.5888
  179MPD1    C5 2728   3.172   0.015  16.460  0.5260  0.0433  0.2883
  179MPD1     H 2729   3.342   4.660  16.127 -0.7881  0.8098 -1.1731
  179MPD1    H1 2730   3.120   4.541  16.481  0.3752  0.6222  1.2084
  179MPD1    H2 2731   3.247   0.210  16.433 -1.9459 -0.7664  1.9996
  179MPD1    H3 2732   3.124   0.030  16.557  2.6455 -0.5421  1.4279
  179MPD1     N 2733   3.207   4.454  16.243 -0.5508 -0.3239  0.0949
  179MPD1    H5 2734   3.176   4.388  16.314  0.1654 -1.5291 -0.7103
  179MPD1    N1 2735   3.384   0.179  16.208  0.6549  0.2663  0.9283
  179MPD1    H6 2736   3.461   0.138  16.155 -0.6464  0.4835 -1.1461
  179MPD1    H7 2737   3.412   0.243  16.282  1.6519 -0.6373  1.3237
  180MPD1     C 2738   2.875   1.152  15.087 -0.2802 -0.1375  0.3241
  180MPD1    C1 2739   2.983   1.135  14.996 -0.0713 -0.5970  0.1197
  180MPD1    C2 2740   2.950   1.109  14.860  0.9993 -0.3627  0.5201
  180MPD1    C3 2741   2.823   1.123  14.814 -0.5500 -0.5709  0.0039
  180MPD1    C4 2742   2.718   1.147  14.903 -0.2825 -0.5099  0.7700
  180MPD1    C5 2743   2.750   1.148  15.038  0.6099 -0.1715  1.0120
  180MPD1     H 2744   3.028   1.068  14.797  2.4697  1.3909  1.1881
  180MPD1    H1 2745   2.613   1.147  14.873 -0.0681 -1.1245  0.0316
  180MPD1    H2 2746   2.876   1.154  15.195  1.0103 -3.7078  0.3824
  180MPD1    H3 2747   2.677   1.167  15.115 -0.9952 -1.1167 -0.2799
  180MPD1     N 2748   2.803   1.104  14.673 -0.3033  0.5664 -0.1768
  180MPD1    H5 2749   2.888   1.084  14.621 -0.4021 -0.7435  0.1581
  180MPD1    N1 2750   3.108   1.108  15.046  0.4480  0.0980  0.5658
  180MPD1    H6 2751   3.129   1.149  15.136  3.8247 -1.8386  0.6375
  180MPD1    H7 2752   3.188   1.105  14.984  1.0953 -3.1641  1.5894
  181MPD1     C 2753   4.431   3.535   9.872  0.1370 -0.5766 -0.1001
  181MPD1    C1 2754   4.532   3.621   9.830  0.0966 -0.4959  0.1634
  181MPD1    C2 2755   4.667   3.589   9.870 -0.2098  0.4397  0.3195
  181MPD1    C3 2756   4.687   3.483   9.959 -0.0684  0.1840 -0.8967
  181MPD1    C4 2757   4.583   3.405  10.003  0.1552  0.0584 -0.4851
  181MPD1    C5 2758   4.458   3.432   9.964 -0.0781 -0.2102  0.9051
  181MPD1     H 2759   0.022   3.653   9.835 -0.7359  1.4640  1.0003
  181MPD1    H1 2760   4.599   3.315  10.062 -0.3044 -0.5026 -1.2045
  181MPD1    H2 2761   4.327   3.563   9.858  0.3048  0.7064  1.2184
  181MPD1    H3 2762   4.368   3.382   9.997 -0.1418 -1.2573 -0.8723
  181MPD1     N 2763   0.099   3.451  10.011  0.3958 -0.3991  0.2620
  181MPD1    H5 2764   0.115   3.366  10.063  0.6622  0.4177  1.5170
  181MPD1    N1 2765   4.496   3.715   9.735 -0.0300  0.2308 -0.0307
  181MPD1    H6 2766   4.561   3.793   9.731  1.4256 -0.9339  0.8216
  181MPD1    H7 2767   4.397   3.738   9.742 -0.5154 -1.6759 -0.3805
  182MPD1     C 2768   1.776   1.803   1.341  0.3295 -0.8652 -0.6299
  182MPD1    C1 2769   1.808   1.724   1.232  0.1588  0.1490  0.0563
  182MPD1    C2 2770   1.729   1.730   1.119 -0.3923 -0.1059  0.4159
  182MPD1    C3 2771   1.625   1.825   1.109 -0.1142 -0.8216  0.0030
  182MPD1    C4 2772   1.601   1.906   1.218 -0.8232  0.6169  0.3617
  182MPD1    C5 2773   1.670   1.885   1.327  0.2526  0.6106 -0.3607
  182MPD1     H 2774   1.762   1.676   1.030 -0.0320  0.5354  0.1600
  182MPD1    H1 2775   1.527   1.986   1.223 -1.4777  0.0678 -0.6972
  182MPD1    H2 2776   1.829   1.793   1.434 -1.2904  0.7498  0.4663
  182MPD1    H3 2777   1.652   1.948   1.413 -0.7554  2.8588 -2.2186
  182MPD1     N 2778   1.554   1.852   0.986  0.0067  0.6620  0.4997
  182MPD1    H5 2779   1.482   1.922   1.001 -0.1094  1.4349 -3.7323
  182MPD1    N1 2780   1.916   1.638   1.229  0.0054 -1.1227 -0.1197
  182MPD1    H6 2781   1.999   1.676   1.274  0.2728 -1.5165 -0.2765
  182MPD1    H7 2782   1.940   1.618   1.132  2.6539  1.5504 -0.0177
  183MPD1     C 2783   0.730   2.700   9.529  0.5182 -0.5201 -0.4495
  183MPD1    C1 2784   0.702   2.827   9.580  0.6405 -0.6643 -0.6655
  183MPD1    C2 2785   0.807   2.922   9.587 -0.5227  0.7728  0.4844
  183MPD1    C3 2786   0.939   2.884   9.566  0.1583 -0.1008  0.4164
  183MPD1    C4 2787   0.968   2.752   9.536 -0.2014  0.1718  0.4616
  183MPD1    C5 2788   0.863   2.665   9.514 -1.0320  0.9391 -0.2305
  183MPD1     H 2789   0.786   3.025   9.613 -1.3370  1.0269 -1.1933
  183MPD1    H1 2790   1.068   2.717   9.513 -0.2619 -0.1669  0.7162
  183MPD1    H2 2791   0.665   2.614   9.528 -0.3118  0.0611  2.3297
  183MPD1    H3 2792   0.883   2.561   9.488 -2.1567  0.3998  1.0362
  183MPD1     N 2793   1.042   2.983   9.585  0.0041 -0.1800 -0.1356
  183MPD1    H5 2794   1.019   3.082   9.590  2.5381  0.3182  1.2815
  183MPD1    N1 2795   0.566   2.864   9.591  0.0168  0.0750  0.0975
  183MPD1    H6 2796   0.500   2.787   9.590  0.5391 -0.3488 -1.6679
  183MPD1    H7 2797   0.559   2.922   9.674  0.8856 -0.1971  0.3634
  184MPD1     C 2798   0.321   0.756  10.353  0.5055  0.4537 -0.5822
  184MPD1    C1 2799   0.451   0.784  10.372 -0.5978 -0.0980  0.3411
  184MPD1    C2 2800   0.540   0.749  10.274  0.0569 -0.6136  0.1414
  184MPD1    C3 2801   0.506   0.672  10.163 -0.6903 -0.3059 -0.5067
  184MPD1    C4 2802   0.374   0.621  10.165  0.1465 -0.1594 -0.0646
  184MPD1    C5 2803   0.284   0.663  10.257 -0.6189  0.0482 -1.2623
  184MPD1     H 2804   0.641   0.789  10.284  0.1885 -0.4476 -1.7408
  184MPD1    H1 2805   0.337   0.549  10.093  1.4908 -1.7203  0.7998
  184MPD1    H2 2806   0.233   0.790  10.405  1.1039  0.1970  0.5862
  184MPD1    H3 2807   0.181   0.630  10.252 -0.4569 -0.5493 -0.4727
  184MPD1     N 2808   0.590   0.638  10.050 -0.0806  0.2913 -0.5918
  184MPD1    H5 2809   0.552   0.577   9.978 -0.9857 -0.0013  0.1423
  184MPD1    N1 2810   0.482   0.891  10.461 -0.0225 -0.0201  0.1248
  184MPD1    H6 2811   0.419   0.900  10.541 -2.0505  2.4783 -1.7478
  184MPD1    H7 2812   0.575   0.869  10.495  0.0861  1.1814  0.6134
  185MPD1     C 2813   0.666   0.144   9.187  0.4280  0.2806 -0.2447
  185MPD1    C1 2814   0.629   0.102   9.313 -0.5239 -0.6407  0.5668
  185MPD1    C2 2815   0.640   0.194   9.418 -0.0381  0.0285  0.1317
  185MPD1    C3 2816   0.717   0.311   9.394 -0.4584  0.7740 -0.2390
  185MPD1    C4 2817   0.764   0.341   9.268 -0.4360  0.5405  0.2573
  185MPD1    C5 2818   0.738   0.262   9.166  0.3808 -0.3190 -0.3000
  185MPD1     H 2819   0.591   0.178   9.514  1.3191  0.4906  0.9088
  185MPD1    H1 2820   0.822   0.430   9.245 -0.5979  0.9434  1.3924
  185MPD1    H2 2821   0.640   0.083   9.101  1.8305 -0.2058 -0.3306
  185MPD1    H3 2822   0.765   0.293   9.065 -1.6882  0.3866 -0.6319
  185MPD1     N 2823   0.764   0.399   9.498  0.0290  0.6407  0.0200
  185MPD1    H5 2824   0.845   0.459   9.483 -0.9743  2.6146  2.6509
  185MPD1    N1 2825   0.540   4.720   9.333  0.1895  0.5575 -0.4690
  185MPD1    H6 2826   0.542   4.690   9.430 -1.2429  0.2943 -0.5198
  185MPD1    H7 2827   0.554   4.635   9.279  0.0205  0.4932 -0.4120
  186MPD1     C 2828   3.583   4.183  15.939  0.1386  0.2319  0.6496
  186MPD1    C1 2829   3.583   4.147  16.070 -0.2034 -0.3389 -0.3366
  186MPD1    C2 2830   3.587   4.240  16.174  0.3752 -0.4965  0.4577
  186MPD1    C3 2831   3.585   4.379  16.139 -0.4642  0.0087  0.0701
  186MPD1    C4 2832   3.574   4.417  16.003 -0.9327  0.3921 -0.9825
  186MPD1    C5 2833   3.573   4.319  15.904  0.2811  0.2209  0.0015
  186MPD1     H 2834   3.581   4.214  16.279  2.9847 -1.6077  0.3249
  186MPD1    H1 2835   3.570   4.521  15.970  2.7631  0.9190  0.1793
  186MPD1    H2 2836   3.566   4.102  15.869 -2.1137  2.2039 -1.1034
  186MPD1    H3 2837   3.570   4.343  15.798  1.4142 -0.3675 -0.1599
  186MPD1     N 2838   3.581   4.482  16.234 -0.2428 -0.0259 -0.1191
  186MPD1    H5 2839   3.600   4.572  16.191 -1.1828  0.4150  0.3967
  186MPD1    N1 2840   3.604   4.010  16.094  0.3492 -0.7433  0.1563
  186MPD1    H6 2841   3.563   3.952  16.021  1.2445 -1.7894  0.4841
  186MPD1    H7 2842   3.593   3.972  16.187 -0.0870 -2.3325 -0.5552
  187MPD1     C 2843   2.108   2.039   0.343  0.3285  0.3942 -0.3629
  187MPD1    C1 2844   2.162   2.164   0.297  0.1222  0.2504 -0.3416
  187MPD1    C2 2845   2.271   2.151   0.221  0.7372  0.7607 -0.1299
  187MPD1    C3 2846   2.305   2.035   0.161 -0.0497 -0.2258  0.8347
  187MPD1    C4 2847   2.250   1.919   0.195  0.1836  0.1495 -0.4718
  187MPD1    C5 2848   2.148   1.920   0.284 -0.1589  0.4519  0.5597
  187MPD1     H 2849   2.320   2.239   0.181  1.3781  0.0530 -0.8909
  187MPD1    H1 2850   2.280   1.825   0.150 -1.1346 -0.1239 -0.7921
  187MPD1    H2 2851   2.030   2.030   0.417 -0.3378 -0.7446 -1.2093
  187MPD1    H3 2852   2.117   1.825   0.324  1.6111 -0.9550 -1.3869
  187MPD1     N 2853   2.391   2.031   0.052  0.0357 -0.1344  0.2434
  187MPD1    H5 2854   2.382   1.950  17.695 -0.4949  0.7768 -0.8862
  187MPD1    N1 2855   2.136   2.292   0.351  0.2868  0.2746 -0.6565
  187MPD1    H6 2856   2.171   2.361   0.286 -0.5104  2.0109  0.7606
  187MPD1    H7 2857   2.039   2.317   0.369  1.0119  3.0258 -0.6613
  188MPD1     C 2858   2.828   1.781  10.453  0.1875 -0.8637  0.6783
  188MPD1    C1 2859   2.853   1.905  10.395 -0.7240  0.0695 -0.1220
  188MPD1    C2 2860   2.919   1.901  10.277  0.8976 -0.2176 -0.4039
  188MPD1    C3 2861   2.985   1.785  10.236  0.1380  0.6867 -0.1706
  188MPD1    C4 2862   2.982   1.668  10.307 -0.3541  0.2505 -0.9024
  188MPD1    C5 2863   2.899   1.668  10.417 -0.0865 -0.2541 -0.3522
  188MPD1     H 2864   2.915   1.986  10.210 -0.8868 -1.0938 -1.4107
  188MPD1    H1 2865   3.034   1.575  10.283  0.5579  0.2233  1.2267
  188MPD1    H2 2866   2.764   1.762  10.537 -2.5782  1.1760 -0.9728
  188MPD1    H3 2867   2.891   1.580  10.479  3.3976 -0.3296 -0.0255
  188MPD1     N 2868   3.084   1.785  10.134  0.1052 -0.1063  0.0534
  188MPD1    H5 2869   3.129   1.695  10.121 -1.2426 -0.6334 -0.9658
  188MPD1    N1 2870   2.771   2.015  10.437  0.6589 -0.3599  0.1822
  188MPD1    H6 2871   2.761   2.019  10.538 -0.4622 -0.4858  0.0767
  188MPD1    H7 2872   2.801   2.103  10.394  0.5815 -1.6977 -2.5834
  189MPD1     C 2873   4.348   2.256   0.149  0.0959  0.6746  0.4622
  189MPD1    C1 2874   4.219   2.250   0.194  0.3990  0.3265 -0.3059
  189MPD1    C2 2875   4.145   2.370   0.188 -0.5288 -0.0390 -0.8000
  189MPD1    C3 2876   4.204   2.491   0.160 -0.4596  0.7393 -0.2840
  189MPD1    C4 2877   4.333   2.500   0.117  0.2590  0.0601 -0.7788
  189MPD1    C5 2878   4.399   2.373   0.109  0.2195 -0.0324 -0.4015
  189MPD1     H 2879   4.039   2.355   0.207 -0.6096  1.1088 -0.3294
  189MPD1    H1 2880   4.376   2.590   0.072 -1.1698  1.5302  0.7901
  189MPD1    H2 2881   4.415   2.170   0.148  1.9568  2.1663 -1.5785
  189MPD1    H3 2882   4.492   2.364   0.054  0.8683 -3.6460  1.3176
  189MPD1     N 2883   4.119   2.601   0.156  0.8102 -0.0682 -0.2454
  189MPD1    H5 2884   4.024   2.584   0.190  0.5509  1.2687 -0.3181
  189MPD1    N1 2885   4.163   2.132   0.239  0.2148 -0.6371  0.0422
  189MPD1    H6 2886   4.223   2.050   0.234  0.7871 -0.1440 -1.0390
  189MPD1    H7 2887   4.118   2.146   0.330  1.9351  1.1141  0.6212
  190MPD1     C 2888   2.705   0.977  15.369  0.2224 -0.5478 -0.5469
  190MPD1    C1 2889   2.812   0.918  15.302  0.3699  0.8011 -0.5864
  190MPD1    C2 2890   2.918   0.895  15.381 -0.5997 -0.1296  0.4355
  190MPD1    C3 2891   2.938   0.946  15.506 -0.3926  0.2832  0.1375
  190MPD1    C4 2892   2.835   1.016  15.567  0.0700  0.3018 -0.7223
  190MPD1    C5 2893   2.720   1.020  15.496 -0.4253 -0.7195  0.0363
  190MPD1     H 2894   3.000   0.832  15.347 -0.4896 -0.1418  0.7201
  190MPD1    H1 2895   2.838   1.066  15.663  0.7006 -0.6376 -0.2544
  190MPD1    H2 2896   2.608   0.997  15.325 -1.1576 -0.6657  2.4307
  190MPD1    H3 2897   2.631   1.061  15.544 -0.9189 -0.7951 -0.8178
  190MPD1     N 2898   3.068   0.924  15.568 -0.0512  0.2435 -0.2729
  190MPD1    H5 2899   3.133   0.881  15.503 -1.2743 -0.7371 -0.8337
  190MPD1    N1 2900   2.797   0.861  15.174 -0.1079 -0.5685  0.4418
  190MPD1    H6 2901   2.883   0.850  15.120 -0.9535  0.8085 -1.1640
  190MPD1    H7 2902   2.738   0.916  15.112  2.1254 -0.2954 -1.4382
  191MPD1     C 2903   2.548   2.917  13.319 -0.4810  0.3860  0.0703
  191MPD1    C1 2904   2.457   3.011  13.289  0.0518  1.0816 -0.1617
  191MPD1    C2 2905   2.483   3.096  13.185 -0.1754 -0.2832  0.5831
  191MPD1    C3 2906   2.594   3.088  13.109  0.5423 -0.7358  0.6468
  191MPD1    C4 2907   2.685   2.986  13.139 -0.1700 -0.1689 -0.0104
  191MPD1    C5 2908   2.658   2.896  13.232  0.0844  0.0710  0.1053
  191MPD1     H 2909   2.404   3.169  13.175  2.0019  1.6401 -2.2477
  191MPD1    H1 2910   2.774   2.977  13.078  0.0730 -0.6704  0.4231
  191MPD1    H2 2911   2.540   2.850  13.405 -1.1704 -1.9691 -1.8290
  191MPD1    H3 2912   2.736   2.829  13.268  2.2928  3.2382  1.1772
  191MPD1     N 2913   2.622   3.193  13.018  0.2288 -0.5111  0.0732
  191MPD1    H5 2914   2.551   3.265  13.021 -0.8111 -1.5027 -0.7064
  191MPD1    N1 2915   2.332   3.011  13.356  0.1471 -0.0381  0.0903
  191MPD1    H6 2916   2.274   3.093  13.341 -0.9053 -0.9984 -0.9920
  191MPD1    H7 2917   2.332   2.978  13.453  2.3707 -1.4594 -0.3686
  192MPD1     C 2918   2.889   3.972  13.195  0.3714 -0.0438  0.6705
  192MPD1    C1 2919   2.794   3.996  13.098 -0.2284 -0.3373 -0.3202
  192MPD1    C2 2920   2.769   3.901  13.006  0.2891  0.2204  0.0297
  192MPD1    C3 2921   2.815   3.772  13.031 -0.3285 -0.4044  0.4390
  192MPD1    C4 2922   2.913   3.752  13.122 -0.1936 -0.0640 -0.4786
  192MPD1    C5 2923   2.957   3.853  13.196 -0.4733  0.2119  0.4590
  192MPD1     H 2924   2.697   3.917  12.927 -0.6890  0.1415  0.9189
  192MPD1    H1 2925   2.947   3.651  13.143  0.5169  0.4788  0.9566
  192MPD1    H2 2926   2.924   4.048  13.264  1.5627 -1.1438  1.2836
  192MPD1    H3 2927   3.025   3.841  13.280  2.1882  2.2559 -1.4269
  192MPD1     N 2928   2.762   3.661  12.965 -0.3660  0.1595 -0.0987
  192MPD1    H5 2929   2.808   3.573  12.986  0.7706  0.1468 -2.6144
  192MPD1    N1 2930   2.760   4.128  13.074  0.4587 -0.0088  0.1367
  192MPD1    H6 2931   2.746   4.179  13.161 -0.3305 -0.6447  0.3820
  192MPD1    H7 2932   2.664   4.130  13.039  0.5816 -1.8481 -0.3330
  193MPD1     C 2933   1.844   2.716  16.003 -0.1396 -0.2112 -0.3786
  193MPD1    C1 2934   1.818   2.825  16.083  0.2092 -0.5662 -0.3696
  193MPD1    C2 2935   1.929   2.881  16.143  0.2863 -0.3288  0.3038
  193MPD1    C3 2936   2.056   2.828  16.145  0.1194  0.2433  0.7452
  193MPD1    C4 2937   2.071   2.707  16.081  0.5194 -0.0847  0.3642
  193MPD1    C5 2938   1.968   2.660  16.002  0.3372  0.2503 -0.5376
  193MPD1     H 2939   1.903   2.972  16.196 -2.3329 -1.2930  0.6782
  193MPD1    H1 2940   2.167   2.656  16.084  0.5929  0.0814  0.8286
  193MPD1    H2 2941   1.763   2.675  15.944  0.5105  0.1743 -1.5468
  193MPD1    H3 2942   1.979   2.574  15.937 -2.1531  0.0437 -0.6780
  193MPD1     N 2943   2.168   2.881  16.218 -0.3118 -0.9990 -0.0372
  193MPD1    H5 2944   2.257   2.834  16.213  0.1565 -0.1292  0.1321
  193MPD1    N1 2945   1.692   2.893  16.072  0.4040  0.5281  0.1197
  193MPD1    H6 2946   1.622   2.819  16.062 -1.2952  2.0951  0.4796
  193MPD1    H7 2947   1.670   2.961  16.144  2.1120  0.2193  0.9243
  194MPD1     C 2948   1.004   1.306  17.002 -0.2399  0.0458  0.1359
  194MPD1    C1 2949   0.887   1.255  16.939 -0.3861  0.3816  0.2795
  194MPD1    C2 2950   0.834   1.136  16.995 -0.1987 -0.4315  0.4745
  194MPD1    C3 2951   0.914   1.059  17.077  0.0073  0.1577 -0.5142
  194MPD1    C4 2952   1.033   1.100  17.123 -0.1713  0.2803  0.1881
  194MPD1    C5 2953   1.076   1.228  17.095  0.5701 -0.0988 -0.5705
  194MPD1     H 2954   0.735   1.102  16.968  0.4312 -0.5652 -1.6544
  194MPD1    H1 2955   1.099   1.034  17.178  0.7155 -0.1868 -1.4346
  194MPD1    H2 2956   1.055   1.398  16.978 -0.7454  0.2182 -0.2745
  194MPD1    H3 2957   1.175   1.260  17.126 -0.8653  1.8065  2.0438
  194MPD1     N 2958   0.888   0.923  17.115  0.5019  0.1469 -0.6321
  194MPD1    H5 2959   0.947   0.878  17.184 -1.9424  1.0340  1.9971
  194MPD1    N1 2960   0.808   1.343  16.854 -0.1102 -0.2297 -0.1111
  194MPD1    H6 2961   0.870   1.404  16.801 -0.4211  2.0178  2.1336
  194MPD1    H7 2962   0.754   1.290  16.786 -0.0084  1.1513 -1.2733
  195MPD1     C 2963   1.939   2.137  17.003  0.4987 -0.0726  0.2474
  195MPD1    C1 2964   1.824   2.065  16.979 -0.1519 -1.0286 -1.0329
  195MPD1    C2 2965   1.817   1.935  17.028  0.9462  0.1859  0.0777
  195MPD1    C3 2966   1.900   1.884  17.126 -0.2098  0.4435 -0.0082
  195MPD1    C4 2967   2.005   1.969  17.165 -0.7482  0.1790  0.6444
  195MPD1    C5 2968   2.019   2.091  17.109  0.4457  0.5090 -0.1665
  195MPD1     H 2969   1.733   1.876  16.994  0.9481 -0.8012  1.8010
  195MPD1    H1 2970   2.068   1.938  17.247 -1.6930 -0.9430  0.9582
  195MPD1    H2 2971   1.956   2.239  16.969 -1.3898  0.5991  1.3830
  195MPD1    H3 2972   2.099   2.156  17.144  1.0093  0.0510 -0.6155
  195MPD1     N 2973   1.893   1.759  17.193  0.0206 -0.7410  0.4675
  195MPD1    H5 2974   1.967   1.739  17.260 -1.0324  1.1550  2.1767
  195MPD1    N1 2975   1.737   2.103  16.875  0.5205  0.3384 -0.1863
  195MPD1    H6 2976   1.715   2.203  16.869 -0.8391  0.1252  1.2958
  195MPD1    H7 2977   1.646   2.059  16.885  1.2263 -0.9502  0.4948
  196MPD1     C 2978   2.994   2.215   0.109 -0.5669 -0.1103 -0.6347
  196MPD1    C1 2979   2.887   2.301   0.119 -0.3247  0.5261  0.4445
  196MPD1    C2 2980   2.778   2.271   0.202 -0.8370 -0.1106  0.1263
  196MPD1    C3 2981   2.765   2.150   0.271 -0.0915  0.2432  0.8084
  196MPD1    C4 2982   2.868   2.057   0.245  1.0853 -1.3931 -0.5962
  196MPD1    C5 2983   2.979   2.088   0.173  0.7567 -0.2851  0.5512
  196MPD1     H 2984   2.698   2.344   0.201 -0.4596  0.2858 -0.8599
  196MPD1    H1 2985   2.861   1.961   0.295 -1.0646 -0.8092  0.2160
  196MPD1    H2 2986   3.083   2.240   0.053 -1.7650  1.4604 -1.8176
  196MPD1    H3 2987   3.048   2.009   0.147  2.0182  0.3820  1.8556
  196MPD1     N 2988   2.659   2.115   0.352  0.2255 -0.4292 -0.2418
  196MPD1    H5 2989   2.655   2.017   0.378  1.2994 -0.8358 -1.6139
  196MPD1    N1 2990   2.887   2.428   0.061  0.7911  0.6488 -0.7694
  196MPD1    H6 2991   2.801   2.455   0.013  1.3987  0.1793 -2.1115
  196MPD1    H7 2992   2.956   2.440  17.692  0.4679 -1.6720 -1.4301
  197MPD1     C 2993   1.465   0.026   0.077 -0.0298  0.5284  0.4860
  197MPD1    C1 2994   1.362   0.086   0.005 -0.7870  0.2292  0.2668
  197MPD1    C2 2995   1.345   0.035  17.579 -0.6060  0.2174  0.4243
  197MPD1    C3 2996   1.409   4.652  17.530 -0.3069 -0.5348  0.6655
  197MPD1    C4 2997   1.513   4.604  17.605 -0.5290 -0.8383 -0.1480
  197MPD1    C5 2998   1.544   4.645   0.024  0.6473 -0.1596 -0.3212
  197MPD1     H 2999   1.262   0.076  17.523 -0.0325  0.6168 -0.1224
  197MPD1    H1 3000   1.575   4.523  17.568  1.0300  0.5567 -0.5773
  197MPD1    H2 3001   1.487   0.072   0.173 -1.5036  0.1485  1.0119
  197MPD1    H3 3002   1.630   4.606   0.077  0.3712  0.7797  0.8192
  197MPD1     N 3003   1.375   4.583  17.410 -0.5598  0.5120  0.9928
  197MPD1    H5 3004   1.410   4.488  17.399 -2.0979  0.0654 -0.0935
  197MPD1    N1 3005   1.285   0.196   0.052 -0.0399 -0.1938 -0.8986
  197MPD1    H6 3006   1.280   0.200   0.153  0.7729  2.0022 -0.9620
  197MPD1    H7 3007   1.194   0.208   0.006 -1.1471 -0.5196  1.2159
  198MPD1     C 3008   2.895   1.419  15.391 -0.5846 -0.5126  0.4073
  198MPD1    C1 3009   3.023   1.462  15.348 -0.0216 -0.6748  0.3157
  198MPD1    C2 3010   3.102   1.527  15.443 -0.8844  0.4221  0.3845
  198MPD1    C3 3011   3.054   1.570  15.565  0.6240  0.4831 -0.2720
  198MPD1    C4 3012   2.933   1.522  15.607 -0.3133 -0.1752 -0.1200
  198MPD1    C5 3013   2.862   1.443  15.521 -0.7404  0.6063 -0.4649
  198MPD1     H 3014   3.206   1.553  15.425 -0.3482 -2.2855 -0.3179
  198MPD1    H1 3015   2.890   1.543  15.705  0.8365 -0.3386  0.4226
  198MPD1    H2 3016   2.833   1.371  15.317  0.1508 -0.0128 -0.5341
  198MPD1    H3 3017   2.771   1.402  15.563  0.8815 -1.2820  1.2024
  198MPD1     N 3018   3.133   1.656  15.635  0.4254 -0.0503 -0.4023
  198MPD1    H5 3019   3.222   1.678  15.592  0.4982 -1.1548 -0.8106
  198MPD1    N1 3020   3.082   1.401  15.233 -0.4593  0.1918  0.1490
  198MPD1    H6 3021   3.018   1.378  15.158  0.8123  0.1738 -0.9230
  198MPD1    H7 3022   3.166   1.447  15.197  0.2900 -2.0054 -0.8485
  199MPD1     C 3023   0.988   3.230  10.435  0.1750  0.2948 -0.0503
  199MPD1    C1 3024   0.888   3.222  10.346  0.6307 -0.1501 -0.6852
  199MPD1    C2 3025   0.910   3.303  10.233 -0.0476  0.1877  0.4395
  199MPD1    C3 3026   1.019   3.394  10.217  0.7322  0.3812  0.4948
  199MPD1    C4 3027   1.120   3.383  10.306  0.4252  0.1518 -0.2617
  199MPD1    C5 3028   1.105   3.300  10.417  0.1544 -0.6962  0.2550
  199MPD1     H 3029   0.832   3.317  10.159  1.7500  0.3995 -1.4451
  199MPD1    H1 3030   1.213   3.438  10.295 -0.4107  1.4760 -0.6470
  199MPD1    H2 3031   0.980   3.169  10.524 -4.2654  1.9288  0.6781
  199MPD1    H3 3032   1.187   3.291  10.488 -0.2437 -0.2837  0.7710
  199MPD1     N 3033   1.036   3.495  10.111 -0.0187  0.6141 -0.4354
  199MPD1    H5 3034   1.108   3.566  10.125 -1.1822  1.7346 -0.1576
  199MPD1    N1 3035   0.768   3.155  10.375  0.2200  0.6961  0.1541
  199MPD1    H6 3036   0.720   3.139  10.287  1.1356 -0.2973 -0.1726
  199MPD1    H7 3037   0.787   3.067  10.423  1.6857 -0.0103 -1.6919
  200MPD1     C 3038   3.894   3.656  14.299 -0.2351 -0.4873  0.1958
  200MPD1    C1 3039   3.924   3.715  14.423 -0.2653 -0.3975  0.0666
  200MPD1    C2 3040   4.004   3.653  14.511  0.4917  0.7126 -0.4506
  200MPD1    C3 3041   4.059   3.534  14.477  0.5088 -0.5298  0.6779
  200MPD1    C4 3042   4.046   3.479  14.347 -0.7679  0.2179 -0.6006
  200MPD1    C5 3043   3.963   3.542  14.257  0.4788 -0.2228 -0.0793
  200MPD1     H 3044   4.041   3.704  14.599  0.4127  1.6830 -0.9837
  200MPD1    H1 3045   4.096   3.393  14.303  1.5616 -0.1947  2.7970
  200MPD1    H2 3046   3.841   3.700  14.215  1.2090  1.1105  0.1024
  200MPD1    H3 3047   3.947   3.499  14.159  1.3781 -2.2651  0.6847
  200MPD1     N 3048   4.154   3.492  14.567 -0.4300  0.1578  0.5775
  200MPD1    H5 3049   4.173   3.553  14.646  1.7620 -1.3576  1.2145
  200MPD1    N1 3050   3.894   3.856  14.442 -0.2526  0.0532 -0.0290
  200MPD1    H6 3051   3.881   3.889  14.537 -1.8537  0.7606 -0.4901
  200MPD1    H7 3052   3.807   3.880  14.395  0.6386  0.3153 -1.5449
  201MPD1     C 3053   1.575   3.050  12.811  0.1049  0.2960  0.4337
  201MPD1    C1 3054   1.534   2.945  12.729 -0.1599  0.3514 -0.0782
  201MPD1    C2 3055   1.554   2.817  12.789  0.8586 -0.0898 -0.0051
  201MPD1    C3 3056   1.597   2.798  12.920 -0.5769  0.0712  0.5783
  201MPD1    C4 3057   1.638   2.906  12.995  0.4137 -0.1872 -0.0276
  201MPD1    C5 3058   1.627   3.031  12.935  0.0835  0.0968  0.4528
  201MPD1     H 3059   1.544   2.722  12.739  1.6788 -1.5809  2.6772
  201MPD1    H1 3060   1.685   2.896  13.092  0.5907  0.1510 -0.0776
  201MPD1    H2 3061   1.567   3.154  12.781  1.7359  0.4260  0.4776
  201MPD1    H3 3062   1.661   3.116  12.993  0.9965  1.3588 -1.9488
  201MPD1     N 3063   1.615   2.664  12.962  0.2312  0.0911 -0.2234
  201MPD1    H5 3064   1.572   2.594  12.902  1.1696 -0.8707  0.2081
  201MPD1    N1 3065   1.472   2.964  12.606  0.7535  0.1416 -0.0646
  201MPD1    H6 3066   1.482   2.882  12.546 -0.0208  0.8490 -1.1518
  201MPD1    H7 3067   1.495   3.046  12.549 -0.7227  0.6001  0.0145
  202MPD1     C 3068   1.413   2.028  10.113 -0.4720 -0.2502  0.1366
  202MPD1    C1 3069   1.415   2.157  10.069  0.0475  0.1941 -0.1321
  202MPD1    C2 3070   1.513   2.181   9.974 -0.8909  0.2948  0.4988
  202MPD1    C3 3071   1.623   2.102   9.973 -0.7582  0.1780 -0.0808
  202MPD1    C4 3072   1.621   1.974  10.028  0.2577 -0.0644 -0.1944
  202MPD1    C5 3073   1.508   1.933  10.094 -0.2549  0.0072 -0.5283
  202MPD1     H 3074   1.508   2.274   9.918 -0.9654  0.0257  0.0605
  202MPD1    H1 3075   1.708   1.910  10.017 -0.0616 -0.2660 -1.4108
  202MPD1    H2 3076   1.324   1.997  10.166  0.4479 -1.2526  1.1049
  202MPD1    H3 3077   1.499   1.827  10.117 -0.7144 -0.2034 -1.7161
  202MPD1     N 3078   1.749   2.144   9.919  0.3987 -0.4812 -0.0520
  202MPD1    H5 3079   1.822   2.073   9.909  2.8967  1.8288  1.9765
  202MPD1    N1 3080   1.294   2.218  10.052 -0.1175 -0.4855  0.5633
  202MPD1    H6 3081   1.303   2.315  10.023  0.7766 -0.8598 -0.4703
  202MPD1    H7 3082   1.234   2.212  10.134 -0.4761  0.0753  0.3410
  203MPD1     C 3083   1.280   3.156  13.679 -0.0231 -0.5638  0.0194
  203MPD1    C1 3084   1.309   3.021  13.688  0.8325 -0.2061  0.6431
  203MPD1    C2 3085   1.258   2.934  13.590  0.0348 -0.1847  0.0585
  203MPD1    C3 3086   1.159   2.983  13.511 -0.3444  0.8067 -0.2228
  203MPD1    C4 3087   1.115   3.113  13.516  0.8602  0.4861  0.1202
  203MPD1    C5 3088   1.178   3.199  13.602  0.1587 -0.0883  0.5306
  203MPD1     H 3089   1.282   2.828  13.596  2.3614  0.3167 -0.5933
  203MPD1    H1 3090   1.033   3.155  13.459 -1.2007 -1.1075  1.9137
  203MPD1    H2 3091   1.329   3.230  13.743  0.7799 -0.8438 -0.2653
  203MPD1    H3 3092   1.150   3.304  13.613  2.4859  0.6335 -0.5120
  203MPD1     N 3093   1.085   2.891  13.427 -0.0483 -0.2554  0.0303
  203MPD1    H5 3094   1.102   2.791  13.438 -2.3321 -0.7339 -0.7736
  203MPD1    N1 3095   1.417   2.981  13.767 -0.2353 -0.0801  0.1009
  203MPD1    H6 3096   1.433   3.042  13.847 -0.6513 -3.4243  2.7497
  203MPD1    H7 3097   1.400   2.886  13.800  1.9164 -0.1477  1.0557
  204MPD1     C 3098   4.338   4.238   0.224 -0.0915  0.7692 -0.9961
  204MPD1    C1 3099   4.442   4.233   0.128 -0.1976 -0.0501 -0.0307
  204MPD1    C2 3100   4.497   4.114   0.083 -0.0164 -0.5772 -0.2983
  204MPD1    C3 3101   4.456   3.997   0.135 -0.4130 -0.2397 -0.8503
  204MPD1    C4 3102   4.351   3.997   0.231 -0.8551 -0.3826 -0.2581
  204MPD1    C5 3103   4.296   4.115   0.271  0.3003 -0.2899 -1.1742
  204MPD1     H 3104   4.566   4.112  17.703  0.0493 -0.1665 -0.2555
  204MPD1    H1 3105   4.303   3.915   0.282  2.4393 -0.7845  2.1983
  204MPD1    H2 3106   4.294   4.331   0.259 -0.8994 -0.2225  0.6373
  204MPD1    H3 3107   4.220   4.118   0.349 -0.4345  1.0835 -1.9452
  204MPD1     N 3108   4.510   3.879   0.083 -0.7307  0.4145  0.0503
  204MPD1    H5 3109   4.562   3.897  17.702 -0.7488  0.6792  0.0939
  204MPD1    N1 3110   4.485   4.354   0.062 -0.1707 -0.0490  0.6893
  204MPD1    H6 3111   4.580   4.345   0.025 -0.3231 -1.7181  0.6753
  204MPD1    H7 3112   4.459   4.432   0.121 -1.6695 -0.3411  0.3977
  205MPD1     C 3113   0.630   2.532  17.062 -0.3159 -0.6032  0.8776
  205MPD1    C1 3114   0.611   2.666  17.101 -0.0040 -0.7090 -0.0579
  205MPD1    C2 3115   0.570   2.689  17.233 -0.6790 -0.2286 -0.3742
  205MPD1    C3 3116   0.559   2.583  17.322  0.4463 -0.0672  0.9102
  205MPD1    C4 3117   0.583   2.453  17.285  0.8411  0.8455 -0.1070
  205MPD1    C5 3118   0.617   2.432  17.154  0.0942 -0.6074  0.7009
  205MPD1     H 3119   0.556   2.790  17.271  0.2363  0.1214 -0.9716
  205MPD1    H1 3120   0.575   2.369  17.353  0.2143 -0.3891 -1.7024
  205MPD1    H2 3121   0.649   2.512  16.957 -0.9176 -0.4792  0.7507
  205MPD1    H3 3122   0.644   2.332  17.121 -1.9289 -1.4529  1.5864
  205MPD1     N 3123   0.539   2.597  17.455 -0.0424  0.5917  0.0324
  205MPD1    H5 3124   0.553   2.522  17.522 -0.2644 -0.8067 -1.5038
  205MPD1    N1 3125   0.608   2.772  17.012 -1.0173  0.0624 -0.1098
  205MPD1    H6 3126   0.667   2.759  16.930 -2.3922  0.1986 -1.1196
  205MPD1    H7 3127   0.626   2.865  17.048  0.6391  0.0180 -0.8298
  206MPD1     C 3128   4.603   0.496  16.146 -0.1898  0.2372  0.0110
  206MPD1    C1 3129   4.597   0.563  16.022 -0.3325  0.2920 -0.6301
  206MPD1    C2 3130   4.638   0.488  15.911 -0.2982 -0.2518 -0.0565
  206MPD1    C3 3131   4.681   0.360  15.923  0.0525 -0.6429  0.4299
  206MPD1    C4 3132   4.676   0.300  16.047 -0.7917  0.3145 -1.0340
  206MPD1    C5 3133   4.632   0.364  16.160  0.0478  0.0148 -0.4141
  206MPD1     H 3134   4.630   0.539  15.815  1.5430  0.9450  0.4242
  206MPD1    H1 3135   4.713   0.199  16.058  0.1044  0.9227  1.6429
  206MPD1    H2 3136   4.587   0.554  16.237  0.7821  1.1530 -0.4055
  206MPD1    H3 3137   4.636   0.327  16.262  0.2401  0.3964 -0.2793
  206MPD1     N 3138   4.721   0.282  15.810 -0.4246 -0.0831  0.2882
  206MPD1    H5 3139   0.032   0.190  15.832 -1.4247  0.2231  3.1618
  206MPD1    N1 3140   4.563   0.702  16.011  0.7909  0.1544  0.0629
  206MPD1    H6 3141   4.643   0.765  16.009  1.2227 -0.3981 -0.1134
  206MPD1    H7 3142   4.519   0.711  15.920  0.2905  2.5427  0.5280
  207MPD1     C 3143   2.070   3.571   9.914  0.1179  0.4171  0.5794
  207MPD1    C1 3144   2.161   3.472   9.925 -0.4877 -0.3169 -0.6268
  207MPD1    C2 3145   2.299   3.501   9.946  0.2316 -0.1670 -0.1048
  207MPD1    C3 3146   2.342   3.634   9.957  0.3073  0.3079 -0.1617
  207MPD1    C4 3147   2.240   3.726   9.942  0.6265  0.1277 -0.7942
  207MPD1    C5 3148   2.110   3.698   9.924  0.8453  0.2151 -0.2199
  207MPD1     H 3149   2.372   3.422   9.962  0.7008  0.3187  0.1339
  207MPD1    H1 3150   2.260   3.832   9.953 -0.4720  0.2156  0.2673
  207MPD1    H2 3151   1.963   3.556   9.902  0.1707 -0.9064  1.8093
  207MPD1    H3 3152   2.037   3.778   9.920  0.1574 -0.3187  1.9627
  207MPD1     N 3153   2.471   3.687   9.970  0.3811 -0.1308  0.0321
  207MPD1    H5 3154   2.475   3.787   9.983  0.8748  0.3049 -3.3344
  207MPD1    N1 3155   2.120   3.344   9.887 -1.1829 -0.4273 -0.2256
  207MPD1    H6 3156   2.023   3.327   9.913  0.2133 -1.9677  3.9143
  207MPD1    H7 3157   2.190   3.272   9.903 -0.3896  0.6251  1.0429
  208MPD1     C 3158   0.711   1.858  16.900  0.0663 -0.3256  0.6441
  208MPD1    C1 3159   0.664   1.949  16.992  0.5000  0.3756 -0.5046
  208MPD1    C2 3160   0.672   1.924  17.126  0.2109 -0.2280  0.3880
  208MPD1    C3 3161   0.733   1.808  17.175  0.1957  0.0335  0.1071
  208MPD1    C4 3162   0.770   1.715  17.078  0.1332 -0.0432 -0.5314
  208MPD1    C5 3163   0.768   1.744  16.944  0.1684 -0.3938 -0.2776
  208MPD1     H 3164   0.625   1.990  17.198 -2.1166  0.6878 -1.9469
  208MPD1    H1 3165   0.831   1.634  17.115 -0.1794 -0.4447 -0.8934
  208MPD1    H2 3166   0.714   1.868  16.792  2.1515 -0.3587  0.7039
  208MPD1    H3 3167   0.798   1.668  16.872  5.3124 -0.6656  2.1286
  208MPD1     N 3168   0.754   1.798  17.313 -0.1620 -0.2760 -0.5503
  208MPD1    H5 3169   0.711   1.868  17.372 -0.9589  1.1675 -2.8230
  208MPD1    N1 3170   0.620   2.075  16.949  0.1281 -0.4082  0.2463
  208MPD1    H6 3171   0.569   2.074  16.860  1.6872  0.3122 -0.6463
  208MPD1    H7 3172   0.560   2.125  17.015 -0.9789 -0.6832 -0.5525
  209MPD1     C 3173   3.202   3.959  11.449 -0.5234 -0.7020  0.3187
  209MPD1    C1 3174   3.103   3.968  11.352 -0.7930 -0.3360  0.7705
  209MPD1    C2 3175   3.099   3.876  11.250 -0.1956  0.0907  0.2523
  209MPD1    C3 3176   3.191   3.766  11.249  0.3817 -0.1965 -0.7143
  209MPD1    C4 3177   3.285   3.758  11.356  0.5993 -0.5444  0.0365
  209MPD1    C5 3178   3.287   3.855  11.449 -0.4969  0.5625  0.2289
  209MPD1     H 3179   3.021   3.893  11.177 -1.0172 -0.7117  0.9324
  209MPD1    H1 3180   3.363   3.683  11.355  1.5102  0.4435 -2.7272
  209MPD1    H2 3181   3.222   4.043  11.515  0.7475 -0.2414 -0.6531
  209MPD1    H3 3182   3.375   3.847  11.512  1.0454 -1.8969 -2.2012
  209MPD1     N 3183   3.184   3.675  11.143  0.3047 -0.4491  0.8343
  209MPD1    H5 3184   3.110   3.676  11.074 -1.2470  1.2623  2.5470
  209MPD1    N1 3185   3.039   4.091  11.339 -0.8089  0.4047 -0.1919
  209MPD1    H6 3186   3.033   4.150  11.422 -0.6135  0.0591  0.0678
  209MPD1    H7 3187   2.955   4.087  11.282 -0.5435 -0.8802 -0.4979
  210MPD1     C 3188   3.467   2.700  10.732  0.1567 -0.2765 -0.2719
  210MPD1    C1 3189   3.471   2.744  10.862  0.0048 -0.1058  0.3130
  210MPD1    C2 3190   3.419   2.867  10.889 -0.3687 -0.8312 -0.8291
  210MPD1    C3 3191   3.356   2.941  10.795 -0.5605 -0.4524 -0.7273
  210MPD1    C4 3192   3.342   2.888  10.669  0.2115  0.0423  0.1921
  210MPD1    C5 3193   3.396   2.762  10.638  0.3131 -0.0535 -0.4742
  210MPD1     H 3194   3.441   2.904  10.989 -4.6927  0.1444 -0.2503
  210MPD1    H1 3195   3.283   2.939  10.594  0.3940 -0.4551 -0.2880
  210MPD1    H2 3196   3.513   2.605  10.708 -0.5024 -0.9523  1.1357
  210MPD1    H3 3197   3.399   2.733  10.534 -1.4096  1.1952 -0.8752
  210MPD1     N 3198   3.296   3.065  10.814 -0.0380  0.0905 -0.1729
  210MPD1    H5 3199   3.261   3.096  10.724  0.5339 -0.2868 -0.5311
  210MPD1    N1 3200   3.549   2.671  10.957  0.0290 -0.1542  0.6801
  210MPD1    H6 3201   3.538   2.571  10.941  0.9191 -0.3533  1.3659
  210MPD1    H7 3202   3.518   2.689  11.052  1.1555 -0.0172  1.0097
  211MPD1     C 3203   0.814   2.828  15.804  0.3600  0.1252 -0.0973
  211MPD1    C1 3204   0.687   2.859  15.752  0.2115 -0.4481  0.2297
  211MPD1    C2 3205   0.582   2.814  15.825  0.6268  0.5563 -0.5300
  211MPD1    C3 3206   0.586   2.726  15.935  0.3166 -0.8106 -0.1507
  211MPD1    C4 3207   0.712   2.680  15.977  0.5341 -0.0298 -0.7168
  211MPD1    C5 3208   0.817   2.749  15.919 -0.6084 -0.1557  0.4545
  211MPD1     H 3209   0.480   2.848  15.808  0.2576  0.6395  1.7659
  211MPD1    H1 3210   0.724   2.611  16.060 -2.0004 -0.4531 -0.7074
  211MPD1    H2 3211   0.908   2.854  15.758  0.4529 -1.8719 -1.0586
  211MPD1    H3 3212   0.914   2.717  15.955 -0.0944  0.8049 -0.0758
  211MPD1     N 3213   0.466   2.698  16.007 -0.1213  0.0914  0.4353
  211MPD1    H5 3214   0.380   2.742  15.975  0.1760 -0.9576 -1.7837
  211MPD1    N1 3215   0.668   2.952  15.650  0.5183  0.1271 -0.7878
  211MPD1    H6 3216   0.579   2.950  15.600  0.2315  0.7467 -0.3049
  211MPD1    H7 3217   0.734   2.942  15.573  0.9332 -1.2921 -0.2443
  212MPD1     C 3218   4.141   0.931  16.869  0.0885  0.2836 -0.0199
  212MPD1    C1 3219   4.063   0.823  16.822 -0.0642 -0.0768 -0.0492
  212MPD1    C2 3220   4.105   0.696  16.858  0.0288 -0.2767 -0.0466
  212MPD1    C3 3221   4.190   0.674  16.957 -0.3814  0.0688 -0.1916
  212MPD1    C4 3222   4.250   0.782  17.017  0.0581  0.2036 -0.3638
  212MPD1    C5 3223   4.233   0.909  16.965 -0.6996 -0.2495 -0.3784
  212MPD1     H 3224   4.056   0.610  16.812 -1.8021  0.5327  0.4017
  212MPD1    H1 3225   4.316   0.769  17.102 -0.4535  0.2944  0.0490
  212MPD1    H2 3226   4.127   1.031  16.828  1.5019  0.1619 -0.8219
  212MPD1    H3 3227   4.284   0.993  17.011 -0.2566 -0.7988  0.1282
  212MPD1     N 3228   4.220   0.544  17.011 -0.2991 -0.0230 -0.6134
  212MPD1    H5 3229   4.257   0.545  17.105  0.6624 -1.4007 -0.9755
  212MPD1    N1 3230   3.967   0.850  16.714  0.2714  0.0820  0.0673
  212MPD1    H6 3231   3.891   0.783  16.712  0.5447 -0.2463  0.5850
  212MPD1    H7 3232   3.931   0.943  16.735 -0.8317 -0.4261  0.4056
  213MPD1     C 3233   2.270   2.366  15.469  0.4007  0.1007  0.2068
  213MPD1    C1 3234   2.410   2.342  15.447  0.9712 -0.1529 -0.4367
  213MPD1    C2 3235   2.431   2.221  15.379 -0.4098 -0.1841 -0.0593
  213MPD1    C3 3236   2.330   2.129  15.362 -0.4186  0.5671  0.2956
  213MPD1    C4 3237   2.205   2.151  15.411  0.8055 -0.2197 -1.1002
  213MPD1    C5 3238   2.172   2.270  15.477 -0.7934 -0.5047  0.0004
  213MPD1     H 3239   2.525   2.204  15.328 -0.1360 -0.2081  0.4628
  213MPD1    H1 3240   2.132   2.072  15.404  1.0634 -0.4858 -0.7718
  213MPD1    H2 3241   2.241   2.463  15.510 -1.2298 -0.8935  1.4292
  213MPD1    H3 3242   2.072   2.295  15.510 -0.0320  0.6221  1.4452
  213MPD1     N 3243   2.359   1.996  15.296 -0.0939 -0.2925 -0.6743
  213MPD1    H5 3244   2.449   1.995  15.249 -0.7837  3.1785 -2.0603
  213MPD1    N1 3245   2.489   2.454  15.422  0.1111 -0.0477 -0.2073
  213MPD1    H6 3246   2.587   2.430  15.417  0.2642 -0.0620  2.6114
  213MPD1    H7 3247   2.472   2.529  15.489 -1.1653  1.9564 -2.7951
  214MPD1     C 3248   2.011   1.036  15.286 -1.0433  0.1546  0.4621
  214MPD1    C1 3249   2.022   1.068  15.150  0.3775 -0.0155  0.2088
  214MPD1    C2 3250   2.079   1.188  15.113 -0.2830 -0.1322  0.3832
  214MPD1    C3 3251   2.108   1.282  15.209 -0.1135  0.2928 -0.5639
  214MPD1    C4 3252   2.079   1.249  15.343 -0.3433  0.0417 -0.6788
  214MPD1    C5 3253   2.028   1.130  15.378 -0.2184 -0.4135 -0.0326
  214MPD1     H 3254   2.105   1.207  15.010 -3.6404 -0.1422 -0.4543
  214MPD1    H1 3255   2.094   1.328  15.415  0.1978 -1.5948  1.0251
  214MPD1    H2 3256   1.976   0.938  15.320 -0.7830  0.6557  2.1992
  214MPD1    H3 3257   2.026   1.111  15.485 -3.2253 -0.4019 -0.0719
  214MPD1     N 3258   2.144   1.416  15.186 -0.5464 -0.2152 -0.8267
  214MPD1    H5 3259   2.164   1.472  15.268 -1.6591  0.3639 -0.9504
  214MPD1    N1 3260   2.005   0.974  15.049 -0.1611 -0.3213 -0.3555
  214MPD1    H6 3261   1.944   0.902  15.086 -1.5780  0.6018 -0.9122
  214MPD1    H7 3262   1.966   1.021  14.967  0.5624  1.0711  0.1041
  215MPD1     C 3263   1.692   2.892  11.377 -0.0085  0.1846 -0.0673
  215MPD1    C1 3264   1.704   2.970  11.490  0.5461 -0.1960  0.2354
  215MPD1    C2 3265   1.813   3.053  11.490  0.0134  0.6669  0.4277
  215MPD1    C3 3266   1.901   3.069  11.385 -0.2181  0.4374  0.3594
  215MPD1    C4 3267   1.878   3.003  11.268 -0.1234 -1.2006 -0.8165
  215MPD1    C5 3268   1.774   2.917  11.271  0.7412 -0.1581  0.2368
  215MPD1     H 3269   1.826   3.108  11.582  0.5404 -0.3173  0.9400
  215MPD1    H1 3270   1.932   3.022  11.175  1.1731 -0.2036  0.1382
  215MPD1    H2 3271   1.630   2.805  11.359 -1.0235  0.6669  1.0526
  215MPD1    H3 3272   1.751   2.871  11.175  0.0224 -1.9498  1.2751
  215MPD1     N 3273   2.009   3.161  11.407  0.5870  0.1401  0.3792
  215MPD1    H5 3274   2.039   3.190  11.500  1.2130  0.6416  0.0253
  215MPD1    N1 3275   1.627   2.953  11.603  0.8975 -0.2493 -0.1861
  215MPD1    H6 3276   1.536   2.908  11.594 -1.0777  4.1938 -2.0774
  215MPD1    H7 3277   1.603   3.044  11.641  0.5258 -0.2889 -0.3268
  216MPD1     C 3278   4.437   0.317  16.603 -0.0654 -0.3872 -0.0847
  216MPD1    C1 3279   4.429   0.208  16.525  0.1032 -0.3438 -0.7552
  216MPD1    C2 3280   4.476   0.088  16.583  0.2942  0.5621  0.6262
  216MPD1    C3 3281   4.538   0.082  16.708 -0.2856 -0.5175 -0.1792
  216MPD1    C4 3282   4.559   0.207  16.771  0.2169 -0.2119 -0.2017
  216MPD1    C5 3283   4.501   0.315  16.722  0.1142  0.4046 -0.6640
  216MPD1     H 3284   4.470   4.721  16.526 -1.6523  0.6000  0.7653
  216MPD1    H1 3285   4.605   0.217  16.869 -0.0245 -2.3232  0.1227
  216MPD1    H2 3286   4.408   0.416  16.569  0.4687 -0.5332 -0.9609
  216MPD1    H3 3287   4.503   0.406  16.782  0.6451 -0.9492  1.3756
  216MPD1     N 3288   4.583   4.679  16.764 -0.0369 -0.6543  0.3320
  216MPD1    H5 3289   4.555   4.604  16.701  1.8111 -0.6520 -0.4870
  216MPD1    N1 3290   4.380   0.214  16.389  0.4406 -0.4632  0.0285
  216MPD1    H6 3291   4.339   0.127  16.357 -1.0915 -0.0858  0.9154
  216MPD1    H7 3292   4.315   0.292  16.376 -0.8186 -1.1146  2.4148
  217MPD1     C 3293   2.031   0.913  10.146 -0.3292  0.6973 -0.3034
  217MPD1    C1 3294   2.041   1.024  10.231 -0.5039 -0.1732  0.4582
  217MPD1    C2 3295   2.080   1.143  10.177  0.8426 -0.1587  0.7353
  217MPD1    C3 3296   2.079   1.159  10.043 -0.0341  0.0319  0.2916
  217MPD1    C4 3297   2.066   1.055   9.957  0.0624 -0.7134 -0.1036
  217MPD1    C5 3298   2.039   0.930  10.014  0.0098 -0.3680 -0.7437
  217MPD1     H 3299   2.103   1.231  10.237  0.9799 -0.1822  0.7155
  217MPD1    H1 3300   2.052   1.059   9.850  0.6512  0.5349 -0.1358
  217MPD1    H2 3301   2.022   0.813  10.187 -0.5201  1.0980  0.6479
  217MPD1    H3 3302   2.033   0.840   9.954  1.6260 -0.1321 -1.2619
  217MPD1     N 3303   2.082   1.288   9.977  0.2779 -0.5449 -0.0917
  217MPD1    H5 3304   2.059   1.297   9.879  0.3822  0.5745 -0.0135
  217MPD1    N1 3305   2.043   1.003  10.366  0.2298 -0.2211  0.0502
  217MPD1    H6 3306   1.970   0.932  10.373  0.5717 -0.6903 -1.0826
  217MPD1    H7 3307   2.003   1.080  10.419 -2.2546 -1.5216  0.0653
  218MPD1     C 3308   1.972   3.117  13.256  0.3341 -0.3029 -0.8809
  218MPD1    C1 3309   1.951   2.986  13.222  0.4494  0.1071 -0.1827
  218MPD1    C2 3310   2.044   2.942  13.128  0.3463 -0.5929 -0.2181
  218MPD1    C3 3311   2.135   3.022  13.067 -0.0185 -0.0398 -0.3322
  218MPD1    C4 3312   2.140   3.155  13.103 -0.2416 -0.4403  0.2098
  218MPD1    C5 3313   2.059   3.206  13.201 -0.3474  0.1083 -0.4223
  218MPD1     H 3314   2.049   2.836  13.104 -1.4477 -0.4058 -1.4311
  218MPD1    H1 3315   2.205   3.221  13.046 -1.5179  1.2071  0.6795
  218MPD1    H2 3316   1.904   3.163  13.327  1.5704  0.0102  0.0987
  218MPD1    H3 3317   2.064   3.312  13.219  0.1640 -0.0498  0.3454
  218MPD1     N 3318   2.234   2.964  12.987 -0.1312  0.1944  0.2525
  218MPD1    H5 3319   2.242   2.863  12.987  0.6600  0.2577  0.3747
  218MPD1    N1 3320   1.859   2.898  13.287  0.3141  0.2977  0.2449
  218MPD1    H6 3321   1.829   2.813  13.241 -1.5511  1.2320 -0.2677
  218MPD1    H7 3322   1.781   2.954  13.320 -0.0376 -0.3898  0.5587
  219MPD1     C 3323   2.765   3.263  12.163  0.3769 -0.0628  0.0568
  219MPD1    C1 3324   2.836   3.150  12.202 -0.4879  0.0043 -0.5270
  219MPD1    C2 3325   2.785   3.077  12.314 -0.2127 -0.1218  0.5131
  219MPD1    C3 3326   2.665   3.124  12.380  0.4419 -0.1401 -0.0524
  219MPD1    C4 3327   2.591   3.221  12.320  0.6729  0.3013  0.2914
  219MPD1    C5 3328   2.643   3.294  12.220 -0.3626 -0.1627  0.5739
  219MPD1     H 3329   2.846   3.002  12.362 -1.1507 -0.9346  0.4399
  219MPD1    H1 3330   2.501   3.261  12.366  1.2035  0.3686  1.2699
  219MPD1    H2 3331   2.811   3.317  12.080  0.0353  1.2944  0.7501
  219MPD1    H3 3332   2.590   3.383  12.189 -1.9622 -1.5919 -0.8455
  219MPD1     N 3333   2.603   3.061  12.493 -0.0354  0.0921 -0.6314
  219MPD1    H5 3334   2.525   3.115  12.530  0.8233  2.0431 -1.6468
  219MPD1    N1 3335   2.954   3.102  12.140 -0.0862 -0.2181  0.0449
  219MPD1    H6 3336   3.020   3.177  12.119  0.0223  0.2340  1.9531
  219MPD1    H7 3337   2.999   3.020  12.179 -0.9220 -0.2431  0.9618
  220MPD1     C 3338   1.726   4.257  10.143 -0.2450 -0.4889  0.2782
  220MPD1    C1 3339   1.843   4.266  10.217 -0.1678 -0.5420  1.2036
  220MPD1    C2 3340   1.910   4.146  10.225  0.0469  0.8737  0.4664
  220MPD1    C3 3341   1.862   4.023  10.173 -0.4082 -0.3194  0.5184
  220MPD1    C4 3342   1.752   4.026  10.096 -0.5828 -0.1830  0.1355
  220MPD1    C5 3343   1.693   4.139  10.073 -0.4359  0.2157  0.3808
  220MPD1     H 3344   2.003   4.152  10.280  0.7739 -0.3312 -0.6483
  220MPD1    H1 3345   1.711   3.946  10.035 -2.0752  1.1122 -0.5409
  220MPD1    H2 3346   1.662   4.345  10.144 -0.5345 -0.7258  1.8851
  220MPD1    H3 3347   1.610   4.144  10.005  0.1774  0.6674 -0.3359
  220MPD1     N 3348   1.935   3.906  10.211  0.2495 -0.0403 -0.5317
  220MPD1    H5 3349   2.026   3.912  10.257  0.0369 -0.3125 -0.0763
  220MPD1    N1 3350   1.882   4.394  10.261 -0.1594 -0.4732  0.3182
  220MPD1    H6 3351   1.939   4.375  10.342 -0.4055 -1.4291  0.2633
  220MPD1    H7 3352   1.804   4.453  10.290 -0.5297 -1.4426  1.2683
  221MPD1     C 3353   4.717   2.634  15.506  0.3813  0.9749 -0.2500
  221MPD1    C1 3354   0.104   2.563  15.514  0.3381  0.0156 -0.4098
  221MPD1    C2 3355   0.101   2.436  15.575  0.2493 -0.1045  0.8035
  221MPD1    C3 3356   4.712   2.393  15.635  0.0243 -0.3170 -0.2196
  221MPD1    C4 3357   4.597   2.470  15.637  0.2108  0.3531 -0.5820
  221MPD1    C5 3358   4.605   2.593  15.574  0.0051 -0.3902 -0.7565
  221MPD1     H 3359   0.196   2.393  15.602  0.0609 -0.5146  0.8097
  221MPD1    H1 3360   4.507   2.444  15.690 -0.5323  3.6635 -0.1975
  221MPD1    H2 3361   4.715   2.736  15.469 -0.3254  1.3786  0.8889
  221MPD1    H3 3362   4.518   2.658  15.569 -0.6179 -1.1346  0.3245
  221MPD1     N 3363   4.709   2.261  15.691 -0.2318 -0.2510 -0.1511
  221MPD1    H5 3364   4.635   2.240  15.757 -0.3678 -0.8420 -0.5018
  221MPD1    N1 3365   0.219   2.638  15.492 -0.1684  0.5907  0.0632
  221MPD1    H6 3366   0.295   2.594  15.440  2.2526  1.0480  3.2233
  221MPD1    H7 3367   0.197   2.708  15.421 -0.3982  1.2711  0.8172
  222MPD1     C 3368   1.003   1.207  17.547  0.2014 -0.4972  0.0418
  222MPD1    C1 3369   0.927   1.095  17.568 -0.8459  0.0745 -0.1189
  222MPD1    C2 3370   0.823   1.077  17.479  0.4599  0.4271  0.2707
  222MPD1    C3 3371   0.781   1.174  17.389 -0.1545 -0.3033 -0.0274
  222MPD1    C4 3372   0.857   1.297  17.388 -0.3029 -0.3866  0.1808
  222MPD1    C5 3373   0.967   1.311  17.464  0.3059 -0.5062  0.4950
  222MPD1     H 3374   0.777   0.978  17.484  0.3986  0.4538  0.2372
  222MPD1    H1 3375   0.832   1.377  17.319  0.5220  0.6698  1.0984
  222MPD1    H2 3376   1.097   1.219  17.600 -1.1620  1.4605  2.0427
  222MPD1    H3 3377   1.028   1.398  17.444 -1.4897  0.4815 -0.7518
  222MPD1     N 3378   0.668   1.170  17.304  0.2426 -0.0807  0.3708
  222MPD1    H5 3379   0.662   1.253  17.246  0.0266 -1.3455 -1.4454
  222MPD1    N1 3380   0.975   0.982  17.641  0.5304 -0.0778  0.5906
  222MPD1    H6 3381   0.902   0.916  17.667  0.8095 -0.5473  0.1946
  222MPD1    H7 3382   1.036   0.995   0.017 -2.9535 -1.3464  3.4516
  223MPD1     C 3383   0.420   0.615  16.568 -0.2745  0.4276 -0.3102
  223MPD1    C1 3384   0.536   0.663  16.635 -0.5496  0.9836  0.3294
  223MPD1    C2 3385   0.522   0.746  16.741 -0.0022 -0.2085 -0.9314
  223MPD1    C3 3386   0.397   0.776  16.793  0.8700  0.1235  0.2721
  223MPD1    C4 3387   0.285   0.717  16.738 -0.3725 -0.9381 -0.8180
  223MPD1    C5 3388   0.295   0.631  16.624 -0.1142  0.1949  0.5943
  223MPD1     H 3389   0.610   0.800  16.775  0.2625 -0.9987 -0.3592
  223MPD1    H1 3390   0.186   0.740  16.776  0.7533  1.2390  0.8013
  223MPD1    H2 3391   0.428   0.555  16.478 -0.0242 -0.7239  0.4742
  223MPD1    H3 3392   0.207   0.596  16.573 -0.0879  0.2647  0.5010
  223MPD1     N 3393   0.389   0.875  16.890 -0.7411 -0.4777  0.1603
  223MPD1    H5 3394   0.479   0.917  16.913 -0.6383 -0.2579 -0.6417
  223MPD1    N1 3395   0.660   0.657  16.566  0.0029  0.1605 -0.2430
  223MPD1    H6 3396   0.685   0.563  16.536 -0.2715 -0.3244  1.0385
  223MPD1    H7 3397   0.732   0.702  16.621  2.2601 -3.6225 -0.0944
  224MPD1     C 3398   0.807   1.828   9.591  0.3188  0.7727  0.0046
  224MPD1    C1 3399   0.750   1.865   9.708 -0.6334  0.5185 -0.2354
  224MPD1    C2 3400   0.794   1.981   9.770 -0.1088 -0.2608 -0.7367
  224MPD1    C3 3401   0.905   2.055   9.735 -0.1640  0.1971 -0.0134
  224MPD1    C4 3402   0.975   2.005   9.625  0.2987  0.0102  0.4361
  224MPD1    C5 3403   0.928   1.893   9.566  0.1854  0.2687  0.0770
  224MPD1     H 3404   0.737   2.007   9.858  0.9363 -1.3504  0.2729
  224MPD1    H1 3405   1.050   2.072   9.584  1.7151 -3.5149 -2.6849
  224MPD1    H2 3406   0.765   1.755   9.522  3.0452 -0.4484 -0.3416
  224MPD1    H3 3407   0.980   1.861   9.477  1.3411  1.2752  0.4007
  224MPD1     N 3408   0.941   2.183   9.791 -0.3868 -0.0153 -0.1714
  224MPD1    H5 3409   1.020   2.230   9.748  1.1886 -0.2934  2.3878
  224MPD1    N1 3410   0.629   1.811   9.740  0.2734 -0.0814  0.0369
  224MPD1    H6 3411   0.624   1.711   9.721  1.4101  0.0735 -1.0343
  224MPD1    H7 3412   0.613   1.819   9.840  0.7625 -0.7343  0.1636
  225MPD1     C 3413   2.404   4.207  13.103  0.3888 -0.2843  0.1501
  225MPD1    C1 3414   2.403   4.073  13.092 -0.5471 -0.5147  0.4949
  225MPD1    C2 3415   2.364   4.020  12.976  0.6758  0.5949 -0.4329
  225MPD1    C3 3416   2.337   4.097  12.868  0.1492 -0.4467  0.8802
  225MPD1    C4 3417   2.366   4.227  12.876 -0.7711 -0.1096 -0.0926
  225MPD1    C5 3418   2.399   4.281  12.993  0.0989  0.5917  0.3035
  225MPD1     H 3419   2.350   3.913  12.964  0.2737  0.1799  3.8113
  225MPD1    H1 3420   2.340   4.299  12.799  0.1787  0.1968 -0.1286
  225MPD1    H2 3421   2.441   4.249  13.195  1.5589  0.0211 -0.4628
  225MPD1    H3 3422   2.412   4.388  12.993 -1.5168  0.7867  0.3472
  225MPD1     N 3423   2.279   4.048  12.745  0.2623  0.2692 -0.1236
  225MPD1    H5 3424   2.263   4.116  12.671 -2.7374 -0.0336  0.2706
  225MPD1    N1 3425   2.422   3.991  13.207  0.5450  0.2965 -0.0078
  225MPD1    H6 3426   2.480   3.910  13.184 -0.1235  0.3332 -1.8384
  225MPD1    H7 3427   2.486   4.038  13.272  2.8330 -4.5868  1.2735
  226MPD1     C 3428   4.707   4.416   9.437  0.0120  0.2277  0.5917
  226MPD1    C1 3429   0.102   4.381   9.380 -0.1798 -0.0071 -0.0214
  226MPD1    C2 3430   0.149   4.257   9.409 -0.9470  0.7726  0.2548
  226MPD1    C3 3431   0.098   4.171   9.499  0.0502  0.5667  0.2684
  226MPD1    C4 3432   4.713   4.210   9.568 -0.7158 -0.0024 -0.8397
  226MPD1    C5 3433   4.651   4.325   9.524 -0.5849 -0.2243  1.0012
  226MPD1     H 3434   0.233   4.230   9.346 -0.6025 -1.6243  1.7594
  226MPD1    H1 3435   4.673   4.140   9.641  3.1255  0.6441  1.8952
  226MPD1    H2 3436   4.652   4.507   9.414  1.5064  1.1841  0.7885
  226MPD1    H3 3437   4.559   4.358   9.570  0.6116  1.8841  1.8690
  226MPD1     N 3438   0.163   4.051   9.520 -0.6964  0.1569 -0.1688
  226MPD1    H5 3439   0.248   4.039   9.466 -0.0353 -0.0428  0.9102
  226MPD1    N1 3440   0.160   4.465   9.285  0.1704 -0.7120  0.3193
  226MPD1    H6 3441   0.260   4.448   9.286 -0.2225 -3.3889 -3.7889
  226MPD1    H7 3442   0.140   4.562   9.309 -2.3839 -0.9811 -0.7421
  227MPD1     C 3443   0.235   2.996   9.779 -0.2823  0.3748  0.0502
  227MPD1    C1 3444   0.358   3.046   9.807 -0.4497 -1.0128 -0.0144
  227MPD1    C2 3445   0.377   3.177   9.781 -0.8821  0.3966 -0.6054
  227MPD1    C3 3446   0.277   3.255   9.727 -0.6086  0.8446  0.1334
  227MPD1    C4 3447   0.147   3.203   9.728  0.3811 -0.3638 -0.9530
  227MPD1    C5 3448   0.130   3.074   9.758  0.7235  0.9663  0.4829
  227MPD1     H 3449   0.475   3.223   9.782 -0.7902  0.2269 -1.4363
  227MPD1    H1 3450   0.059   3.257   9.695  0.7694  1.3800  0.9019
  227MPD1    H2 3451   0.221   2.889   9.792 -1.2273  0.2501 -2.0712
  227MPD1    H3 3452   0.033   3.026   9.748  1.8864 -1.2002 -0.3814
  227MPD1     N 3453   0.303   3.386   9.686 -0.1717  0.2311 -0.2822
  227MPD1    H5 3454   0.394   3.423   9.711  0.4606 -0.6528 -1.2635
  227MPD1    N1 3455   0.475   2.970   9.837 -0.4423 -0.0518  0.3109
  227MPD1    H6 3456   0.558   3.022   9.867 -0.5294 -0.1518  0.7256
  227MPD1    H7 3457   0.459   2.895   9.903  0.7016  1.1083  1.9184
  228MPD1     C 3458   4.183   0.920  13.192  0.2119 -0.7707 -0.2197
  228MPD1    C1 3459   4.120   1.038  13.160 -0.7683  0.1824  0.1779
  228MPD1    C2 3460   3.985   1.043  13.144 -0.3682 -0.2987 -0.0835
  228MPD1    C3 3461   3.904   0.943  13.189 -1.2199 -0.7721  0.3721
  228MPD1    C4 3462   3.966   0.834  13.250 -0.2233  0.0046 -0.5741
  228MPD1    C5 3463   4.103   0.817  13.239  0.1540  0.0080 -0.3887
  228MPD1     H 3464   3.943   1.127  13.090 -1.4551 -0.9931 -0.3229
  228MPD1    H1 3465   3.910   0.752  13.293 -0.5095  0.0550 -0.8510
  228MPD1    H2 3466   4.288   0.900  13.206  0.4448  0.6393  0.1015
  228MPD1    H3 3467   4.137   0.721  13.277 -0.2559  0.2113  0.4931
  228MPD1     N 3468   3.768   0.944  13.165 -0.1633  0.2177  0.3623
  228MPD1    H5 3469   3.736   1.034  13.130  0.3111  0.5145  0.7043
  228MPD1    N1 3470   4.206   1.147  13.121  0.9410 -0.2204 -0.0628
  228MPD1    H6 3471   4.291   1.146  13.178  0.2984  0.4595  0.8973
  228MPD1    H7 3472   4.167   1.240  13.134 -0.6786 -0.9961  0.5828
  229MPD1     C 3473   3.145   0.189  14.320 -0.5950  0.6200 -0.5347
  229MPD1    C1 3474   3.174   0.245  14.442 -0.1657 -0.4996  1.0028
  229MPD1    C2 3475   3.243   0.165  14.533 -0.7947  0.4156 -0.3954
  229MPD1    C3 3476   3.290   0.042  14.509  0.0382  0.6209 -0.9816
  229MPD1    C4 3477   3.273   4.716  14.377 -0.0187  0.5794  0.2682
  229MPD1    C5 3478   3.194   0.062  14.290  0.7990 -0.6236  0.0312
  229MPD1     H 3479   3.258   0.202  14.634  2.9382  2.3246 -1.6355
  229MPD1    H1 3480   3.326   4.630  14.339  1.0045  0.7391  1.3074
  229MPD1    H2 3481   3.085   0.243  14.248 -1.3777  1.1825  0.5372
  229MPD1    H3 3482   3.185   0.021  14.190 -0.0704  0.9476 -0.5405
  229MPD1     N 3483   3.365   4.686  14.601 -0.1869 -0.0352  0.4023
  229MPD1    H5 3484   3.381   4.592  14.565  0.5406  1.1753 -2.4506
  229MPD1    N1 3485   3.110   0.363  14.483 -0.0517  0.3737  0.0127
  229MPD1    H6 3486   3.161   0.417  14.553 -1.3383  0.6609  0.7274
  229MPD1    H7 3487   3.088   0.435  14.414 -1.6514 -0.7073 -0.5829
  230MPD1     C 3488   3.982   4.562  15.469 -0.0867 -0.0172  0.0850
  230MPD1    C1 3489   3.953   4.437  15.434 -0.1899 -0.1148 -0.3457
  230MPD1    C2 3490   3.852   4.407  15.348  0.1885  0.4278  0.0447
  230MPD1    C3 3491   3.776   4.515  15.299 -0.3053  0.0366  0.2558
  230MPD1    C4 3492   3.809   4.650  15.337 -0.2157 -0.1486 -0.1583
  230MPD1    C5 3493   3.913   4.665  15.423 -0.3127  0.4628  0.2834
  230MPD1     H 3494   3.814   4.307  15.329  1.4020 -0.0961  0.3819
  230MPD1    H1 3495   3.751   0.009  15.302 -1.0574 -1.2572 -1.4402
  230MPD1    H2 3496   4.068   4.584  15.531  0.3633  1.3633 -1.0312
  230MPD1    H3 3497   3.942   0.038  15.456 -0.6737  0.3078  1.0684
  230MPD1     N 3498   3.675   4.490  15.199 -0.9345 -0.5433 -0.8407
  230MPD1    H5 3499   3.653   4.394  15.176 -0.7787 -1.2203  1.8463
  230MPD1    N1 3500   4.012   4.333  15.508  0.2147  0.6294 -0.0025
  230MPD1    H6 3501   4.100   4.367  15.545  0.2212 -0.5096  1.0254
  230MPD1    H7 3502   4.034   4.254  15.448  2.2917 -0.2636  1.9234
  231MPD1     C 3503   1.417   1.556  15.538 -0.0731 -0.2587  0.1014
  231MPD1    C1 3504   1.393   1.494  15.418  0.2647 -0.1652  0.4973
  231MPD1    C2 3505   1.473   1.524  15.315  0.7429 -0.3640 -0.2168
  231MPD1    C3 3506   1.579   1.605  15.323  0.0865 -0.5593 -0.0516
  231MPD1    C4 3507   1.612   1.662  15.446 -0.0979  0.1249  0.3904
  231MPD1    C5 3508   1.526   1.646  15.545 -0.2802  0.4340  0.0027
  231MPD1     H 3509   1.456   1.473  15.221 -2.0081  1.6023 -0.7780
  231MPD1    H1 3510   1.697   1.728  15.460 -0.0876  0.3897 -0.9911
  231MPD1    H2 3511   1.343   1.536  15.614 -0.3337  1.6911  0.3623
  231MPD1    H3 3512   1.551   1.690  15.641  2.2629 -2.8122  0.8202
  231MPD1     N 3513   1.651   1.643  15.206  0.1722  0.5028 -0.3379
  231MPD1    H5 3514   1.614   1.608  15.119  0.5532  2.2440 -1.1966
  231MPD1    N1 3515   1.306   1.384  15.407  0.1225 -0.2632 -0.0275
  231MPD1    H6 3516   1.211   1.410  15.434  0.4843  0.5227  0.4957
  231MPD1    H7 3517   1.298   1.363  15.308  1.6102  0.9521 -0.4220
  232MPD1     C 3518   4.256   3.356   1.502 -0.1718 -0.1458 -0.1895
  232MPD1    C1 3519   4.135   3.307   1.536  0.2383 -0.2587 -0.1802
  232MPD1    C2 3520   4.016   3.340   1.466  0.1527  0.4343 -0.2641
  232MPD1    C3 3521   4.028   3.422   1.357  0.4508 -0.2977  0.0390
  232MPD1    C4 3522   4.147   3.486   1.342  0.5593 -0.7059 -0.9773
  232MPD1    C5 3523   4.262   3.448   1.407  0.4233 -0.8833  0.7200
  232MPD1     H 3524   3.918   3.304   1.494  0.8598 -0.0505  1.6180
  232MPD1    H1 3525   4.177   3.550   1.260  0.1192 -1.0710 -1.4214
  232MPD1    H2 3526   4.349   3.325   1.549  0.0718 -0.1529 -0.6769
  232MPD1    H3 3527   4.357   3.486   1.374  1.0031 -1.6138  1.5596
  232MPD1     N 3528   3.920   3.443   1.268  1.4011  0.7690  0.1257
  232MPD1    H5 3529   3.834   3.390   1.279  1.1649  0.7304 -1.8057
  232MPD1    N1 3530   4.145   3.201   1.625  0.0076  0.1520  0.0649
  232MPD1    H6 3531   4.216   3.213   1.697  0.0246 -2.8623  0.5684
  232MPD1    H7 3532   4.058   3.183   1.674  0.9334 -0.0277  1.6464
  233MPD1     C 3533   1.084   3.309   1.179  0.5634 -0.1335  0.8420
  233MPD1    C1 3534   1.018   3.245   1.288 -0.1919  0.5581 -0.4722
  233MPD1    C2 3535   0.958   3.123   1.264 -0.8719 -0.2087 -0.1828
  233MPD1    C3 3536   0.975   3.059   1.143 -1.1279 -0.9133 -0.3951
  233MPD1    C4 3537   1.050   3.122   1.046 -0.4874  0.3748  0.7413
  233MPD1    C5 3538   1.088   3.247   1.060 -0.5181  0.3882 -0.5522
  233MPD1     H 3539   0.912   3.079   1.351 -1.2499  2.1090  0.8106
  233MPD1    H1 3540   1.077   3.077   0.951 -2.3236 -0.6446  0.6916
  233MPD1    H2 3541   1.125   3.408   1.190 -0.0958  0.4408 -1.7437
  233MPD1    H3 3542   1.148   3.298   0.985  1.0701 -1.1035 -0.2917
  233MPD1     N 3543   0.936   2.928   1.116  0.8033 -0.8875  0.4442
  233MPD1    H5 3544   0.956   2.886   1.026  1.0182  0.3071 -0.0666
  233MPD1    N1 3545   0.985   3.309   1.402 -0.1568  0.4791  0.3579
  233MPD1    H6 3546   0.965   3.236   1.471  1.6901 -1.4100 -1.1112
  233MPD1    H7 3547   1.054   3.370   1.445 -1.0827  0.4130  1.9329
  234MPD1     C 3548   2.451   3.282  10.490  0.7092  0.0494  1.0073
  234MPD1    C1 3549   2.407   3.290  10.357 -1.0871  0.6941  0.1638
  234MPD1    C2 3550   2.344   3.182  10.312  0.0233 -1.0342 -0.1710
  234MPD1    C3 3551   2.307   3.075  10.384  0.4262 -0.2831 -0.1483
  234MPD1    C4 3552   2.330   3.074  10.521 -1.6659 -0.4646 -0.6353
  234MPD1    C5 3553   2.406   3.181  10.572  0.0097 -0.1887  0.1157
  234MPD1     H 3554   2.309   3.178  10.209  0.6338 -0.1238 -0.4158
  234MPD1    H1 3555   2.300   2.990  10.584 -1.4586  0.1824  0.3283
  234MPD1    H2 3556   2.504   3.366  10.533  1.8801 -1.1308  1.8654
  234MPD1    H3 3557   2.426   3.192  10.678  1.6708  0.1148 -0.2229
  234MPD1     N 3558   2.236   2.981  10.310 -0.8024 -0.2637  0.3955
  234MPD1    H5 3559   2.219   3.008  10.214  0.9442  0.5744  0.3328
  234MPD1    N1 3560   2.449   3.391  10.270  0.2311 -0.8613 -0.0931
  234MPD1    H6 3561   2.396   3.409  10.186 -0.4354  2.3523  1.0119
  234MPD1    H7 3562   2.467   3.481  10.315  2.2957  0.8715 -4.4261
  235MPD1     C 3563   2.405   4.068  10.458  0.1894 -0.0552 -1.1502
  235MPD1    C1 3564   2.401   4.165  10.365  0.2197  0.3385 -0.0277
  235MPD1    C2 3565   2.531   4.198  10.315 -0.3574  0.4855  0.3502
  235MPD1    C3 3566   2.655   4.141  10.354  0.3318 -0.2945 -0.0564
  235MPD1    C4 3567   2.648   4.049  10.450 -0.0564 -0.0304  0.1939
  235MPD1    C5 3568   2.527   4.020  10.508  0.4229  0.2092 -0.3060
  235MPD1     H 3569   2.537   4.274  10.238 -1.7080 -0.9350 -1.1425
  235MPD1    H1 3570   2.737   4.012  10.500  0.7890  1.9642  0.1589
  235MPD1    H2 3571   2.305   4.047  10.493  0.4631 -1.3040 -1.1387
  235MPD1    H3 3572   2.527   3.945  10.586  1.7635 -0.7844 -1.2606
  235MPD1     N 3573   2.769   4.195  10.295 -0.2084  0.2365 -0.1614
  235MPD1    H5 3574   2.752   4.274  10.234  0.0608  0.7142  0.3704
  235MPD1    N1 3575   2.277   4.222  10.312 -0.2283  0.5480 -0.3588
  235MPD1    H6 3576   2.196   4.218  10.374 -0.3537 -0.9217 -0.6138
  235MPD1    H7 3577   2.287   4.308  10.259 -0.5849  1.1484  0.5481
  236MPD1     C 3578   2.837   0.803  10.158  0.0395  0.2628  0.3188
  236MPD1    C1 3579   2.955   0.771  10.224 -0.8846  0.3892  0.0843
  236MPD1    C2 3580   2.954   0.667  10.314 -0.3285 -0.6559  0.0566
  236MPD1    C3 3581   2.844   0.580  10.313  0.0200  0.2483  0.4372
  236MPD1    C4 3582   2.742   0.604  10.227 -0.1204 -0.2317 -0.4606
  236MPD1    C5 3583   2.737   0.721  10.154  0.2061  0.4078  0.0565
  236MPD1     H 3584   3.033   0.655  10.387 -0.6482 -0.6221  0.4099
  236MPD1    H1 3585   2.651   0.545  10.237  0.2201 -0.9511 -1.6740
  236MPD1    H2 3586   2.827   0.893  10.098  0.2297 -0.4052 -0.7159
  236MPD1    H3 3587   2.656   0.744  10.086 -0.2050  1.5584  0.9425
  236MPD1     N 3588   2.832   0.466  10.392  0.2887 -0.2465  0.2021
  236MPD1    H5 3589   2.737   0.440  10.418  0.6153 -0.6431  1.0150
  236MPD1    N1 3590   3.061   0.860  10.221  0.5461  0.2657 -0.2480
  236MPD1    H6 3591   3.157   0.827  10.228 -0.0641 -1.2654  0.9380
  236MPD1    H7 3592   3.065   0.906  10.131  1.5418  3.1941  1.3009
  237MPD1     C 3593   2.180   3.376  15.564  0.3414 -0.1105  0.0295
  237MPD1    C1 3594   2.149   3.326  15.691  0.1463  0.0516  0.1253
  237MPD1    C2 3595   2.071   3.210  15.685  0.1699  0.2477  0.1152
  237MPD1    C3 3596   2.026   3.160  15.565  0.0684  1.1576 -0.6198
  237MPD1    C4 3597   2.049   3.222  15.447 -1.1234  0.1096 -0.4399
  237MPD1    C5 3598   2.127   3.335  15.448  0.3762  0.9303 -0.0528
  237MPD1     H 3599   2.044   3.162  15.778  0.6482 -0.3661 -0.0556
  237MPD1    H1 3600   2.004   3.186  15.356  0.6704 -2.2147 -0.4142
  237MPD1    H2 3601   2.243   3.463  15.551 -1.6149  1.0265 -1.7972
  237MPD1    H3 3602   2.136   3.399  15.361 -0.8762 -0.7267 -1.4054
  237MPD1     N 3603   1.936   3.054  15.550 -0.3612  0.2394 -0.0595
  237MPD1    H5 3604   1.892   3.045  15.459 -1.9003  2.1678  0.4903
  237MPD1    N1 3605   2.215   3.369  15.805 -0.2654  0.0270  0.1860
  237MPD1    H6 3606   2.239   3.465  15.783  0.6691 -0.3780 -0.5442
  237MPD1    H7 3607   2.143   3.367  15.877 -2.3086 -0.4759 -1.8754
  238MPD1     C 3608   3.772   1.390  14.949 -0.1082 -0.3893  0.0709
  238MPD1    C1 3609   3.674   1.337  15.029 -0.6186 -0.0935 -0.3348
  238MPD1    C2 3610   3.548   1.388  15.001 -0.1816 -0.4902  0.0675
  238MPD1    C3 3611   3.520   1.468  14.889 -0.4018  0.0625 -1.2502
  238MPD1    C4 3612   3.621   1.506  14.810  0.0269 -0.0180  0.1016
  238MPD1    C5 3613   3.746   1.475  14.849  0.2057 -0.3277  0.5121
  238MPD1     H 3614   3.473   1.325  15.048 -1.4177  1.3478  0.5535
  238MPD1    H1 3615   3.609   1.580  14.731 -0.4807 -1.1510 -0.8901
  238MPD1    H2 3616   3.876   1.370  14.971  0.4312  1.2272 -0.9329
  238MPD1    H3 3617   3.827   1.524  14.795 -0.3797 -2.0374 -1.8856
  238MPD1     N 3618   3.386   1.501  14.862 -0.3524 -0.0141  0.0868
  238MPD1    H5 3619   3.373   1.515  14.762  0.4798  0.2205  0.0121
  238MPD1    N1 3620   3.691   1.220  15.109  0.7851 -0.2106 -0.0087
  238MPD1    H6 3621   3.626   1.216  15.187  1.5077  0.2127  0.6163
  238MPD1    H7 3622   3.786   1.204  15.142  0.6121 -2.1919 -0.4848
  239MPD1     C 3623   4.040   2.436  14.812 -0.3756 -0.0213 -0.3660
  239MPD1    C1 3624   4.131   2.476  14.724 -0.1338  0.4149  0.2433
  239MPD1    C2 3625   4.094   2.525  14.606  0.2327  0.3869  0.0801
  239MPD1    C3 3626   3.961   2.542  14.565 -0.2092  0.3189 -0.4629
  239MPD1    C4 3627   3.870   2.501  14.656  0.5777 -0.9583 -0.1423
  239MPD1    C5 3628   3.910   2.442  14.776  0.1131 -0.2540 -0.0014
  239MPD1     H 3629   4.170   2.534  14.529 -1.6775  0.7395 -1.7581
  239MPD1    H1 3630   3.767   2.498  14.626  0.0555 -0.6391  1.5870
  239MPD1    H2 3631   4.071   2.391  14.906 -0.2910  2.4899  0.8039
  239MPD1    H3 3632   3.839   2.401  14.847  0.0630  0.6798  0.4956
  239MPD1     N 3633   3.927   2.590  14.437 -0.4022  0.4670 -0.1936
  239MPD1    H5 3634   3.828   2.608  14.424 -0.9133 -2.3196 -0.2189
  239MPD1    N1 3635   4.268   2.471  14.753  0.0942 -0.3242 -0.1414
  239MPD1    H6 3636   4.317   2.449  14.667  1.0712 -1.3500  0.6761
  239MPD1    H7 3637   4.295   2.393  14.813 -0.3288  0.4484  1.0645
  240MPD1     C 3638   2.719   2.553  13.357  0.4475  0.2851 -0.6362
  240MPD1    C1 3639   2.637   2.509  13.460 -0.4970  0.0538 -0.2065
  240MPD1    C2 3640   2.689   2.427  13.555  0.6004  0.4089 -0.5585
  240MPD1    C3 3641   2.817   2.377  13.547  1.3894 -0.7371 -0.0649
  240MPD1    C4 3642   2.896   2.411  13.438  0.2161 -0.7551  0.6175
  240MPD1    C5 3643   2.846   2.498  13.346  0.5608 -0.0811 -0.1447
  240MPD1     H 3644   2.632   2.407  13.645 -0.9869  1.4644 -1.3224
  240MPD1    H1 3645   3.003   2.400  13.445  0.5097  1.4351 -0.1810
  240MPD1    H2 3646   2.688   2.633  13.292  1.3374  1.0191 -0.1440
  240MPD1    H3 3647   2.914   2.532  13.268 -0.8547  0.1048 -1.3162
  240MPD1     N 3648   2.870   2.305  13.658  0.3143  0.1834 -0.3064
  240MPD1    H5 3649   2.809   2.295  13.739  1.4103  0.0603  0.5125
  240MPD1    N1 3650   2.507   2.557  13.476  0.5026  0.0814 -0.2663
  240MPD1    H6 3651   2.472   2.586  13.385  0.9046  1.9917  0.1970
  240MPD1    H7 3652   2.455   2.483  13.523  0.7388  0.0441 -0.0614
  241MPD1     C 3653   3.721   1.954  14.075  0.6012 -0.4267 -0.4252
  241MPD1    C1 3654   3.636   1.848  14.069 -0.3155 -0.1373 -0.0381
  241MPD1    C2 3655   3.507   1.871  14.023 -0.5167  0.0069  0.1250
  241MPD1    C3 3656   3.466   1.993  13.971  0.4346 -0.4397  0.1486
  241MPD1    C4 3657   3.558   2.094  13.979  0.5563  0.1070  0.5551
  241MPD1    C5 3658   3.681   2.081  14.032 -0.8566 -0.0488  0.4812
  241MPD1     H 3659   3.432   1.793  14.027  1.3755 -1.8832 -1.3866
  241MPD1    H1 3660   3.537   2.198  13.956  0.4179  0.0063  0.2414
  241MPD1    H2 3661   3.823   1.942  14.110  0.7048  1.9383  0.1218
  241MPD1    H3 3662   3.756   2.160  14.030  0.4707 -1.3024  1.4116
  241MPD1     N 3663   3.338   2.002  13.916  0.5826  0.3240 -0.0870
  241MPD1    H5 3664   3.304   2.097  13.904 -0.1851  0.0228 -0.2670
  241MPD1    N1 3665   3.663   1.735  14.148  0.5832  0.0128 -0.1093
  241MPD1    H6 3666   3.616   1.648  14.123 -0.6511  1.5977 -3.2995
  241MPD1    H7 3667   3.762   1.714  14.141  0.3276 -1.0164 -0.6422
  242MPD1     C 3668   3.263   0.707  16.162 -0.0874  0.5523  0.2912
  242MPD1    C1 3669   3.159   0.735  16.075 -0.1336 -0.4294  0.3327
  242MPD1    C2 3670   3.141   0.662  15.962 -0.3920 -0.2468  0.2513
  242MPD1    C3 3671   3.240   0.569  15.931  0.4309 -0.0678  0.3893
  242MPD1    C4 3672   3.338   0.540  16.016 -0.4072  0.0903  0.3890
  242MPD1    C5 3673   3.348   0.605  16.133  0.5170 -0.1516 -0.5931
  242MPD1     H 3674   3.065   0.687  15.889 -0.6003  0.8730  0.8541
  242MPD1    H1 3675   3.411   0.462  15.998  0.8137  1.3275 -0.0267
  242MPD1    H2 3676   3.286   0.773  16.245 -1.5922  0.4565  0.7794
  242MPD1    H3 3677   3.433   0.596  16.201  1.8152 -0.6237 -2.2802
  242MPD1     N 3678   3.249   0.487  15.813  0.2049  0.3798  0.0279
  242MPD1    H5 3679   3.326   0.423  15.799 -0.1503  0.1809 -0.9866
  242MPD1    N1 3680   3.082   0.849  16.100 -0.3415  0.0753  0.2539
  242MPD1    H6 3681   3.058   0.849  16.199  0.2229  0.9857  0.3879
  242MPD1    H7 3682   2.999   0.840  16.042 -1.3713  1.3699  1.5512
  243MPD1     C 3683   4.007   3.921   0.455  0.0151  0.0682  0.0340
  243MPD1    C1 3684   4.123   3.857   0.490  0.5354 -0.8984  0.1931
  243MPD1    C2 3685   4.155   3.758   0.405 -0.0825 -0.1817  0.1796
  243MPD1    C3 3686   4.079   3.724   0.294 -0.8397 -0.3935 -0.3978
  243MPD1    C4 3687   3.976   3.807   0.252  0.1569  0.0394  0.1590
  243MPD1    C5 3688   3.939   3.910   0.334  0.1115  0.2746  0.1596
  243MPD1     H 3689   4.233   3.686   0.431 -0.2772 -1.2097 -2.1102
  243MPD1    H1 3690   3.913   3.786   0.165 -1.2283  0.5316  1.0480
  243MPD1    H2 3691   3.947   3.986   0.519 -0.8285 -0.4182 -0.2661
  243MPD1    H3 3692   3.852   3.973   0.319 -0.0798  0.7321  3.2208
  243MPD1     N 3693   4.126   3.624   0.205  0.4591 -0.2631 -0.4607
  243MPD1    H5 3694   4.216   3.588   0.236 -0.3638 -0.6085  1.5265
  243MPD1    N1 3695   4.165   3.867   0.620 -0.6952 -0.1417 -0.3843
  243MPD1    H6 3696   4.262   3.844   0.641  0.0073  1.9829 -1.2696
  243MPD1    H7 3697   4.147   3.958   0.663  1.0492  0.3504 -0.7145
  244MPD1     C 3698   4.454   2.899   0.574 -0.3519  0.4847  0.2454
  244MPD1    C1 3699   4.426   3.030   0.608  0.1878  0.2839 -0.1534
  244MPD1    C2 3700   4.384   3.114   0.506 -0.5092  0.2729  0.2836
  244MPD1    C3 3701   4.374   3.082   0.370  0.3263  0.6591 -0.0922
  244MPD1    C4 3702   4.399   2.951   0.337  0.3107  0.1048 -0.0823
  244MPD1    C5 3703   4.439   2.862   0.439  0.3461  0.5801 -0.0387
  244MPD1     H 3704   4.345   3.212   0.531  0.6754  0.7823  0.1083
  244MPD1    H1 3705   4.393   2.917   0.234  1.0973 -0.3556  0.0254
  244MPD1    H2 3706   4.480   2.823   0.648  2.0879 -0.8984 -2.0325
  244MPD1    H3 3707   4.458   2.758   0.413 -1.4321  0.2462 -0.0662
  244MPD1     N 3708   4.343   3.191   0.283  0.4469 -1.2305  0.0359
  244MPD1    H5 3709   4.325   3.282   0.323  1.3301  0.1873 -2.7669
  244MPD1    N1 3710   4.403   3.064   0.741  0.3328 -0.0034  0.3193
  244MPD1    H6 3711   4.457   3.010   0.808 -0.2372 -0.5200  0.3661
  244MPD1    H7 3712   4.421   3.163   0.756  0.4824 -0.1706  1.2180
  245MPD1     C 3713   1.678   4.411  12.960  0.4633 -0.6901 -0.4353
  245MPD1    C1 3714   1.684   4.396  13.094 -0.1183 -0.4525  0.4496
  245MPD1    C2 3715   1.711   4.507  13.169  0.1934 -0.3341  0.3063
  245MPD1    C3 3716   1.737   4.628  13.109 -0.2073 -0.2030  0.6846
  245MPD1    C4 3717   1.742   4.635  12.978 -0.1593  0.0574 -0.8389
  245MPD1    C5 3718   1.710   4.526  12.896 -0.4309  0.4864 -0.1078
  245MPD1     H 3719   1.719   4.503  13.277  0.9793 -1.8678  0.1890
  245MPD1    H1 3720   1.765   0.007  12.938  0.4792  1.5715  3.2520
  245MPD1    H2 3721   1.678   4.323  12.896  1.6615 -1.7486  1.0101
  245MPD1    H3 3722   1.714   4.536  12.788  0.0262  1.3525 -0.0175
  245MPD1     N 3723   1.781   0.003  13.194  0.3506  0.2195 -0.1373
  245MPD1    H5 3724   1.786   4.708  13.293 -1.2866  1.7325  0.2853
  245MPD1    N1 3725   1.686   4.266  13.150  0.0764 -0.2320  0.6930
  245MPD1    H6 3726   1.780   4.227  13.138  0.1114 -0.2656  1.0775
  245MPD1    H7 3727   1.669   4.274  13.250  0.1708 -0.5370  0.7352
  246MPD1     C 3728   2.430   2.125   9.427 -0.1329 -0.7743 -1.0114
  246MPD1    C1 3729   2.378   2.000   9.387 -0.4275  0.3344 -0.4147
  246MPD1    C2 3730   2.468   1.907   9.331 -0.2134 -0.3998  0.1967
  246MPD1    C3 3731   2.603   1.927   9.329  0.7216  0.6947  0.2943
  246MPD1    C4 3732   2.651   2.052   9.368  0.2955 -0.2044 -0.3701
  246MPD1    C5 3733   2.564   2.148   9.414  0.3762  0.2287  0.2688
  246MPD1     H 3734   2.438   1.806   9.305 -2.1316  0.1065  0.4622
  246MPD1    H1 3735   2.758   2.061   9.354  0.6864 -0.8882  2.0945
  246MPD1    H2 3736   2.369   2.205   9.467 -0.1203 -0.0304 -2.4832
  246MPD1    H3 3737   2.615   2.232   9.462 -2.2484  2.1993 -0.4130
  246MPD1     N 3738   2.693   1.819   9.294  0.3628  0.0270  0.2257
  246MPD1    H5 3739   2.643   1.733   9.273 -0.3065 -0.0782  2.2471
  246MPD1    N1 3740   2.240   1.978   9.400  0.0977 -0.0533  0.2499
  246MPD1    H6 3741   2.221   2.024   9.489 -0.0369 -2.0929  1.2864
  246MPD1    H7 3742   2.226   1.878   9.412  0.8371 -0.2402 -0.4441
  247MPD1     C 3743   0.381   0.110  15.997  0.1313  0.4822  0.0412
  247MPD1    C1 3744   0.435   0.066  15.878  0.0709 -0.5082  0.4575
  247MPD1    C2 3745   0.528   4.686  15.881 -0.0915 -0.3316 -0.5487
  247MPD1    C3 3746   0.575   4.617  15.993  0.1581  0.1063  0.8238
  247MPD1    C4 3747   0.518   4.669  16.106  0.8197 -0.3557 -0.2326
  247MPD1    C5 3748   0.425   0.039  16.105  0.2461 -0.6840 -0.6444
  247MPD1     H 3749   0.553   4.649  15.782 -0.5296 -1.2767 -0.3026
  247MPD1    H1 3750   0.566   4.634  16.197  0.1409  0.3034  0.3760
  247MPD1    H2 3751   0.299   0.181  15.992  2.2903  3.0012  0.3150
  247MPD1    H3 3752   0.373   0.054  16.199  2.5286 -1.8583  0.7940
  247MPD1     N 3753   0.671   4.507  15.996 -0.1078  0.0492 -0.4109
  247MPD1    H5 3754   0.700   4.480  16.090  2.5466 -1.5727 -1.7006
  247MPD1    N1 3755   0.389   0.131  15.763  0.3588  1.1573 -0.5156
  247MPD1    H6 3756   0.438   0.101  15.679  1.4286 -0.2015  0.5793
  247MPD1    H7 3757   0.399   0.231  15.774 -2.2407  1.1361  1.7894
  248MPD1     C 3758   2.402   2.945   0.798 -0.2929 -0.2099  0.3830
  248MPD1    C1 3759   2.369   3.043   0.706  0.5930 -0.2716  0.2423
  248MPD1    C2 3760   2.338   3.168   0.749  0.2149 -0.1275  0.1983
  248MPD1    C3 3761   2.327   3.202   0.883  0.5796  0.1512 -0.0717
  248MPD1    C4 3762   2.351   3.096   0.975 -0.4058 -0.4591  0.3907
  248MPD1    C5 3763   2.381   2.971   0.933  0.8422 -0.1958 -0.8788
  248MPD1     H 3764   2.302   3.241   0.678  0.1774  1.1324  1.5190
  248MPD1    H1 3765   2.329   3.114   1.080 -2.0750  0.5643 -0.1224
  248MPD1    H2 3766   2.448   2.854   0.761 -0.7037  0.1659 -1.0164
  248MPD1    H3 3767   2.395   2.901   1.015  1.0696  0.8286 -0.0563
  248MPD1     N 3768   2.272   3.330   0.913  0.1104 -0.2525 -0.4379
  248MPD1    H5 3769   2.257   3.399   0.840  2.6400 -0.2891 -1.0084
  248MPD1    N1 3770   2.353   2.995   0.575  0.4985  0.2533 -0.2376
  248MPD1    H6 3771   2.421   2.923   0.551  2.3560  2.7361 -2.4163
  248MPD1    H7 3772   2.370   3.071   0.510 -0.8076  1.2675  0.6051
  249MPD1     C 3773   4.018   4.507   9.523  0.3348 -0.1652  0.0126
  249MPD1    C1 3774   3.888   4.479   9.544 -0.7002  0.8876 -0.1095
  249MPD1    C2 3775   3.845   4.421   9.660  0.7318 -0.1262  0.1452
  249MPD1    C3 3776   3.934   4.384   9.761  0.5922 -0.1358 -0.1104
  249MPD1    C4 3777   4.067   4.412   9.741 -0.1705 -0.4881  0.2652
  249MPD1    C5 3778   4.110   4.478   9.625 -0.4280 -0.8757  0.1811
  249MPD1     H 3779   3.741   4.392   9.668  1.0754 -1.5466 -0.4502
  249MPD1    H1 3780   4.146   4.377   9.806  0.7546  0.6474 -0.2317
  249MPD1    H2 3781   4.054   4.554   9.433  0.5909 -2.1123 -0.9029
  249MPD1    H3 3782   4.213   4.508   9.616 -0.1304 -2.4255 -1.5757
  249MPD1     N 3783   3.891   4.302   9.868 -0.0745 -0.6225 -0.0038
  249MPD1    H5 3784   3.794   4.275   9.867 -0.3386  0.3062  2.7851
  249MPD1    N1 3785   3.803   4.479   9.432  0.6216 -0.4236  0.2366
  249MPD1    H6 3786   3.708   4.487   9.468  0.8519 -1.0895  0.9764
  249MPD1    H7 3787   3.821   4.567   9.385  0.4251 -0.9920 -0.8938
  250MPD2     C 3788   0.286   3.017  12.988 -0.1637  0.0715 -0.5845
  250MPD2    C1 3789   0.211   3.132  12.954  0.0434 -0.0337 -0.1310
  250MPD2    C2 3790   0.079   3.125  12.930 -0.4855 -0.3645 -0.5769
  250MPD2    C3 3791   0.018   3.000  12.927  0.2872  0.3710  0.0594
  250MPD2    C4 3792   0.094   2.890  12.952 -0.2256 -0.7661  0.8784
  250MPD2    C5 3793   0.226   2.898  12.966  0.2152  0.5922 -0.0781
  250MPD2     H 3794   0.016   3.213  12.916  0.3002  0.5387  1.5861
  250MPD2    H1 3795   0.040   2.797  12.954  1.6181 -1.7624  3.7076
  250MPD2    H2 3796   0.390   3.007  13.016 -0.0553 -0.3785 -1.1689
  250MPD2    H3 3797   0.287   2.816  13.002  1.7228  2.2362  1.1774
  250MPD2     N 3798   4.603   2.982  12.892 -0.4060  0.1466  0.5585
  250MPD2    H5 3799   4.570   2.887  12.900 -0.8512  0.3827  1.4535
  250MPD2    N1 3800   0.275   3.257  12.976 -0.2915  0.1674 -0.4954
  250MPD2    H7 3801   0.366   3.258  13.021 -0.8341  0.5314  0.6000
  251TMC3    C1 3802   0.303   3.491  12.976 -0.6987 -0.0658  0.5097
  251TMC3    C2 3803   0.238   3.617  13.002  0.3962 -0.3523 -0.0363
  251TMC3    C3 3804   0.299   3.702  13.087  0.3925 -1.3107  0.3672
  251TMC3    C4 3805   0.422   3.463  13.028 -0.3312 -0.1893  0.3716
  251TMC3    C5 3806   0.469   3.544  13.126 -0.2383 -0.5815  0.6333
  251TMC3    C6 3807   0.419   3.667  13.148 -0.3324 -0.1330  0.4781
  251TMC3     C 3808   0.225   3.377  12.932 -0.2751 -0.4574  0.0454
  251TMC3     O 3809   0.119   3.405  12.869 -0.0937 -0.2786 -0.0516
  251TMC3     H 3810   0.137   3.636  12.969  0.4057  0.0731  0.1805
  251TMC3    H1 3811   0.481   3.381  12.988 -3.4254 -1.9002 -0.7244
  251TMC3    H2 3812   0.444   3.719  13.240 -0.3983  1.2592 -0.2866
  251TMC3    C7 3813   0.573   3.488  13.207 -0.0597 -0.4097  0.3532
  251TMC3    C8 3814   0.228   3.819  13.122 -0.9573 -0.0182  0.2404
  251TMC3    O1 3815   0.583   3.362  13.196  0.0788 -0.1806  0.0901
  251TMC3    O2 3816   0.105   3.817  13.116 -0.7330  0.3566 -0.4014
  252TMC3    C1 3817   2.016   4.271   9.907 -1.0795  0.7411  0.3842
  252TMC3    C2 3818   1.934   4.376   9.875 -0.3034  0.1817 -0.3063
  252TMC3    C3 3819   1.820   4.343   9.809 -0.0272  0.3031  0.3987
  252TMC3    C4 3820   2.013   4.150   9.841 -0.3275 -0.6789  0.1948
  252TMC3    C5 3821   1.904   4.130   9.756  0.3246  0.7300 -0.2292
  252TMC3    C6 3822   1.802   4.219   9.742  0.7464  0.0679 -0.3608
  252TMC3     C 3823   2.142   4.305   9.960 -0.7277  0.3185 -0.2869
  252TMC3     O 3824   2.244   4.253   9.917  0.2373  0.1956 -0.3674
  252TMC3     H 3825   1.956   4.476   9.911 -1.0224  0.3770 -0.4078
  252TMC3    H1 3826   2.092   4.076   9.844  0.0193 -0.2894  0.6170
  252TMC3    H2 3827   1.730   4.198   9.664  1.9188 -1.1168 -1.1182
  252TMC3    C7 3828   1.884   3.992   9.737 -0.3872 -0.8428  0.5819
  252TMC3    C8 3829   1.709   4.430   9.836 -0.3832  0.6762  0.4145
  252TMC3    O1 3830   1.978   3.918   9.714 -0.4679 -0.4444 -0.2140
  252TMC3    O2 3831   1.732   4.489   9.937  0.1749 -0.4614 -0.7190
  253MPD2     C 3832   1.394   3.080  15.804 -0.6875 -0.0690 -0.3994
  253MPD2    C1 3833   1.266   3.060  15.757 -0.2641  0.3674  0.0363
  253MPD2    C2 3834   1.165   3.047  15.848  0.1985  0.6775  0.8903
  253MPD2    C3 3835   1.186   3.050  15.984 -0.4288 -0.3051 -0.0527
  253MPD2    C4 3836   1.319   3.069  16.031 -0.5557  0.0079  0.2773
  253MPD2    C5 3837   1.415   3.089  15.938 -1.0026 -0.3122  0.3654
  253MPD2     H 3838   1.065   3.024  15.812  1.0481  2.3940 -2.5943
  253MPD2    H1 3839   1.345   3.075  16.136  0.3021 -0.2781  0.0782
  253MPD2    H2 3840   1.482   3.096  15.743  0.5998 -1.1566  1.1907
  253MPD2    H3 3841   1.518   3.099  15.971 -0.4697  2.5241 -2.1697
  253MPD2     N 3842   1.083   3.034  16.076  0.3386 -0.0210  0.6028
  253MPD2    H5 3843   1.112   2.984  16.160  1.8082  1.0553  0.7394
  253MPD2    N1 3844   1.232   3.058  15.617 -0.2253  0.5695 -0.1294
  253MPD2    H7 3845   1.132   3.070  15.601 -0.0519  0.2921 -1.4216
  254TMC3    C1 3846   0.867   2.986  16.139  0.0470  0.1898 -0.2125
  254TMC3    C2 3847   0.737   3.029  16.127  0.6706 -0.1802 -0.4732
  254TMC3    C3 3848   0.644   2.972  16.202  0.2928 -0.7402  0.9463
  254TMC3    C4 3849   0.915   2.891  16.219 -0.3252 -0.3464 -0.6582
  254TMC3    C5 3850   0.815   2.821  16.281 -0.2859  0.2119 -0.1928
  254TMC3    C6 3851   0.682   2.858  16.273  0.1603 -0.8200 -0.0319
  254TMC3     C 3852   0.954   3.057  16.047  0.5424  0.5534  0.1872
  254TMC3     O 3853   0.901   3.118  15.960  0.2111 -0.3363  0.6687
  254TMC3     H 3854   0.702   3.117  16.074  1.9767  0.1462 -0.7706
  254TMC3    H1 3855   1.020   2.863  16.223  0.1389  1.4767 -0.1884
  254TMC3    H2 3856   0.614   2.811  16.342 -1.2808 -2.4058 -2.5195
  254TMC3    C7 3857   0.857   2.770  16.408  0.5461  0.1880 -0.2265
  254TMC3    C8 3858   0.526   3.056  16.247 -0.6206  0.3330 -0.2065
  254TMC3    O1 3859   0.950   2.819  16.468  0.1234 -0.9683 -0.1222
  254TMC3    O2 3860   0.468   3.033  16.355 -0.2691  0.0947 -0.2882
  255MPD2     C 3861   0.502   0.717   9.478  0.6225 -0.1934 -0.0661
  255MPD2    C1 3862   0.561   0.808   9.563 -0.1997  0.5961  0.8063
  255MPD2    C2 3863   0.679   0.867   9.530  0.4410  0.1185  0.6746
  255MPD2    C3 3864   0.748   0.848   9.408 -0.0755  0.0558 -0.3867
  255MPD2    C4 3865   0.679   0.762   9.321 -0.3570 -0.3783 -0.3568
  255MPD2    C5 3866   0.564   0.697   9.357 -0.0142  0.5009 -0.3694
  255MPD2     H 3867   0.722   0.940   9.598 -0.5920  0.2301  1.1991
  255MPD2    H1 3868   0.705   0.763   9.216 -1.2836 -1.0721 -0.5948
  255MPD2    H2 3869   0.411   0.668   9.511 -0.5414  0.4523 -2.3754
  255MPD2    H3 3870   0.508   0.633   9.289  1.2376  0.5321 -1.4363
  255MPD2     N 3871   0.863   0.920   9.368  0.0564 -0.3804  0.0338
  255MPD2    H5 3872   0.880   1.011   9.409  0.0876  0.4692 -1.8695
  255MPD2    N1 3873   0.505   0.820   9.694  0.2675  0.1917  0.4031
  255MPD2    H7 3874   0.438   0.749   9.720  0.9328 -0.7952 -0.5105
  256TMC3    C1 3875   0.455   0.903   9.909  0.1586 -0.5261  0.4440
  256TMC3    C2 3876   0.495   0.997  10.000 -0.0593  0.4437  0.3667
  256TMC3    C3 3877   0.408   1.079  10.056 -0.0393 -0.5431 -0.5629
  256TMC3    C4 3878   0.317   0.891   9.879 -0.0999 -0.2978 -0.6716
  256TMC3    C5 3879   0.232   0.982   9.938  0.1760 -0.5540 -0.1249
  256TMC3    C6 3880   0.273   1.070  10.032 -0.2107  0.0378 -0.4125
  256TMC3     C 3881   0.540   0.910   9.792  0.1463  0.2920 -1.0643
  256TMC3     O 3882   0.623   1.001   9.796  0.0486  0.4433  0.3460
  256TMC3     H 3883   0.600   0.995  10.029  0.4378  3.6142 -1.2479
  256TMC3    H1 3884   0.278   0.824   9.803  0.9987  1.2032 -2.5533
  256TMC3    H2 3885   0.207   1.149  10.066  2.0293  1.4186  0.7190
  256TMC3    C7 3886   0.106   0.996   9.871  0.3123  0.4443  0.2230
  256TMC3    C8 3887   0.468   1.212  10.088 -0.6086  1.0121 -0.6201
  256TMC3    O1 3888   0.102   0.948   9.757  0.3110  0.1301 -0.1216
  256TMC3    O2 3889   0.412   1.284  10.169  0.1991  0.2839 -0.3113
  257MPD2     C 3890   3.772   3.437  13.412 -0.0957 -0.8513 -0.2693
  257MPD2    C1 3891   3.720   3.354  13.318  0.5663 -0.1551 -0.4104
  257MPD2    C2 3892   3.703   3.213  13.349  0.0707 -0.4064 -0.3625
  257MPD2    C3 3893   3.721   3.169  13.477 -0.4215  0.8484 -0.4161
  257MPD2    C4 3894   3.763   3.256  13.578  0.0036 -0.4307  0.0152
  257MPD2    C5 3895   3.789   3.383  13.541  0.1657 -0.6718  0.1200
  257MPD2     H 3896   3.658   3.147  13.277 -1.3258  0.4327 -0.2560
  257MPD2    H1 3897   3.796   3.228  13.677 -1.0071  0.6706  0.6657
  257MPD2    H2 3898   3.796   3.539  13.387 -0.9910 -0.2446  1.3376
  257MPD2    H3 3899   3.830   3.452  13.614 -1.3429 -1.0968  1.3505
  257MPD2     N 3900   3.673   3.031  13.501 -0.0285 -0.0384 -0.2003
  257MPD2    H5 3901   3.636   2.982  13.420  0.6312 -0.6459 -0.1296
  257MPD2    N1 3902   3.722   3.409  13.183 -0.1159 -0.1188 -0.3175
  257MPD2    H7 3903   3.738   3.508  13.166  0.8334 -0.1822  0.1887
  258TMC3    C1 3904   3.600   2.851  13.627  0.1314 -0.0454  0.4369
  258TMC3    C2 3905   3.507   2.828  13.534  0.0390 -0.1317 -0.2888
  258TMC3    C3 3906   3.426   2.717  13.544  0.8866 -0.2138 -0.5562
  258TMC3    C4 3907   3.608   2.775  13.740 -0.6289 -0.2681 -0.3171
  258TMC3    C5 3908   3.534   2.660  13.743 -0.2541  0.2665  0.4064
  258TMC3    C6 3909   3.441   2.627  13.646  0.4752  0.2626  0.0476
  258TMC3     C 3910   3.678   2.969  13.621  0.7006  1.3158 -0.5838
  258TMC3     O 3911   3.744   3.001  13.724 -0.1068 -0.2832  0.1256
  258TMC3     H 3912   3.485   2.910  13.466  0.4056 -1.2367 -1.7264
  258TMC3    H1 3913   3.684   2.807  13.810 -0.3912 -0.1406 -0.6275
  258TMC3    H2 3914   3.373   2.545  13.664  0.2941  0.4144  0.0592
  258TMC3    C7 3915   3.530   2.591  13.876  0.5746  1.2137 -0.0209
  258TMC3    C8 3916   3.301   2.698  13.464  0.0069 -0.5512 -0.6448
  258TMC3    O1 3917   3.423   2.562  13.933 -0.2229 -0.6968  1.2155
  258TMC3    O2 3918   3.240   2.591  13.473 -0.2094 -0.1121  0.2100
  259MPD2     C 3919   2.963   4.719   1.301  0.4185 -1.0279  0.4145
  259MPD2    C1 3920   2.903   4.605   1.255  0.1266  0.4435 -0.3499
  259MPD2    C2 3921   2.942   4.559   1.133  0.1635  0.9008 -0.3081
  259MPD2    C3 3922   3.028   4.630   1.055  0.4121  0.6039 -0.5644
  259MPD2    C4 3923   3.090   0.020   1.098  0.3852 -0.2260  0.5793
  259MPD2    C5 3924   3.054   0.062   1.223  0.8310 -0.8857  0.4249
  259MPD2     H 3925   2.899   4.471   1.087  1.0599 -0.1090  0.7745
  259MPD2    H1 3926   3.162   0.075   1.039  0.6187  0.3883  1.4301
  259MPD2    H2 3927   2.933   0.040   1.395  0.2115 -1.0004  0.3331
  259MPD2    H3 3928   3.086   0.158   1.263 -0.6351 -0.3476  0.3171
  259MPD2     N 3929   3.050   4.575   0.922 -0.4286  0.4131  0.1379
  259MPD2    H5 3930   2.995   4.493   0.898 -0.7863  0.4837  0.7223
  259MPD2    N1 3931   2.816   4.537   1.345 -0.2037 -0.0634  0.0924
  259MPD2    H7 3932   2.804   4.578   1.438  3.5210  0.7563  0.2258
  260TMC3    C1 3933   3.150   4.558   0.712 -0.0139  1.0616 -1.0172
  260TMC3    C2 3934   3.277   4.537   0.665  0.8462  0.3326  0.2349
  260TMC3    C3 3935   3.300   4.421   0.597  1.2179  0.3777 -0.2050
  260TMC3    C4 3936   3.047   4.470   0.687  0.2181  0.0183 -0.8710
  260TMC3    C5 3937   3.073   4.355   0.622  0.3711 -0.3582  0.3826
  260TMC3    C6 3938   3.203   4.330   0.581  0.2662 -0.0857 -0.0539
  260TMC3     C 3939   3.143   4.627   0.836  0.1032  0.9115  0.9444
  260TMC3     O 3940   3.227   4.715   0.849 -0.4719  0.0532 -0.0185
  260TMC3     H 3941   3.363   4.597   0.693 -0.4477  1.5219  1.6838
  260TMC3    H1 3942   2.945   4.499   0.706 -0.1140 -0.6568 -1.6486
  260TMC3    H2 3943   3.234   4.255   0.508  0.6338  0.3236 -0.3159
  260TMC3    C7 3944   2.978   4.304   0.525  0.9463  0.1156  0.2910
  260TMC3    C8 3945   3.436   4.369   0.614  0.4713  0.9290 -1.0663
  260TMC3    O1 3946   3.024   4.221   0.450  0.3650 -0.6393  0.1241
  260TMC3    O2 3947   3.523   4.455   0.622 -0.3528 -0.9224  0.0599
  261MPD2     C 3948   4.133   3.036  12.243 -0.4473  0.2388  0.1818
  261MPD2    C1 3949   4.203   3.121  12.327 -0.2301 -0.4113 -0.4662
  261MPD2    C2 3950   4.281   3.222  12.275  0.3052 -0.2212 -0.0984
  261MPD2    C3 3951   4.291   3.233  12.133 -0.1971  0.5085 -0.2265
  261MPD2    C4 3952   4.236   3.138  12.056 -0.4105  0.3161  0.0568
  261MPD2    C5 3953   4.150   3.049  12.112  0.2076  0.7007  0.0035
  261MPD2     H 3954   4.335   3.293  12.336  1.1931 -2.6967  1.9990
  261MPD2    H1 3955   4.235   3.136  11.948  0.2751  1.0130  0.0378
  261MPD2    H2 3956   4.070   2.954  12.275  0.0565 -0.8987 -1.7913
  261MPD2    H3 3957   4.095   2.987  12.042  0.2331  1.0240 -0.3016
  261MPD2     N 3958   4.369   3.329  12.067  0.5309  0.1807 -0.7903
  261MPD2    H5 3959   4.386   3.313  11.968 -0.2722 -1.0508 -0.7319
  261MPD2    N1 3960   4.220   3.104  12.466  0.1952 -0.3444 -0.6143
  261MPD2    H7 3961   4.286   3.164  12.514 -0.8454 -0.2627  0.7210
  262TMC3    C1 3962   4.497   3.528  12.033  0.0083  0.1110  0.1301
  262TMC3    C2 3963   4.495   3.655  12.079 -0.7515 -0.1891 -0.6121
  262TMC3    C3 3964   4.587   3.739  12.020  0.0848 -0.4619  0.6058
  262TMC3    C4 3965   4.575   3.470  11.928 -0.7716 -1.1496  0.5798
  262TMC3    C5 3966   4.650   3.562  11.863 -0.0214 -0.5428 -0.7428
  262TMC3    C6 3967   4.661   3.695  11.907 -0.8526 -0.5194  0.4239
  262TMC3     C 3968   4.416   3.445  12.119  0.5242  0.0781 -0.2202
  262TMC3     O 3969   4.381   3.484  12.230  0.4151 -0.2730 -0.1141
  262TMC3     H 3970   4.429   3.685  12.161 -2.0132 -1.4960 -1.1575
  262TMC3    H1 3971   4.580   3.363  11.916  0.3007 -0.8614 -1.4473
  262TMC3    H2 3972   4.715   3.770  11.851 -1.5213 -0.9345 -0.7804
  262TMC3    C7 3973   4.694   3.526  11.734 -0.1736  0.0144 -0.0530
  262TMC3    C8 3974   4.554   3.880  12.015 -0.3923  0.3877 -0.0684
  262TMC3    O1 3975   0.058   3.596  11.688 -0.4542  0.1751 -0.3062
  262TMC3    O2 3976   4.623   3.948  11.938  0.3748  0.3303  0.0852
  263MPD2     C 3977   0.270   2.461  11.637  0.2425 -0.0690 -0.4273
  263MPD2    C1 3978   0.357   2.558  11.682  0.3238 -0.1572 -0.3495
  263MPD2    C2 3979   0.418   2.649  11.597  0.5964 -0.1331 -0.4526
  263MPD2    C3 3980   0.384   2.652  11.459  0.1514  0.2137 -0.6316
  263MPD2    C4 3981   0.301   2.550  11.417 -0.1784 -0.3527 -0.1207
  263MPD2    C5 3982   0.251   2.455  11.504 -0.2873 -0.4671  0.6253
  263MPD2     H 3983   0.497   2.713  11.634  1.5165 -1.5340 -0.0213
  263MPD2    H1 3984   0.272   2.530  11.314 -1.9916  1.0979  0.1126
  263MPD2    H2 3985   0.223   2.390  11.704 -0.2673 -0.2369 -0.9632
  263MPD2    H3 3986   0.185   2.381  11.459 -2.0088  1.9058 -0.7327
  263MPD2     N 3987   0.447   2.746  11.383  0.4747 -0.2107  0.4574
  263MPD2    H5 3988   0.497   2.819  11.433  1.8208 -0.4202 -0.5717
  263MPD2    N1 3989   0.379   2.564  11.825  0.1929 -0.4406 -0.3280
  263MPD2    H7 3990   0.339   2.490  11.882 -2.2338 -1.1117 -2.8626
  264TMC3    C1 3991   0.537   2.843  11.184 -0.3610  0.2239 -0.8593
  264TMC3    C2 3992   0.589   2.941  11.268 -0.3318  0.4659 -0.0150
  264TMC3    C3 3993   0.720   2.983  11.249  0.6270  0.4060  0.3444
  264TMC3    C4 3994   0.610   2.788  11.080 -0.2239  0.3292  0.1362
  264TMC3    C5 3995   0.735   2.845  11.058  0.9944  0.0625 -0.4045
  264TMC3    C6 3996   0.793   2.937  11.142  0.5826 -0.2845 -0.3194
  264TMC3     C 3997   0.450   2.742  11.247 -0.3362  0.2059 -0.2770
  264TMC3     O 3998   0.404   2.652  11.174 -0.0551  0.5949 -0.8048
  264TMC3     H 3999   0.520   2.982  11.342 -1.6214 -0.9938 -0.3986
  264TMC3    H1 4000   0.572   2.706  11.020  0.6864 -0.3868  0.5469
  264TMC3    H2 4001   0.879   2.991  11.106 -1.1493  1.4305 -1.8952
  264TMC3    C7 4002   0.798   2.814  10.937 -0.4728 -0.5944 -0.1229
  264TMC3    C8 4003   0.781   3.091  11.319 -0.3008  0.2925 -0.1723
  264TMC3    O1 4004   0.917   2.811  10.941 -0.0597 -0.1033  0.3792
  264TMC3    O2 4005   0.883   3.135  11.274 -0.0717  0.2145 -0.2748
  265MPD2     C 4006   2.291   2.713  15.051  0.2041 -0.4098 -0.0730
  265MPD2    C1 4007   2.402   2.792  15.067  0.2619  0.9528 -0.4283
  265MPD2    C2 4008   2.500   2.787  14.966  0.4215 -0.2742 -0.1339
  265MPD2    C3 4009   2.484   2.703  14.852 -0.5303 -0.1058  0.1125
  265MPD2    C4 4010   2.362   2.644  14.829 -0.2768  0.2839 -0.8944
  265MPD2    C5 4011   2.273   2.650  14.929  0.8583 -0.3026 -0.1997
  265MPD2     H 4012   2.584   2.852  14.987  1.6499 -1.5881 -1.0424
  265MPD2    H1 4013   2.346   2.595  14.733  1.4482  0.1543 -1.1274
  265MPD2    H2 4014   2.207   2.704  15.118  0.4495 -0.3930  0.2367
  265MPD2    H3 4015   2.181   2.596  14.908  1.0170 -1.0877  1.1204
  265MPD2     N 4016   2.593   2.676  14.762  0.1232  0.0005  0.5399
  265MPD2    H5 4017   2.581   2.614  14.682 -0.3148 -0.2445  0.7900
  265MPD2    N1 4018   2.425   2.875  15.178 -0.0484  0.1365  0.5069
  265MPD2    H7 4019   2.494   2.950  15.176  0.0741  0.0060 -0.1433
  266TMC3    C1 4020   2.360   3.000  15.372  0.0752 -0.3846  0.2453
  266TMC3    C2 4021   2.357   2.975  15.505  0.1800 -0.2544 -0.9934
  266TMC3    C3 4022   2.392   3.083  15.584 -0.7626 -0.1166  0.4755
  266TMC3    C4 4023   2.407   3.115  15.317  0.0532  0.1273  0.1224
  266TMC3    C5 4024   2.450   3.219  15.399  0.2899  0.8837 -0.2823
  266TMC3    C6 4025   2.436   3.204  15.535  0.0902  0.2616 -0.2305
  266TMC3     C 4026   2.339   2.884  15.284 -0.8912 -0.3753 -0.1459
  266TMC3     O 4027   2.280   2.789  15.341 -0.3339 -0.7028 -0.3324
  266TMC3     H 4028   2.291   2.896  15.541  0.3089 -0.4120 -1.1006
  266TMC3    H1 4029   2.407   3.124  15.209 -1.0334  2.7311  0.3317
  266TMC3    H2 4030   2.451   3.283  15.608 -1.5490  1.1327 -0.8616
  266TMC3    C7 4031   2.471   3.348  15.345  0.5006  0.2779 -0.3764
  266TMC3    C8 4032   2.413   3.044  15.716 -0.1251  0.7007  0.5322
  266TMC3    O1 4033   2.434   3.366  15.228  0.1245 -0.2861 -0.6791
  266TMC3    O2 4034   2.440   2.922  15.723  0.2845  1.0373  0.1057
  267MPD2     C 4035   0.488   4.052  17.423  0.2459 -0.0661  0.2997
  267MPD2    C1 4036   0.471   4.187  17.431 -0.1081  0.2042  0.5232
  267MPD2    C2 4037   0.374   4.242  17.345 -0.4768 -0.2942  0.3476
  267MPD2    C3 4038   0.303   4.162  17.254 -0.3232  0.2585 -0.4065
  267MPD2    C4 4039   0.326   4.029  17.247 -0.1633  0.3034  0.3045
  267MPD2    C5 4040   0.424   3.977  17.323  0.5049  0.8382  0.0548
  267MPD2     H 4041   0.345   4.346  17.353  3.0122  0.7216 -0.0287
  267MPD2    H1 4042   0.270   3.966  17.179  0.4472 -0.1845  0.2590
  267MPD2    H2 4043   0.561   3.997  17.481  0.3943 -0.3883 -0.1838
  267MPD2    H3 4044   0.453   3.874  17.302 -0.1167  1.1351 -2.2911
  267MPD2     N 4045   0.196   4.212  17.175  0.3906 -0.1752  0.4224
  267MPD2    H5 4046   0.155   4.145  17.111 -0.5303  0.4092  0.3970
  267MPD2    N1 4047   0.543   4.252  17.531 -0.5174 -0.0478 -0.5226
  267MPD2    H7 4048   0.612   4.190  17.574 -0.8204  0.9996  1.4591
  268TMC3    C1 4049   0.616   4.419  17.673  0.2761  0.1570 -0.0031
  268TMC3    C2 4050   0.626   4.550   0.012  0.6858 -0.1066  0.2918
  268TMC3    C3 4051   0.692   4.578   0.130  1.2597  0.1636  0.3374
  268TMC3    C4 4052   0.684   4.323   0.040  0.0592  0.4053  0.0974
  268TMC3    C5 4053   0.743   4.354   0.158  0.5702  0.1848  0.0660
  268TMC3    C6 4054   0.753   4.482   0.202  0.1585 -0.2656  0.4120
  268TMC3     C 4055   0.530   4.382  17.564  0.5287  0.0057  0.0344
  268TMC3     O 4056   0.466   4.471  17.514  0.3628  0.5558  0.3972
  268TMC3     H 4057   0.570   4.629  17.667 -0.3271  0.2074  1.9605
  268TMC3    H1 4058   0.671   4.220   0.009 -0.5589 -0.3011  2.7162
  268TMC3    H2 4059   0.806   4.500   0.295  1.9717  2.1041 -1.0933
  268TMC3    C7 4060   0.790   4.242   0.236  0.5302 -0.1931  0.1492
  268TMC3    C8 4061   0.740   4.716   0.160  0.8741  0.3253  0.2034
  268TMC3    O1 4062   0.795   4.241   0.359  0.1994 -0.1857 -0.5782
  268TMC3    O2 4063   0.772   0.014   0.277 -0.5148  0.4201 -0.5923
  269MPD2     C 4064   0.395   3.230  15.643  0.1187 -0.2544  0.1449
  269MPD2    C1 4065   0.268   3.270  15.660 -0.1712  0.7985  0.0807
  269MPD2    C2 4066   0.236   3.404  15.646  0.3025 -0.7956 -0.1728
  269MPD2    C3 4067   0.331   3.497  15.624  0.0760 -0.7427  0.2339
  269MPD2    C4 4068   0.458   3.457  15.595  0.6586  0.4815  0.3140
  269MPD2    C5 4069   0.489   3.322  15.602 -0.0302 -0.1593  0.1714
  269MPD2     H 4070   0.133   3.435  15.655 -0.2898 -1.5189 -4.5150
  269MPD2    H1 4071   0.530   3.532  15.565 -1.0026  1.4901 -1.1926
  269MPD2    H2 4072   0.430   3.128  15.652 -0.0028 -0.3676 -0.6499
  269MPD2    H3 4073   0.593   3.291  15.601 -0.0316 -0.2056  1.2025
  269MPD2     N 4074   0.293   3.630  15.620  0.5974  0.8785 -0.4609
  269MPD2    H5 4075   0.194   3.647  15.605  0.3327  0.8588  1.2673
  269MPD2    N1 4076   0.178   3.167  15.705 -0.3610  0.0744 -0.3745
  269MPD2    H7 4077   0.211   3.072  15.692  0.6469  0.5628 -1.3709
  270TMC3    C1 4078   4.708   3.058  15.784 -0.1748  0.5885 -0.6964
  270TMC3    C2 4079   4.579   3.048  15.757  1.0524 -0.2663 -0.1835
  270TMC3    C3 4080   4.531   2.920  15.773 -0.0838  0.8344 -0.0933
  270TMC3    C4 4081   0.054   2.956  15.837 -0.8358 -0.2839 -0.3580
  270TMC3    C5 4082   4.724   2.839  15.864 -0.2614 -0.2326  0.1577
  270TMC3    C6 4083   4.592   2.815  15.833 -0.1245 -0.2171 -0.1085
  270TMC3     C 4084   0.047   3.183  15.747  0.3092  0.0155  0.1329
  270TMC3     O 4085   4.703   3.285  15.745  0.7761 -0.0807  0.2223
  270TMC3     H 4086   4.518   3.133  15.731  2.2757  0.9020  0.7562
  270TMC3    H1 4087   0.153   2.977  15.876 -1.3792 -0.5738  1.1727
  270TMC3    H2 4088   4.561   2.711  15.833 -0.3253 -0.1647  0.9563
  270TMC3    C7 4089   0.078   2.721  15.889  0.0178 -0.1204 -0.2716
  270TMC3    C8 4090   4.417   2.888  15.689 -0.3228  0.4977  0.2457
  270TMC3    O1 4091   0.197   2.745  15.875  0.6584 -0.6043 -0.1574
  270TMC3    O2 4092   4.351   2.790  15.722 -0.3766 -0.3377  0.0840
  271MPD2     C 4093   3.965   3.253  14.019 -0.2060  0.2446  0.7601
  271MPD2    C1 4094   3.895   3.188  14.118  0.3988 -1.2342  0.5307
  271MPD2    C2 4095   3.766   3.221  14.131 -0.4159 -0.1109 -0.1555
  271MPD2    C3 4096   3.699   3.294  14.030 -0.9688 -0.8347  0.1857
  271MPD2    C4 4097   3.776   3.359  13.931 -0.5044  0.0514  0.4056
  271MPD2    C5 4098   3.907   3.333  13.922  0.0130 -1.2724 -0.6748
  271MPD2     H 4099   3.719   3.193  14.225 -0.6936 -0.9844 -0.5561
  271MPD2    H1 4100   3.734   3.427  13.857 -0.5896  0.3540  0.7326
  271MPD2    H2 4101   4.071   3.239  14.002 -0.3616 -0.8669  0.7042
  271MPD2    H3 4102   3.973   3.382  13.851  0.4755 -0.1866  0.5007
  271MPD2     N 4103   3.569   3.336  14.032 -0.3670  0.2308  0.5710
  271MPD2    H5 4104   3.546   3.403  13.960  2.0317  0.1358 -0.2729
  271MPD2    N1 4105   3.961   3.110  14.215 -0.1423  0.0792 -0.3634
  271MPD2    H7 4106   3.913   3.083  14.300  2.8204 -0.6791  1.0643
  272TMC3    C1 4107   4.146   3.010  14.322  0.8836  0.1924 -0.4247
  272TMC3    C2 4108   4.252   2.930  14.308  1.0925  0.1386  0.0838
  272TMC3    C3 4109   4.303   2.870  14.421  0.5054  0.0261  0.3632
  272TMC3    C4 4110   4.079   3.029  14.441 -0.2837  0.5857 -0.1153
  272TMC3    C5 4111   4.140   2.979  14.549 -0.2808 -0.0428 -0.9038
  272TMC3    C6 4112   4.246   2.895  14.544  0.2673 -0.1363 -0.2180
  272TMC3     C 4113   4.093   3.078  14.204 -0.1576  0.7883  0.7615
  272TMC3     O 4114   4.175   3.094  14.111 -0.3404  0.0439 -0.1298
  272TMC3     H 4115   4.320   2.928  14.222  1.0476 -0.3990  0.0628
  272TMC3    H1 4116   4.021   3.117  14.466 -0.8237  0.6801 -1.6980
  272TMC3    H2 4117   4.304   2.873  14.632 -2.3126 -1.9460  1.0373
  272TMC3    C7 4118   4.119   3.055  14.663  0.2447 -0.5967 -0.2499
  272TMC3    C8 4119   4.407   2.772  14.400 -0.1118 -0.1975 -0.3658
  272TMC3    O1 4120   4.005   3.096  14.685 -0.4413 -0.3941 -0.2238
  272TMC3    O2 4121   4.440   2.756  14.284 -0.5580  0.3706 -0.3304
  273MPD2     C 4122   1.807   1.642  12.257 -0.7700 -0.7059 -0.1549
  273MPD2    C1 4123   1.848   1.728  12.163 -0.4306  0.3576  0.3649
  273MPD2    C2 4124   1.755   1.764  12.059  0.0149  0.4805  0.2587
  273MPD2    C3 4125   1.626   1.712  12.054  0.2956 -0.1872  0.3074
  273MPD2    C4 4126   1.595   1.616  12.143 -0.3842  0.3812  0.6792
  273MPD2    C5 4127   1.689   1.581  12.236 -0.5295 -0.7479  0.5186
  273MPD2     H 4128   1.792   1.832  11.983 -0.1171  0.3677  0.0942
  273MPD2    H1 4129   1.496   1.575  12.157 -0.0264 -0.5507  0.4613
  273MPD2    H2 4130   1.873   1.606  12.336  1.7704 -0.2866 -2.0926
  273MPD2    H3 4131   1.660   1.500  12.303 -4.3289  0.4712  0.3865
  273MPD2     N 4132   1.533   1.747  11.952 -0.1944 -0.5500  0.3405
  273MPD2    H5 4133   1.443   1.701  11.949 -0.2980 -0.2430 -1.4901
  273MPD2    N1 4134   1.981   1.788  12.187  0.0890 -0.5367 -0.4988
  273MPD2    H7 4135   2.031   1.755  12.269 -0.1828  0.6001  0.1270
  274TMC3    C1 4136   1.404   1.900  11.844  0.7343  0.5390 -0.6588
  274TMC3    C2 4137   1.335   1.808  11.762  0.4608 -0.3867  0.5632
  274TMC3    C3 4138   1.203   1.826  11.741 -0.1653 -0.7189  0.4168
  274TMC3    C4 4139   1.336   2.008  11.896  0.1649  0.4351 -0.6453
  274TMC3    C5 4140   1.208   2.029  11.852 -0.0971 -0.0573 -0.1273
  274TMC3    C6 4141   1.140   1.934  11.788  0.1984 -0.0066  0.7282
  274TMC3     C 4142   1.531   1.876  11.907 -0.1433 -0.0163 -0.1078
  274TMC3     O 4143   1.601   1.971  11.936  1.1262  0.2741  0.6425
  274TMC3     H 4144   1.379   1.715  11.728 -0.3327 -0.4297 -0.3222
  274TMC3    H1 4145   1.380   2.069  11.974 -1.2906 -0.4374  0.8498
  274TMC3    H2 4146   1.052   1.966  11.733  0.5634  0.3590  0.3522
  274TMC3    C7 4147   1.134   2.126  11.923 -0.5615 -0.0435  0.6911
  274TMC3    C8 4148   1.137   1.734  11.649  0.0650 -0.4989 -0.9344
  274TMC3    O1 4149   1.013   2.118  11.929 -0.1895 -0.1420  0.0784
  274TMC3    O2 4150   1.019   1.721  11.660 -0.0254  0.0837 -0.0852
  275MPD2     C 4151   0.950   4.084  14.140  0.2289 -0.0291 -0.1717
  275MPD2    C1 4152   0.958   3.991  14.239  0.0137 -0.3184  0.4214
  275MPD2    C2 4153   0.845   3.928  14.293  0.4790  0.3778 -0.0883
  275MPD2    C3 4154   0.718   3.966  14.246 -0.9981 -0.3252  0.0392
  275MPD2    C4 4155   0.714   4.070  14.158 -0.5786  0.5845 -0.2488
  275MPD2    C5 4156   0.828   4.129  14.102 -0.0664 -0.3561 -0.7538
  275MPD2     H 4157   0.856   3.851  14.368 -1.9710  1.3060  1.1997
  275MPD2    H1 4158   0.622   4.100  14.110 -2.0707  1.0508  2.9038
  275MPD2    H2 4159   1.047   4.118  14.105 -1.4255  0.1546 -4.5756
  275MPD2    H3 4160   0.815   4.211  14.033 -0.0633 -0.0440 -0.3813
  275MPD2     N 4161   0.595   3.912  14.287 -0.5415 -0.7833 -0.2799
  275MPD2    H5 4162   0.517   3.967  14.253  0.8488  0.0139 -2.1709
  275MPD2    N1 4163   1.077   3.947  14.291  0.3598  0.5831  0.0775
  275MPD2    H7 4164   1.068   3.859  14.341  0.1701  0.6424  0.1455
  276TMC3    C1 4165   1.289   3.928  14.361  0.3629 -0.0569  0.0970
  276TMC3    C2 4166   1.259   3.804  14.368  0.0413  0.5275 -0.4965
  276TMC3    C3 4167   1.307   3.733  14.475  0.7899  0.1772 -0.1994
  276TMC3    C4 4168   1.350   4.004  14.455  0.0214  0.3174  0.1409
  276TMC3    C5 4169   1.390   3.932  14.566 -0.0137 -0.0865 -0.0608
  276TMC3    C6 4170   1.378   3.793  14.580  0.1376  0.3385  0.2825
  276TMC3     C 4171   1.197   4.010  14.287 -0.5705 -0.0633  0.3726
  276TMC3     O 4172   1.231   4.108  14.226  0.5843  0.0963 -0.7896
  276TMC3     H 4173   1.225   3.752  14.279 -0.8368 -0.8004  0.6133
  276TMC3    H1 4174   1.359   4.112  14.448 -0.4421  0.4282  1.3029
  276TMC3    H2 4175   1.414   3.742  14.668  3.2461 -1.0721 -1.8410
  276TMC3    C7 4176   1.486   3.996  14.655 -0.0555 -0.0230  0.3158
  276TMC3    C8 4177   1.282   3.591  14.483  0.1543 -0.3933  0.6910
  276TMC3    O1 4178   1.487   3.949  14.766 -0.0014  0.0294 -0.2966
  276TMC3    O2 4179   1.266   3.534  14.377 -0.0102 -0.0217  0.3055
  277MPD2     C 4180   2.952   2.768  13.648  0.8327 -0.4918  0.2025
  277MPD2    C1 4181   2.835   2.840  13.664  0.6763 -0.2567 -0.0175
  277MPD2    C2 4182   2.736   2.775  13.741 -0.2446  0.2979  0.0165
  277MPD2    C3 4183   2.756   2.653  13.810 -0.4371 -0.2676 -0.1065
  277MPD2    C4 4184   2.875   2.586  13.790  0.3936 -0.6670 -0.2283
  277MPD2    C5 4185   2.972   2.651  13.715  0.0740 -0.2430 -0.5535
  277MPD2     H 4186   2.637   2.818  13.745 -1.4081 -2.5183  1.0707
  277MPD2    H1 4187   2.907   2.492  13.833  0.9712  0.5114  1.9124
  277MPD2    H2 4188   3.030   2.803  13.582  1.0552 -0.1691  0.6312
  277MPD2    H3 4189   3.070   2.606  13.710  0.4087  0.7172 -2.5770
  277MPD2     N 4190   2.643   2.591  13.863  0.0949  0.1457  0.7087
  277MPD2    H5 4191   2.562   2.652  13.861  0.0718  0.0379 -1.3645
  277MPD2    N1 4192   2.827   2.963  13.602 -0.2546 -0.5574  0.1044
  277MPD2    H7 4193   2.899   2.979  13.533 -1.1369  0.1152 -0.6650
  278TMC3    C1 4194   2.494   2.457  13.976  0.2358  0.4266 -0.2836
  278TMC3    C2 4195   2.425   2.350  13.927  0.4508  0.6287 -0.6587
  278TMC3    C3 4196   2.293   2.378  13.904  0.5318 -0.7084 -0.1366
  278TMC3    C4 4197   2.452   2.576  14.005 -0.0689 -0.4680  0.5694
  278TMC3    C5 4198   2.312   2.594  13.995  0.6219 -0.8808  0.8285
  278TMC3    C6 4199   2.229   2.497  13.938  0.7040  0.1718 -0.0366
  278TMC3     C 4200   2.627   2.461  13.912  0.6358 -0.8280 -0.2825
  278TMC3     O 4201   2.703   2.367  13.913 -0.2289  0.1898  0.1104
  278TMC3     H 4202   2.477   2.268  13.879  1.7877 -0.2138  2.2158
  278TMC3    H1 4203   2.509   2.645  14.066 -0.8719  0.4811  0.2687
  278TMC3    H2 4204   2.123   2.508  13.957  0.6115 -0.4225 -0.2060
  278TMC3    C7 4205   2.253   2.705  14.068  0.2212  0.2869  0.3781
  278TMC3    C8 4206   2.206   2.269  13.863 -0.3275  0.5615  0.3551
  278TMC3    O1 4207   2.327   2.767  14.142  0.1319  0.3634  0.2241
  278TMC3    O2 4208   2.247   2.157  13.865  0.4573 -0.2628 -0.2334
  279MPD2     C 4209   2.334   2.811   0.006  0.3753  0.1133  0.1137
  279MPD2    C1 4210   2.324   2.943   0.037 -1.0765  0.2107 -0.9013
  279MPD2    C2 4211   2.290   3.030  17.640  0.3734 -0.5898 -0.3082
  279MPD2    C3 4212   2.239   2.985  17.514  0.2375  0.0766 -0.1344
  279MPD2    C4 4213   2.239   2.848  17.494  0.4638 -0.6330 -0.1532
  279MPD2    C5 4214   2.283   2.767  17.591 -0.3970  0.0301 -0.2743
  279MPD2     H 4215   2.305   3.137  17.652 -0.0415 -0.2822 -2.5571
  279MPD2    H1 4216   2.204   2.802  17.402  1.6389  2.2608 -2.0634
  279MPD2    H2 4217   2.388   2.741   0.069 -0.2963 -1.4578 -1.0749
  279MPD2    H3 4218   2.280   2.661  17.567 -2.2107  0.0956 -0.3622
  279MPD2     N 4219   2.187   3.069  17.415 -0.1618 -0.9226  0.3160
  279MPD2    H5 4220   2.154   3.028  17.328 -1.4799  0.6177  0.0966
  279MPD2    N1 4221   2.350   2.992   0.166  0.1981  0.3866 -0.0698
  279MPD2    H7 4222   2.400   2.931   0.230 -0.1359  0.6277  0.4271
  280TMC3    C1 4223   2.175   3.153   0.166  0.3542  0.2149 -0.9698
  280TMC3    C2 4224   2.069   3.072   0.143 -0.1678 -0.2669 -0.9367
  280TMC3    C3 4225   1.959   3.120   0.077 -0.4452 -0.0506  0.2435
  280TMC3    C4 4226   2.174   3.281   0.144  0.3498  0.3494 -0.4326
  280TMC3    C5 4227   2.064   3.334   0.079  0.6843  0.7141 -0.0272
  280TMC3    C6 4228   1.960   3.255   0.042 -0.0337 -0.2274  0.2335
  280TMC3     C 4229   2.293   3.102   0.230  0.7014 -0.1717  0.3359
  280TMC3     O 4230   2.327   3.151   0.333 -0.4154 -0.4559 -0.3480
  280TMC3     H 4231   2.086   2.967   0.165  0.9470  0.1983  0.4064
  280TMC3    H1 4232   2.259   3.344   0.170 -1.7681  2.1594  2.2138
  280TMC3    H2 4233   1.877   3.298  17.691  0.5595 -0.0939 -0.5615
  280TMC3    C7 4234   2.086   3.469   0.030  0.4215 -0.2119 -0.3432
  280TMC3    C8 4235   1.862   3.042   0.010  0.1173  0.9216  0.3286
  280TMC3    O1 4236   2.203   3.513   0.043 -0.1389  0.0361  0.3964
  280TMC3    O2 4237   1.799   3.092  17.625  0.0078 -0.0573  0.1962
  281TMC3    C1 4238   0.433   3.170  13.448  0.0006 -0.3569  0.7982
  281TMC3    C2 4239   0.554   3.204  13.502 -1.2160  0.0252  0.4939
  281TMC3    C3 4240   0.661   3.129  13.468 -0.1896 -0.1100 -0.3170
  281TMC3    C4 4241   0.415   3.058  13.374  0.2070 -0.4048 -0.2433
  281TMC3    C5 4242   0.531   2.982  13.351  0.2379 -0.6287 -0.4130
  281TMC3    C6 4243   0.653   3.015  13.389  0.1637  0.4175  0.1446
  281TMC3     C 4244   0.346   3.283  13.425 -0.0434 -0.6042 -0.0958
  281TMC3     O 4245   0.266   3.262  13.334 -0.1260 -0.3697 -0.8551
  281TMC3     H 4246   0.575   3.281  13.575  0.5679 -0.8385  0.8858
  281TMC3    H1 4247   0.330   3.036  13.311 -0.6733 -1.7249  1.4018
  281TMC3    H2 4248   0.736   2.950  13.363  1.1460  1.6348  0.2827
  281TMC3    C7 4249   0.520   2.907  13.231 -0.1209 -0.2806 -0.1819
  281TMC3    C8 4250   0.783   3.130  13.551 -0.4109 -0.2370  0.0998
  281TMC3    O1 4251   0.604   2.933  13.146  0.1679 -0.3058 -0.7854
  281TMC3    O2 4252   0.833   3.022  13.582  0.3917  0.6202  0.5144
  282MPD2     C 4253   2.666   4.535  15.192 -0.2314  0.0971 -0.4698
  282MPD2    C1 4254   2.545   4.596  15.197  0.2934 -0.1033  0.6797
  282MPD2    C2 4255   2.475   4.627  15.083  0.4375  0.1128  0.4355
  282MPD2    C3 4256   2.528   4.586  14.963 -0.3641 -0.7330  0.3588
  282MPD2    C4 4257   2.659   4.520  14.956  0.1939  0.1462 -0.4338
  282MPD2    C5 4258   2.725   4.490  15.075  0.0922  0.4603 -0.1500
  282MPD2     H 4259   2.383   4.685  15.085  1.6139  1.9303  1.5130
  282MPD2    H1 4260   2.708   4.490  14.864  1.0809  0.6591 -0.1238
  282MPD2    H2 4261   2.726   4.511  15.280 -0.9172  2.0554  0.5458
  282MPD2    H3 4262   2.812   4.428  15.091 -0.2390  0.3055  1.0194
  282MPD2     N 4263   2.454   4.613  14.845 -0.6384 -0.3068  0.2810
  282MPD2    H5 4264   2.369   4.667  14.852 -0.7727 -0.4615 -0.1030
  282MPD2    N1 4265   2.483   4.630  15.321 -0.0442 -0.1187 -0.3685
  282MPD2    H7 4266   2.385   4.655  15.311  0.1664  0.7917 -0.1229
  283TMC3    C1 4267   2.420   4.603  15.542  0.2629  0.1320 -0.0479
  283TMC3    C2 4268   2.367   0.002  15.550 -0.2696 -0.2408  0.0049
  283TMC3    C3 4269   2.270   0.017  15.639  0.3125 -0.1981  0.5755
  283TMC3    C4 4270   2.380   4.498  15.624  0.0352  0.0713 -0.0653
  283TMC3    C5 4271   2.285   4.519  15.722  0.2447 -0.5655 -0.0810
  283TMC3    C6 4272   2.223   4.643  15.717  0.4079 -0.3677  0.0659
  283TMC3     C 4273   2.525   4.588  15.447  0.4692  0.1639 -0.2504
  283TMC3     O 4274   2.623   4.531  15.483 -0.1405  0.9255 -0.3421
  283TMC3     H 4275   2.410   0.082  15.491  1.7889 -1.1132  0.2936
  283TMC3    H1 4276   2.433   4.404  15.612  0.2480 -0.0545  1.8877
  283TMC3    H2 4277   2.152   4.664  15.796 -1.2750  1.1227 -1.8507
  283TMC3    C7 4278   2.210   4.410  15.783  0.1096  0.3228 -0.1471
  283TMC3    C8 4279   2.245   0.142  15.707  0.2004 -0.1065  0.6532
  283TMC3    O1 4280   2.159   4.438  15.890  0.1275 -0.9790  0.2921
  283TMC3    O2 4281   2.247   0.138  15.828 -0.4643 -0.8459  0.0394
  284MPD2     C 4282   0.519   4.494  12.159 -0.1563  0.2685 -0.0923
  284MPD2    C1 4283   0.601   4.398  12.114  0.4683 -0.9207 -0.2090
  284MPD2    C2 4284   0.573   4.271  12.150  0.1149 -0.2049  0.0440
  284MPD2    C3 4285   0.469   4.242  12.230  0.2533 -0.0423 -0.2190
  284MPD2    C4 4286   0.381   4.341  12.273  0.1521 -0.0663 -0.2682
  284MPD2    C5 4287   0.408   4.469  12.234  0.4876 -0.2812 -0.0558
  284MPD2     H 4288   0.634   4.191  12.112  0.5478  0.8538 -1.4886
  284MPD2    H1 4289   0.294   4.315  12.332  1.0703 -1.0070  0.6805
  284MPD2    H2 4290   0.533   4.599  12.134  1.7004  0.2476  0.8091
  284MPD2    H3 4291   0.337   4.545  12.262 -0.3550 -1.0337 -0.1669
  284MPD2     N 4292   0.450   4.114  12.281 -0.4378 -0.8564  0.7893
  284MPD2    H5 4293   0.385   4.108  12.359 -1.0148  1.1870  0.4758
  284MPD2    N1 4294   0.725   4.425  12.048  0.2995 -0.1000 -0.3392
  284MPD2    H7 4295   0.776   4.347  12.009 -0.8844 -1.0684  0.0505
  285TMC3    C1 4296   0.912   4.552  11.972  0.2802  0.5520  0.1479
  285TMC3    C2 4297   0.998   4.451  12.006 -0.0160 -0.3747  0.0790
  285TMC3    C3 4298   1.126   4.457  11.967 -0.3896 -0.5043 -0.3649
  285TMC3    C4 4299   0.949   4.664  11.907 -1.2776  0.8943  0.4434
  285TMC3    C5 4300   1.082   4.673  11.874  0.1998 -0.4414 -0.6757
  285TMC3    C6 4301   1.171   4.574  11.913  0.0858  0.3479 -1.0168
  285TMC3     C 4302   0.774   4.555  12.028 -0.3097  0.2276 -0.0114
  285TMC3     O 4303   0.732   4.661  12.072 -0.0246 -0.0746  0.7845
  285TMC3     H 4304   0.966   4.369  12.069  0.7236 -0.1804  0.7069
  285TMC3    H1 4305   0.866   0.005  11.885 -0.7024  0.0719 -4.0917
  285TMC3    H2 4306   1.274   4.590  11.883 -0.1221  1.9344 -0.8715
  285TMC3    C7 4307   1.124   0.052  11.783 -0.3021 -0.4708 -0.9648
  285TMC3    C8 4308   1.194   4.338  11.940  0.3451  0.2104 -0.0731
  285TMC3    O1 4309   1.242   0.078  11.771 -0.1009 -0.6488 -0.2537
  285TMC3    O2 4310   1.122   4.244  11.917 -0.4239  0.0190 -0.2097
  286MPD2     C 4311   1.719   2.360   1.714 -0.5283 -0.4092 -0.1680
  286MPD2    C1 4312   1.662   2.345   1.587 -0.1507  0.8153 -0.2778
  286MPD2    C2 4313   1.726   2.264   1.499 -0.0015 -0.1265  0.5029
  286MPD2    C3 4314   1.848   2.206   1.529 -1.0249  0.1526  0.1112
  286MPD2    C4 4315   1.896   2.205   1.656 -0.3629  0.2406 -0.6956
  286MPD2    C5 4316   1.831   2.284   1.745 -0.2085  0.1035 -0.5465
  286MPD2     H 4317   1.696   2.283   1.397 -0.4637  1.2989  0.9048
  286MPD2    H1 4318   1.982   2.141   1.677 -2.4583 -3.3956 -3.1210
  286MPD2    H2 4319   1.689   2.435   1.786 -0.4141 -0.4485 -0.0784
  286MPD2    H3 4320   1.877   2.300   1.841 -2.2801  0.5907  0.3620
  286MPD2     N 4321   1.927   2.135   1.439  0.1034  0.5647  0.5422
  286MPD2    H5 4322   2.016   2.105   1.475  0.0167 -0.3841 -0.0495
  286MPD2    N1 4323   1.537   2.405   1.554 -0.8233  0.6984  0.4261
  286MPD2    H7 4324   1.500   2.397   1.460  1.9848 -1.4299 -0.4994
  287TMC3    C1 4325   2.019   2.052   1.237  0.4390  0.1362  0.2433
  287TMC3    C2 4326   1.974   1.989   1.122  0.2933 -0.7331  0.7277
  287TMC3    C3 4327   2.062   1.902   1.063  0.2378  0.4033  0.6319
  287TMC3    C4 4328   2.141   2.024   1.295 -0.1661  0.0972  1.0361
  287TMC3    C5 4329   2.228   1.941   1.230 -0.1927 -0.0614  0.1746
  287TMC3    C6 4330   2.185   1.877   1.116  0.2365 -0.1765  0.0157
  287TMC3     C 4331   1.905   2.114   1.309  0.7130  0.0718  0.5652
  287TMC3     O 4332   1.813   2.162   1.243 -0.1248 -0.0651 -0.3592
  287TMC3     H 4333   1.870   1.988   1.092  0.4701  1.8830  0.0279
  287TMC3    H1 4334   2.159   2.062   1.395  0.5352 -1.2389  1.4297
  287TMC3    H2 4335   2.239   1.813   1.047  3.9700  0.1440  2.6495
  287TMC3    C7 4336   2.343   1.888   1.304 -0.1702  0.0612 -0.3551
  287TMC3    C8 4337   2.025   1.852   0.932 -0.1938  0.6394 -0.0071
  287TMC3    O1 4338   2.348   1.912   1.424  0.6727 -0.0705 -0.0342
  287TMC3    O2 4339   2.073   1.749   0.882  0.1346 -0.8307 -0.2051
  288TMC3    C1 4340   2.724   2.260  14.239 -0.0359 -0.6091 -0.1980
  288TMC3    C2 4341   2.624   2.255  14.337 -0.4377  0.3915 -0.3000
  288TMC3    C3 4342   2.592   2.372  14.405 -0.2176  0.3426 -0.9488
  288TMC3    C4 4343   2.785   2.376  14.206  0.3283  0.0300  0.7489
  288TMC3    C5 4344   2.748   2.491  14.273  0.1785 -0.0523  0.3724
  288TMC3    C6 4345   2.655   2.489  14.367  0.5964 -0.6995  0.8340
  288TMC3     C 4346   2.801   2.137  14.251 -0.5458 -0.1995  0.0349
  288TMC3     O 4347   2.736   2.037  14.282 -1.1624 -0.3140 -0.2202
  288TMC3     H 4348   2.572   2.162  14.357  0.8580  0.0844  1.6855
  288TMC3    H1 4349   2.836   2.392  14.111  0.8304 -1.9699  0.6633
  288TMC3    H2 4350   2.630   2.582  14.416  3.2454 -0.2417  1.2861
  288TMC3    C7 4351   2.780   2.617  14.210 -0.2740  0.4338  0.3447
  288TMC3    C8 4352   2.512   2.371  14.530 -0.6143 -0.1398 -0.4176
  288TMC3    O1 4353   2.700   2.708  14.225  0.0994  0.4098 -0.0931
  288TMC3    O2 4354   2.521   2.476  14.591  0.1876  0.5199 -0.1817
  289MPD2     C 4355   2.770   1.660  14.213  0.5650 -0.1451  0.3344
  289MPD2    C1 4356   2.723   1.749  14.124  0.0155  0.3722 -0.4976
  289MPD2    C2 4357   2.592   1.752  14.098 -0.3174  0.0545 -0.6799
  289MPD2    C3 4358   2.503   1.672  14.168 -0.4039 -0.9087 -0.0682
  289MPD2    C4 4359   2.553   1.586  14.259  0.4429 -0.1775 -0.0126
  289MPD2    C5 4360   2.686   1.584  14.292  0.9986  0.0030 -1.0454
  289MPD2     H 4361   2.557   1.822  14.024 -0.0709 -0.4789 -1.3058
  289MPD2    H1 4362   2.484   1.521  14.311  2.4054 -3.6517 -1.7231
  289MPD2    H2 4363   2.876   1.651  14.233  0.1087 -1.5382  2.0752
  289MPD2    H3 4364   2.728   1.525  14.373 -3.4404 -1.5014  0.1415
  289MPD2     N 4365   2.361   1.679  14.160 -0.5291  0.1064 -0.0487
  289MPD2    H5 4366   2.307   1.612  14.214  0.4441 -1.2766 -0.7740
  289MPD2    N1 4367   2.821   1.821  14.059 -0.8762 -0.2149 -0.7924
  289MPD2    H7 4368   2.919   1.799  14.069 -0.6176  1.2303 -0.1472
  290TMC3    C1 4369   2.146   1.769  14.086 -0.5417 -0.0779 -0.2506
  290TMC3    C2 4370   2.089   1.890  14.070 -0.8758  0.0121  0.6543
  290TMC3    C3 4371   1.961   1.903  14.086 -0.2748 -0.7835  0.1382
  290TMC3    C4 4372   2.082   1.665  14.136  0.2000 -0.0704 -0.9977
  290TMC3    C5 4373   1.945   1.679  14.147  0.2143 -0.4097  0.1581
  290TMC3    C6 4374   1.883   1.796  14.123  0.2080 -0.0348  0.1406
  290TMC3     C 4375   2.286   1.766  14.082 -0.2063  0.0383 -1.0172
  290TMC3     O 4376   2.331   1.850  14.002  0.4527  0.2720 -0.2890
  290TMC3     H 4377   2.143   1.972  14.025 -2.8665  0.1882 -1.4608
  290TMC3    H1 4378   2.129   1.567  14.142  0.5993  0.0748 -1.8226
  290TMC3    H2 4379   1.775   1.804  14.130  0.3615  0.7604  1.6297
  290TMC3    C7 4380   1.871   1.556  14.134 -0.9304 -0.1119  0.1091
  290TMC3    C8 4381   1.908   2.032  14.081 -0.3067  0.5254  0.2758
  290TMC3    O1 4382   1.758   1.572  14.086  0.4178  0.2798  0.6080
  290TMC3    O2 4383   1.788   2.026  14.048 -0.0713 -0.0508  0.4844
  291MPD2     C 4384   1.983   1.463   0.275 -0.3941 -0.3185 -1.0488
  291MPD2    C1 4385   1.993   1.342   0.205  0.1983  1.0965 -0.5143
  291MPD2    C2 4386   2.036   1.342   0.073 -0.0816 -1.2892 -0.4280
  291MPD2    C3 4387   2.049   1.465  17.702 -0.1096  0.1669  0.0819
  291MPD2    C4 4388   2.035   1.576   0.069  0.4554  0.4905  0.3468
  291MPD2    C5 4389   2.002   1.576   0.206  0.9647 -0.4961  0.0393
  291MPD2     H 4390   2.049   1.250   0.017 -1.1835 -2.0466  0.5509
  291MPD2    H1 4391   2.036   1.674   0.024  0.4411  0.7958  1.0043
  291MPD2    H2 4392   1.953   1.476   0.379 -1.3990 -1.0579 -1.2522
  291MPD2    H3 4393   1.993   1.669   0.260  0.7670 -0.5394  0.0805
  291MPD2     N 4394   2.054   1.473  17.560  0.1164  0.9186 -0.5069
  291MPD2    H5 4395   2.017   1.560  17.525 -2.4119 -0.2217 -0.7316
  291MPD2    N1 4396   1.935   1.221   0.264 -0.2161  0.0207 -0.5881
  291MPD2    H7 4397   1.953   1.139   0.207  0.9873 -1.0016  1.2648
  292TMC3    C1 4398   1.783   1.101   0.385  0.1144  0.1105  0.6571
  292TMC3    C2 4399   1.731   1.054   0.508 -0.4353 -0.0412  0.5610
  292TMC3    C3 4400   1.642   0.951   0.505 -0.1314 -0.3160  0.1775
  292TMC3    C4 4401   1.745   1.038   0.269 -0.5631  0.0764  0.4502
  292TMC3    C5 4402   1.645   0.950   0.269 -0.7135 -0.4966 -0.8355
  292TMC3    C6 4403   1.591   0.899   0.385  0.0994 -0.2350  0.0783
  292TMC3     C 4404   1.865   1.219   0.381  0.7036  0.2663 -0.2964
  292TMC3     O 4405   1.872   1.279   0.486 -0.6018  0.5007 -0.5041
  292TMC3     H 4406   1.766   1.105   0.597 -0.4404  2.2179 -0.7196
  292TMC3    H1 4407   1.794   1.059   0.175 -0.9546  0.0677  0.2462
  292TMC3    H2 4408   1.508   0.830   0.394 -0.7994  0.5871 -1.9079
  292TMC3    C7 4409   1.619   0.893   0.139 -0.1999 -0.2504  0.2228
  292TMC3    C8 4410   1.576   0.927   0.639  0.2443  0.6789 -0.1063
  292TMC3    O1 4411   1.712   0.877   0.060  0.3156  0.2976  0.0776
  292TMC3    O2 4412   1.619   0.979   0.741  0.5298 -0.3946  0.4275
  293MPD2     C 4413   3.936   3.379  12.339 -0.1236  0.1407 -0.1295
  293MPD2    C1 4414   3.848   3.291  12.400  0.1992  0.0600 -0.1439
  293MPD2    C2 4415   3.861   3.269  12.537  0.6539 -0.3541 -0.3774
  293MPD2    C3 4416   3.967   3.327  12.607 -0.2905 -0.0770  0.0646
  293MPD2    C4 4417   4.050   3.416  12.538 -0.1170  0.2077  0.0699
  293MPD2    C5 4418   4.035   3.442  12.407  0.7752 -0.3380 -0.2475
  293MPD2     H 4419   3.794   3.199  12.584  2.9843 -1.8469  0.7042
  293MPD2    H1 4420   4.124   3.475  12.591 -0.0904 -2.0041  2.4918
  293MPD2    H2 4421   3.930   3.401  12.233 -2.4062  0.1101 -0.0006
  293MPD2    H3 4422   4.101   3.511  12.356 -0.6089  1.3411  0.2250
  293MPD2     N 4423   3.982   3.301  12.749  0.4031 -0.3602 -0.0913
  293MPD2    H5 4424   3.908   3.244  12.789  1.4439 -2.8964 -1.7013
  293MPD2    N1 4425   3.732   3.245  12.334 -0.2326 -0.4587  1.0429
  293MPD2    H7 4426   3.722   3.277  12.238  1.7295 -1.3262  0.5553
  294TMC3    C1 4427   3.537   3.137  12.290 -0.5853  1.2454 -0.1326
  294TMC3    C2 4428   3.418   3.085  12.335  0.3212 -0.0287  0.2358
  294TMC3    C3 4429   3.332   3.047  12.233 -0.1343 -0.0034 -0.5221
  294TMC3    C4 4430   3.572   3.120  12.152  1.2289 -0.2851 -0.6459
  294TMC3    C5 4431   3.480   3.075  12.060  0.1040 -0.2388 -1.0109
  294TMC3    C6 4432   3.354   3.048  12.102  0.2701  0.6132  0.7641
  294TMC3     C 4433   3.638   3.162  12.381  0.7304  0.5485 -0.7738
  294TMC3     O 4434   3.645   3.090  12.480  0.2011  0.0964  0.3130
  294TMC3     H 4435   3.380   3.084  12.436  0.0743  1.6751  0.1514
  294TMC3    H1 4436   3.668   3.150  12.112  1.5697  0.6559  0.8891
  294TMC3    H2 4437   3.275   3.011  12.037 -0.0330 -2.5613  2.9413
  294TMC3    C7 4438   3.530   3.075  11.922  0.6980  0.4888  1.0817
  294TMC3    C8 4439   3.228   2.958  12.288  0.1546 -0.0599 -0.0366
  294TMC3    O1 4440   3.652   3.058  11.918  0.1264  0.4870 -0.2640
  294TMC3    O2 4441   3.173   3.000  12.386 -0.0196  0.6479  0.0886
  295MPD2     C 4442   3.974   1.470   0.100  0.3714  0.8359 -0.0799
  295MPD2    C1 4443   4.058   1.576   0.125  0.0952 -0.4840  0.1636
  295MPD2    C2 4444   4.072   1.629   0.255  0.5754 -0.7311 -0.9493
  295MPD2    C3 4445   4.002   1.569   0.362 -0.6124  0.4744 -0.2054
  295MPD2    C4 4446   3.912   1.468   0.332  0.3990 -0.1266  0.6132
  295MPD2    C5 4447   3.897   1.430   0.205 -0.4040  0.3360 -0.6399
  295MPD2     H 4448   4.135   1.716   0.269  0.0851 -0.7570  1.3645
  295MPD2    H1 4449   3.856   1.429   0.416 -0.9357 -0.5673 -0.4869
  295MPD2    H2 4450   3.967   1.428  17.704 -0.6618  1.0354 -0.0850
  295MPD2    H3 4451   3.832   1.347   0.182 -0.9876  0.0770  1.8874
  295MPD2     N 4452   4.001   1.623   0.494 -0.0456 -0.0246  0.0917
  295MPD2    H5 4453   3.930   1.593   0.560  0.0335 -2.0555 -0.7472
  295MPD2    N1 4454   4.137   1.637   0.025  0.2367 -0.0327  0.4991
  295MPD2    H7 4455   4.213   1.700   0.050 -0.9964  1.7453 -0.2167
  296TMC3    C1 4456   4.070   1.763   0.670 -0.2072  0.2253 -0.4742
  296TMC3    C2 4457   4.177   1.808   0.747  0.1255 -0.3091 -0.4718
  296TMC3    C3 4458   4.171   1.825   0.883  0.2334  0.4444 -0.2840
  296TMC3    C4 4459   3.948   1.738   0.737  0.4154 -0.2665  0.1235
  296TMC3    C5 4460   3.948   1.756   0.876  0.0713  0.2779  0.1982
  296TMC3    C6 4461   4.055   1.797   0.958 -0.9008 -0.4142  0.5068
  296TMC3     C 4462   4.093   1.710   0.537 -0.2637  0.4044 -1.2887
  296TMC3     O 4463   4.195   1.743   0.475  0.1046 -0.8490 -0.1199
  296TMC3     H 4464   4.272   1.830   0.700 -0.4709  0.2809 -1.3804
  296TMC3    H1 4465   3.862   1.698   0.684  0.2730  1.0612 -0.6770
  296TMC3    H2 4466   4.057   1.781   1.065 -1.0869 -1.0029  0.4205
  296TMC3    C7 4467   3.831   1.697   0.938  0.5641  0.1906 -0.1879
  296TMC3    C8 4468   4.290   1.873   0.947 -0.4472  0.3056 -0.5324
  296TMC3    O1 4469   3.719   1.720   0.897 -0.1998  0.1180 -0.1290
  296TMC3    O2 4470   4.404   1.864   0.894  0.5044 -0.5304 -0.1302
  297MPD2     C 4471   1.393   3.543  16.434 -0.3145  0.0391 -0.5147
  297MPD2    C1 4472   1.359   3.655  16.364 -0.2253  0.1215 -0.7456
  297MPD2    C2 4473   1.457   3.737  16.319  0.3079 -0.2621 -0.0130
  297MPD2    C3 4474   1.591   3.720  16.342 -0.6974 -0.4666  0.4301
  297MPD2    C4 4475   1.625   3.606  16.415  0.1790  0.3935  0.4555
  297MPD2    C5 4476   1.525   3.519  16.455 -0.8005  0.6119  0.0134
  297MPD2     H 4477   1.438   3.831  16.268  0.0536  0.8089  2.0933
  297MPD2    H1 4478   1.727   3.584  16.446  0.1122  0.4116  0.6888
  297MPD2    H2 4479   1.327   3.460  16.456 -0.7183  1.1962  2.5807
  297MPD2    H3 4480   1.557   3.432  16.510  0.0839  0.7065 -0.3442
  297MPD2     N 4481   1.683   3.816  16.285 -0.5863 -1.1094 -0.2706
  297MPD2    H5 4482   1.637   3.891  16.234  0.7282 -0.1449 -0.0365
  297MPD2    N1 4483   1.232   3.677  16.305 -0.5509  0.2321  0.3238
  297MPD2    H7 4484   1.219   3.760  16.247 -0.9977  1.0964  1.6576
  298TMC3    C1 4485   0.995   3.676  16.288  0.6154  0.3120  0.7556
  298TMC3    C2 4486   0.995   3.693  16.149 -0.1266 -0.3346  0.1818
  298TMC3    C3 4487   0.870   3.730  16.093 -0.1808 -0.0447  0.3653
  298TMC3    C4 4488   0.889   3.689  16.367  0.7402  0.2930 -0.4700
  298TMC3    C5 4489   0.778   3.752  16.306  0.4703  0.2733 -0.5278
  298TMC3    C6 4490   0.762   3.762  16.174 -0.0375 -0.0511 -1.2058
  298TMC3     C 4491   1.117   3.618  16.348  0.7719 -0.4074 -0.0348
  298TMC3     O 4492   1.098   3.543  16.444 -0.0035 -0.0839  0.4447
  298TMC3     H 4493   1.083   3.680  16.088 -0.4111 -0.7307 -0.1449
  298TMC3    H1 4494   0.896   3.688  16.475 -1.0285  0.8027 -0.3559
  298TMC3    H2 4495   0.672   3.796  16.124  0.6432  0.2921 -2.2002
  298TMC3    C7 4496   0.685   3.820  16.398 -0.6126  0.5209  0.4363
  298TMC3    C8 4497   0.850   3.761  15.950  0.0526 -0.0685  0.0217
  298TMC3    O1 4498   0.718   3.840  16.515 -0.2042  0.4206 -0.0287
  298TMC3    O2 4499   0.736   3.784  15.913 -0.2666  0.5753 -0.4156
  299MPD2     C 4500   1.983   3.734  10.649 -0.4132 -0.1704  0.6333
  299MPD2    C1 4501   2.002   3.874  10.665 -0.1157 -0.0030  0.7639
  299MPD2    C2 4502   1.912   3.961  10.611  0.8929 -0.5380 -0.5158
  299MPD2    C3 4503   1.814   3.920  10.526 -0.1392 -1.0181  0.0407
  299MPD2    C4 4504   1.797   3.782  10.512 -0.6468 -0.0641 -0.4079
  299MPD2    C5 4505   1.884   3.690  10.569 -0.0344 -0.2442  0.4235
  299MPD2     H 4506   1.928   4.067  10.628 -1.2918 -0.1230 -0.9413
  299MPD2    H1 4507   1.714   3.746  10.452 -0.7269  0.6132 -0.7113
  299MPD2    H2 4508   2.050   3.663  10.696  0.9019 -0.6005 -1.9096
  299MPD2    H3 4509   1.874   3.583  10.552 -1.5884 -0.1058  0.4657
  299MPD2     N 4510   1.710   4.004  10.485  0.6101 -0.2833  0.2667
  299MPD2    H5 4511   1.632   3.952  10.448  1.5855 -1.5561 -0.0034
  299MPD2    N1 4512   2.103   3.913  10.754  0.2343 -0.5481 -0.1293
  299MPD2    H7 4513   2.149   3.840  10.808  0.7542 -0.1370 -0.0187
  300TMC3    C1 4514   1.576   4.200  10.478 -0.1362 -0.1895 -0.4137
  300TMC3    C2 4515   1.551   4.303  10.560 -0.1150 -0.0537  0.1506
  300TMC3    C3 4516   1.426   4.299  10.621 -0.3210 -0.7083  0.8154
  300TMC3    C4 4517   1.484   4.108  10.433 -0.1011 -0.1486 -0.1420
  300TMC3    C5 4518   1.356   4.108  10.492 -0.4633  0.2538 -0.5381
  300TMC3    C6 4519   1.331   4.199  10.588  0.2144  0.5153  0.7055
  300TMC3     C 4520   1.708   4.145  10.494 -0.6787 -0.8197 -0.0509
  300TMC3     O 4521   1.795   4.224  10.523 -0.6299 -0.3299  0.1829
  300TMC3     H 4522   1.619   4.383  10.589 -1.1956  1.4534 -1.3856
  300TMC3    H1 4523   1.509   4.044  10.349  0.2585  1.4328 -1.2391
  300TMC3    H2 4524   1.234   4.192  10.636 -0.0408  0.1255  0.1341
  300TMC3    C7 4525   1.304   3.973  10.502 -0.6630  0.3360  0.5034
  300TMC3    C8 4526   1.380   4.387  10.726 -0.0017 -1.0735  0.2237
  300TMC3    O1 4527   1.290   3.902  10.402  0.1112 -0.4269  0.4680
  300TMC3    O2 4528   1.261   4.412  10.740 -0.2578  0.1354  0.6679
  301MPD2     C 4529   4.250   4.667   1.835 -0.0877  0.5226  0.1864
  301MPD2    C1 4530   4.123   4.622   1.809  0.6985  0.7990  0.3453
  301MPD2    C2 4531   4.108   4.488   1.767  0.2894  0.5843  0.7991
  301MPD2    C3 4532   4.212   4.397   1.744  0.4829 -0.7833 -0.5414
  301MPD2    C4 4533   4.341   4.461   1.758 -0.0287 -0.0980  0.1469
  301MPD2    C5 4534   4.354   4.585   1.807 -0.2052 -0.2830 -0.0999
  301MPD2     H 4535   4.005   4.459   1.750  0.2130  0.8767  0.7505
  301MPD2    H1 4536   4.434   4.411   1.735 -0.2393  0.3806 -1.7038
  301MPD2    H2 4537   4.267   0.030   1.894  1.9932  0.1016  0.2108
  301MPD2    H3 4538   4.455   4.619   1.826  0.2480 -1.8037  0.1808
  301MPD2     N 4539   4.197   4.262   1.708  0.6116  0.3582 -0.7024
  301MPD2    H5 4540   4.284   4.215   1.686 -0.6062 -2.2977  0.2519
  301MPD2    N1 4541   4.008   4.696   1.830  0.1057  0.5017  0.3002
  301MPD2    H7 4542   3.922   4.648   1.807  1.1951 -1.0342 -0.5295
  302TMC3    C1 4543   4.091   4.060   1.642 -0.5063 -0.7236 -0.3364
  302TMC3    C2 4544   4.214   3.994   1.637 -0.8559 -0.2164 -0.0369
  302TMC3    C3 4545   4.214   3.861   1.627 -0.1992 -0.1210  0.6437
  302TMC3    C4 4546   3.971   3.997   1.609 -0.2136  0.2449  0.6328
  302TMC3    C5 4547   3.985   3.860   1.578 -0.1780  0.1787 -0.2328
  302TMC3    C6 4548   4.100   3.791   1.593  0.5056  0.5359  0.7151
  302TMC3     C 4549   4.077   4.199   1.687  0.1775  0.6512 -1.0303
  302TMC3     O 4550   3.965   4.240   1.690  0.6302  0.9812  0.2130
  302TMC3     H 4551   4.308   4.044   1.657  0.0417 -2.5322  1.4946
  302TMC3    H1 4552   3.875   4.045   1.622 -0.8995 -1.3478  1.5463
  302TMC3    H2 4553   4.097   3.688   1.558 -1.6186  0.4837  1.0275
  302TMC3    C7 4554   3.868   3.796   1.518  0.1787 -0.6266  0.9068
  302TMC3    C8 4555   4.337   3.788   1.637 -0.4501 -0.0596 -0.3481
  302TMC3    O1 4556   3.839   3.680   1.551 -0.4289 -0.2984  0.1106
  302TMC3    O2 4557   4.333   3.668   1.649 -0.2123 -0.3414 -0.0833
  303MPD2     C 4558   0.234   3.311  10.490  0.3727 -0.7176  0.6284
  303MPD2    C1 4559   0.104   3.306  10.450  0.1382  0.0494 -0.3907
  303MPD2    C2 4560   0.048   3.413  10.385 -0.1236 -0.0061 -0.4311
  303MPD2    C3 4561   0.119   3.526  10.356 -0.3628  0.0070  1.2433
  303MPD2    C4 4562   0.253   3.537  10.401  0.6209 -0.7789 -0.1160
  303MPD2    C5 4563   0.313   3.426  10.466 -0.6425  0.2344 -0.3804
  303MPD2     H 4564   4.669   3.406  10.359 -0.1035  1.1888 -0.8425
  303MPD2    H1 4565   0.310   3.628  10.388 -1.1348  0.7167  2.7182
  303MPD2    H2 4566   0.279   3.227  10.541  1.1052 -0.8779 -0.2834
  303MPD2    H3 4567   0.412   3.434  10.508  0.0638 -0.1408 -2.0057
  303MPD2     N 4568   0.074   3.640  10.292 -0.2010  0.3802  0.3656
  303MPD2    H5 4569   0.135   3.719  10.274 -0.3098  0.6958  1.3840
  303MPD2    N1 4570   0.048   3.180  10.466 -0.0065  0.0791  0.0991
  303MPD2    H7 4571   0.098   3.116  10.527 -1.1381 -3.1934 -2.4529
  304TMC3    C1 4572   4.614   3.015  10.468  0.0222  0.5964  0.4276
  304TMC3    C2 4573   4.586   3.032  10.603  0.3410  0.4398  0.2216
  304TMC3    C3 4574   4.470   2.984  10.649 -0.0622 -0.1853  0.1116
  304TMC3    C4 4575   4.536   2.942  10.389  0.3051  0.2685  0.4723
  304TMC3    C5 4576   4.427   2.881  10.441  0.3370 -0.1200 -0.1642
  304TMC3    C6 4577   4.396   2.895  10.569 -0.0541 -1.1419 -0.1523
  304TMC3     C 4578   4.660   3.136  10.406 -0.3607  0.4854  0.6565
  304TMC3     O 4579   4.602   3.174  10.306  0.7052  0.7898 -0.3053
  304TMC3     H 4580   4.630   3.109  10.665  0.9408 -0.4229  0.8709
  304TMC3    H1 4581   4.548   2.957  10.282 -0.3455  2.2980  0.6780
  304TMC3    H2 4582   4.306   2.849  10.608 -1.7608  2.9865  0.8026
  304TMC3    C7 4583   4.312   2.854  10.358 -0.3233  0.4358  0.7354
  304TMC3    C8 4584   4.380   3.086  10.695 -0.7791  0.0349  0.4117
  304TMC3    O1 4585   4.206   2.904  10.403  0.4461 -0.4834 -0.4643
  304TMC3    O2 4586   4.417   3.164  10.780 -0.2017 -0.1688  0.3418
  305MPD2     C 4587   2.846   0.421  14.211  0.2729 -0.0610  0.5381
  305MPD2    C1 4588   2.775   0.300  14.201 -1.0531 -0.4346  0.6952
  305MPD2    C2 4589   2.755   0.251  14.075 -0.6264 -0.6355 -0.2894
  305MPD2    C3 4590   2.785   0.318  13.959 -0.6704 -0.4377  0.0363
  305MPD2    C4 4591   2.838   0.447  13.970 -0.3780  0.2074 -0.1980
  305MPD2    C5 4592   2.869   0.495  14.097  0.2468 -0.9189 -0.0653
  305MPD2     H 4593   2.709   0.153  14.070 -0.8913 -0.6772  2.9077
  305MPD2    H1 4594   2.870   0.500  13.881  0.3053  0.2197  0.0523
  305MPD2    H2 4595   2.870   0.462  14.309  0.5482 -1.0221  0.8739
  305MPD2    H3 4596   2.924   0.588  14.102  1.7754 -1.9143  1.4299
  305MPD2     N 4597   2.751   0.276  13.828 -0.0557 -0.0749  0.3616
  305MPD2    H5 4598   2.768   0.344  13.754 -1.4463 -0.7898 -0.6408
  305MPD2    N1 4599   2.738   0.231  14.325 -0.4249  0.3206  0.1890
  305MPD2    H7 4600   2.771   0.276  14.410  0.8180  0.7340 -0.4966
  306TMC3    C1 4601   2.686   0.043  14.461 -0.2804  0.3115  0.1288
  306TMC3    C2 4602   2.788   4.679  14.460 -0.2270 -0.1680  0.5698
  306TMC3    C3 4603   2.854   4.666  14.576 -0.0944  0.4189 -0.3563
  306TMC3    C4 4604   2.645   0.115  14.566  0.1231 -0.4947 -0.1141
  306TMC3    C5 4605   2.709   0.092  14.681  0.1487  0.0788  0.2279
  306TMC3    C6 4606   2.811   0.004  14.692 -0.5979  0.7397  0.5142
  306TMC3     C 4607   2.679   0.107  14.330 -0.1028  0.2476 -0.3269
  306TMC3     O 4608   2.625   0.036  14.245  0.0451 -0.1231  0.3544
  306TMC3     H 4609   2.815   4.644  14.361 -2.0337 -0.4716  0.1826
  306TMC3    H1 4610   2.563   0.184  14.549 -0.0832 -1.1255 -1.6469
  306TMC3    H2 4611   2.840   4.686  14.787 -2.0276  1.0439  1.0934
  306TMC3    C7 4612   2.662   0.165  14.799  0.4184  0.1824 -0.4315
  306TMC3    C8 4613   2.936   4.548  14.598 -0.3646 -0.5469  0.3582
  306TMC3    O1 4614   2.555   0.223  14.779 -0.1001  0.5522  0.0424
  306TMC3    O2 4615   2.928   4.454  14.521  0.0347 -0.1765 -0.0389
  307MPD2     C 4616   0.292   2.239   0.593  0.1954 -0.1190  0.3175
  307MPD2    C1 4617   0.228   2.352   0.633 -0.5211  0.4972 -0.2597
  307MPD2    C2 4618   0.092   2.333   0.649 -0.1081  0.5939 -0.4758
  307MPD2    C3 4619   0.025   2.210   0.640  0.4701  0.3101 -0.6075
  307MPD2    C4 4620   0.095   2.106   0.599  0.0589 -0.4191 -0.0989
  307MPD2    C5 4621   0.234   2.115   0.586 -0.6414 -0.4992 -0.0380
  307MPD2     H 4622   0.022   2.411   0.675 -1.3600 -0.7749  0.2440
  307MPD2    H1 4623   0.050   2.008   0.586  0.2483 -0.7142  1.4633
  307MPD2    H2 4624   0.395   2.244   0.561 -0.5466 -0.8441 -2.2501
  307MPD2    H3 4625   0.295   2.029   0.562  0.2853  0.2225 -0.2702
  307MPD2     N 4626   4.615   2.208   0.669  0.7604 -0.5559  0.5760
  307MPD2    H5 4627   4.574   2.290   0.714 -1.3730 -1.1762 -0.2197
  307MPD2    N1 4628   0.273   2.483   0.644 -0.0673 -0.0414  0.2714
  307MPD2    H7 4629   0.204   2.555   0.662  0.6267 -0.1997  3.7268
  308TMC3    C1 4630   4.181   2.192   0.687 -1.1901 -0.7305  0.2583
  308TMC3    C2 4631   4.170   2.246   0.812  0.6274  0.1209 -0.2060
  308TMC3    C3 4632   4.275   2.250   0.897  0.4240 -0.6536 -0.3813
  308TMC3    C4 4633   4.291   2.124   0.643  0.3518 -0.1314 -0.9882
  308TMC3    C5 4634   4.399   2.133   0.724  0.5756  0.1761 -0.0767
  308TMC3    C6 4635   4.398   2.202   0.846  0.3725 -0.4628 -0.3756
  308TMC3     C 4636   4.082   2.232   0.582 -0.4536 -0.0278 -0.4930
  308TMC3     O 4637   4.064   2.161   0.489 -0.1589  0.1015 -0.0458
  308TMC3     H 4638   4.087   2.308   0.845 -1.3075 -2.3207 -0.4875
  308TMC3    H1 4639   4.303   2.094   0.539 -1.7474  1.7023 -1.7735
  308TMC3    H2 4640   4.488   2.193   0.907 -1.6590 -0.1055  2.6986
  308TMC3    C7 4641   4.519   2.101   0.653  0.7406 -0.5246 -0.1877
  308TMC3    C8 4642   4.294   2.370   0.980  0.2715 -0.0979 -0.5196
  308TMC3    O1 4643   4.523   2.004   0.575  0.6563  0.1956 -0.1653
  308TMC3    O2 4644   4.388   2.443   0.945 -0.0024 -0.4591  0.3448
  309MPD2     C 4645   4.005   3.084  17.349  0.6645 -0.4268 -0.4410
  309MPD2    C1 4646   3.952   3.165  17.247 -0.7662 -0.1057 -0.0025
  309MPD2    C2 4647   3.878   3.277  17.287 -0.6478  0.2954  0.7451
  309MPD2    C3 4648   3.858   3.311  17.418  0.8439  0.0665 -0.1906
  309MPD2    C4 4649   3.920   3.238  17.517  0.3212 -0.4167 -0.1102
  309MPD2    C5 4650   3.997   3.123  17.481  0.2711 -0.5430  0.5219
  309MPD2     H 4651   3.842   3.339  17.205 -0.6630  2.2312  2.2034
  309MPD2    H1 4652   3.904   3.261  17.622  2.2344 -0.0018  0.1031
  309MPD2    H2 4653   4.052   2.991  17.319  1.2962 -0.6157  1.1637
  309MPD2    H3 4654   4.043   3.064  17.560  0.1887 -0.7571  0.4119
  309MPD2     N 4655   3.784   3.427  17.461 -0.1708  0.0072 -0.2522
  309MPD2    H5 4656   3.803   3.453  17.557 -0.9782  2.8705 -0.8895
  309MPD2    N1 4657   3.971   3.148  17.110  0.1402  0.1276 -0.2358
  309MPD2    H7 4658   3.924   3.206  17.041 -1.3123 -0.7023  0.0519
  310TMC3    C1 4659   4.126   3.127  16.928  0.0335 -1.1024 -0.3800
  310TMC3    C2 4660   4.031   3.186  16.852 -0.2715  0.2346  0.5985
  310TMC3    C3 4661   4.075   3.232  16.728 -0.2961 -0.3268  0.2555
  310TMC3    C4 4662   4.253   3.088  16.883 -0.0526 -0.4174 -1.0519
  310TMC3    C5 4663   4.287   3.135  16.754 -0.2670 -0.7833  0.1482
  310TMC3    C6 4664   4.196   3.195  16.675  0.2824  0.3493  0.8323
  310TMC3     C 4665   4.090   3.089  17.063  0.1871 -0.4634 -0.0368
  310TMC3     O 4666   4.174   3.028  17.126  0.0736 -0.6853  0.4394
  310TMC3     H 4667   3.931   3.217  16.880  0.1152  2.0050  0.0211
  310TMC3    H1 4668   4.330   3.045  16.945 -1.0389  0.2203  0.6197
  310TMC3    H2 4669   4.219   3.235  16.577 -1.5594  0.2322  0.3647
  310TMC3    C7 4670   4.422   3.122  16.699  0.0193 -0.2619 -0.1425
  310TMC3    C8 4671   3.979   3.283  16.626 -0.2871 -0.2203 -0.4709
  310TMC3    O1 4672   4.498   3.037  16.742 -0.6660 -1.0132  0.2293
  310TMC3    O2 4673   4.007   3.272  16.506 -0.0995 -0.1254  0.0954
  311MPD2     C 4674   1.943   0.077  12.563 -0.6392 -0.6588 -0.1917
  311MPD2    C1 4675   1.955   0.181  12.652  0.1794  0.8260 -0.6437
  311MPD2    C2 4676   1.845   0.212  12.731 -0.3333 -0.4424 -1.2435
  311MPD2    C3 4677   1.722   0.147  12.710  0.1846 -0.0574  0.3233
  311MPD2    C4 4678   1.719   0.045  12.610  0.1228 -0.4230 -0.0268
  311MPD2    C5 4679   1.828   0.013  12.529 -0.3058 -0.0156  0.1349
  311MPD2     H 4680   1.859   0.281  12.813 -0.2685 -1.8009 -0.1212
  311MPD2    H1 4681   1.627   4.719  12.587 -0.8652  0.9687  0.7778
  311MPD2    H2 4682   2.027   0.051  12.499  1.0625  2.0050  0.9345
  311MPD2    H3 4683   1.831   4.658  12.458 -2.2745  0.1587 -0.1580
  311MPD2     N 4684   1.613   0.171  12.800 -0.3555 -0.0022  0.6511
  311MPD2    H5 4685   1.640   0.219  12.885  0.4843 -1.6059  1.2947
  311MPD2    N1 4686   2.076   0.247  12.670  0.3754 -0.3075  0.2804
  311MPD2    H7 4687   2.061   0.342  12.701  3.1656 -0.5461  2.3476
  312TMC3    C1 4688   1.416   0.107  12.921 -0.6551  0.1512 -0.3385
  312TMC3    C2 4689   1.301   0.032  12.917  0.0150  0.2498 -0.0745
  312TMC3    C3 4690   1.237   0.037  13.039 -0.3999 -0.3379 -0.2901
  312TMC3    C4 4691   1.472   0.172  13.027 -0.5285 -0.2037  0.3016
  312TMC3    C5 4692   1.394   0.174  13.134 -0.3216  0.0276  0.3040
  312TMC3    C6 4693   1.273   0.111  13.146 -0.4128 -0.2536 -0.3702
  312TMC3     C 4694   1.492   0.110  12.790  0.3361  0.4194 -0.3458
  312TMC3     O 4695   1.428   0.072  12.692  0.2189 -0.1242  0.7341
  312TMC3     H 4696   1.262   4.701  12.834  1.0967 -1.3324  0.5074
  312TMC3    H1 4697   1.568   0.221  13.035 -0.0188 -0.7622 -2.5636
  312TMC3    H2 4698   1.207   0.112  13.232  1.6762 -2.6329  1.2618
  312TMC3    C7 4699   1.425   0.276  13.237 -0.0897 -0.1455 -0.9871
  312TMC3    C8 4700   1.106   4.707  13.041  0.5698 -0.6172  0.5084
  312TMC3    O1 4701   1.482   0.378  13.196  0.1999 -0.3780  0.8033
  312TMC3    O2 4702   1.101   4.587  13.011  0.6412  0.5390  0.3300
  313MPD2     C 4703   1.002   4.279  11.596 -0.5592 -0.3623  0.9370
  313MPD2    C1 4704   0.985   4.317  11.466 -0.5465  0.3737  0.1982
  313MPD2    C2 4705   0.943   4.223  11.372  0.1951 -0.3849 -0.0310
  313MPD2    C3 4706   0.928   4.093  11.405  0.1928 -0.2058  0.2066
  313MPD2    C4 4707   0.934   4.054  11.536  0.0351 -0.0511  0.4921
  313MPD2    C5 4708   0.966   4.153  11.631 -0.1928 -0.9689 -0.2524
  313MPD2     H 4709   0.936   4.249  11.267 -1.1623 -1.0869 -0.1127
  313MPD2    H1 4710   0.928   3.951  11.569 -0.1969 -0.0834  0.3524
  313MPD2    H2 4711   1.034   4.350  11.671 -4.0015  1.9946  0.2185
  313MPD2    H3 4712   0.983   4.118  11.732  1.2526  0.5877  0.0513
  313MPD2     N 4713   0.892   3.998  11.304 -0.6741  0.4080  0.6613
  313MPD2    H5 4714   0.864   4.034  11.214 -1.4520  0.4059  0.8995
  313MPD2    N1 4715   1.010   4.447  11.422 -0.0842  0.0689 -0.0537
  313MPD2    H7 4716   0.994   4.472  11.325 -1.2297  0.7600  0.3169
  314TMC3    C1 4717   1.054   4.672  11.438  0.1840  0.6171 -0.8011
  314TMC3    C2 4718   1.167   0.025  11.442  0.3629 -0.4423 -0.8214
  314TMC3    C3 4719   1.186   0.122  11.350  0.1647 -0.1551 -0.0459
  314TMC3    C4 4720   0.951   4.700  11.361  0.0589  0.4527 -0.6400
  314TMC3    C5 4721   0.964   0.081  11.276  0.2901 -1.2058  0.4524
  314TMC3    C6 4722   1.082   0.148  11.258  0.1571  0.1246  0.1172
  314TMC3     C 4723   1.049   4.548  11.511 -0.1051  0.4887 -0.2044
  314TMC3     O 4724   1.113   4.544  11.610 -0.1465  0.2029  0.2386
  314TMC3     H 4725   1.238   4.715  11.515  2.6809  1.1331 -2.3032
  314TMC3    H1 4726   0.858   4.643  11.360  0.0133  0.5100  1.0748
  314TMC3    H2 4727   1.092   0.244  11.210 -0.1915 -0.4549 -1.0995
  314TMC3    C7 4728   0.860   0.091  11.173 -0.6850 -0.1689  0.0528
  314TMC3    C8 4729   1.312   0.193  11.332  0.2424 -0.5064 -0.0705
  314TMC3    O1 4730   0.748   0.043  11.196 -0.2643  0.6516 -0.5730
  314TMC3    O2 4731   1.310   0.284  11.254  0.0371 -0.4841 -0.1263
  315MPD2     C 4732   0.964   3.346   0.015 -0.4897 -0.5686 -0.3190
  315MPD2    C1 4733   1.098   3.338   0.005  0.1312 -0.5396  0.1859
  315MPD2    C2 4734   1.170   3.440  17.651 -0.9003  0.1831 -0.2173
  315MPD2    C3 4735   1.105   3.550  17.593 -0.3919 -0.0324  0.4839
  315MPD2    C4 4736   0.967   3.549  17.600 -0.3838  0.5344  0.4159
  315MPD2    C5 4737   0.898   3.451  17.664  0.5969 -0.5143  0.6115
  315MPD2     H 4738   1.279   3.436  17.650 -0.9599 -0.5313 -2.3775
  315MPD2    H1 4739   0.906   3.635  17.574  0.1151  0.6862 -0.2323
  315MPD2    H2 4740   0.897   3.274   0.061 -0.7872  0.6281  1.1318
  315MPD2    H3 4741   0.792   3.458  17.685  0.1555 -1.8422 -1.1956
  315MPD2     N 4742   1.189   3.644  17.527  0.6495  1.0260  0.3683
  315MPD2    H5 4743   1.289   3.637  17.539  0.5368 -0.9327  0.1122
  315MPD2    N1 4744   1.166   3.232   0.071 -0.7706 -1.0373 -0.2994
  315MPD2    H7 4745   1.267   3.234   0.060 -0.7032 -1.1650  0.3075
  316TMC3    C1 4746   1.238   3.848  17.409 -1.3564  0.7962 -0.2232
  316TMC3    C2 4747   1.370   3.817  17.429  0.1762 -0.1165 -0.0007
  316TMC3    C3 4748   1.452   3.929  17.417 -0.3670 -0.5012  0.2018
  316TMC3    C4 4749   1.188   3.970  17.386 -0.0024  0.2760  0.0009
  316TMC3    C5 4750   1.272   4.074  17.379  0.3224 -0.7972 -0.3188
  316TMC3    C6 4751   1.404   4.058  17.394 -0.7570  0.1926 -0.6105
  316TMC3     C 4752   1.139   3.750  17.450  0.5292 -0.3625 -0.0681
  316TMC3     O 4753   1.020   3.767  17.426 -0.2218 -0.4881  0.3241
  316TMC3     H 4754   1.405   3.714  17.431  0.8426  0.0446 -3.3313
  316TMC3    H1 4755   1.081   3.985  17.386 -0.2323 -1.4993 -3.3715
  316TMC3    H2 4756   1.467   4.147  17.397  0.2741 -0.4226 -3.5813
  316TMC3    C7 4757   1.211   4.207  17.411 -0.6968  0.4629 -0.0880
  316TMC3    C8 4758   1.595   3.917  17.417  0.3242  0.0123  0.4999
  316TMC3    O1 4759   1.279   4.283  17.481  0.2450  0.4867  0.1920
  316TMC3    O2 4760   1.657   4.008  17.368 -0.2533 -0.2960 -0.2174
  317MPD2     C 4761   2.843   1.899  12.672 -0.0467  0.6363 -0.3189
  317MPD2    C1 4762   2.902   1.775  12.700 -0.5542 -0.1438  0.3412
  317MPD2    C2 4763   2.907   1.730  12.828  0.1500  0.2105  0.2757
  317MPD2    C3 4764   2.855   1.809  12.932  0.1958 -0.6012 -0.3520
  317MPD2    C4 4765   2.800   1.931  12.898  0.3614 -0.8655 -0.4892
  317MPD2    C5 4766   2.798   1.973  12.769 -0.5364  0.0060  0.8171
  317MPD2     H 4767   2.950   1.633  12.850  0.8936  0.7778  1.3539
  317MPD2    H1 4768   2.755   2.003  12.965  1.1296  2.0850 -3.1345
  317MPD2    H2 4769   2.844   1.943  12.573 -1.5371 -1.9097 -1.4468
  317MPD2    H3 4770   2.755   2.068  12.738  0.0684 -0.4288 -1.3644
  317MPD2     N 4771   2.872   1.763  13.066 -0.2420 -1.1276 -0.0242
  317MPD2    H5 4772   2.910   1.671  13.085 -1.9125 -1.4177  1.9134
  317MPD2    N1 4773   2.965   1.694  12.602  0.1169 -0.0704 -0.4934
  317MPD2    H7 4774   3.026   1.620  12.635 -1.2107 -0.3499  1.3110
  318TMC3    C1 4775   2.792   1.720  13.286  0.5195 -0.2332 -0.0187
  318TMC3    C2 4776   2.662   1.700  13.332 -1.7240 -0.1518  0.0648
  318TMC3    C3 4777   2.642   1.599  13.421 -0.2655 -0.2691  0.8854
  318TMC3    C4 4778   2.897   1.638  13.315  0.0182  0.6084 -0.2528
  318TMC3    C5 4779   2.874   1.536  13.401  0.0895  0.7720 -0.6585
  318TMC3    C6 4780   2.745   1.513  13.447  0.8528 -0.2909 -0.6359
  318TMC3     C 4781   2.808   1.820  13.173  0.2286  0.0440  0.0868
  318TMC3     O 4782   2.760   1.928  13.183  0.3870 -0.1198  0.8806
  318TMC3     H 4783   2.588   1.777  13.312  0.0776  1.0308 -2.0897
  318TMC3    H1 4784   2.998   1.663  13.285  0.4198  1.8089  2.1061
  318TMC3    H2 4785   2.721   1.415  13.485 -0.2051 -0.0604 -0.7028
  318TMC3    C7 4786   2.984   1.442  13.423 -0.5910  0.1072 -0.3133
  318TMC3    C8 4787   2.514   1.529  13.425  0.9723  0.9644 -0.4514
  318TMC3    O1 4788   3.093   1.491  13.410  0.2718 -0.2173 -0.4056
  318TMC3    O2 4789   2.505   1.429  13.498 -0.3874  0.1695 -0.3110
  319MPD2     C 4790   3.478   2.789  16.370 -0.4412  0.1495  0.0884
  319MPD2    C1 4791   3.357   2.726  16.367 -0.5099 -0.1060  0.0149
  319MPD2    C2 4792   3.319   2.653  16.254 -0.0278 -0.2797  0.1885
  319MPD2    C3 4793   3.402   2.644  16.146 -0.2549  0.1933 -0.2203
  319MPD2    C4 4794   3.521   2.716  16.146 -0.5012  0.3186 -0.0826
  319MPD2    C5 4795   3.558   2.781  16.261  0.4508  0.3738  1.2747
  319MPD2     H 4796   3.217   2.615  16.262 -0.3858  1.2320  2.7117
  319MPD2    H1 4797   3.594   2.719  16.065  0.6663  0.7098  0.9921
  319MPD2    H2 4798   3.519   2.839  16.456 -1.8588  0.6368  0.4825
  319MPD2    H3 4799   3.660   2.817  16.266  0.3594  0.8890 -0.9332
  319MPD2     N 4800   3.359   2.577  16.030  0.2359  0.2720  0.0684
  319MPD2    H5 4801   3.409   2.597  15.944  1.1083  1.0427  0.7658
  319MPD2    N1 4802   3.270   2.742  16.470 -0.2320  0.7019 -0.2941
  319MPD2    H7 4803   3.183   2.690  16.464  0.5925 -0.8228  0.9229
  320TMC3    C1 4804   3.242   2.419  15.897 -0.4636  0.4967 -0.2815
  320TMC3    C2 4805   3.177   2.517  15.823  0.4446  0.1205 -0.7398
  320TMC3    C3 4806   3.074   2.481  15.739  0.4661 -0.6162  0.1429
  320TMC3    C4 4807   3.178   2.297  15.908  0.2084  0.3542 -0.1005
  320TMC3    C5 4808   3.068   2.263  15.837  0.5637 -0.5198  0.3716
  320TMC3    C6 4809   3.022   2.350  15.745  1.1391 -0.0649 -0.6630
  320TMC3     C 4810   3.263   2.478  16.030  0.1134  0.2329  0.0269
  320TMC3     O 4811   3.198   2.425  16.119 -0.0497 -0.2043  0.0424
  320TMC3     H 4812   3.224   2.614  15.817  1.1763 -0.2932 -1.7258
  320TMC3    H1 4813   3.227   2.225  15.974 -1.9673 -0.3738  0.7118
  320TMC3    H2 4814   2.937   2.312  15.691 -0.3275 -0.6261  2.0454
  320TMC3    C7 4815   2.982   2.170  15.906 -0.0527  0.2930  0.9672
  320TMC3    C8 4816   3.005   2.572  15.655  0.2014  0.1113 -0.2856
  320TMC3    O1 4817   2.911   2.102  15.836 -0.1958 -0.0889  0.3316
  320TMC3    O2 4818   2.956   2.522  15.560  0.6536 -0.8331 -0.5215
  321TMC3    C1 4819   3.175   2.782  16.680 -0.3050 -0.0159  0.9079
  321TMC3    C2 4820   3.131   2.652  16.679 -0.7733 -0.3813 -0.3480
  321TMC3    C3 4821   3.069   2.611  16.792 -0.7361  0.2553 -0.7030
  321TMC3    C4 4822   3.135   2.875  16.776  0.4708 -0.5695  0.5470
  321TMC3    C5 4823   3.066   2.830  16.886 -0.0164  0.2519  0.0520
  321TMC3    C6 4824   3.037   2.697  16.894 -0.4330 -0.3794 -0.5390
  321TMC3     C 4825   3.271   2.826  16.578 -0.7573 -1.0820  0.4727
  321TMC3     O 4826   3.348   2.922  16.592 -1.2043 -0.0270  0.3750
  321TMC3     H 4827   3.163   2.578  16.608 -2.5165 -0.3195 -1.1928
  321TMC3    H1 4828   3.175   2.974  16.761 -2.3109  0.7397  1.6885
  321TMC3    H2 4829   2.994   2.660  16.987 -2.0682 -0.4560 -1.3217
  321TMC3    C7 4830   3.151   2.859  17.001 -0.4735 -0.4091 -0.5923
  321TMC3    C8 4831   3.118   2.482  16.840  0.3189 -0.4202 -0.8355
  321TMC3    O1 4832   3.186   2.758  17.060  0.5817 -0.2581 -0.5501
  321TMC3    O2 4833   3.132   2.388  16.761  0.3512 -0.1687  0.6991
  322MPD2     C 4834   2.137   4.403  13.844  0.2543  0.1509 -0.1634
  322MPD2    C1 4835   2.210   4.313  13.921 -1.0541 -0.4041 -0.7126
  322MPD2    C2 4836   2.200   4.185  13.885 -0.0457  0.7784 -0.1461
  322MPD2    C3 4837   2.132   4.138  13.779  0.4753  0.7666 -1.2267
  322MPD2    C4 4838   2.056   4.230  13.704  0.1453  0.6556  0.2091
  322MPD2    C5 4839   2.060   4.360  13.739  0.7144 -0.3092  0.4565
  322MPD2     H 4840   2.265   4.118  13.940 -0.8825 -0.7822 -1.0598
  322MPD2    H1 4841   2.009   4.196  13.613  0.5042 -0.4579  0.4477
  322MPD2    H2 4842   2.136   4.511  13.861  0.4022 -0.1068  1.5478
  322MPD2    H3 4843   2.013   4.433  13.675  3.0197  0.5139 -0.3178
  322MPD2     N 4844   2.163   4.012  13.733 -0.1446 -0.1687 -0.4063
  322MPD2    H5 4845   2.233   3.957  13.780 -0.5136 -0.8545 -0.6509
  322MPD2    N1 4846   2.308   4.340  14.020 -0.3208  0.7679  0.0836
  322MPD2    H7 4847   2.349   4.262  14.071 -1.8095  1.5697  2.4834
  323TMC3    C1 4848   2.492   4.459  14.113  0.1645  0.0083  0.7560
  323TMC3    C2 4849   2.598   4.528  14.062  1.1498  0.3498 -0.0718
  323TMC3    C3 4850   2.721   4.509  14.130 -0.1628  0.0461 -0.5565
  323TMC3    C4 4851   2.510   4.366  14.217  1.0982  0.6953 -0.2973
  323TMC3    C5 4852   2.628   4.354  14.279 -0.1254 -0.2216  1.0433
  323TMC3    C6 4853   2.740   4.422  14.238  1.0358  0.8328  0.2038
  323TMC3     C 4854   2.371   4.460  14.038  0.2379  0.3295  0.1175
  323TMC3     O 4855   2.345   4.573  13.997  0.4094 -0.1515  0.3391
  323TMC3     H 4856   2.590   4.605  13.986 -2.8543 -1.4878 -1.5126
  323TMC3    H1 4857   2.420   4.321  14.258  1.1663  0.1079 -0.7816
  323TMC3    H2 4858   2.838   4.391  14.274  0.0566  0.1529  2.2627
  323TMC3    C7 4859   2.639   4.233  14.353  0.4486  0.2086 -0.0568
  323TMC3    C8 4860   2.843   4.518  14.045 -0.1370  0.0988 -0.3637
  323TMC3    O1 4861   2.565   4.141  14.326 -0.0137  0.2224  0.3157
  323TMC3    O2 4862   2.945   4.467  14.094  0.5455 -0.6851 -0.0524
  324MPD2     C 4863   4.313   0.315  13.816 -0.0394  0.4912  0.4012
  324MPD2    C1 4864   4.326   0.439  13.873  0.2599 -0.6540  0.0842
  324MPD2    C2 4865   4.212   0.509  13.911  0.3995 -0.3024 -0.4695
  324MPD2    C3 4866   4.088   0.446  13.899  0.9189 -0.2463 -0.4297
  324MPD2    C4 4867   4.080   0.320  13.840  0.0820 -0.1062  0.4514
  324MPD2    C5 4868   4.193   0.260  13.790  0.4059 -0.0191 -0.0948
  324MPD2     H 4869   4.231   0.609  13.949 -0.1522 -0.1851 -0.4998
  324MPD2    H1 4870   3.990   0.270  13.807 -0.0577  0.6870 -0.3705
  324MPD2    H2 4871   4.393   0.246  13.796  0.0326 -0.5534  4.3633
  324MPD2    H3 4872   4.185   0.164  13.741  1.6306 -0.1074 -0.1317
  324MPD2     N 4873   3.966   0.499  13.949 -0.0442 -0.1816 -0.2541
  324MPD2    H5 4874   3.886   0.440  13.929  0.0284 -0.1260 -0.7110
  324MPD2    N1 4875   4.453   0.500  13.898  0.5971 -0.5460  0.4213
  324MPD2    H7 4876   4.458   0.584  13.955 -0.4896  1.6552 -2.6898
  325TMC3    C1 4877   3.818   0.618  14.086 -0.4405  0.5035  0.7508
  325TMC3    C2 4878   3.747   0.504  14.092 -0.0012 -0.8898 -0.1730
  325TMC3    C3 4879   3.612   0.503  14.069 -0.1923  0.0999 -0.4405
  325TMC3    C4 4880   3.747   0.738  14.075  0.9149  0.1959 -0.3217
  325TMC3    C5 4881   3.609   0.737  14.088 -0.0235 -0.4862  0.4141
  325TMC3    C6 4882   3.535   0.618  14.076 -0.0452 -0.4685  0.4719
  325TMC3     C 4883   3.949   0.609  14.024 -0.2626  0.2072  0.4092
  325TMC3     O 4884   4.033   0.688  14.057 -0.5987 -0.1120 -0.3467
  325TMC3     H 4885   3.795   0.407  14.090  0.7639 -0.4963 -1.1852
  325TMC3    H1 4886   3.800   0.832  14.071  1.8928 -0.3299  0.2261
  325TMC3    H2 4887   3.431   0.613  14.046 -0.1331 -0.8733  0.8625
  325TMC3    C7 4888   3.541   0.858  14.046 -0.4308  0.4430 -0.1477
  325TMC3    C8 4889   3.587   0.430  13.953  0.0356 -0.1143  0.7074
  325TMC3    O1 4890   3.612   0.953  14.005  0.1272 -0.7905  0.2572
  325TMC3    O2 4891   3.685   0.423  13.876  0.0786 -0.3988 -0.4952
  326MPD2     C 4892   0.598   1.779  11.623  0.6547  0.3772  0.7681
  326MPD2    C1 4893   0.640   1.726  11.505 -0.2045  0.1509  0.6171
  326MPD2    C2 4894   0.744   1.787  11.441  0.2450  0.1275  0.0575
  326MPD2    C3 4895   0.818   1.897  11.487 -0.8162  0.0659  0.1730
  326MPD2    C4 4896   0.775   1.945  11.612  0.4441 -0.3548  0.3492
  326MPD2    C5 4897   0.663   1.893  11.670  0.2815 -0.3348  0.4199
  326MPD2     H 4898   0.778   1.743  11.347 -2.0968 -3.2006  0.7809
  326MPD2    H1 4899   0.820   2.029  11.664  0.7277 -0.0842 -0.3220
  326MPD2    H2 4900   0.512   1.730  11.667  2.1072 -0.7134  2.3924
  326MPD2    H3 4901   0.635   1.943  11.762 -1.6285 -0.6286  0.0112
  326MPD2     N 4902   0.926   1.955  11.419  0.1506  0.7260 -0.0698
  326MPD2    H5 4903   0.980   2.028  11.463 -1.1432  1.9273 -0.4752
  326MPD2    N1 4904   0.582   1.617  11.439 -0.0824 -0.1309  0.2567
  326MPD2    H7 4905   0.612   1.596  11.345 -0.9702  1.7652 -0.4552
  327TMC3    C1 4906   0.501   1.422  11.387  0.1908 -0.4863  0.3768
  327TMC3    C2 4907   0.416   1.430  11.284 -0.5230 -1.0219  0.1879
  327TMC3    C3 4908   0.450   1.375  11.164 -0.0741  0.9515 -0.0259
  327TMC3    C4 4909   0.626   1.400  11.365 -0.0460  0.1443 -0.3913
  327TMC3    C5 4910   0.677   1.360  11.239  0.6033 -0.8042 -0.1621
  327TMC3    C6 4911   0.583   1.348  11.137 -0.2943  0.1023  0.2813
  327TMC3     C 4912   0.485   1.531  11.477 -0.6007  0.2474  0.1937
  327TMC3     O 4913   0.414   1.522  11.577 -0.2522  0.0514 -0.5607
  327TMC3     H 4914   0.332   1.498  11.291  0.0163 -0.1145 -1.9886
  327TMC3    H1 4915   0.696   1.385  11.447 -1.9855  0.1371  1.2535
  327TMC3    H2 4916   0.605   1.323  11.033 -1.1416 -4.4982  1.1827
  327TMC3    C7 4917   0.801   1.413  11.184  0.0400  0.5193  0.1929
  327TMC3    C8 4918   0.391   1.446  11.051 -0.1105 -0.1513 -0.2969
  327TMC3    O1 4919   0.823   1.421  11.062 -0.3622  0.0802  0.2353
  327TMC3    O2 4920   0.468   1.482  10.960  0.2097  0.2097 -0.6077
  328MPD2     C 4921   2.944   0.930  17.116  0.1065  0.0747  0.7864
  328MPD2    C1 4922   2.802   0.927  17.094  0.2286 -0.0415 -0.2750
  328MPD2    C2 4923   2.736   1.045  17.072  0.2091 -0.2367 -0.3579
  328MPD2    C3 4924   2.803   1.165  17.070 -0.0224 -0.0757 -0.0981
  328MPD2    C4 4925   2.937   1.169  17.105  0.1385  0.7803 -0.2848
  328MPD2    C5 4926   3.013   1.051  17.121 -0.5553 -0.4325  0.7650
  328MPD2     H 4927   2.629   1.037  17.056 -0.2780  1.5594  1.9822
  328MPD2    H1 4928   2.997   1.258  17.091 -0.8099  1.8490  2.3151
  328MPD2    H2 4929   3.003   0.840  17.125 -0.1098 -0.1390  0.0670
  328MPD2    H3 4930   3.120   1.059  17.138  0.0105  1.3299 -3.5333
  328MPD2     N 4931   2.736   1.291  17.040 -0.7010  0.2815  0.9406
  328MPD2    H5 4932   2.792   1.375  17.046 -0.0796 -0.0332 -0.5997
  328MPD2    N1 4933   2.737   0.801  17.095  0.3247 -0.2981  0.7011
  328MPD2    H7 4934   2.802   0.726  17.112 -0.2001 -0.8339  0.3370
  329TMC3    C1 4935   2.575   0.643  17.055  0.0786 -0.2498  0.0063
  329TMC3    C2 4936   2.445   0.628  17.093 -0.3196 -0.1459  0.5753
  329TMC3    C3 4937   2.370   0.536  17.026 -0.5092 -0.7570 -0.4545
  329TMC3    C4 4938   2.638   0.573  16.954  0.0558 -0.1738 -0.0519
  329TMC3    C5 4939   2.557   0.473  16.895 -0.3800  0.7078 -0.1545
  329TMC3    C6 4940   2.426   0.458  16.928  0.6700 -0.4020 -0.4132
  329TMC3     C 4941   2.609   0.779  17.072 -0.5238  0.4754  0.6078
  329TMC3     O 4942   2.505   0.848  17.073  0.2203 -0.4471  0.2008
  329TMC3     H 4943   2.399   0.681  17.176 -0.3571  2.8826 -1.4146
  329TMC3    H1 4944   2.738   0.601  16.923  0.2940  0.1324  0.9787
  329TMC3    H2 4945   2.363   0.394  16.867  0.7244 -2.3549  1.5653
  329TMC3    C7 4946   2.598   0.408  16.772 -0.5864  0.6660 -0.4817
  329TMC3    C8 4947   2.230   0.570  17.001  0.3340  0.0283  0.6424
  329TMC3    O1 4948   2.541   0.301  16.752 -0.1843  0.1588  0.7380
  329TMC3    O2 4949   2.154   0.478  16.971 -0.6303 -0.3308  0.3113
  330TMC3    C1 4950   1.383   1.068   9.109 -0.1642 -0.0062  0.4019
  330TMC3    C2 4951   1.307   0.959   9.077  0.3584  0.3210  0.7215
  330TMC3    C3 4952   1.319   0.853   9.156 -0.2543  0.3350 -0.0092
  330TMC3    C4 4953   1.472   1.065   9.211 -0.0618  0.3843  0.0505
  330TMC3    C5 4954   1.496   0.946   9.271  0.2805  0.1325 -0.5309
  330TMC3    C6 4955   1.416   0.838   9.255 -1.0033  0.0523 -0.2606
  330TMC3     C 4956   1.380   1.173   9.010 -0.3012  0.6264  0.0528
  330TMC3     O 4957   1.328   1.140   8.902  0.0307  0.1425  0.1695
  330TMC3     H 4958   1.234   0.965   8.996  0.7005  0.5361  0.4308
  330TMC3    H1 4959   1.519   1.159   9.240  2.2650 -0.3559 -1.2945
  330TMC3    H2 4960   1.437   0.746   9.308  0.2159  1.1642  1.1937
  330TMC3    C7 4961   1.597   0.949   9.374  0.2005  0.7112 -0.3843
  330TMC3    C8 4962   1.250   0.732   9.117  0.4720  0.3272 -0.5877
  330TMC3    O1 4963   1.618   1.059   9.428  0.2217 -0.5455 -0.4907
  330TMC3    O2 4964   1.228   0.726   8.999 -0.6602 -0.2739 -0.4060
  331MPD2     C 4965   3.495   4.723  12.707  0.5444 -0.0337  0.0889
  331MPD2    C1 4966   3.619   0.055  12.698  0.4838  0.1394 -0.0811
  331MPD2    C2 4967   3.729   4.701  12.676  0.4364  0.7634 -0.5903
  331MPD2    C3 4968   3.725   4.563  12.686  0.5277 -0.5552 -0.5659
  331MPD2    C4 4969   3.603   4.505  12.713 -0.4416  0.0481 -0.4369
  331MPD2    C5 4970   3.486   4.586  12.708 -0.2856  0.2524  0.0379
  331MPD2     H 4971   3.827   0.016  12.654  0.6073 -0.2004 -1.5927
  331MPD2    H1 4972   3.585   4.399  12.700 -3.9134  0.4109  1.2159
  331MPD2    H2 4973   3.407   0.059  12.715  1.5562  1.3757  0.3275
  331MPD2    H3 4974   3.387   4.543  12.720 -0.0335 -1.3113 -3.4594
  331MPD2     N 4975   3.851   4.494  12.688 -0.4739 -0.1527 -1.0316
  331MPD2    H5 4976   3.930   4.542  12.646 -0.6242  0.1829 -0.9309
  331MPD2    N1 4977   3.633   0.194  12.687 -0.2480  0.0725  0.6902
  331MPD2    H7 4978   3.547   0.244  12.667  0.7210  0.8434 -1.5236
  332TMC3    C1 4979   4.003   4.313  12.670 -0.0107 -0.5388 -0.2109
  332TMC3    C2 4980   4.076   4.404  12.593  0.2602 -0.3752  0.4033
  332TMC3    C3 4981   4.216   4.396  12.604  0.3069 -0.8901 -0.6551
  332TMC3    C4 4982   4.061   4.236  12.765 -0.3620 -0.0613  0.0680
  332TMC3    C5 4983   4.195   4.239  12.772  0.1462 -0.5000 -0.3598
  332TMC3    C6 4984   4.272   4.320  12.700  0.2296 -0.4148 -0.4793
  332TMC3     C 4985   3.868   4.356  12.708 -0.3267  0.4818 -0.4948
  332TMC3     O 4986   3.793   4.279  12.760  0.1842  0.2708 -0.3947
  332TMC3     H 4987   4.028   4.468  12.520  0.0310 -0.5928  0.3630
  332TMC3    H1 4988   4.004   4.178  12.837  2.0747 -0.4431  1.6801
  332TMC3    H2 4989   4.379   4.320  12.717  0.0510 -0.1920  0.6736
  332TMC3    C7 4990   4.253   4.113  12.822  0.1229 -0.1736  0.1774
  332TMC3    C8 4991   4.307   4.498  12.547  0.4283 -0.2434 -0.0875
  332TMC3    O1 4992   4.181   4.019  12.843  0.1869 -0.1630  0.3593
  332TMC3    O2 4993   4.416   4.517  12.601 -0.0030  0.0575  0.4734
  333MPD2     C 4994   3.907   0.551  10.917  0.4786  0.4104  0.2177
  333MPD2    C1 4995   4.041   0.528  10.932 -0.2462  0.5065 -0.7436
  333MPD2    C2 4996   4.085   0.455  11.045 -0.0501  0.4794 -0.1473
  333MPD2    C3 4997   3.996   0.407  11.139  0.4561  0.5121  0.5586
  333MPD2    C4 4998   3.860   0.431  11.114 -0.1952 -0.0916 -0.2317
  333MPD2    C5 4999   3.813   0.503  11.006  0.4987 -0.1873  0.1677
  333MPD2     H 5000   4.191   0.442  11.064  0.2996 -0.2478 -2.6098
  333MPD2    H1 5001   3.786   0.384  11.179  0.6163 -0.7904  0.1787
  333MPD2    H2 5002   3.862   0.605  10.834 -0.7560 -3.2473 -1.4845
  333MPD2    H3 5003   3.707   0.514  10.988  0.4352 -0.1661  0.5694
  333MPD2     N 5004   4.046   0.339  11.248  0.0867 -0.2031 -0.3402
  333MPD2    H5 5005   4.146   0.320  11.247 -0.0450 -1.0453  1.2064
  333MPD2    N1 5006   4.127   0.579  10.829  0.2556  0.2130 -0.2441
  333MPD2    H7 5007   4.081   0.615  10.746 -1.5194  0.1894  0.7485
  334TMC3    C1 5008   4.323   0.613  10.703  0.3971  1.1862  0.0341
  334TMC3    C2 5009   4.416   0.525  10.641 -0.3408 -0.1329  0.2380
  334TMC3    C3 5010   4.527   0.569  10.576 -0.1371  0.1638 -0.0821
  334TMC3    C4 5011   4.349   0.748  10.701  0.0612 -0.7619 -0.2225
  334TMC3    C5 5012   4.464   0.789  10.631  0.3368  0.1934 -0.0539
  334TMC3    C6 5013   4.549   0.702  10.565 -0.4667 -0.9566  0.1577
  334TMC3     C 5014   4.263   0.551  10.818 -0.7663  0.1803 -0.5680
  334TMC3     O 5015   4.329   0.473  10.880 -0.2422  0.3232  0.8235
  334TMC3     H 5016   4.402   0.418  10.652 -1.8075 -0.0038 -0.3126
  334TMC3    H1 5017   4.299   0.811  10.774  0.5181 -1.1484  0.4241
  334TMC3    H2 5018   4.629   0.744  10.506 -0.2935  1.2098  1.9412
  334TMC3    C7 5019   4.524   0.924  10.649  0.8951 -0.6128 -0.3036
  334TMC3    C8 5020   4.613   0.457  10.543  0.2972 -0.6109  0.1069
  334TMC3    O1 5021   4.647   0.923  10.659 -0.4160  0.5113 -0.7512
  334TMC3    O2 5022   4.565   0.359  10.493 -0.6805  0.0328 -0.8010
  335TMC3    C1 5023   3.793   1.735  17.550  0.2952 -0.4049  0.1422
  335TMC3    C2 5024   3.704   1.638  17.514 -0.4503  0.6802 -0.1682
  335TMC3    C3 5025   3.680   1.613  17.384 -0.3540 -0.3157 -0.9405
  335TMC3    C4 5026   3.850   1.811  17.452 -0.0078  0.3022  0.1482
  335TMC3    C5 5027   3.832   1.779  17.324 -0.1353 -0.4112  0.1408
  335TMC3    C6 5028   3.742   1.689  17.281  0.1048 -0.3036  0.7232
  335TMC3     C 5029   3.801   1.784  17.691 -0.4139 -0.2181  1.3888
  335TMC3     O 5030   3.860   1.888   0.002  0.5005  0.5696  0.0795
  335TMC3     H 5031   3.668   1.567  17.587  0.2899 -1.4472 -1.8821
  335TMC3    H1 5032   3.921   1.888  17.478  1.8118 -2.0019  1.9427
  335TMC3    H2 5033   3.745   1.639  17.185  0.3995 -1.6096  1.4238
  335TMC3    C7 5034   3.943   1.795  17.239 -0.3437 -0.1932 -0.1203
  335TMC3    C8 5035   3.621   1.484  17.353 -0.7470  0.1798 -0.2355
  335TMC3    O1 5036   3.965   1.700  17.163 -0.1192 -0.0830 -0.0857
  335TMC3    O2 5037   3.605   1.412  17.448 -0.1758  0.2612  0.6131
  336MPD2     C 5038   3.228   3.710  16.405 -0.2638 -0.7205  0.2846
  336MPD2    C1 5039   3.273   3.715  16.272  0.4685 -0.8273 -0.0452
  336MPD2    C2 5040   3.289   3.600  16.203 -0.2649  0.5042 -0.0126
  336MPD2    C3 5041   3.278   3.479  16.266 -0.5882 -0.0083  0.1394
  336MPD2    C4 5042   3.254   3.475  16.401  0.4083  0.2114  0.1566
  336MPD2    C5 5043   3.230   3.589  16.476 -0.1093 -0.2612 -0.0494
  336MPD2     H 5044   3.302   3.595  16.096  2.5220 -0.0798  0.3565
  336MPD2    H1 5045   3.248   3.373  16.438  1.9200  0.2906  0.6138
  336MPD2    H2 5046   3.184   3.797  16.451 -1.9213 -0.4538 -1.7923
  336MPD2    H3 5047   3.200   3.580  16.579  0.3924 -0.5067  0.0761
  336MPD2     N 5048   3.309   3.355  16.207  0.0555 -0.3224  0.2524
  336MPD2    H5 5049   3.325   3.277  16.269 -0.3404 -1.3828 -0.9692
  336MPD2    N1 5050   3.272   3.833  16.196 -0.6864 -0.0274 -0.3968
  336MPD2    H7 5051   3.295   3.832  16.097 -0.0627  2.0041 -0.2741
  337TMC3    C1 5052   3.230   4.052  16.137 -0.0618  0.1394  0.7146
  337TMC3    C2 5053   3.167   4.015  16.022 -0.4038  0.2881  0.1031
  337TMC3    C3 5054   3.110   4.106  15.937  0.1698 -0.5094  0.0729
  337TMC3    C4 5055   3.241   4.188  16.161  0.4127  0.0137 -0.2714
  337TMC3    C5 5056   3.178   4.275  16.080 -0.5480 -0.1412  0.0327
  337TMC3    C6 5057   3.110   4.244  15.961 -0.7750  0.3743  1.1489
  337TMC3     C 5058   3.249   3.960  16.245 -0.0303 -0.3539  0.3870
  337TMC3     O 5059   3.250   4.003  16.365  0.4362 -0.0011  0.0318
  337TMC3     H 5060   3.141   3.911  16.002 -0.7263  0.3508  0.1836
  337TMC3    H1 5061   3.290   4.216  16.253 -3.3120  1.4367  1.2757
  337TMC3    H2 5062   3.057   4.321  15.906  0.2284  0.4858  0.3447
  337TMC3    C7 5063   3.209   4.417  16.109  0.1227 -0.4879  0.0485
  337TMC3    C8 5064   2.980   4.060  15.896 -0.5583 -0.4896  0.0098
  337TMC3    O1 5065   3.196   4.492  16.012 -0.0971 -0.3887 -0.1780
  337TMC3    O2 5066   2.943   3.954  15.943  0.2900  0.5000 -0.1838
  338MPD2     C 5067   3.924   3.066   1.170  0.1800 -0.2067 -0.1464
  338MPD2    C1 5068   3.843   2.983   1.108  0.1207 -0.4466  0.0430
  338MPD2    C2 5069   3.794   2.868   1.177 -0.4974 -0.2645  0.2474
  338MPD2    C3 5070   3.833   2.840   1.308 -0.3494  0.7551 -0.2883
  338MPD2    C4 5071   3.916   2.926   1.365  0.5224 -0.3336 -0.2012
  338MPD2    C5 5072   3.977   3.026   1.288  0.2340  0.2074  0.0531
  338MPD2     H 5073   3.721   2.807   1.126  0.6759 -1.4759  0.0307
  338MPD2    H1 5074   3.939   2.912   1.470  1.7102 -1.0648 -0.5515
  338MPD2    H2 5075   3.962   3.162   1.138 -1.0287  0.5060  0.5560
  338MPD2    H3 5076   4.048   3.093   1.335  0.0338 -0.1963  0.9268
  338MPD2     N 5077   3.764   2.739   1.375 -0.2187  0.0612  0.1770
  338MPD2    H5 5078   3.684   2.693   1.334  1.9204 -0.7212 -3.1466
  338MPD2    N1 5079   3.796   3.000   0.976  0.1133 -0.0607  0.4573
  338MPD2    H7 5080   3.752   2.917   0.937  0.5839  0.4895 -1.2246
  339TMC3    C1 5081   3.655   2.618   1.532 -0.4622 -0.1266  0.2143
  339TMC3    C2 5082   3.627   2.635   1.670 -0.0927  0.2500  0.3328
  339TMC3    C3 5083   3.512   2.699   1.708  0.0415  0.3471  0.2336
  339TMC3    C4 5084   3.550   2.647   1.448 -0.2022 -0.6889 -0.2370
  339TMC3    C5 5085   3.447   2.732   1.487  0.4586 -0.2113  0.1185
  339TMC3    C6 5086   3.424   2.758   1.621 -0.4385  0.1395 -0.2121
  339TMC3     C 5087   3.774   2.690   1.503 -0.1123 -0.2659  0.8679
  339TMC3     O 5088   3.853   2.733   1.586 -0.0363  0.3254  0.4246
  339TMC3     H 5089   3.710   2.632   1.739  0.3165 -0.3654 -0.1824
  339TMC3    H1 5090   3.562   2.613   1.346  1.2813  2.3343 -1.0877
  339TMC3    H2 5091   3.333   2.807   1.656  0.6384 -0.7200  3.7875
  339TMC3    C7 5092   3.431   2.845   1.400  0.0382 -0.1034  0.5410
  339TMC3    C8 5093   3.491   2.712   1.853  0.2207 -0.1770  0.4955
  339TMC3    O1 5094   3.436   2.955   1.454  0.4566  0.1480  0.5032
  339TMC3    O2 5095   3.427   2.811   1.885 -0.4579 -0.2297  0.5600
  340MPD2     C 5096   4.362   1.178   9.819  0.1370 -0.3596 -0.8327
  340MPD2    C1 5097   4.448   1.137   9.723 -0.0740  0.5482  0.5223
  340MPD2    C2 5098   4.577   1.098   9.760 -0.2069  0.1476 -0.0781
  340MPD2    C3 5099   4.615   1.112   9.887  0.2262  0.5212 -0.7738
  340MPD2    C4 5100   4.530   1.154   9.982 -0.4265 -0.3743 -0.8281
  340MPD2    C5 5101   4.404   1.190   9.950  0.0952 -0.1042 -0.2660
  340MPD2     H 5102   4.644   1.065   9.682 -1.3672 -1.1916 -0.5168
  340MPD2    H1 5103   4.552   1.158  10.088  0.4487 -2.0032 -0.9538
  340MPD2    H2 5104   4.258   1.198   9.796 -0.6272 -0.8192  2.2031
  340MPD2    H3 5105   4.334   1.207  10.031 -0.2389 -0.0800 -0.5559
  340MPD2     N 5106   0.014   1.075   9.937  0.2056  0.1127 -0.1391
  340MPD2    H5 5107   0.037   1.094  10.034  1.6487  2.9301 -1.0257
  340MPD2    N1 5108   4.398   1.134   9.595  0.2097 -0.3903  1.3051
  340MPD2    H7 5109   4.298   1.143   9.584  0.4775 -0.3585 -0.9267
  341TMC3    C1 5110   4.386   1.058   9.374 -0.0624 -0.0237 -0.4105
  341TMC3    C2 5111   4.269   0.989   9.413 -0.1572 -0.0651 -0.2136
  341TMC3    C3 5112   4.239   0.885   9.327 -0.5079  0.4875  0.8476
  341TMC3    C4 5113   4.461   1.031   9.268 -0.0517  0.1729 -0.5169
  341TMC3    C5 5114   4.422   0.941   9.181 -0.0682 -0.0643 -0.0366
  341TMC3    C6 5115   4.306   0.865   9.208  0.6768  0.0952 -0.2188
  341TMC3     C 5116   4.470   1.096   9.487  0.6458 -0.1725 -0.6266
  341TMC3     O 5117   4.595   1.099   9.468  0.5654 -0.0130 -0.1094
  341TMC3     H 5118   4.214   0.983   9.506 -1.6060  2.6007 -0.8860
  341TMC3    H1 5119   4.548   1.092   9.243 -1.3382  1.7413 -1.1829
  341TMC3    H2 5120   4.275   0.788   9.138 -1.8084 -0.5920  1.6268
  341TMC3    C7 5121   4.499   0.926   9.056  0.3892 -0.2978  0.0919
  341TMC3    C8 5122   4.098   0.833   9.342  0.6023  0.6507 -0.2461
  341TMC3    O1 5123   4.616   0.969   9.052 -0.1325  0.2494 -0.1126
  341TMC3    O2 5124   4.023   0.888   9.421  0.4610 -0.6736 -0.4517
  342MPD2     C 5125   1.614   4.468  16.850 -0.0267 -0.3299  0.2905
  342MPD2    C1 5126   1.676   4.434  16.965 -0.4767  1.0275 -0.0820
  342MPD2    C2 5127   1.655   4.515  17.076 -0.0740  0.2439  0.2432
  342MPD2    C3 5128   1.588   4.634  17.068 -0.7885  0.5593 -0.6177
  342MPD2    C4 5129   1.516   4.659  16.957  0.0750  0.7289  0.9849
  342MPD2    C5 5130   1.532   4.578  16.854  0.2458  0.5565 -0.3268
  342MPD2     H 5131   1.696   4.489  17.173  0.1541  3.2991  0.9562
  342MPD2    H1 5132   1.460   0.026  16.952  0.4011  0.8449 -0.4043
  342MPD2    H2 5133   1.619   4.412  16.757 -0.8563  1.8723 -1.0883
  342MPD2    H3 5134   1.475   4.584  16.762 -2.5615 -1.2489  1.3071
  342MPD2     N 5135   1.580   0.002  17.169  0.0595  0.6044 -0.1444
  342MPD2    H5 5136   1.527   0.088  17.159 -1.3230 -0.5751 -3.0318
  342MPD2    N1 5137   1.742   4.307  16.994  0.6378  0.0956 -0.0191
  342MPD2    H7 5138   1.739   4.282  17.092 -3.6203 -1.2178 -0.4672
  343TMC3    C1 5139   1.840   4.096  16.931 -0.3449 -0.5459  0.6418
  343TMC3    C2 5140   1.936   4.039  16.851 -0.4019  0.2985  0.8103
  343TMC3    C3 5141   1.944   3.903  16.838  0.1822 -0.1234 -0.2862
  343TMC3    C4 5142   1.753   4.020  16.993  0.2704  0.2173  0.1998
  343TMC3    C5 5143   1.761   3.886  16.980 -0.3863  0.7054 -0.3187
  343TMC3    C6 5144   1.858   3.822  16.909  0.2610  0.2854  0.0488
  343TMC3     C 5145   1.796   4.226  16.896 -0.6861 -0.2099  0.1848
  343TMC3     O 5146   1.823   4.263  16.782  0.1786  0.1313  0.0150
  343TMC3     H 5147   2.006   4.106  16.804 -0.6730  1.2328  1.7460
  343TMC3    H1 5148   1.679   4.069  17.054 -1.9869 -0.8323 -1.6869
  343TMC3    H2 5149   1.858   3.715  16.893  1.4550  0.4251 -0.8303
  343TMC3    C7 5150   1.680   3.811  17.070  0.7156 -0.5064 -0.6588
  343TMC3    C8 5151   2.075   3.849  16.816  1.0204 -0.2117  0.0723
  343TMC3    O1 5152   1.560   3.828  17.078 -0.0662  0.9115 -0.3223
  343TMC3    O2 5153   2.170   3.926  16.825 -0.1910 -0.4034 -0.0454
  344MPD2     C 5154   2.871   4.282  10.798 -0.1336  0.2310 -0.0621
  344MPD2    C1 5155   2.767   4.304  10.706  0.1805 -0.4128  0.0881
  344MPD2    C2 5156   2.795   4.374  10.587  0.2892 -0.0049 -0.4835
  344MPD2    C3 5157   2.926   4.425  10.565  0.3045 -0.2877  0.4112
  344MPD2    C4 5158   3.023   4.403  10.656 -0.0296  0.6394 -1.8192
  344MPD2    C5 5159   2.988   4.336  10.772 -0.4647  0.6278  0.2141
  344MPD2     H 5160   2.722   4.372  10.506 -0.4782  0.5004  0.1983
  344MPD2    H1 5161   3.125   4.441  10.650  1.0625 -2.4810 -2.9355
  344MPD2    H2 5162   2.851   4.239  10.896  0.9414  0.8539  0.4348
  344MPD2    H3 5163   3.065   4.329  10.848 -0.0232 -0.7190 -0.3524
  344MPD2     N 5164   2.964   4.496  10.451  0.3629 -0.2417  0.1625
  344MPD2    H5 5165   3.056   4.537  10.441  0.6507 -0.5579  1.4542
  344MPD2    N1 5166   2.638   4.248  10.730 -0.1380 -0.2677  0.2379
  344MPD2    H7 5167   2.579   4.237  10.648 -0.3390  0.2070  0.3201
  345TMC3    C1 5168   2.961   4.603  10.253 -0.2982 -0.2120 -0.3002
  345TMC3    C2 5169   3.096   4.583  10.256 -0.4101 -0.5736 -0.1605
  345TMC3    C3 5170   3.183   4.685  10.209  0.0017 -0.1933 -0.3410
  345TMC3    C4 5171   2.904   4.715  10.208  0.3370  0.4933  0.2786
  345TMC3    C5 5172   2.985   0.094  10.168 -0.5067  1.2083  0.1625
  345TMC3    C6 5173   3.127   0.077  10.167  0.3625  0.0079  0.3428
  345TMC3     C 5174   2.881   4.523  10.339  0.6182  0.0202 -0.7956
  345TMC3     O 5175   2.770   4.485  10.314  0.0530  0.1694 -0.4594
  345TMC3     H 5176   3.130   4.487  10.292 -1.2811 -1.3275 -1.3626
  345TMC3    H1 5177   2.796   4.718  10.207  0.2578 -2.4966  2.7959
  345TMC3    H2 5178   3.188   0.165  10.153  0.3459  0.1744  1.3270
  345TMC3    C7 5179   2.928   0.220  10.114 -0.3435  0.0622  0.4108
  345TMC3    C8 5180   3.310   4.683  10.277  0.2910 -0.6381  0.3302
  345TMC3    O1 5181   3.000   0.314  10.097  0.3698 -0.4406  0.0900
  345TMC3    O2 5182   3.303   4.612  10.379 -0.2104  0.2859 -0.2070
  346MPD2     C 5183   2.150   0.818  13.856 -0.2395  0.4080 -0.1913
  346MPD2    C1 5184   2.277   0.767  13.850 -0.7571  0.1001  0.4387
  346MPD2    C2 5185   2.375   0.828  13.929  0.5480 -0.3154 -0.4043
  346MPD2    C3 5186   2.351   0.929  14.014 -0.0169 -0.1698 -0.0310
  346MPD2    C4 5187   2.231   0.988  14.014 -0.1322 -0.8808 -0.1968
  346MPD2    C5 5188   2.139   0.930  13.934  0.0562  0.1883  0.2827
  346MPD2     H 5189   2.477   0.790  13.926  1.3554  1.9599 -1.7719
  346MPD2    H1 5190   2.209   1.077  14.073  1.6278 -0.3859 -0.3031
  346MPD2    H2 5191   2.072   0.790  13.786 -0.1543 -1.1158  0.3428
  346MPD2    H3 5192   2.040   0.972  13.945  0.7509  1.8202  0.3016
  346MPD2     N 5193   2.455   0.964  14.097  0.1368 -0.6496 -0.2835
  346MPD2    H5 5194   2.536   0.903  14.090 -0.5513 -1.6510  0.3986
  346MPD2    N1 5195   2.321   0.665  13.764 -0.0290  0.0620  0.1021
  346MPD2    H7 5196   2.419   0.638  13.759  0.4537  1.5991  1.2217
  347TMC3    C1 5197   2.585   1.064  14.258  0.0819  0.6713  0.1439
  347TMC3    C2 5198   2.701   1.020  14.206 -0.2258  0.4712 -0.6651
  347TMC3    C3 5199   2.798   0.986  14.288  0.3623  0.3895  0.5541
  347TMC3    C4 5200   2.579   1.108  14.390  0.0051  0.0108 -0.5668
  347TMC3    C5 5201   2.692   1.099  14.462 -0.2670 -0.7758 -0.6690
  347TMC3    C6 5202   2.797   1.028  14.418  0.2883 -0.6820  0.7361
  347TMC3     C 5203   2.461   1.070  14.186 -0.2508 -0.5575 -0.2186
  347TMC3     O 5204   2.378   1.144  14.231  0.1161 -0.2149 -0.3039
  347TMC3     H 5205   2.705   0.996  14.100 -3.0889 -1.7307 -0.2616
  347TMC3    H1 5206   2.487   1.145  14.432 -1.7082 -1.3043 -3.1854
  347TMC3    H2 5207   2.889   1.015  14.473  1.1861  0.0393 -0.6019
  347TMC3    C7 5208   2.681   1.110  14.608 -0.2557 -0.0112  0.0944
  347TMC3    C8 5209   2.928   0.960  14.235 -0.2572 -0.1826  0.0863
  347TMC3    O1 5210   2.577   1.140  14.658 -0.0966  0.1303 -0.0510
  347TMC3    O2 5211   2.981   0.864  14.293  0.3632 -0.1664 -0.3957
  348MPD2     C 5212   2.102   0.730  11.976 -0.1770  0.7551 -0.1186
  348MPD2    C1 5213   2.182   0.689  11.871  0.1989  0.3009  0.0923
  348MPD2    C2 5214   2.163   0.744  11.743  0.8412 -0.0860  0.4375
  348MPD2    C3 5215   2.071   0.843  11.724 -0.0106 -0.2298 -0.1496
  348MPD2    C4 5216   1.981   0.879  11.825 -0.0806 -0.7706  0.1245
  348MPD2    C5 5217   2.002   0.821  11.951 -0.1410 -0.1389 -0.4019
  348MPD2     H 5218   2.219   0.701  11.661 -0.3330 -1.8684  0.5667
  348MPD2    H1 5219   1.901   0.951  11.812 -0.9514 -1.4467  1.6888
  348MPD2    H2 5220   2.112   0.690  12.076 -1.2343  3.1279  0.9468
  348MPD2    H3 5221   1.937   0.849  12.034 -0.5952 -0.4979 -0.6340
  348MPD2     N 5222   2.062   0.900  11.593  0.3021  0.2865  0.4658
  348MPD2    H5 5223   2.118   0.850  11.524  0.8854 -0.8374  1.7506
  348MPD2    N1 5224   2.279   0.588  11.874  0.1123 -0.6349  0.0163
  348MPD2    H7 5225   2.327   0.556  11.791  1.4888 -0.8015  0.8788
  349TMC3    C1 5226   2.411   0.423  11.976  0.5170  0.1491  0.8903
  349TMC3    C2 5227   2.403   0.343  12.076 -0.4724 -0.2967  0.1099
  349TMC3    C3 5228   2.385   0.208  12.053  1.1881 -0.3060  0.3098
  349TMC3    C4 5229   2.421   0.374  11.844 -0.3306 -0.5636 -0.6337
  349TMC3    C5 5230   2.385   0.239  11.816 -0.0374 -0.4740 -0.0977
  349TMC3    C6 5231   2.367   0.156  11.927 -0.2006  0.4990 -0.1264
  349TMC3     C 5232   2.320   0.532  11.991 -0.0021  0.1654  1.0912
  349TMC3     O 5233   2.285   0.552  12.109  0.0917 -0.3880 -0.5123
  349TMC3     H 5234   2.404   0.382  12.178  0.8038 -0.2751  0.0822
  349TMC3    H1 5235   2.445   0.442  11.764  0.6561 -2.1423 -1.6820
  349TMC3    H2 5236   2.314   0.064  11.905 -0.9087  1.3281 -1.9274
  349TMC3    C7 5237   2.273   0.223  11.725 -0.7030  0.2744  0.0172
  349TMC3    C8 5238   2.368   0.124  12.171  0.1934  0.2139  0.2654
  349TMC3    O1 5239   2.167   0.199  11.776 -0.2134 -0.1811  0.0879
  349TMC3    O2 5240   2.323   0.174  12.271  0.1956 -0.3178 -0.4717
  350MPD2     C 5241   0.832   3.804  10.318  0.4899  0.1571 -0.4105
  350MPD2    C1 5242   0.769   3.701  10.384  0.0688 -0.5072  0.5678
  350MPD2    C2 5243   0.793   3.685  10.521 -0.1446  0.2553 -0.0566
  350MPD2    C3 5244   0.872   3.770  10.598  0.0474 -0.2119 -0.1348
  350MPD2    C4 5245   0.939   3.873  10.531  0.4556 -0.6471  0.2096
  350MPD2    C5 5246   0.919   3.888  10.392 -0.4634  0.7648 -0.5279
  350MPD2     H 5247   0.741   3.602  10.566 -3.4137  0.8206 -2.7362
  350MPD2    H1 5248   1.006   3.934  10.590  2.1091 -0.8844 -1.4236
  350MPD2    H2 5249   0.818   3.829  10.214 -3.0561 -0.9385 -0.2122
  350MPD2    H3 5250   0.972   3.971  10.346 -0.0163  1.1767  0.7343
  350MPD2     N 5251   0.889   3.744  10.736 -0.0785 -0.0893  0.1132
  350MPD2    H5 5252   0.872   3.648  10.766 -0.0898 -0.7731 -2.0859
  350MPD2    N1 5253   0.688   3.614  10.315 -0.1445  0.5451 -0.6546
  350MPD2    H7 5254   0.640   3.539  10.365  0.4531  1.8816  1.9224
  351TMC3    C1 5255   0.545   3.528  10.146  0.8812  0.4214 -0.2479
  351TMC3    C2 5256   0.552   3.395  10.184 -0.1258  0.4315 -0.5383
  351TMC3    C3 5257   0.455   3.309  10.157  1.2350 -0.1753  0.2161
  351TMC3    C4 5258   0.435   3.568  10.079  0.4472 -0.8044  0.1363
  351TMC3    C5 5259   0.343   3.475  10.041 -0.7910 -0.2545 -0.2819
  351TMC3    C6 5260   0.353   3.343  10.083 -0.0992 -0.3230 -0.6271
  351TMC3     C 5261   0.636   3.632  10.190  0.4532  0.1729 -0.3659
  351TMC3     O 5262   0.627   3.735  10.121  0.0355 -0.7763  0.6248
  351TMC3     H 5263   0.646   3.359  10.227 -0.3188  1.8397  1.0737
  351TMC3    H1 5264   0.420   3.674  10.058 -1.8293 -1.5310 -1.9393
  351TMC3    H2 5265   0.298   3.267  10.030 -1.2608  1.3107 -1.7626
  351TMC3    C7 5266   0.213   3.526   9.988  0.3754 -0.5496 -0.5373
  351TMC3    C8 5267   0.498   3.168  10.148 -0.0979 -0.3701 -0.4307
  351TMC3    O1 5268   0.211   3.645   9.962  0.3299 -0.2507  0.6198
  351TMC3    O2 5269   0.615   3.144  10.136  0.2587 -0.4671  0.6161
  352MPD2     C 5270   3.905   0.707   1.258  0.6188 -0.2167  0.1110
  352MPD2    C1 5271   3.787   0.724   1.330 -0.0277 -0.6474 -0.1501
  352MPD2    C2 5272   3.749   0.628   1.420 -0.7985  1.0229 -0.5148
  352MPD2    C3 5273   3.842   0.532   1.456 -0.3838  0.1467 -0.0592
  352MPD2    C4 5274   3.960   0.521   1.387 -0.1773  0.1539 -0.3359
  352MPD2    C5 5275   3.985   0.609   1.290  0.4630 -0.1283  0.9140
  352MPD2     H 5276   3.663   0.642   1.484 -1.7035  0.0173 -1.5103
  352MPD2    H1 5277   4.034   0.453   1.427 -2.3587 -2.7572 -1.2848
  352MPD2    H2 5278   3.932   0.783   1.185 -0.1375  1.3402  1.4310
  352MPD2    H3 5279   4.082   0.610   1.241  0.1766  1.3588  0.3594
  352MPD2     N 5280   3.829   0.446   1.568  0.0458 -0.3552  0.2450
  352MPD2    H5 5281   3.913   0.392   1.582  0.1917 -0.0037  0.7597
  352MPD2    N1 5282   3.706   0.838   1.290 -0.0552 -0.3838 -0.0592
  352MPD2    H7 5283   3.746   0.909   1.230  0.7367 -0.7394  0.0500
  353TMC3    C1 5284   3.721   0.321   1.749  0.3532  0.3724  0.0779
  353TMC3    C2 5285   3.844   0.292   1.796 -0.1578 -0.7917 -0.1573
  353TMC3    C3 5286   3.865   0.162   1.847  0.6078  0.4131  0.1739
  353TMC3    C4 5287   3.610   0.239   1.779 -0.6398 -0.4382 -0.0061
  353TMC3    C5 5288   3.634   0.114   1.829 -0.0400  0.3386 -0.0003
  353TMC3    C6 5289   3.759   0.076   1.854  0.0360 -0.2340  0.3725
  353TMC3     C 5290   3.717   0.416   1.638  0.6428 -0.9483  0.4160
  353TMC3     O 5291   3.605   0.441   1.595  0.0305  0.5358 -0.0195
  353TMC3     H 5292   3.925   0.359   1.771 -0.2569 -0.1877  1.1517
  353TMC3    H1 5293   3.507   0.263   1.754  0.3942  1.7913 -2.1892
  353TMC3    H2 5294   3.772   4.707   1.903  2.0831  0.8114  1.8135
  353TMC3    C7 5295   3.535   0.015   1.815 -0.2559  0.3691  0.2507
  353TMC3    C8 5296   3.999   0.105   1.857  0.3868 -0.0503 -0.5195
  353TMC3    O1 5297   3.534   4.650   1.901  0.4905 -0.2488 -0.0259
  353TMC3    O2 5298   4.086   0.189   1.873 -0.4732 -0.5098 -0.2686
  354TMC3    C1 5299   0.313   1.825  13.504 -0.6145  0.0698  0.4608
  354TMC3    C2 5300   0.403   1.924  13.529 -0.0430 -0.2993  0.6182
  354TMC3    C3 5301   0.439   1.999  13.424 -0.5514  0.9623  0.5972
  354TMC3    C4 5302   0.251   1.805  13.383 -0.4433 -0.1813 -0.8956
  354TMC3    C5 5303   0.304   1.873  13.272 -0.5936 -0.6037 -0.3678
  354TMC3    C6 5304   0.404   1.973  13.295 -1.1066  0.1777  0.2171
  354TMC3     C 5305   0.274   1.732  13.607 -0.3060  0.5207  0.0226
  354TMC3     O 5306   0.189   1.652  13.576  0.5958  0.5313 -0.6962
  354TMC3     H 5307   0.453   1.941  13.624  1.9908 -2.1766 -0.1121
  354TMC3    H1 5308   0.192   1.717  13.360 -0.8848 -0.5493  1.7182
  354TMC3    H2 5309   0.447   2.031  13.215 -0.4186 -1.3526 -0.5173
  354TMC3    C7 5310   0.343   1.775  13.167  0.3385  0.2246  0.4551
  354TMC3    C8 5311   0.571   2.053  13.435  0.3148  0.1790 -0.3336
  354TMC3    O1 5312   0.338   1.663  13.200  0.0842  0.4320 -0.3731
  354TMC3    O2 5313   0.602   2.152  13.503  0.2592  0.2925 -0.5759
  355MPD2     C 5314   0.725   2.933  12.012  0.3866  0.7638 -0.3603
  355MPD2    C1 5315   0.804   2.913  11.897  0.2113  0.0726  0.1935
  355MPD2    C2 5316   0.943   2.905  11.921  0.3596 -0.3515 -0.3873
  355MPD2    C3 5317   0.997   2.934  12.042 -0.5222  0.0419 -0.3367
  355MPD2    C4 5318   0.915   2.932  12.152 -0.3222  0.3155 -0.3835
  355MPD2    C5 5319   0.777   2.935  12.137 -0.6437  0.3290  0.4433
  355MPD2     H 5320   1.014   2.882  11.842  0.5368  3.0107 -1.1896
  355MPD2    H1 5321   0.954   2.943  12.253 -1.8167 -0.4598  0.2789
  355MPD2    H2 5322   0.617   2.937  12.004  0.1986 -1.8193  0.8970
  355MPD2    H3 5323   0.703   2.938  12.216 -0.6754 -1.1238  0.4675
  355MPD2     N 5324   1.131   2.970  12.060 -0.3483 -0.2105  0.0799
  355MPD2    H5 5325   1.158   2.989  12.156  2.0236  0.1402 -0.6743
  355MPD2    N1 5326   0.752   2.898  11.766 -0.4171  0.5061 -0.1378
  355MPD2    H7 5327   0.655   2.871  11.761  0.2973 -1.8262 -1.2932
  356TMC3    C1 5328   1.346   3.060  12.008  0.3353  0.1122  0.3320
  356TMC3    C2 5329   1.421   3.101  11.904  0.2460 -0.3326 -0.5373
  356TMC3    C3 5330   1.530   3.181  11.928  0.4154 -0.0017 -0.1364
  356TMC3    C4 5331   1.365   3.101  12.136 -0.1191  0.3829  0.5012
  356TMC3    C5 5332   1.481   3.174  12.160 -0.0813 -0.0841 -0.5301
  356TMC3    C6 5333   1.564   3.211  12.059  0.4497 -0.2234  0.0886
  356TMC3     C 5334   1.227   2.985  11.963  0.0428  0.4333  0.1542
  356TMC3     O 5335   1.233   2.936  11.851 -0.4063 -0.5644  0.3230
  356TMC3     H 5336   1.392   3.083  11.801 -1.6028 -0.5112  0.0211
  356TMC3    H1 5337   1.296   3.095  12.219 -1.6662 -2.8675 -1.0286
  356TMC3    H2 5338   1.663   3.255  12.070 -0.3157  0.6060  3.9017
  356TMC3    C7 5339   1.510   3.210  12.296  0.2071  0.9127 -0.5352
  356TMC3    C8 5340   1.595   3.246  11.812 -0.0076 -0.4170 -0.8974
  356TMC3    O1 5341   1.444   3.148  12.377  0.5198  0.2222  0.6607
  356TMC3    O2 5342   1.558   3.206  11.700  0.3694 -0.3303  0.2576
  357MPD2     C 5343   1.291   2.456   0.489  0.7360 -0.0105  0.3030
  357MPD2    C1 5344   1.282   2.361   0.589 -0.3100 -0.3137 -0.0660
  357MPD2    C2 5345   1.194   2.391   0.695 -0.7434  0.1445 -0.2493
  357MPD2    C3 5346   1.136   2.513   0.717 -0.5684 -0.3805 -0.1569
  357MPD2    C4 5347   1.157   2.605   0.616 -0.7748  0.0218  0.0230
  357MPD2    C5 5348   1.225   2.577   0.499 -0.5804  1.1779 -0.0646
  357MPD2     H 5349   1.180   2.322   0.777 -1.0857  0.6884  0.1484
  357MPD2    H1 5350   1.113   2.703   0.626  0.5274  0.4911  1.1024
  357MPD2    H2 5351   1.332   2.433   0.391  0.8152 -1.2195  0.6286
  357MPD2    H3 5352   1.216   2.652   0.421  0.6527  0.1595 -1.1927
  357MPD2     N 5353   1.063   2.551   0.832 -0.2463  0.3234 -0.1399
  357MPD2    H5 5354   1.039   2.650   0.828  0.9951  0.5861 -1.0446
  357MPD2    N1 5355   1.338   2.230   0.573  1.0460  0.4359 -0.0474
  357MPD2    H7 5356   1.391   2.212   0.489  2.1165 -1.4624  1.0110
  358TMC3    C1 5357   1.414   2.027   0.646  0.1867 -0.4667 -0.4594
  358TMC3    C2 5358   1.382   1.946   0.539 -0.3544  0.1962  0.0189
  358TMC3    C3 5359   1.400   1.812   0.552 -1.1409 -0.0270  0.0624
  358TMC3    C4 5360   1.479   1.972   0.752  0.3900  0.3796 -0.3374
  358TMC3    C5 5361   1.511   1.838   0.751  0.6450  0.1390  0.2326
  358TMC3    C6 5362   1.461   1.748   0.661  0.5753  0.0588  0.1010
  358TMC3     C 5363   1.344   2.145   0.680  0.1177  0.1917  0.0432
  358TMC3     O 5364   1.316   2.153   0.799 -0.3410  0.6248 -0.3038
  358TMC3     H 5365   1.329   1.985   0.452  0.7904 -1.6487 -1.4978
  358TMC3    H1 5366   1.525   2.036   0.827 -1.6493  0.8340  0.5329
  358TMC3    H2 5367   1.499   1.648   0.651 -0.6254  0.1175 -5.2824
  358TMC3    C7 5368   1.569   1.781   0.868  0.0691  0.2593  0.0815
  358TMC3    C8 5369   1.314   1.732   0.469 -0.1169 -0.2864  0.2018
  358TMC3    O1 5370   1.613   1.666   0.852 -0.1209 -0.4747  0.0834
  358TMC3    O2 5371   1.293   1.765   0.353 -0.2310 -0.8062 -0.4758
  359MPD2     C 5372   1.446   2.258  12.333 -0.1151 -0.2649  0.2450
  359MPD2    C1 5373   1.490   2.146  12.263 -0.7320 -0.0603 -0.0408
  359MPD2    C2 5374   1.384   2.056  12.238  0.3236 -0.0517  0.8675
  359MPD2    C3 5375   1.250   2.069  12.275 -0.5525  0.4960  0.4851
  359MPD2    C4 5376   1.221   2.172  12.367 -0.3807 -0.2089  0.2173
  359MPD2    C5 5377   1.324   2.265  12.390  0.0052 -0.0771  0.5734
  359MPD2     H 5378   1.402   1.966  12.181  0.6747  0.1716  0.6223
  359MPD2    H1 5379   1.120   2.194  12.399 -1.0872 -0.0118 -2.1419
  359MPD2    H2 5380   1.518   2.339  12.341  1.2488 -1.3777 -0.6366
  359MPD2    H3 5381   1.302   2.350  12.453 -0.1166 -1.1494  1.9821
  359MPD2     N 5382   1.147   1.978  12.245  0.1878 -0.0156 -0.5446
  359MPD2    H5 5383   1.052   2.010  12.261  0.4765 -0.3483  1.7566
  359MPD2    N1 5384   1.616   2.131  12.205  0.4994 -0.5074  0.0537
  359MPD2    H7 5385   1.631   2.047  12.150  0.3936 -0.9518  0.7039
  360TMC3    C1 5386   1.823   2.168  12.121  0.1937  0.0952 -0.2247
  360TMC3    C2 5387   1.884   2.247  12.031 -0.1455  0.3169 -0.0150
  360TMC3    C3 5388   1.978   2.193  11.948  0.3378  1.1743  0.2435
  360TMC3    C4 5389   1.868   2.043  12.148 -0.1947 -0.3119  0.9207
  360TMC3    C5 5390   1.960   1.995  12.061 -0.7376 -0.3364  0.4216
  360TMC3    C6 5391   2.015   2.062  11.956  0.2690  0.4705 -0.1311
  360TMC3     C 5392   1.712   2.224  12.193 -0.7276  0.5072  0.2775
  360TMC3     O 5393   1.703   2.346  12.217  0.6850 -0.4239 -0.2789
  360TMC3     H 5394   1.840   2.345  12.014 -0.6829  0.2979  1.3253
  360TMC3    H1 5395   1.821   1.976  12.218  1.7940 -2.8139 -0.1098
  360TMC3    H2 5396   2.088   2.008  11.896 -0.6015 -0.1920 -0.6021
  360TMC3    C7 5397   2.040   1.880  12.106 -0.5076  0.2560  0.5443
  360TMC3    C8 5398   2.014   2.271  11.832 -0.3227 -0.9081 -0.4611
  360TMC3    O1 5399   2.162   1.894  12.093  0.4901 -0.2339 -0.0760
  360TMC3    O2 5400   1.980   2.390  11.834 -0.0848  0.1976 -0.4994
  361MPD2     C 5401   2.576   4.580  16.541 -0.9218  0.2198  0.8597
  361MPD2    C1 5402   2.593   4.692  16.616 -0.3973 -0.6693  0.1806
  361MPD2    C2 5403   2.712   4.725  16.681  0.2932  0.6877  0.6335
  361MPD2    C3 5404   2.817   4.640  16.683 -0.4966  0.6650  0.4420
  361MPD2    C4 5405   2.798   4.526  16.614 -0.4473  0.1589  0.2585
  361MPD2    C5 5406   2.682   4.496  16.550  0.5765 -0.6921 -0.9471
  361MPD2     H 5407   2.707   0.090  16.740  2.0065  1.9740 -1.2081
  361MPD2    H1 5408   2.880   4.457  16.603 -1.0803 -0.0516 -2.9663
  361MPD2    H2 5409   2.491   4.566  16.475  0.2515 -1.8981 -0.1828
  361MPD2    H3 5410   2.668   4.405  16.493  1.1628 -1.3532 -0.0178
  361MPD2     N 5411   2.937   4.661  16.765 -0.1483  0.4359 -0.7367
  361MPD2    H5 5412   2.995   4.578  16.775  1.0718  1.1022 -2.3209
  361MPD2    N1 5413   2.482   0.040  16.649 -0.1796  0.2576 -0.1814
  361MPD2    H7 5414   2.492   0.133  16.689  0.4148 -0.9623  2.5567
  362TMC3    C1 5415   2.261   0.118  16.650  0.2845 -0.6755 -0.5080
  362TMC3    C2 5416   2.162   0.108  16.742 -0.0800  0.5543 -0.4650
  362TMC3    C3 5417   2.102   0.218  16.780  0.1231  0.5766 -0.4404
  362TMC3    C4 5418   2.295   0.238  16.590  0.3634  0.3526 -0.1028
  362TMC3    C5 5419   2.214   0.339  16.614  0.4776  0.4277  0.3743
  362TMC3    C6 5420   2.117   0.336  16.709 -0.4132 -0.4984 -0.1227
  362TMC3     C 5421   2.351   0.002  16.638  0.1128  0.6350  0.4794
  362TMC3     O 5422   2.295   4.619  16.636  0.1676 -0.2743  0.2358
  362TMC3     H 5423   2.145   0.015  16.796 -1.0154  0.5424 -0.7697
  362TMC3    H1 5424   2.381   0.239  16.524  0.4236 -0.7049 -0.0419
  362TMC3    H2 5425   2.063   0.426  16.735 -1.9042 -0.7385 -2.3796
  362TMC3    C7 5426   2.229   0.469  16.543 -0.2096  0.4156  0.0136
  362TMC3    C8 5427   1.973   0.207  16.862 -0.2084 -0.9237 -1.3110
  362TMC3    O1 5428   2.149   0.559  16.562 -0.4945  0.9622 -0.0292
  362TMC3    O2 5429   1.918   0.095  16.870  0.1045  0.2792  0.0667
  363TMC3    C1 5430   1.267   3.070   9.620  0.2453  0.1501 -0.3380
  363TMC3    C2 5431   1.402   3.052   9.599  0.0417  0.6345  0.6181
  363TMC3    C3 5432   1.483   3.160   9.573 -0.1923  0.2340 -0.1493
  363TMC3    C4 5433   1.209   3.191   9.603  0.5715 -0.0747 -0.0685
  363TMC3    C5 5434   1.289   3.299   9.589  0.1133 -0.2636 -0.0488
  363TMC3    C6 5435   1.424   3.285   9.576  0.8066  0.0956 -0.4061
  363TMC3     C 5436   1.179   2.958   9.587 -0.5007 -0.2523 -0.4299
  363TMC3     O 5437   1.239   2.854   9.588  0.6160 -0.4862  0.6373
  363TMC3     H 5438   1.447   2.957   9.626  1.8258  1.0467 -0.8995
  363TMC3    H1 5439   1.103   3.213   9.602  0.9787  1.8670 -0.4536
  363TMC3    H2 5440   1.487   3.372   9.564  0.8883  0.2554  1.1674
  363TMC3    C7 5441   1.234   3.438   9.564 -0.0232  0.6477 -0.2299
  363TMC3    C8 5442   1.628   3.159   9.584 -0.9843 -0.2119 -0.1988
  363TMC3    O1 5443   1.316   3.525   9.543  0.1167  0.4736  0.2330
  363TMC3    O2 5444   1.676   3.269   9.602 -0.0333 -0.4815 -0.7791
  364MPD2     C 5445   0.013   1.703  10.804  0.5376 -0.7930 -0.0867
  364MPD2    C1 5446   0.151   1.711  10.788 -0.0389 -0.1753  0.5906
  364MPD2    C2 5447   0.230   1.638  10.880 -0.6738 -0.4411  0.1970
  364MPD2    C3 5448   0.177   1.553  10.975  0.1309 -0.8820 -0.0587
  364MPD2    C4 5449   0.039   1.560  11.000  0.4117  0.4528 -0.4917
  364MPD2    C5 5450   4.684   1.631  10.911  1.0203 -0.2344  0.9562
  364MPD2     H 5451   0.337   1.641  10.862 -1.2030  1.1125 -2.7126
  364MPD2    H1 5452   4.714   1.498  11.074 -1.5408  0.5628 -1.7246
  364MPD2    H2 5453   4.672   1.767  10.747  0.0307 -0.9336  0.3503
  364MPD2    H3 5454   4.576   1.630  10.921  0.8817  0.8321 -0.4510
  364MPD2     N 5455   0.251   1.469  11.061  0.1253  0.0749 -0.2176
  364MPD2    H5 5456   0.198   1.428  11.137  0.5631  1.1932  0.6986
  364MPD2    N1 5457   0.201   1.804  10.693  0.4536  0.0852  0.4501
  364MPD2    H7 5458   0.133   1.864  10.648  1.4144 -0.9302 -2.3661
  365TMC3    C1 5459   0.351   1.948  10.586 -0.5536  0.5457  0.0336
  365TMC3    C2 5460   0.472   1.963  10.522 -0.4195 -0.4757 -0.7965
  365TMC3    C3 5461   0.486   2.059  10.423  0.3768  0.5532 -0.1268
  365TMC3    C4 5462   0.252   2.046  10.577 -1.0555 -0.5996  0.2500
  365TMC3    C5 5463   0.274   2.135  10.475  0.2838 -0.3654  0.3807
  365TMC3    C6 5464   0.382   2.138  10.393 -0.0088 -0.0516 -0.7195
  365TMC3     C 5465   0.327   1.831  10.667  0.7520  0.3037  0.2853
  365TMC3     O 5466   0.423   1.764  10.700 -0.4574  0.3025  0.0929
  365TMC3     H 5467   0.546   1.885  10.535 -2.6589 -2.3250  0.8826
  365TMC3    H1 5468   0.160   2.047  10.634 -0.7156  0.8784  0.7892
  365TMC3    H2 5469   0.383   2.214  10.315  0.4369  0.8353  0.1552
  365TMC3    C7 5470   0.184   2.249  10.469  0.3020 -0.0173  0.1276
  365TMC3    C8 5471   0.592   2.064  10.328  0.1197 -0.0182  0.0410
  365TMC3    O1 5472   0.171   2.305  10.359 -0.5010 -0.6662  0.4425
  365TMC3    O2 5473   0.597   2.161  10.248  0.0164 -0.3599  0.6896
  366MPD2     C 5474   2.793   2.795  15.206 -0.1192 -0.1935 -0.8755
  366MPD2    C1 5475   2.900   2.875  15.223  0.2958 -0.7084  0.0192
  366MPD2    C2 5476   3.029   2.828  15.212  0.5163 -0.0434  0.2132
  366MPD2    C3 5477   3.050   2.697  15.174  0.2148 -0.5358  0.9026
  366MPD2    C4 5478   2.941   2.614  15.146 -0.2052 -0.2132  1.1696
  366MPD2    C5 5479   2.814   2.667  15.155  0.0845 -0.8694 -0.4683
  366MPD2     H 5480   3.113   2.889  15.242  0.9320  1.0960 -3.2707
  366MPD2    H1 5481   2.946   2.516  15.099 -1.8290  0.1817  0.1706
  366MPD2    H2 5482   2.691   2.828  15.223  0.7636  1.3788  1.4106
  366MPD2    H3 5483   2.724   2.621  15.116 -0.7835 -1.1481  1.8579
  366MPD2     N 5484   3.181   2.658  15.150 -0.0728  0.5016 -0.3419
  366MPD2    H5 5485   3.248   2.733  15.160  0.8284 -0.2824 -0.4686
  366MPD2    N1 5486   2.890   3.013  15.250 -0.2594  0.1285 -0.5644
  366MPD2    H7 5487   2.979   3.059  15.267 -0.7987  0.9425  0.0768
  367TMC3    C1 5488   2.792   3.228  15.253 -1.0144 -0.4752  0.9196
  367TMC3    C2 5489   2.886   3.259  15.347 -0.3074 -0.6136 -0.1675
  367TMC3    C3 5490   2.927   3.390  15.352 -0.6756  0.2043 -0.1291
  367TMC3    C4 5491   2.756   3.311  15.155  0.3041  0.0788 -0.5091
  367TMC3    C5 5492   2.805   3.439  15.158  0.3502 -0.1279 -0.0881
  367TMC3    C6 5493   2.881   3.483  15.264 -1.1865  0.9097  0.1650
  367TMC3     C 5494   2.776   3.091  15.219 -0.6324  0.3172  0.6983
  367TMC3     O 5495   2.677   3.050  15.163  0.2299 -0.4070  0.1600
  367TMC3     H 5496   2.912   3.184  15.421 -0.3705  0.4023  0.8754
  367TMC3    H1 5497   2.690   3.282  15.074  0.1547 -1.0058  0.0007
  367TMC3    H2 5498   2.920   3.584  15.262 -0.2992  0.5631  0.1844
  367TMC3    C7 5499   2.758   3.543  15.068  0.1422 -0.4087 -0.1253
  367TMC3    C8 5500   2.997   3.422  15.485  0.6363 -0.5188 -0.1131
  367TMC3    O1 5501   2.824   3.649  15.065  0.0160  0.0447  0.4202
  367TMC3    O2 5502   3.076   3.340  15.537 -0.0375  0.2072 -0.2972
  368MPD2     C 5503   4.495   0.987  12.962 -0.1752 -0.2815  0.3694
  368MPD2    C1 5504   4.450   1.064  12.852 -0.2092 -0.0814 -0.0916
  368MPD2    C2 5505   4.547   1.070  12.748 -0.2331  0.1406  0.0197
  368MPD2    C3 5506   4.675   1.026  12.763  0.7761 -0.1481  0.1402
  368MPD2    C4 5507   4.712   0.948  12.869  0.4379  0.7863  0.0795
  368MPD2    C5 5508   4.612   0.922  12.962  0.2527  0.0731  0.2079
  368MPD2     H 5509   4.511   1.124  12.661  2.1190  0.9887 -0.4056
  368MPD2    H1 5510   0.089   0.918  12.886  0.6793  1.2738 -0.5390
  368MPD2    H2 5511   4.423   0.962  13.039  1.0162 -1.0904  1.2254
  368MPD2    H3 5512   4.646   0.861  13.046  0.3182 -1.3688 -0.8672
  368MPD2     N 5513   0.048   1.059  12.661  0.1815  0.0620 -0.1350
  368MPD2    H5 5514   0.135   1.007  12.663 -0.3135 -0.7998 -1.0952
  368MPD2    N1 5515   4.318   1.103  12.843  0.6633  0.0156  0.3536
  368MPD2    H7 5516   4.270   1.085  12.930 -1.6983 -2.2518 -1.4387
  369TMC3    C1 5517   4.130   1.212  12.757 -0.2400 -0.5311 -0.1217
  369TMC3    C2 5518   4.087   1.267  12.636 -0.4758  0.4092 -0.1314
  369TMC3    C3 5519   3.997   1.208  12.557 -0.2868 -0.3354  0.2629
  369TMC3    C4 5520   4.063   1.100  12.800 -0.3245  0.1136  0.8889
  369TMC3    C5 5521   3.962   1.051  12.721 -0.3303  0.4199  0.2506
  369TMC3    C6 5522   3.926   1.097  12.595 -0.7333  0.0104 -0.2725
  369TMC3     C 5523   4.272   1.192  12.749  0.5328 -0.3105  0.5443
  369TMC3     O 5524   4.329   1.250  12.660 -0.4721  0.0014 -0.0034
  369TMC3     H 5525   4.134   1.359  12.604  2.2671 -1.3065 -1.0215
  369TMC3    H1 5526   4.100   1.041  12.883 -0.0081 -2.7719 -1.3271
  369TMC3    H2 5527   3.857   1.048  12.526 -0.1750 -2.4258  0.9214
  369TMC3    C7 5528   3.898   0.926  12.753  0.9490  0.2798  0.4195
  369TMC3    C8 5529   4.034   1.210  12.423 -0.2379 -0.0701  0.4406
  369TMC3    O1 5530   3.946   0.846  12.830  0.3065  0.6895 -0.1084
  369TMC3    O2 5531   3.944   1.187  12.340 -0.0586 -0.3114 -0.0771
  370TMC3    C1 5532   3.748   0.948  16.317 -0.3175  0.3388 -0.2902
  370TMC3    C2 5533   3.735   0.895  16.435 -0.0800  0.1197  0.4177
  370TMC3    C3 5534   3.703   0.762  16.440 -0.1280  0.1016 -0.4956
  370TMC3    C4 5535   3.727   0.875  16.197 -0.3352  0.1782 -0.4399
  370TMC3    C5 5536   3.691   0.743  16.214  0.4688  0.2072 -0.0724
  370TMC3    C6 5537   3.681   0.689  16.335  0.0161 -0.1788  0.0065
  370TMC3     C 5538   3.768   1.093  16.316  0.0584 -0.3952  0.0809
  370TMC3     O 5539   3.764   1.146  16.426  0.5911 -0.3483 -0.5963
  370TMC3     H 5540   3.753   0.948  16.528 -0.4135 -4.5030  3.1023
  370TMC3    H1 5541   3.740   0.921  16.100 -0.6462 -1.0977 -1.0857
  370TMC3    H2 5542   3.655   0.585  16.349 -2.1762  0.1268 -1.8302
  370TMC3    C7 5543   3.690   0.667  16.095  0.3488  0.4396  0.3571
  370TMC3    C8 5544   3.671   0.703  16.570 -0.3270 -0.1479  0.0892
  370TMC3    O1 5545   3.678   0.726  15.989 -0.1495 -0.0906  0.2578
  370TMC3    O2 5546   3.638   0.582  16.564 -0.3965  0.0891  0.0328
  371TMC3    C1 5547   0.289   3.854  15.552 -0.4511 -0.4915  0.4114
  371TMC3    C2 5548   0.166   3.867  15.597 -0.2807 -0.1028  0.6734
  371TMC3    C3 5549   0.096   3.983  15.569 -0.9011  0.3282  0.5303
  371TMC3    C4 5550   0.351   3.947  15.479  0.0595  0.2354 -0.6469
  371TMC3    C5 5551   0.282   4.061  15.447  0.1201 -0.4049  0.0705
  371TMC3    C6 5552   0.156   4.086  15.497 -0.7949 -0.7319  0.4182
  371TMC3     C 5553   0.372   3.737  15.582  0.6465  0.9875  0.9180
  371TMC3     O 5554   0.493   3.746  15.589 -0.0164 -0.4169 -0.2781
  371TMC3     H 5555   0.119   3.790  15.658  0.2862 -1.0384 -0.0765
  371TMC3    H1 5556   0.451   3.929  15.443 -0.3309 -0.6373 -1.2765
  371TMC3    H2 5557   0.099   4.169  15.457  2.5149  1.5418  0.4198
  371TMC3    C7 5558   0.347   4.170  15.368 -0.3584  1.2375 -0.4673
  371TMC3    C8 5559   4.674   3.975  15.591 -0.2215 -0.5464  0.6921
  371TMC3    O1 5560   0.289   4.274  15.368  0.5063  0.4269 -0.8405
  371TMC3    O2 5561   4.623   3.866  15.612  0.3473  0.5377 -0.6227
  372MPD2     C 5562   0.283   0.870  13.544 -0.3748  0.2773  0.2191
  372MPD2    C1 5563   0.368   0.759  13.559  0.3671  0.1538 -0.1276
  372MPD2    C2 5564   0.300   0.641  13.567 -0.2867  0.4615 -0.0383
  372MPD2    C3 5565   0.167   0.626  13.548 -0.2306  0.5469  0.3348
  372MPD2    C4 5566   0.090   0.730  13.516 -0.1450  0.8643  0.3833
  372MPD2    C5 5567   0.147   0.860  13.517 -0.3976 -0.3295  0.4287
  372MPD2     H 5568   0.352   0.550  13.596 -1.5611  0.1477  1.2410
  372MPD2    H1 5569   4.714   0.721  13.478  0.2680 -0.0124 -0.5267
  372MPD2    H2 5570   0.319   0.971  13.559  0.5341 -0.0720  0.3459
  372MPD2    H3 5571   0.084   0.946  13.497  0.5842  0.1547 -0.5641
  372MPD2     N 5572   0.117   0.492  13.550 -0.3270 -0.0943  0.0073
  372MPD2    H5 5573   0.175   0.420  13.591  0.2112 -1.2273 -2.7761
  372MPD2    N1 5574   0.512   0.766  13.565  0.1792  0.0635  0.4185
  372MPD2    H7 5575   0.567   0.683  13.583 -0.9084 -1.1239 -1.7356
  373TMC3    C1 5576   4.708   0.310  13.483 -0.0525 -0.1209  0.5480
  373TMC3    C2 5577   4.584   0.255  13.498 -0.2059  0.0285 -0.9252
  373TMC3    C3 5578   4.560   0.123  13.471 -0.2295 -0.3497  0.5001
  373TMC3    C4 5579   0.090   0.233  13.466  0.0458 -0.5553 -0.6399
  373TMC3    C5 5580   0.065   0.098  13.448 -0.4348  1.1041  1.3461
  373TMC3    C6 5581   4.665   0.041  13.440 -0.0162  0.6486 -0.4621
  373TMC3     C 5582   4.721   0.454  13.501  0.1703 -0.8977  0.0411
  373TMC3     O 5583   4.624   0.521  13.477  0.0235 -0.1135  0.2372
  373TMC3     H 5584   4.503   0.325  13.514 -0.7615 -0.2247 -2.6016
  373TMC3    H1 5585   0.188   0.278  13.453  1.0650 -2.2884  0.9588
  373TMC3    H2 5586   4.646   4.661  13.447  1.0596  0.5018  0.3459
  373TMC3    C7 5587   0.178   0.010  13.486 -0.3568 -0.5188  0.3414
  373TMC3    C8 5588   4.501   0.052  13.589 -0.5679 -0.5230 -0.3385
  373TMC3    O1 5589   0.185   4.622  13.438 -0.2025 -0.2198  0.3270
  373TMC3    O2 5590   4.448   4.672  13.555 -0.5891 -0.0523 -0.0575
  374TMC3    C1 5591   0.775   0.619   9.913 -0.0677  0.3149  0.3706
  374TMC3    C2 5592   0.898   0.660   9.886  0.2080 -0.0779  0.2822
  374TMC3    C3 5593   0.947   0.652   9.760 -0.1157  0.1801  0.1171
  374TMC3    C4 5594   0.704   0.540   9.821  0.3511  0.5864  0.9734
  374TMC3    C5 5595   0.772   0.507   9.703  0.0424  0.2221 -0.3577
  374TMC3    C6 5596   0.893   0.568   9.666 -0.2085  0.1849 -0.0847
  374TMC3     C 5597   0.717   0.669  10.038 -0.4985  0.1427 -0.7018
  374TMC3     O 5598   0.798   0.710  10.121  0.8435 -0.2506  0.0522
  374TMC3     H 5599   0.935   0.742   9.947  0.8530  0.0819 -0.3215
  374TMC3    H1 5600   0.601   0.507   9.830  0.9116 -1.3627  0.0262
  374TMC3    H2 5601   0.950   0.546   9.576  0.7337  1.1335  0.2801
  374TMC3    C7 5602   0.708   0.407   9.619 -0.0824 -0.0460 -1.1649
  374TMC3    C8 5603   1.061   0.728   9.717  0.1687 -0.4091 -0.1441
  374TMC3    O1 5604   0.600   0.359   9.648 -0.0511  0.0854  0.4342
  374TMC3    O2 5605   1.076   0.761   9.599  0.0212 -0.1888 -0.3572
  375MPD2     C 5606   0.468   1.495  16.745  0.7618 -0.3172  0.0946
  375MPD2    C1 5607   0.361   1.401  16.747 -0.4797  0.3654 -0.2026
  375MPD2    C2 5608   0.361   1.275  16.680  0.2787  0.6939  0.5506
  375MPD2    C3 5609   0.472   1.234  16.617 -0.0993 -0.4156  0.0316
  375MPD2    C4 5610   0.583   1.318  16.622  0.2194  0.4061  0.6957
  375MPD2    C5 5611   0.576   1.443  16.681 -0.0595 -0.3965 -0.1332
  375MPD2     H 5612   0.266   1.225  16.684 -1.5719  4.0324 -1.3454
  375MPD2    H1 5613   0.680   1.286  16.586 -1.0326 -1.2993 -1.1579
  375MPD2    H2 5614   0.461   1.592  16.792  0.0745  0.8125 -2.3387
  375MPD2    H3 5615   0.666   1.504  16.683  0.9091 -1.8697  1.8173
  375MPD2     N 5616   0.478   1.115  16.545 -0.1965 -0.0705  0.2462
  375MPD2    H5 5617   0.568   1.095  16.504  1.2391  2.4954  2.1536
  375MPD2    N1 5618   0.227   1.425  16.792  0.0595 -0.1403  0.2806
  375MPD2    H7 5619   0.154   1.356  16.786 -1.7575  1.9776 -1.9660
  376TMC3    C1 5620   0.397   0.943  16.405 -0.3173 -0.9039 -0.5407
  376TMC3    C2 5621   0.521   0.893  16.380 -0.2145 -0.0456  0.1354
  376TMC3    C3 5622   0.547   0.842  16.255  0.3411  0.2158 -0.4717
  376TMC3    C4 5623   0.300   0.931  16.312 -0.0560  0.6134  0.6699
  376TMC3    C5 5624   0.329   0.879  16.188 -0.6795 -0.3411  0.3233
  376TMC3    C6 5625   0.454   0.839  16.153 -0.1992  0.3499  0.0242
  376TMC3     C 5626   0.372   1.036  16.515  0.4939 -0.3920 -0.9259
  376TMC3     O 5627   0.254   1.052  16.546  0.2635 -0.1066 -0.5418
  376TMC3     H 5628   0.602   0.903  16.450 -1.0945  1.5414  0.9230
  376TMC3    H1 5629   0.199   0.969  16.327 -0.2310  0.1102  0.7542
  376TMC3    H2 5630   0.481   0.802  16.055  0.1525  1.5301 -0.3254
  376TMC3    C7 5631   0.246   0.932  16.081  0.7930  0.3640  1.1618
  376TMC3    C8 5632   0.687   0.834  16.212  0.7147 -0.0392  0.0018
  376TMC3    O1 5633   0.196   1.042  16.098  0.2061 -0.1717 -0.4203
  376TMC3    O2 5634   0.709   0.869  16.097  0.0808 -0.3152  0.2006
  377MPD2     C 5635   3.227   1.135  12.083 -0.6242 -0.0459 -0.3178
  377MPD2    C1 5636   3.297   1.071  12.177 -0.4621  0.5480  0.3641
  377MPD2    C2 5637   3.243   1.060  12.306 -0.1178  0.4973 -0.0330
  377MPD2    C3 5638   3.114   1.087  12.334 -0.4713 -0.4342  0.2052
  377MPD2    C4 5639   3.036   1.143  12.232  0.2853 -0.0380 -0.8380
  377MPD2    C5 5640   3.100   1.175  12.112 -0.5987  0.2534 -0.1209
  377MPD2     H 5641   3.303   1.012  12.383  0.3494 -0.8528 -1.2215
  377MPD2    H1 5642   2.938   1.174  12.266  0.9756  0.9945  0.1723
  377MPD2    H2 5643   3.278   1.168  11.993  1.5571 -0.4360  0.7602
  377MPD2    H3 5644   3.041   1.232  12.041 -1.4309  1.3283  1.4210
  377MPD2     N 5645   3.054   1.065  12.456 -0.2127 -0.2812  0.5667
  377MPD2    H5 5646   2.964   1.111  12.471  0.5513  1.4645 -0.1936
  377MPD2    N1 5647   3.433   1.047  12.145 -0.1170 -0.2177 -0.1322
  377MPD2    H7 5648   3.474   1.081  12.058  0.3339  1.2834  0.6553
  378TMC3    C1 5649   3.799   0.962  11.975 -0.4233  0.1511  0.4933
  378TMC3    C2 5650   3.672   0.976  12.018 -0.3977  0.1214  0.1780
  378TMC3    C3 5651   3.646   0.950  12.152  0.4181  0.3166 -1.1076
  378TMC3    C4 5652   3.901   0.913  12.051  0.4839 -0.3725 -0.2236
  378TMC3    C5 5653   3.868   0.889  12.180  0.9620 -0.3200 -0.3139
  378TMC3    C6 5654   3.744   0.899  12.231  0.5765 -0.2490 -0.6144
  378TMC3     C 5655   3.809   0.970  11.824 -0.0600 -0.2676 -0.3929
  378TMC3     O 5656   3.708   0.990  11.768 -1.1574  0.0279 -0.4096
  378TMC3     H 5657   3.592   0.995  11.947 -0.3526  0.9495  0.3500
  378TMC3    H1 5658   4.002   0.923  12.013  0.5821 -0.9872 -0.1390
  378TMC3    H2 5659   3.721   0.870  12.333  2.1503 -0.4941 -0.3309
  378TMC3    C7 5660   3.972   0.872  12.272 -0.6749 -0.0324  0.1101
  378TMC3    C8 5661   3.516   0.964  12.216 -0.8819 -0.1622 -0.6326
  378TMC3    O1 5662   3.932   0.867  12.393 -0.3256 -0.0208  0.1951
  378TMC3    O2 5663   3.492   0.897  12.311  0.0790  0.7571 -0.4040
  379MPD2     C 5664   3.583   3.572  16.477 -0.0430 -0.2863 -0.0617
  379MPD2    C1 5665   3.676   3.508  16.405 -0.5006 -0.0244 -0.1346
  379MPD2    C2 5666   3.762   3.417  16.459  0.2380  0.0148  0.5725
  379MPD2    C3 5667   3.760   3.404  16.597  0.6248 -0.5619 -0.2694
  379MPD2    C4 5668   3.666   3.473  16.672  0.2591  1.2775  0.1719
  379MPD2    C5 5669   3.566   3.545  16.609 -0.6864 -0.7761 -0.1314
  379MPD2     H 5670   3.823   3.353  16.396 -1.3061 -1.9858  1.1056
  379MPD2    H1 5671   3.655   3.459  16.779 -0.9301  0.2900 -0.0742
  379MPD2    H2 5672   3.506   3.632  16.431  0.8744 -0.4534 -1.7979
  379MPD2    H3 5673   3.474   3.585  16.649 -2.6631 -4.1806 -1.3522
  379MPD2     N 5674   3.858   3.334  16.672 -0.5664  0.0400 -0.1616
  379MPD2    H5 5675   3.836   3.320  16.770  1.2366  0.8636  0.3715
  379MPD2    N1 5676   3.671   3.542  16.273 -0.2011 -0.0292 -0.5310
  379MPD2    H7 5677   3.605   3.617  16.258 -0.4540 -0.6548 -2.5418
  380TMC3    C1 5678   3.711   3.535  16.039  0.2248 -1.1573  0.0038
  380TMC3    C2 5679   3.793   3.488  15.940 -0.7567 -1.4451 -0.3504
  380TMC3    C3 5680   3.750   3.515  15.812 -0.3572 -0.3458 -0.0692
  380TMC3    C4 5681   3.600   3.607  16.018  0.2354 -0.0113 -0.2248
  380TMC3    C5 5682   3.565   3.631  15.889  0.4894 -0.6739  0.2310
  380TMC3    C6 5683   3.639   3.594  15.784 -0.2944 -0.4656 -0.4147
  380TMC3     C 5684   3.741   3.478  16.174 -0.4619 -0.7012 -1.0249
  380TMC3     O 5685   3.808   3.377  16.182  0.2398  0.0277 -0.1831
  380TMC3     H 5686   3.891   3.444  15.954 -1.3677 -2.2939  1.2106
  380TMC3    H1 5687   3.531   3.628  16.098 -0.5632 -0.3722 -0.8116
  380TMC3    H2 5688   3.614   3.627  15.684  0.5819 -1.2225 -0.8908
  380TMC3    C7 5689   3.442   3.703  15.870 -0.4342  0.4730 -0.0462
  380TMC3    C8 5690   3.846   3.512  15.699 -0.0336  0.6825  1.1206
  380TMC3    O1 5691   3.408   3.791  15.949  0.0366  0.1993  0.4021
  380TMC3    O2 5692   3.831   3.598  15.614  0.0359  0.1676  0.1126
  381TMC3    C1 5693   3.572   4.590  16.446 -0.0294  0.1523 -0.4884
  381TMC3    C2 5694   3.649   4.692  16.394 -0.6873 -0.4136 -0.1789
  381TMC3    C3 5695   3.674   0.081  16.472  0.6987  0.5041 -0.2356
  381TMC3    C4 5696   3.531   4.598  16.576  0.4917  0.1579  0.4569
  381TMC3    C5 5697   3.560   4.707  16.652 -0.6475  0.1036 -0.4732
  381TMC3    C6 5698   3.633   0.088  16.603 -0.2314 -0.3666  0.0696
  381TMC3     C 5699   3.558   4.465  16.369 -0.2024  0.8468 -0.1538
  381TMC3     O 5700   3.519   4.362  16.421  0.1107  0.0791 -0.7263
  381TMC3     H 5701   3.689   4.689  16.294 -0.0803 -1.0720  0.0866
  381TMC3    H1 5702   3.490   4.506  16.617 -0.9076  1.5832  2.2097
  381TMC3    H2 5703   3.654   0.175  16.663 -1.4406 -0.5738  0.7871
  381TMC3    C7 5704   3.536   4.689  16.798  0.3284  0.5369  0.3637
  381TMC3    C8 5705   3.785   0.158  16.426  0.2665  0.0985 -0.5100
  381TMC3    O1 5706   3.529   4.575  16.835  0.3199  0.1854  0.3295
  381TMC3    O2 5707   3.853   0.115  16.330  0.3707 -0.5311  0.2779
  382MPD2     C 5708   3.235   2.487  17.496  0.4936  0.5115  0.2227
  382MPD2    C1 5709   3.115   2.546  17.472  0.2051  0.6027  0.3262
  382MPD2    C2 5710   3.007   2.462  17.455 -0.7103 -0.1525  0.0937
  382MPD2    C3 5711   3.011   2.326  17.459 -0.1182  0.8723  0.4909
  382MPD2    C4 5712   3.136   2.266  17.469  0.1043 -0.4965 -0.1192
  382MPD2    C5 5713   3.246   2.352  17.486  0.1537 -0.2742 -0.4629
  382MPD2     H 5714   2.911   2.512  17.456 -1.2697 -1.2716  1.9386
  382MPD2    H1 5715   3.138   2.159  17.454 -0.1098 -0.5541  0.2497
  382MPD2    H2 5716   3.327   2.534  17.530  0.9848 -0.6929  0.5592
  382MPD2    H3 5717   3.343   2.305  17.485 -0.5135 -1.6398 -0.5754
  382MPD2     N 5718   2.901   2.236  17.456  0.7029  0.4991 -0.5993
  382MPD2    H5 5719   2.919   2.137  17.473  0.6814  0.5023 -0.5571
  382MPD2    N1 5720   3.091   2.682  17.476 -0.0459 -0.0349 -0.2002
  382MPD2    H7 5721   3.002   2.720  17.505 -0.5890 -1.1762 -0.3993
  383TMC3    C1 5722   2.685   2.174  17.438 -0.0923  0.5780 -0.5146
  383TMC3    C2 5723   2.596   2.165  17.338  0.2670 -0.3112  0.1960
  383TMC3    C3 5724   2.477   2.119  17.374  0.1324 -0.1834  0.3652
  383TMC3    C4 5725   2.658   2.133  17.566 -0.4969 -0.0624  0.0486
  383TMC3    C5 5726   2.534   2.074  17.593 -0.3970 -0.2065  0.2492
  383TMC3    C6 5727   2.442   2.067  17.494 -0.0241 -0.3869 -1.0168
  383TMC3     C 5728   2.780   2.275  17.420 -0.3155 -0.1277 -0.9721
  383TMC3     O 5729   2.735   2.380  17.374 -0.1495  0.6067  0.1856
  383TMC3     H 5730   2.605   2.199  17.235 -1.0809  0.8803  0.4764
  383TMC3    H1 5731   2.724   2.146  17.651  1.1914 -1.5214 -1.0482
  383TMC3    H2 5732   2.342   2.033  17.518  0.4881 -0.1748  1.3577
  383TMC3    C7 5733   2.485   2.118   0.012  0.2736  0.5339 -0.0338
  383TMC3    C8 5734   2.421   2.041  17.266  0.2785  0.0721 -0.1905
  383TMC3    O1 5735   2.508   2.226   0.052 -0.2775 -0.1142  0.1191
  383TMC3    O2 5736   2.399   2.095  17.159  0.4534  0.1553 -0.3526
  384MPD2     C 5737   0.108   4.249  12.059 -0.2072 -0.5923  0.8449
  384MPD2    C1 5738   0.086   4.143  12.142 -0.2641 -0.0180 -0.0927
  384MPD2    C2 5739   0.152   4.026  12.117  0.4579 -0.5912 -0.1985
  384MPD2    C3 5740   0.240   4.016  12.011  0.4264  0.0149 -0.4262
  384MPD2    C4 5741   0.266   4.124  11.926  0.0093 -0.0286  0.5395
  384MPD2    C5 5742   0.201   4.242  11.959  0.6795 -0.0883 -0.1351
  384MPD2     H 5743   0.124   3.944  12.182 -0.3785 -0.7658 -0.7861
  384MPD2    H1 5744   0.341   4.128  11.847 -0.3403  0.5313  0.2396
  384MPD2    H2 5745   0.060   4.344  12.079 -0.8952 -0.3908 -1.7119
  384MPD2    H3 5746   0.216   4.324  11.889  1.7652  0.0826  0.2815
  384MPD2     N 5747   0.319   3.901  11.992  0.1801  1.3307 -0.1705
  384MPD2    H5 5748   0.371   3.899  11.905 -2.0248  0.8232 -1.4712
  384MPD2    N1 5749   4.722   4.154  12.253  0.3993 -0.3257  0.3915
  384MPD2    H7 5750   4.706   4.073  12.313  0.7636 -0.5674  0.1624
  385TMC3    C1 5751   0.382   3.671  12.037  0.6016 -0.3366 -0.5943
  385TMC3    C2 5752   0.390   3.641  11.907 -0.6092 -1.0176  0.0905
  385TMC3    C3 5753   0.340   3.521  11.863  0.1396 -0.1870  0.0075
  385TMC3    C4 5754   0.356   3.575  12.124  0.2206 -0.6288 -0.4552
  385TMC3    C5 5755   0.310   3.455  12.090  0.1617  0.0565 -0.1595
  385TMC3    C6 5756   0.288   3.424  11.952  0.1482 -0.2033  0.2540
  385TMC3     C 5757   0.323   3.795  12.081 -0.0220  0.7365  0.1288
  385TMC3     O 5758   0.269   3.777  12.190  0.3330  0.1881 -0.3062
  385TMC3     H 5759   0.394   3.716  11.828 -2.6441 -1.3880 -0.3915
  385TMC3    H1 5760   0.377   3.588  12.230 -1.5684  1.2761 -0.3355
  385TMC3    H2 5761   0.239   3.335  11.914 -0.8895  1.6285 -2.7366
  385TMC3    C7 5762   0.216   3.394  12.178 -0.0792  0.0339  0.4293
  385TMC3    C8 5763   0.361   3.487  11.726 -0.7893  0.2263 -0.6636
  385TMC3    O1 5764   0.179   3.278  12.160 -0.1163  0.6627 -0.3041
  385TMC3    O2 5765   0.407   3.579  11.660  0.5497  0.0940 -0.0788
  386TMC3    C1 5766   0.381   0.834  11.360  0.3625 -0.6206  0.7789
  386TMC3    C2 5767   0.427   0.792  11.237 -0.0108  0.0870 -0.3094
  386TMC3    C3 5768   0.356   0.823  11.126  0.3295  0.2958  0.0062
  386TMC3    C4 5769   0.254   0.898  11.372 -0.4551 -0.0037 -0.0458
  386TMC3    C5 5770   0.184   0.929  11.263 -0.1127 -0.3823 -0.3133
  386TMC3    C6 5771   0.241   0.903  11.140  0.1186  0.3865 -0.1869
  386TMC3     C 5772   0.399   0.744  11.471 -0.2021 -0.0116  0.2899
  386TMC3     O 5773   0.389   0.624  11.450  0.3281  0.7379  0.2336
  386TMC3     H 5774   0.518   0.735  11.231 -0.8401 -1.1652 -1.0171
  386TMC3    H1 5775   0.213   0.912  11.471  0.3908 -0.7158  0.4012
  386TMC3    H2 5776   0.187   0.932  11.051 -1.1508  1.0552  0.7992
  386TMC3    C7 5777   0.096   1.038  11.276  0.1644 -0.2455 -0.1789
  386TMC3    C8 5778   0.425   0.860  11.007  0.1224  0.5047  0.8517
  386TMC3    O1 5779   0.082   1.080  11.390  0.3191 -0.1295 -0.8159
  386TMC3    O2 5780   0.360   0.862  10.906 -0.7983  0.8002  0.6137
  387MPD2     C 5781   2.745   1.662   9.579 -0.4409 -0.3903 -0.4529
  387MPD2    C1 5782   2.877   1.618   9.591 -0.8269 -0.2894  0.6669
  387MPD2    C2 5783   2.902   1.482   9.569  0.2290 -0.5298  0.6148
  387MPD2    C3 5784   2.795   1.394   9.553  0.2338  0.2677 -0.1036
  387MPD2    C4 5785   2.663   1.441   9.542  0.1131  0.2838 -0.8541
  387MPD2    C5 5786   2.643   1.577   9.551  0.3482 -0.0424  0.3936
  387MPD2     H 5787   3.003   1.442   9.573  0.6211  0.5049  0.9601
  387MPD2    H1 5788   2.576   1.379   9.525 -0.6686  1.6651 -1.8865
  387MPD2    H2 5789   2.730   1.769   9.591 -0.0179 -0.3273 -0.5056
  387MPD2    H3 5790   2.540   1.612   9.543  0.2055 -0.4363  0.5088
  387MPD2     N 5791   2.831   1.261   9.556 -0.2329 -0.2581 -0.2686
  387MPD2    H5 5792   2.928   1.232   9.564 -0.1103 -0.4800 -2.6861
  387MPD2    N1 5793   2.990   1.705   9.610 -0.3231  0.2266 -0.0234
  387MPD2    H7 5794   2.970   1.805   9.610  0.4456  0.3768 -0.7436
  388TMC3    C1 5795   3.186   1.780   9.707  0.3666  0.4776  0.5110
  388TMC3    C2 5796   3.118   1.839   9.805 -0.1623  0.1841  0.4953
  388TMC3    C3 5797   3.172   1.823   9.930  0.5458 -0.0827 -0.2096
  388TMC3    C4 5798   3.313   1.741   9.730 -1.0369  0.0238 -0.2679
  388TMC3    C5 5799   3.360   1.735   9.862  0.4534  0.1604  0.0526
  388TMC3    C6 5800   3.283   1.766   9.969  0.5477 -0.0583 -0.2749
  388TMC3     C 5801   3.114   1.668   9.657  0.2163  0.6480 -0.5818
  388TMC3     O 5802   3.154   1.553   9.678 -0.7055 -0.6919  0.4264
  388TMC3     H 5803   3.037   1.908   9.782 -0.6355 -0.3947  0.4072
  388TMC3    H1 5804   3.371   1.698   9.650 -0.5581 -0.7447  0.4988
  388TMC3    H2 5805   3.315   1.778  10.072 -1.0143  0.1662  0.1848
  388TMC3    C7 5806   3.440   1.620   9.890 -0.1376 -0.2442 -0.2747
  388TMC3    C8 5807   3.101   1.883  10.038  0.0811  0.2854 -0.8923
  388TMC3    O1 5808   3.486   1.614  10.000 -0.1819  0.1560 -0.3807
  388TMC3    O2 5809   3.040   1.987  10.020 -0.5834 -0.5380  0.2441
  389MPD2     C 5810   2.291   4.345  11.762  0.5197  0.5813  0.0309
  389MPD2    C1 5811   2.181   4.310  11.681  0.9610 -0.0893  0.4925
  389MPD2    C2 5812   2.069   4.251  11.743  0.0088 -0.3344  0.2339
  389MPD2    C3 5813   2.080   4.217  11.875 -0.7268 -0.1127 -0.0409
  389MPD2    C4 5814   2.194   4.249  11.954 -0.3087 -0.0453 -0.0927
  389MPD2    C5 5815   2.293   4.321  11.898  0.5186  0.1605 -0.1943
  389MPD2     H 5816   1.974   4.243  11.691  0.2936  0.7135 -0.4459
  389MPD2    H1 5817   2.212   4.227  12.059  2.1893  0.1091 -0.4860
  389MPD2    H2 5818   2.373   4.389  11.708  1.2484 -0.6487  0.1418
  389MPD2    H3 5819   2.386   4.343  11.949  1.1282 -2.2745 -0.2715
  389MPD2     N 5820   1.975   4.146  11.931 -0.6384 -0.2607  0.3702
  389MPD2    H5 5821   1.984   4.126  12.030  0.2483  0.8836  0.5197
  389MPD2    N1 5822   2.187   4.351  11.540 -0.0402 -0.3612 -0.2382
  389MPD2    H7 5823   2.265   4.410  11.513  0.0557 -0.7892 -0.8856
  390TMC3    C1 5824   1.775   4.013  11.947 -0.1693  0.2209 -0.5102
  390TMC3    C2 5825   1.708   3.906  11.899  0.3012  0.6817 -0.3447
  390TMC3    C3 5826   1.584   3.871  11.941  0.6220  0.5129 -0.7351
  390TMC3    C4 5827   1.720   4.098  12.043  1.0030 -0.2420 -0.1012
  390TMC3    C5 5828   1.590   4.062  12.078  0.4111 -0.0023 -0.2690
  390TMC3    C6 5829   1.521   3.952  12.035  0.4080  0.7569  0.3677
  390TMC3     C 5830   1.880   4.071  11.866 -0.1167  0.8398 -0.4431
  390TMC3     O 5831   1.888   4.031  11.750  0.2767  0.0725 -0.0540
  390TMC3     H 5832   1.752   3.853  11.815 -0.2844 -1.5199  0.7490
  390TMC3    H1 5833   1.769   4.185  12.084  0.4385  1.2259 -2.5410
  390TMC3    H2 5834   1.414   3.949  12.054  0.5057  0.1392  0.8276
  390TMC3    C7 5835   1.508   4.170  12.144  0.7837  0.0814 -0.3557
  390TMC3    C8 5836   1.522   3.744  11.918 -0.5121  0.0446 -0.3904
  390TMC3    O1 5837   1.541   4.286  12.125 -0.6790  0.1425  0.1220
  390TMC3    O2 5838   1.551   3.678  11.819 -0.3597  0.4140  0.3337
  391MPD2     C 5839   1.683   0.770  11.114 -0.0611  0.3307  0.0330
  391MPD2    C1 5840   1.787   0.845  11.067 -0.1031 -0.4213 -0.2078
  391MPD2    C2 5841   1.766   0.901  10.949  0.2477 -0.2330  0.6898
  391MPD2    C3 5842   1.653   0.878  10.872 -0.3795 -0.0599 -0.0151
  391MPD2    C4 5843   1.551   0.809  10.925  0.1927 -0.6377  0.1337
  391MPD2    C5 5844   1.562   0.757  11.046  0.3096 -0.0274 -0.5173
  391MPD2     H 5845   1.834   0.975  10.910  1.6331 -1.8615  0.0206
  391MPD2    H1 5846   1.467   0.775  10.865  0.8721 -3.4754  0.7694
  391MPD2    H2 5847   1.686   0.721  11.211 -2.1708  0.6758  0.2738
  391MPD2    H3 5848   1.481   0.696  11.084 -1.0972  1.2413 -1.4845
  391MPD2     N 5849   1.649   0.937  10.744 -0.1979  0.1225  0.3103
  391MPD2    H5 5850   1.737   0.972  10.708 -1.0948  1.3551 -0.7040
  391MPD2    N1 5851   1.908   0.850  11.148 -0.1144  0.3915  0.6490
  391MPD2    H7 5852   1.902   0.822  11.246  0.6679 -1.2919  0.2035
  392TMC3    C1 5853   1.585   0.983  10.525 -0.0033  0.5926 -0.2090
  392TMC3    C2 5854   1.511   0.938  10.416 -0.3565 -0.1886 -0.4203
  392TMC3    C3 5855   1.545   0.994  10.291 -0.2800  0.8217  0.7781
  392TMC3    C4 5856   1.689   1.074  10.515 -0.2395 -0.7092 -0.4620
  392TMC3    C5 5857   1.707   1.134  10.395 -0.0085  0.3026  0.1668
  392TMC3    C6 5858   1.646   1.086  10.279  0.2381 -0.1986  0.4484
  392TMC3     C 5859   1.544   0.936  10.657  0.8102 -0.4738  0.3653
  392TMC3     O 5860   1.430   0.889  10.671 -0.4808  0.3896 -0.1562
  392TMC3     H 5861   1.431   0.865  10.424  0.7591 -1.4664 -0.9367
  392TMC3    H1 5862   1.744   1.116  10.599 -0.0085  1.3293 -1.6339
  392TMC3    H2 5863   1.661   1.135  10.184 -2.3987  3.5042  1.9473
  392TMC3    C7 5864   1.790   1.253  10.384  0.5995 -0.2588  0.2699
  392TMC3    C8 5865   1.451   0.969  10.183  0.4366  0.1022  0.1774
  392TMC3    O1 5866   1.855   1.279  10.482 -0.2528 -0.6284 -0.5380
  392TMC3    O2 5867   1.341   0.927  10.211  0.1759  0.7903 -0.3188
  393TMC3    C1 5868   0.013   3.628  10.679  0.0478  0.4181  0.4711
  393TMC3    C2 5869   4.606   3.630  10.702  0.3210  0.0155 -0.2784
  393TMC3    C3 5870   4.555   3.516  10.766  0.0041 -0.3417  0.0093
  393TMC3    C4 5871   0.093   3.528  10.709 -0.1130 -0.3142 -0.8297
  393TMC3    C5 5872   0.042   3.420  10.775 -0.6922 -0.3420  0.1936
  393TMC3    C6 5873   4.633   3.410  10.797 -0.1129 -0.2013  0.2041
  393TMC3     C 5874   0.070   3.748  10.619  0.5422 -0.2539  1.3852
  393TMC3     O 5875   4.716   3.830  10.577 -0.7890  0.2278 -0.4937
  393TMC3     H 5876   4.541   3.716  10.689 -0.4780 -0.6169 -0.4654
  393TMC3    H1 5877   0.199   3.518  10.690 -0.4656 -5.3338 -0.0866
  393TMC3    H2 5878   4.595   3.318  10.841 -1.1072 -1.2957 -2.9965
  393TMC3    C7 5879   0.133   3.319  10.835  0.8994 -0.1640 -0.3733
  393TMC3    C8 5880   4.424   3.539  10.832 -0.5349  0.6421 -0.6704
  393TMC3    O1 5881   0.101   3.202  10.813 -0.3985 -0.1074 -0.3424
  393TMC3    O2 5882   4.354   3.630  10.794 -0.1684  0.6992 -0.6113
  394TMC3    C1 5883   2.082   4.453  11.345 -0.1714  0.1984 -0.5814
  394TMC3    C2 5884   1.964   4.508  11.303 -0.2186 -0.2331 -0.1556
  394TMC3    C3 5885   1.958   4.604  11.203  0.4040 -0.2885  0.5468
  394TMC3    C4 5886   2.201   4.497  11.284  0.3420 -0.4490 -0.1604
  394TMC3    C5 5887   2.191   4.593  11.180  0.1056 -1.0963  0.3233
  394TMC3    C6 5888   2.071   4.643  11.142 -0.1788 -0.6205 -0.0902
  394TMC3     C 5889   2.076   4.353  11.454 -0.1792  0.7906 -0.1179
  394TMC3     O 5890   1.973   4.290  11.456 -0.4078 -0.2228 -0.5269
  394TMC3     H 5891   1.872   4.484  11.355  1.7255 -1.2585  2.7805
  394TMC3    H1 5892   2.297   4.453  11.306 -0.2710 -1.6605  0.1064
  394TMC3    H2 5893   2.072   4.707  11.054  0.3888  1.7640  1.6528
  394TMC3    C7 5894   2.303   4.594  11.084  0.0737 -0.1293  0.9634
  394TMC3    C8 5895   1.844   4.631  11.121  0.2874  0.0403  0.2839
  394TMC3    O1 5896   2.407   4.643  11.120  0.8160  0.1578  0.5465
  394TMC3    O2 5897   1.868   4.667  11.007 -0.6692 -0.1545 -0.6422
  395TMC3    C1 5898   0.850   1.305  14.512  0.4292  0.4368  0.4966
  395TMC3    C2 5899   0.779   1.307  14.630  0.2012 -0.1819  0.5598
  395TMC3    C3 5900   0.817   1.377  14.745  0.3066  0.0960 -1.1720
  395TMC3    C4 5901   0.960   1.389  14.504 -0.0634  0.3235  0.5180
  395TMC3    C5 5902   1.004   1.468  14.615 -0.3036  0.1313 -0.5215
  395TMC3    C6 5903   0.928   1.459  14.732 -0.8696 -0.6868  0.8134
  395TMC3     C 5904   0.786   1.255  14.394  0.1205  0.0763  0.4192
  395TMC3     O 5905   0.814   1.328  14.302 -0.5621  0.1999 -0.5225
  395TMC3     H 5906   0.694   1.239  14.632 -1.0511  1.3357 -0.5195
  395TMC3    H1 5907   1.005   1.409  14.407 -0.3681  1.0717  0.5347
  395TMC3    H2 5908   0.960   1.506  14.824 -0.5235  0.7794 -0.0589
  395TMC3    C7 5909   1.145   1.488  14.636  0.0952 -0.1654 -0.1136
  395TMC3    C8 5910   0.770   1.343  14.876  0.2362 -0.6927  0.2192
  395TMC3    O1 5911   1.179   1.551  14.735 -0.2600  0.5236  0.0762
  395TMC3    O2 5912   0.808   1.419  14.964 -0.0529  0.0264 -1.0084
  396MPD2     C 5913   1.159   2.075  17.481  0.5020  0.7653  0.2502
  396MPD2    C1 5914   1.157   2.074  17.343 -0.2320 -1.5706  0.0441
  396MPD2    C2 5915   1.143   2.191  17.281  0.1306 -0.0681 -0.3069
  396MPD2    C3 5916   1.152   2.311  17.353  0.3808 -0.0612 -0.5735
  396MPD2    C4 5917   1.152   2.317  17.489 -0.2656  0.4854 -0.3880
  396MPD2    C5 5918   1.147   2.192  17.546  0.6716  0.1141 -0.5210
  396MPD2     H 5919   1.141   2.197  17.173 -0.3962  0.6505 -0.2596
  396MPD2    H1 5920   1.149   2.405  17.551  0.1940  0.1548  0.1061
  396MPD2    H2 5921   1.144   1.993  17.551  0.3602  0.7814  0.2393
  396MPD2    H3 5922   1.147   2.185  17.654 -0.2065  1.0774 -0.4635
  396MPD2     N 5923   1.146   2.429  17.282 -0.1862 -0.2768 -0.2156
  396MPD2    H5 5924   1.112   2.413  17.187  3.2898  1.2564 -1.7261
  396MPD2    N1 5925   1.160   1.945  17.281  0.6760  0.2612  0.2986
  396MPD2    H7 5926   1.179   1.866  17.342 -3.1339 -0.6737  0.2912
  397TMC3    C1 5927   1.136   1.778  17.116  0.5711  0.2886 -0.2383
  397TMC3    C2 5928   1.130   1.757  16.985 -0.3450  0.2664  0.1614
  397TMC3    C3 5929   1.219   1.673  16.933  0.2005 -0.4950 -0.0612
  397TMC3    C4 5930   1.210   1.692  17.201 -0.0100 -0.3200 -0.1755
  397TMC3    C5 5931   1.283   1.589  17.143 -0.3543  0.3260  0.1423
  397TMC3    C6 5932   1.298   1.589  17.007 -0.0323 -0.3418  0.5863
  397TMC3     C 5933   1.132   1.919  17.146  0.0949  0.5166  0.1370
  397TMC3     O 5934   1.094   1.993  17.055 -0.0200  0.0954  0.3967
  397TMC3     H 5935   1.080   1.829  16.920  1.2658  0.4925 -0.8231
  397TMC3    H1 5936   1.193   1.693  17.309  0.0552  1.4101 -0.1831
  397TMC3    H2 5937   1.340   1.503  16.957 -1.2770  1.0030 -2.8305
  397TMC3    C7 5938   1.322   1.483  17.225  0.2253  0.0080 -0.5716
  397TMC3    C8 5939   1.246   1.703  16.803 -0.9009  0.3293  0.5836
  397TMC3    O1 5940   1.395   1.402  17.178 -0.9067  0.4702  0.7647
  397TMC3    O2 5941   1.156   1.688  16.720 -0.1286 -0.2645  0.5711
  398MPD2     C 5942   3.991   3.354   0.382  0.0011  0.2453  0.5226
  398MPD2    C1 5943   4.011   3.221   0.408  0.3063  0.4884  1.0002
  398MPD2    C2 5944   4.060   3.188   0.532 -0.0887 -0.2065 -0.2357
  398MPD2    C3 5945   4.088   3.286   0.626  0.3351  0.1438 -0.4390
  398MPD2    C4 5946   4.057   3.417   0.600 -0.0255  0.1751  0.7759
  398MPD2    C5 5947   4.010   3.449   0.480  0.3589 -0.4104 -0.5087
  398MPD2     H 5948   4.071   3.084   0.559  0.8492  0.1147  0.5926
  398MPD2    H1 5949   4.066   3.501   0.667  1.6306  2.7443 -2.6749
  398MPD2    H2 5950   3.950   3.390   0.288  1.5755 -0.1603 -0.3116
  398MPD2    H3 5951   3.977   3.550   0.461  1.8641 -0.1762 -1.8747
  398MPD2     N 5952   4.136   3.236   0.749 -0.3585 -0.5429  0.2920
  398MPD2    H5 5953   4.140   3.137   0.770 -0.2458 -0.6346 -0.1611
  398MPD2    N1 5954   3.987   3.120   0.323 -0.2448 -0.0143  0.3279
  398MPD2    H7 5955   4.015   3.026   0.347 -1.8624 -0.7604 -0.6957
  399TMC3    C1 5956   3.926   3.007   0.137 -0.2002 -0.4917  0.8275
  399TMC3    C2 5957   4.044   2.938   0.127  0.2831 -0.4448 -0.4264
  399TMC3    C3 5958   4.031   2.808   0.101  0.1050  0.0254 -0.3052
  399TMC3    C4 5959   3.805   2.961   0.113 -0.1411 -0.1471 -0.3054
  399TMC3    C5 5960   3.793   2.826   0.086 -0.3133 -0.2135  0.3097
  399TMC3    C6 5961   3.905   2.749   0.085 -0.0875  0.0591 -0.6539
  399TMC3     C 5962   3.939   3.139   0.195  0.2574  0.0077 -0.1781
  399TMC3     O 5963   3.880   3.240   0.151  0.2267  0.1357 -0.6734
  399TMC3     H 5964   4.135   2.987   0.160  0.4093 -0.0968 -1.2934
  399TMC3    H1 5965   3.721   3.029   0.118 -0.6154 -0.9503  2.6763
  399TMC3    H2 5966   3.899   2.643   0.064 -0.9929 -0.1646  0.7406
  399TMC3    C7 5967   3.667   2.759   0.073 -1.0203  0.4631 -0.0837
  399TMC3    C8 5968   4.150   2.727   0.109  0.8766 -0.6509  0.3185
  399TMC3    O1 5969   3.662   2.637   0.082 -0.0699 -0.2080 -0.6114
  399TMC3    O2 5970   4.260   2.783   0.102 -0.1970 -0.3458 -0.4178
  400TMC3    C1 5971   2.568   1.444  16.978 -0.1969 -0.4045  0.0002
  400TMC3    C2 5972   2.491   1.469  16.867  0.0939  0.1966  0.9135
  400TMC3    C3 5973   2.481   1.602  16.820  0.5659 -0.1574  0.3588
  400TMC3    C4 5974   2.648   1.535  17.042  0.1947 -0.2358 -0.6008
  400TMC3    C5 5975   2.638   1.667  17.001  0.0377 -0.6621  0.1262
  400TMC3    C6 5976   2.563   1.697  16.886  0.3971 -0.1228  0.3331
  400TMC3     C 5977   2.605   1.305  16.997  0.0617 -0.3819  0.0548
  400TMC3     O 5978   2.539   1.224  16.936 -0.3917 -0.3936  0.3614
  400TMC3     H 5979   2.425   1.390  16.833  1.1278  0.0619 -0.7886
  400TMC3    H1 5980   2.698   1.510  17.135  0.4878 -1.5169 -1.0967
  400TMC3    H2 5981   2.578   1.795  16.841  0.2471 -0.1072  0.3178
  400TMC3    C7 5982   2.749   1.759  17.035 -0.4215 -0.3560  0.1795
  400TMC3    C8 5983   2.409   1.636  16.699  0.7045  0.7173 -0.4686
  400TMC3    O1 5984   2.837   1.714  17.108  0.7117 -0.7630  0.5055
  400TMC3    O2 5985   2.425   1.755  16.673 -0.2426  0.6105 -0.1037
  401MPD2     C 5986   1.157   4.597   0.219 -0.9055 -0.0293  0.2438
  401MPD2    C1 5987   1.102   4.545   0.340 -0.5582  0.8901 -0.1339
  401MPD2    C2 5988   1.112   4.408   0.361  0.6194  0.0096  0.3169
  401MPD2    C3 5989   1.165   4.323   0.262 -0.0402 -0.0416  0.6027
  401MPD2    C4 5990   1.200   4.375   0.139 -0.1677  0.5886  0.0405
  401MPD2    C5 5991   1.199   4.511   0.121 -0.0236 -0.2937 -0.4643
  401MPD2     H 5992   1.070   4.367   0.453  1.0145 -0.9449  0.0744
  401MPD2    H1 5993   1.236   4.318   0.053 -1.8374  0.7739 -0.7871
  401MPD2    H2 5994   1.156   4.697   0.178  0.4027 -0.6477 -1.3188
  401MPD2    H3 5995   1.228   4.550   0.024 -1.8228 -0.2234 -0.9670
  401MPD2     N 5996   1.203   4.200   0.301  0.8087  0.0358 -0.3343
  401MPD2    H5 5997   1.189   4.176   0.399  1.5247 -0.5653 -0.3786
  401MPD2    N1 5998   1.055   4.629   0.445 -0.0006  0.2065  0.2523
  401MPD2    H7 5999   1.023   4.580   0.528 -0.8262  1.3092  0.5737
  402TMC3    C1 6000   1.309   3.989   0.306  0.0765  0.0246 -0.1279
  402TMC3    C2 6001   1.240   3.952   0.423 -0.5908 -0.0043 -0.1169
  402TMC3    C3 6002   1.265   3.827   0.469 -0.1726  0.1104  0.2937
  402TMC3    C4 6003   1.393   3.903   0.241 -0.6577  0.0779  0.2041
  402TMC3    C5 6004   1.426   3.784   0.302  0.1605 -0.0239 -0.1993
  402TMC3    C6 6005   1.370   3.759   0.423 -0.4710 -0.3605  0.2343
  402TMC3     C 6006   1.282   4.114   0.235  0.2703 -0.2427 -0.1719
  402TMC3     O 6007   1.311   4.117   0.116 -0.0159 -0.8880  0.4313
  402TMC3     H 6008   1.145   4.002   0.441 -1.1709 -0.4548 -1.8881
  402TMC3    H1 6009   1.428   3.927   0.142 -1.0640  3.1082  0.7986
  402TMC3    H2 6010   1.397   3.663   0.466 -0.6828 -0.1879  0.7410
  402TMC3    C7 6011   1.564   3.756   0.284  0.3409  0.3963  0.6703
  402TMC3    C8 6012   1.242   3.813   0.614 -0.2560 -0.0054 -0.3556
  402TMC3    O1 6013   1.603   3.788   0.170  0.6029 -0.2554 -0.2749
  402TMC3    O2 6014   1.263   3.703   0.663  0.2952  0.3591  0.3378
  403MPD2     C 6015   4.340   3.837  13.161  0.0890  0.6153  0.2428
  403MPD2    C1 6016   4.303   3.734  13.247  0.7231  0.0579 -0.7419
  403MPD2    C2 6017   4.369   3.731  13.370 -0.3653 -0.3020 -0.1687
  403MPD2    C3 6018   4.473   3.815  13.406 -0.1311 -0.0054  0.3378
  403MPD2    C4 6019   4.507   3.917  13.315  0.8592  0.2492 -0.3470
  403MPD2    C5 6020   4.439   3.924  13.198 -0.1579  0.3244  0.6654
  403MPD2     H 6021   4.336   3.660  13.445 -0.9625  0.5495  0.3846
  403MPD2    H1 6022   4.585   3.991  13.325 -0.3765  1.3219  1.2861
  403MPD2    H2 6023   4.289   3.839  13.065  0.2230  1.2074  0.1841
  403MPD2    H3 6024   4.470   3.997  13.124  0.3282  1.2526  1.7836
  403MPD2     N 6025   4.547   3.795  13.529  1.2399 -0.8910 -0.6789
  403MPD2    H5 6026   4.520   3.727  13.599  0.0553 -2.6767 -2.9224
  403MPD2    N1 6027   4.218   3.630  13.202 -0.1624  0.2568  0.5859
  403MPD2    H7 6028   4.191   3.642  13.105 -2.0551 -0.8970  0.9752
  404TMC3    C1 6029   4.121   3.415  13.179  0.0336  0.4778 -0.1034
  404TMC3    C2 6030   4.058   3.308  13.238  0.7131 -0.8550 -0.6871
  404TMC3    C3 6031   4.023   3.199  13.163  0.3831  0.1199 -0.1251
  404TMC3    C4 6032   4.134   3.412  13.043 -0.7281 -0.8479 -0.4315
  404TMC3    C5 6033   4.077   3.315  12.968 -0.8696  0.2803 -0.3253
  404TMC3    C6 6034   4.020   3.206  13.027  0.4341  0.6692  0.6290
  404TMC3     C 6035   4.180   3.516  13.265  0.0758 -0.2341  0.4103
  404TMC3     O 6036   4.183   3.491  13.383 -1.1264 -0.5100  0.5636
  404TMC3     H 6037   4.074   3.303  13.345  0.5096  0.1232 -0.6123
  404TMC3    H1 6038   4.201   3.485  12.999 -1.2743 -0.0803  0.0080
  404TMC3    H2 6039   4.005   3.117  12.967  2.7849  0.6956 -0.0027
  404TMC3    C7 6040   4.093   3.333  12.822  0.4905 -0.6501  0.8299
  404TMC3    C8 6041   4.070   3.077  13.218  0.7999  0.4125  0.2087
  404TMC3    O1 6042   4.197   3.387  12.787 -0.0513 -0.4095 -0.0794
  404TMC3    O2 6043   4.121   2.998  13.145 -0.4051 -0.0463 -0.3391
  405MPD2     C 6044   4.625   4.038  14.801 -0.4430  0.3334  0.2559
  405MPD2    C1 6045   4.555   3.941  14.720 -0.0318  0.3235 -0.1737
  405MPD2    C2 6046   4.511   3.984  14.595 -0.0788 -0.5028  0.3795
  405MPD2    C3 6047   4.527   4.119  14.551 -0.3674  0.3469 -0.1372
  405MPD2    C4 6048   4.604   4.203  14.628  0.3926  0.3188  0.2740
  405MPD2    C5 6049   4.642   4.161  14.754 -0.5803 -0.0540  0.2583
  405MPD2     H 6050   4.452   3.925  14.525  1.6915 -0.9008 -0.7808
  405MPD2    H1 6051   4.629   4.306  14.603  0.8875  0.4077  1.1418
  405MPD2    H2 6052   4.661   4.017  14.901 -0.1299 -0.2780  0.0125
  405MPD2    H3 6053   4.712   4.220  14.813  3.4567 -2.4054 -2.1650
  405MPD2     N 6054   4.490   4.145  14.416  0.3168 -0.4391  0.6841
  405MPD2    H5 6055   4.457   4.062  14.367  1.5368 -1.1642  1.0878
  405MPD2    N1 6056   4.534   3.805  14.767  0.2461 -0.5734 -0.2857
  405MPD2    H7 6057   4.591   3.768  14.843  1.2016  0.7340 -0.3631
  406TMC3    C1 6058   4.240   4.245  14.097  0.5787 -0.1042  0.2118
  406TMC3    C2 6059   4.275   4.138  14.022 -0.5944  0.5934 -0.3689
  406TMC3    C3 6060   4.394   4.085  14.057 -0.9157 -0.4157  0.2130
  406TMC3    C4 6061   4.316   4.306  14.194 -0.1488  0.2722 -0.2312
  406TMC3    C5 6062   4.437   4.248  14.220 -0.1988  0.9143  0.5269
  406TMC3    C6 6063   4.473   4.130  14.155  0.0354 -0.1021  0.0577
  406TMC3     C 6064   4.114   4.307  14.098 -0.5845 -0.0906 -0.1856
  406TMC3     O 6065   4.121   4.432  14.084  0.8082 -0.1274 -0.0398
  406TMC3     H 6066   4.209   4.079  13.959  0.3988 -0.1338 -0.7119
  406TMC3    H1 6067   4.279   4.393  14.246  0.2445  0.6615 -0.6018
  406TMC3    H2 6068   4.571   4.085  14.167  1.0824  2.6200  1.5257
  406TMC3    C7 6069   4.480   4.267  14.358 -0.4753 -0.1928 -0.5243
  406TMC3    C8 6070   4.412   3.957  14.003  0.3218  1.1438 -0.6470
  406TMC3    O1 6071   4.485   4.381  14.406  0.4618  0.0388 -0.4371
  406TMC3    O2 6072   4.378   3.936  13.892  0.4232 -0.3029  0.1648
  407MPD2     C 6073   2.198   0.778   9.511  0.5383 -0.5193  0.4331
  407MPD2    C1 6074   2.327   0.776   9.530  0.5395  0.1108 -0.0945
  407MPD2    C2 6075   2.383   0.892   9.595 -0.3265 -0.1109 -0.0282
  407MPD2    C3 6076   2.310   0.999   9.643  0.5308 -0.1285 -0.4520
  407MPD2    C4 6077   2.180   0.998   9.592  0.2681  0.2213 -0.3662
  407MPD2    C5 6078   2.118   0.885   9.538 -0.6001 -1.3575  0.3069
  407MPD2     H 6079   2.487   0.885   9.624  0.1229  0.6568 -1.4584
  407MPD2    H1 6080   2.123   1.090   9.601  0.4492  0.3735 -0.7808
  407MPD2    H2 6081   2.147   0.690   9.473 -0.7786  0.5362 -0.2367
  407MPD2    H3 6082   2.016   0.878   9.503 -0.3369 -1.0687 -0.5264
  407MPD2     N 6083   2.372   1.113   9.707  0.0949 -0.4943  0.2546
  407MPD2    H5 6084   2.469   1.102   9.734 -0.2655 -2.0822  0.9114
  407MPD2    N1 6085   2.419   0.672   9.504  0.0529 -0.3091  0.5314
  407MPD2    H7 6086   2.516   0.698   9.520 -0.7417  1.9352  1.6296
  408TMC3    C1 6087   2.512   0.519   9.352 -0.1189 -0.1296  0.6522
  408TMC3    C2 6088   2.614   0.468   9.416  0.1239  0.2635 -0.0172
  408TMC3    C3 6089   2.742   0.519   9.393 -0.2493 -0.2768  0.3853
  408TMC3    C4 6090   2.532   0.635   9.274  0.4835  0.8155 -0.1265
  408TMC3    C5 6091   2.656   0.691   9.260  0.1397 -0.5568 -0.0120
  408TMC3    C6 6092   2.760   0.632   9.321  0.2120  0.5164  0.4514
  408TMC3     C 6093   2.396   0.555   9.434 -0.2819  0.0060 -0.1066
  408TMC3     O 6094   2.290   0.511   9.396  0.2079  0.4033 -0.1164
  408TMC3     H 6095   2.594   0.398   9.497  0.3122  0.6013  0.3230
  408TMC3    H1 6096   2.440   0.672   9.230 -0.0179 -1.1664 -0.7459
  408TMC3    H2 6097   2.858   0.678   9.310 -0.4368  0.9917 -3.3892
  408TMC3    C7 6098   2.668   0.831   9.227  0.8169  0.2406  0.1667
  408TMC3    C8 6099   2.848   0.471   9.484  0.3888 -0.6900  0.1015
  408TMC3    O1 6100   2.776   0.878   9.210  0.0158  0.0702 -0.2119
  408TMC3    O2 6101   2.825   0.371   9.555 -0.5075 -0.1766 -0.2782
  409MPD2     C 6102   1.347   1.258  16.799  0.3799 -0.7188 -0.2095
  409MPD2    C1 6103   1.468   1.242  16.856 -0.2897  0.2347  0.2121
  409MPD2    C2 6104   1.571   1.325  16.820  0.0867  0.4918  0.2121
  409MPD2    C3 6105   1.545   1.434  16.736 -0.3096  0.1532  0.3265
  409MPD2    C4 6106   1.413   1.456  16.690 -0.2672  0.3220 -0.4982
  409MPD2    C5 6107   1.316   1.370  16.730 -1.0430  0.3072 -0.1633
  409MPD2     H 6108   1.674   1.298  16.843 -0.6565 -1.8104  0.7407
  409MPD2    H1 6109   1.392   1.540  16.624 -0.1128  1.9855  1.6025
  409MPD2    H2 6110   1.270   1.182  16.803 -0.2841 -0.0586 -0.4982
  409MPD2    H3 6111   1.221   1.379  16.679  0.0043  0.0322 -2.1852
  409MPD2     N 6112   1.643   1.517  16.678  0.0328 -0.8515  0.1774
  409MPD2    H5 6113   1.622   1.587  16.608  0.6494 -2.0806 -1.2526
  409MPD2    N1 6114   1.489   1.152  16.963 -0.6264 -0.0094 -0.2942
  409MPD2    H7 6115   1.583   1.144  17.000  0.3235  2.2868 -2.2457
  410TMC3    C1 6116   1.850   1.630  16.692  0.2030 -0.0341  0.5222
  410TMC3    C2 6117   1.931   1.679  16.787  0.6304  0.0897 -0.3739
  410TMC3    C3 6118   1.993   1.795  16.759 -0.4992 -0.1032 -0.0915
  410TMC3    C4 6119   1.818   1.683  16.573 -0.7438 -0.3045  0.3932
  410TMC3    C5 6120   1.896   1.793  16.540 -0.2549  0.5275  0.0009
  410TMC3    C6 6121   1.989   1.849  16.630 -0.2394 -0.2871 -0.6596
  410TMC3     C 6122   1.773   1.515  16.726 -0.7890 -0.3841 -0.2242
  410TMC3     O 6123   1.838   1.446  16.800 -0.3609 -0.2250  0.5648
  410TMC3     H 6124   1.916   1.629  16.882  3.1645  0.0133 -0.0368
  410TMC3    H1 6125   1.770   1.619  16.500 -0.4738 -1.3548  1.1368
  410TMC3    H2 6126   2.057   1.931  16.612 -1.2963  0.9124  0.8257
  410TMC3    C7 6127   1.873   1.849  16.404 -0.6010 -0.3988  0.2563
  410TMC3    C8 6128   2.113   1.826  16.844  0.1051  0.7151 -0.2097
  410TMC3    O1 6129   1.814   1.779  16.321  0.4258 -0.2140 -0.0763
  410TMC3    O2 6130   2.184   1.927  16.845  0.6840 -0.2498 -0.6804
  411MPD2     C 6131   1.960   2.105  14.523  0.0107 -0.3414  0.3987
  411MPD2    C1 6132   1.831   2.141  14.486  0.1280 -0.2746  0.1555
  411MPD2    C2 6133   1.736   2.048  14.447  0.1878  0.5227 -0.6587
  411MPD2    C3 6134   1.771   1.914  14.446 -0.1564 -0.4896  0.4213
  411MPD2    C4 6135   1.901   1.879  14.472  0.0574 -0.7869  0.0086
  411MPD2    C5 6136   1.988   1.972  14.516  0.0494 -0.3044 -0.4355
  411MPD2     H 6137   1.634   2.082  14.434 -0.7806 -1.8249  0.7120
  411MPD2    H1 6138   1.930   1.774  14.472  1.7367 -0.3280 -1.3087
  411MPD2    H2 6139   2.040   2.172  14.554 -1.8860  2.1737 -0.0912
  411MPD2    H3 6140   2.090   1.941  14.535  1.3224  3.0179 -1.8509
  411MPD2     N 6141   1.671   1.817  14.408 -0.2465 -0.0411  0.3997
  411MPD2    H5 6142   1.700   1.724  14.382 -0.5143  0.8851 -3.2436
  411MPD2    N1 6143   1.802   2.271  14.495 -0.5967 -0.2450  0.3708
  411MPD2    H7 6144   1.873   2.324  14.545  0.3605  0.5301 -1.8187
  412TMC3    C1 6145   1.454   1.729  14.370 -0.5717 -0.2671 -0.0901
  412TMC3    C2 6146   1.329   1.724  14.400 -0.4245 -0.4721 -0.6544
  412TMC3    C3 6147   1.242   1.644  14.327 -0.4307  0.0946  0.6995
  412TMC3    C4 6148   1.506   1.660  14.259  1.0609 -0.4018  0.2973
  412TMC3    C5 6149   1.422   1.584  14.181 -0.5656  0.2717 -0.6993
  412TMC3    C6 6150   1.290   1.569  14.222  0.3874  0.1071  0.5334
  412TMC3     C 6151   1.529   1.831  14.422 -0.5526 -0.0751 -0.7562
  412TMC3     O 6152   1.476   1.917  14.489 -0.1687  0.5311 -0.3865
  412TMC3     H 6153   1.287   1.788  14.477  0.1617 -1.4431  0.4706
  412TMC3    H1 6154   1.603   1.691  14.222  1.1919 -1.3909 -0.1732
  412TMC3    H2 6155   1.224   1.503  14.166 -1.3252  1.1634  1.2826
  412TMC3    C7 6156   1.408   1.618  14.041 -0.5069  0.0714 -0.0722
  412TMC3    C8 6157   1.111   1.683  14.320 -0.3100  0.3814 -0.0020
  412TMC3    O1 6158   1.293   1.626  14.003  0.5933  0.1432 -0.0350
  412TMC3    O2 6159   1.050   1.725  14.417 -0.3153  0.2260  0.5063
  413MPD2     C 6160   3.668   0.497  15.334 -0.2017 -0.2461  0.0091
  413MPD2    C1 6161   3.596   0.373  15.340 -0.4009 -0.2450  0.9797
  413MPD2    C2 6162   3.629   0.286  15.237  0.2447 -0.0306  0.4603
  413MPD2    C3 6163   3.734   0.316  15.145 -0.0491 -0.5372 -0.5938
  413MPD2    C4 6164   3.796   0.437  15.143 -0.4396  0.1913  0.8730
  413MPD2    C5 6165   3.766   0.524  15.241 -0.1396  0.7416  0.0877
  413MPD2     H 6166   3.584   0.189  15.218  0.8022 -0.5052  1.5954
  413MPD2    H1 6167   3.885   0.463  15.088 -1.0729  1.5185  0.4812
  413MPD2    H2 6168   3.661   0.578  15.405 -2.2667  1.7659 -2.4704
  413MPD2    H3 6169   3.836   0.606  15.255  0.9693 -0.6208  2.5400
  413MPD2     N 6170   3.772   0.211  15.062 -0.6711 -0.2552  0.0160
  413MPD2    H5 6171   3.718   0.126  15.080 -0.3615 -0.5003 -0.2256
  413MPD2    N1 6172   3.498   0.343  15.438  0.2991 -0.2569 -0.3269
  413MPD2    H7 6173   3.477   0.420  15.500  0.9676 -0.2736 -0.0787
  414TMC3    C1 6174   3.870   0.083  14.902 -0.4405 -0.7716  0.0629
  414TMC3    C2 6175   3.898   4.701  14.992 -0.9722 -0.3777 -0.4963
  414TMC3    C3 6176   3.917   4.579  14.929 -0.4931  0.3254 -0.3451
  414TMC3    C4 6177   3.890   0.065  14.769 -0.1008  0.6974 -0.6573
  414TMC3    C5 6178   3.892   4.664  14.718 -0.2299 -0.0313  0.3633
  414TMC3    C6 6179   3.906   4.554  14.799  0.2925 -0.5357  0.0506
  414TMC3     C 6180   3.848   0.216  14.953 -0.6626 -0.2737 -0.1182
  414TMC3     O 6181   3.879   0.307  14.876 -0.0626  0.5357  0.2601
  414TMC3     H 6182   3.900   4.704  15.100  1.9264 -2.7761 -0.4824
  414TMC3    H1 6183   3.876   0.145  14.698 -1.5024  1.4792  0.5137
  414TMC3    H2 6184   3.930   4.455  14.763 -1.8933 -1.1729  0.3075
  414TMC3    C7 6185   3.838   4.646  14.589  0.6099 -0.5552  0.2206
  414TMC3    C8 6186   3.965   4.468  15.004 -0.3498 -0.1358  0.5439
  414TMC3    O1 6187   3.746   0.002  14.572  0.7150 -0.2388  0.1549
  414TMC3    O2 6188   3.920   4.355  14.989 -0.1079 -0.4286  0.2658
  415TMC3    C1 6189   4.648   3.781  10.175 -0.0390 -0.2978  0.7590
  415TMC3    C2 6190   0.030   3.846  10.119  0.2415  0.1427 -0.5066
  415TMC3    C3 6191   0.003   3.959  10.050 -0.1497  0.6150  0.3756
  415TMC3    C4 6192   4.520   3.813  10.153  0.4337 -0.6114  0.3763
  415TMC3    C5 6193   4.498   3.928  10.078  0.0979  0.6050  0.8210
  415TMC3    C6 6194   4.600   4.000  10.030  0.6329  0.4024 -0.1869
  415TMC3     C 6195   4.671   3.662  10.256  0.1001 -0.0702  0.8999
  415TMC3     O 6196   4.569   3.602  10.283 -0.0269 -0.0641  0.2187
  415TMC3     H 6197   0.132   3.821  10.144  0.3871  0.1577 -1.0677
  415TMC3    H1 6198   4.434   3.755  10.185  0.4533  0.8080  2.9556
  415TMC3    H2 6199   4.574   4.098   9.991  0.2986  0.6068  0.5505
  415TMC3    C7 6200   4.371   3.976  10.028  0.2307  0.8034  0.3338
  415TMC3    C8 6201   0.108   4.038   9.983  0.7844  0.2156 -0.5224
  415TMC3    O1 6202   4.361   4.063   9.943 -0.0279  0.4192 -0.3536
  415TMC3    O2 6203   0.091   4.158   9.964  0.9314 -0.3154 -0.5290
  416MPD2     C 6204   1.080   2.578  12.174  0.6333  0.5917  0.7068
  416MPD2    C1 6205   0.985   2.478  12.148 -0.3903 -0.0923 -0.1091
  416MPD2    C2 6206   1.021   2.353  12.092 -0.7806 -0.0998 -0.3569
  416MPD2    C3 6207   1.150   2.344  12.040  0.4932  0.1996  0.2229
  416MPD2    C4 6208   1.243   2.445  12.064  0.9389  0.4214 -0.1474
  416MPD2    C5 6209   1.211   2.564  12.129  0.3788  0.2885 -0.0609
  416MPD2     H 6210   0.950   2.274  12.070  0.8684 -1.4786 -0.7636
  416MPD2    H1 6211   1.343   2.442  12.022  0.3737 -0.3881 -1.4383
  416MPD2    H2 6212   1.052   2.674  12.216 -0.1169  0.4754  0.4694
  416MPD2    H3 6213   1.282   2.642  12.152  0.5239 -0.2515  1.3677
  416MPD2     N 6214   1.204   2.236  11.964 -0.1048 -0.0657 -0.3736
  416MPD2    H5 6215   1.299   2.237  11.928  0.0608  0.3487  0.0758
  416MPD2    N1 6216   0.849   2.512  12.181 -0.5923 -0.1534 -1.0369
  416MPD2    H7 6217   0.833   2.605  12.219  1.6860 -1.2399  2.5596
  417TMC3    C1 6218   0.619   2.507  12.160  0.3970  0.6213 -0.1559
  417TMC3    C2 6219   0.607   2.599  12.258  0.0049 -0.6427  0.0464
  417TMC3    C3 6220   0.514   2.700  12.240 -0.3098 -0.4087  0.5950
  417TMC3    C4 6221   0.557   2.506  12.040 -0.0099  0.1537 -0.1694
  417TMC3    C5 6222   0.488   2.623  12.020  0.4071 -0.2489  0.2621
  417TMC3    C6 6223   0.459   2.717  12.115  0.2412  0.0728 -0.5711
  417TMC3     C 6224   0.744   2.429  12.158 -0.0045  0.0497 -0.1869
  417TMC3     O 6225   0.744   2.312  12.123 -0.3279 -0.2634  0.0391
  417TMC3     H 6226   0.661   2.571  12.348 -0.5815  3.1178  1.5716
  417TMC3    H1 6227   0.582   2.432  11.965  1.4021  0.4422  0.0133
  417TMC3    H2 6228   0.382   2.791  12.093 -0.5577 -0.3096  0.9760
  417TMC3    C7 6229   0.463   2.658  11.885  0.6145  0.0794 -0.3488
  417TMC3    C8 6230   0.489   2.803  12.341  0.1681 -0.5707  0.0552
  417TMC3    O1 6231   0.489   2.773  11.849  0.3233  0.3905  0.2050
  417TMC3    O2 6232   0.413   2.895  12.317 -0.2340  0.1782  0.6429
  418TMC3    C1 6233   4.389   3.241   1.141  0.5264  0.4737 -0.2183
  418TMC3    C2 6234   4.326   3.310   1.046  0.1236  0.2235  0.1956
  418TMC3    C3 6235   4.235   3.240   0.971 -0.1280 -0.1273  0.1945
  418TMC3    C4 6236   4.367   3.103   1.155 -0.0760 -0.0824 -0.4455
  418TMC3    C5 6237   4.273   3.042   1.073 -0.0616 -0.6034 -0.5337
  418TMC3    C6 6238   4.197   3.107   0.985  0.0331  0.3746 -0.0675
  418TMC3     C 6239   4.521   3.285   1.159 -0.1645 -0.0712  0.7726
  418TMC3     O 6240   4.544   3.393   1.214  0.2594  0.0002  0.1047
  418TMC3     H 6241   4.346   3.411   1.011 -0.7805  0.3473  0.0457
  418TMC3    H1 6242   4.415   3.040   1.228 -1.1863 -0.2435  0.1492
  418TMC3    H2 6243   4.118   3.056   0.931  0.8865 -2.9321  1.8016
  418TMC3    C7 6244   4.251   2.898   1.071 -0.3800  0.2069 -0.2463
  418TMC3    C8 6245   4.176   3.316   0.858  0.3922 -0.1513  1.0439
  418TMC3    O1 6246   4.216   2.855   0.963 -0.4370 -0.0023 -0.4467
  418TMC3    O2 6247   4.176   3.438   0.869  0.4973 -0.0864 -0.4956
  419MPD2     C 6248   3.352   1.728  12.536  0.3922  0.7985 -0.8385
  419MPD2    C1 6249   3.288   1.858  12.525  0.0946  0.2932 -0.4541
  419MPD2    C2 6250   3.254   1.910  12.650  0.3506  0.1764 -0.7297
  419MPD2    C3 6251   3.260   1.836  12.769 -0.7149  0.5381 -1.0852
  419MPD2    C4 6252   3.324   1.710  12.773 -0.5082  0.6879  0.0348
  419MPD2    C5 6253   3.378   1.665  12.657 -0.6332  0.1848 -0.4262
  419MPD2     H 6254   3.222   2.014  12.651  1.3286  0.4663  1.5795
  419MPD2    H1 6255   3.343   1.663  12.868 -0.8011  0.6874  0.0933
  419MPD2    H2 6256   3.399   1.673  12.456 -2.2098  1.3681 -2.7575
  419MPD2    H3 6257   3.435   1.573  12.660  0.2511  0.7123 -0.8804
  419MPD2     N 6258   3.225   1.903  12.888 -0.7049 -0.0540  0.5353
  419MPD2    H5 6259   3.218   2.004  12.880  0.1069  0.1456  2.2890
  419MPD2    N1 6260   3.273   1.932  12.404  0.1756  1.0812  0.0518
  419MPD2    H7 6261   3.228   2.022  12.420 -0.4177  1.1805 -2.1764
  420TMC3    C1 6262   3.144   1.951  13.098  0.2478 -0.0094 -0.3269
  420TMC3    C2 6263   3.084   2.062  13.046  0.2002 -0.3966  0.2387
  420TMC3    C3 6264   3.038   2.159  13.128 -0.2518 -0.2799 -0.0441
  420TMC3    C4 6265   3.157   1.928  13.235  0.5135 -0.0338 -0.9265
  420TMC3    C5 6266   3.102   2.022  13.307 -0.2019 -0.3412  0.1711
  420TMC3    C6 6267   3.046   2.136  13.259  0.2830  0.1030  0.5873
  420TMC3     C 6268   3.201   1.848  13.013 -0.4954  0.1049  0.4486
  420TMC3     O 6269   3.217   1.731  13.047  0.2290  0.4685  0.3421
  420TMC3     H 6270   3.058   2.068  12.941  1.9413 -0.9182 -0.2253
  420TMC3    H1 6271   3.215   1.846  13.276 -0.6217  2.2536  5.2239
  420TMC3    H2 6272   3.022   2.218  13.327  0.7200 -0.3067  1.2364
  420TMC3    C7 6273   3.026   1.973  13.420 -0.4733 -0.3274 -0.3080
  420TMC3    C8 6274   2.945   2.247  13.070 -0.5986 -0.3187  0.4399
  420TMC3    O1 6275   3.079   1.881  13.481  0.4322  0.1099 -0.1965
  420TMC3    O2 6276   2.972   2.308  12.965 -0.0528 -0.0357  0.5000
  421TMC3    C1 6277   4.704   3.835  13.704  0.0428 -0.4269 -0.2995
  421TMC3    C2 6278   0.039   3.937  13.771 -0.0906 -0.0886 -0.7032
  421TMC3    C3 6279   0.091   3.897  13.893  0.0759 -0.2395  1.1622
  421TMC3    C4 6280   4.687   3.703  13.745 -0.1383  0.6065 -0.5084
  421TMC3    C5 6281   0.025   3.671  13.865  0.0689 -0.1068  0.0114
  421TMC3    C6 6282   0.073   3.771  13.943 -0.1885  0.2764  0.1135
  421TMC3     C 6283   4.644   3.884  13.573 -0.6130 -0.3513  0.3206
  421TMC3     O 6284   4.691   3.988  13.521 -0.4713  0.9804 -0.1986
  421TMC3     H 6285   0.024   4.041  13.744  2.4146 -0.6858 -4.4366
  421TMC3    H1 6286   4.661   3.633  13.666  0.5108  0.2602 -0.4099
  421TMC3    H2 6287   0.110   3.731  14.037 -2.1899 -0.5323  0.5562
  421TMC3    C7 6288   0.056   3.528  13.895 -0.2322 -0.1195 -0.3977
  421TMC3    C8 6289   0.170   3.978  13.979 -0.2037  0.7024 -0.1739
  421TMC3    O1 6290   0.144   3.514  13.980 -0.3232  0.5114 -0.1256
  421TMC3    O2 6291   0.234   3.929  14.072 -0.5484  0.4384 -0.2160
  422TMC3    C1 6292   2.522   0.336  12.518  0.1958  0.5678  0.7222
  422TMC3    C2 6293   2.491   0.464  12.514  0.1448 -0.0288  0.0435
  422TMC3    C3 6294   2.381   0.509  12.589  0.2378  0.1466  0.2653
  422TMC3    C4 6295   2.432   0.242  12.567  0.0142 -0.2320 -0.5202
  422TMC3    C5 6296   2.315   0.289  12.630 -0.0082 -0.2912 -0.8822
  422TMC3    C6 6297   2.285   0.423  12.644 -0.0811 -0.1960  0.1676
  422TMC3     C 6298   2.612   0.304  12.412  0.3218 -0.5462 -0.3755
  422TMC3     O 6299   2.652   0.392  12.338 -0.2115  0.2796 -0.2154
  422TMC3     H 6300   2.566   0.537  12.486 -0.0663  0.0384 -0.3362
  422TMC3    H1 6301   2.442   0.135  12.555  1.3422 -0.3045  1.3339
  422TMC3    H2 6302   2.198   0.459  12.698 -0.6444  0.5115 -1.2091
  422TMC3    C7 6303   2.201   0.194  12.635  0.1145 -0.4993  0.2667
  422TMC3    C8 6304   2.322   0.634  12.559 -0.0601  0.5060  0.2984
  422TMC3    O1 6305   2.238   0.081  12.619  0.9030 -0.3066 -0.1398
  422TMC3    O2 6306   2.250   0.681  12.646 -0.3253 -0.2215  0.3503
  423MPD2     C 6307   3.567   1.105   0.627 -0.4391  0.1563  0.1446
  423MPD2    C1 6308   3.566   0.995   0.707 -0.1808  0.0561 -0.1463
  423MPD2    C2 6309   3.591   0.875   0.644  0.1313 -0.0559  0.0989
  423MPD2    C3 6310   3.595   0.861   0.506  0.4835 -0.1015  0.8869
  423MPD2    C4 6311   3.571   0.984   0.426  0.7438 -0.2078  0.3003
  423MPD2    C5 6312   3.570   1.109   0.489  0.5582 -0.4088  0.1288
  423MPD2     H 6313   3.595   0.787   0.707  3.1537 -1.3599 -1.9396
  423MPD2    H1 6314   3.584   0.979   0.318  0.2043 -0.7423  0.2635
  423MPD2    H2 6315   3.556   1.204   0.669  0.2585  1.2581 -2.3123
  423MPD2    H3 6316   3.559   1.199   0.431 -0.7760  0.4355  1.6844
  423MPD2     N 6317   3.589   0.738   0.437  0.2142  0.0606  0.5992
  423MPD2    H5 6318   3.581   0.741   0.336 -0.4635 -0.0123  0.6526
  423MPD2    N1 6319   3.545   0.994   0.851  0.3698  0.4282  0.3743
  423MPD2    H7 6320   3.574   0.910   0.900  1.1404  0.5906  0.2022
  424TMC3    C1 6321   3.458   1.075   1.059  0.1172 -0.0526  0.3141
  424TMC3    C2 6322   3.545   0.999   1.124  0.2671 -0.4417 -0.4863
  424TMC3    C3 6323   3.514   0.973   1.260 -0.2266 -0.1656 -0.3188
  424TMC3    C4 6324   3.342   1.124   1.114 -0.7509 -0.1527  0.5047
  424TMC3    C5 6325   3.311   1.085   1.239 -0.4876  0.1243 -0.8939
  424TMC3    C6 6326   3.396   1.008   1.315 -0.4209  0.5430  0.5820
  424TMC3     C 6327   3.487   1.101   0.917 -0.3748  1.0201 -0.8145
  424TMC3     O 6328   3.428   1.195   0.872 -0.0517  0.1552  0.0569
  424TMC3     H 6329   3.641   0.971   1.083 -0.8607 -1.8082 -2.1899
  424TMC3    H1 6330   3.274   1.188   1.060 -0.5129  0.4274  0.8994
  424TMC3    H2 6331   3.367   0.972   1.413 -1.1484 -2.3743 -0.7154
  424TMC3    C7 6332   3.227   1.178   1.315 -1.1726 -0.2843 -0.1990
  424TMC3    C8 6333   3.580   0.868   1.334  0.1003  0.2149  0.2907
  424TMC3    O1 6334   3.168   1.264   1.250 -0.2869  0.4055  0.2394
  424TMC3    O2 6335   3.505   0.799   1.407  0.2957  0.2269 -0.0980
  425MPD2     C 6336   2.429   0.284  17.257  0.2128 -0.3276 -0.0738
  425MPD2    C1 6337   2.354   0.185  17.188 -0.0961  0.2389  1.2151
  425MPD2    C2 6338   2.219   0.178  17.206  0.0133 -0.3047  0.0401
  425MPD2    C3 6339   2.151   0.278  17.278 -0.7609  0.0899 -0.1249
  425MPD2    C4 6340   2.226   0.382  17.336 -0.6166 -0.4256  0.1567
  425MPD2    C5 6341   2.361   0.377  17.332  0.0304  0.5313 -0.6540
  425MPD2     H 6342   2.159   0.096  17.166 -1.9000  0.4197  1.4435
  425MPD2    H1 6343   2.183   0.466  17.389  0.2776  1.1388 -1.5838
  425MPD2    H2 6344   2.536   0.294  17.244  0.3355  1.4111  2.1782
  425MPD2    H3 6345   2.410   0.462  17.378 -0.5334  0.1642  0.6191
  425MPD2     N 6346   2.015   0.269  17.292  0.0721  0.1353 -0.6636
  425MPD2    H5 6347   1.969   0.186  17.256  0.7767 -0.6410  0.2452
  425MPD2    N1 6348   2.424   0.097  17.102  0.0401 -0.1382  0.4496
  425MPD2    H7 6349   2.525   0.100  17.092  0.1029 -1.2478  0.7984
  426TMC3    C1 6350   2.468   4.611  16.999  0.2685  0.7362  0.5735
  426TMC3    C2 6351   2.428   4.525  16.899 -0.4435 -0.3704  0.2431
  426TMC3    C3 6352   2.526   4.441  16.856  0.5489  0.1172 -0.4991
  426TMC3    C4 6353   2.590   4.609  17.061 -0.0317  0.3519  0.3119
  426TMC3    C5 6354   2.680   4.520  17.015 -0.8457 -0.1582 -0.4371
  426TMC3    C6 6355   2.646   4.443  16.912 -0.3492 -1.0706 -0.2304
  426TMC3     C 6356   2.366   4.711  17.035  0.3341 -0.1966 -0.3680
  426TMC3     O 6357   2.252   4.692  17.007  0.2414 -0.1856 -0.4097
  426TMC3     H 6358   2.323   4.514  16.875  0.4538 -0.3304 -3.7156
  426TMC3    H1 6359   2.611   4.681  17.140 -3.0020  0.5809  0.8905
  426TMC3    H2 6360   2.723   4.377  16.873  0.3471 -0.3053 -0.1516
  426TMC3    C7 6361   2.791   4.469  17.102  0.3377  0.5417  0.3575
  426TMC3    C8 6362   2.505   4.329  16.757 -0.3218 -0.2829  0.2201
  426TMC3    O1 6363   2.878   4.400  17.046  0.3488  0.0836 -0.0953
  426TMC3    O2 6364   2.588   4.236  16.760  0.6452 -0.0823  0.0578
  427MPD2     C 6365   0.778   2.202  14.720 -0.5495 -0.1631  0.8792
  427MPD2    C1 6366   0.779   2.197  14.857 -0.9723  0.4412 -0.4028
  427MPD2    C2 6367   0.672   2.240  14.930  0.1505 -0.2473 -0.1965
  427MPD2    C3 6368   0.559   2.280  14.872 -0.7517 -0.5274 -0.1123
  427MPD2    C4 6369   0.563   2.293  14.739  0.3055  0.3547  0.1786
  427MPD2    C5 6370   0.666   2.262  14.662 -0.0555 -0.6809 -0.2908
  427MPD2     H 6371   0.673   2.222  15.037 -0.3105 -1.3204 -0.3670
  427MPD2    H1 6372   0.482   2.332  14.680  0.4504 -0.2504 -0.4151
  427MPD2    H2 6373   0.850   2.151  14.657  0.2358  2.2259 -0.1636
  427MPD2    H3 6374   0.653   2.285  14.557  4.4349 -1.8452 -1.0846
  427MPD2     N 6375   0.434   2.306  14.934  0.6631 -0.6388  0.4421
  427MPD2    H5 6376   0.353   2.322  14.875  0.9071 -2.1804 -0.3263
  427MPD2    N1 6377   0.886   2.139  14.933 -0.5298 -0.1531 -0.4701
  427MPD2    H7 6378   0.866   2.124  15.031  0.1348 -0.2338 -0.3477
  428TMC3    C1 6379   1.078   2.020  14.965  0.4479 -0.2961  0.0973
  428TMC3    C2 6380   1.019   1.908  15.015  0.1379 -0.0746 -0.0980
  428TMC3    C3 6381   1.087   1.822  15.098 -0.1032 -0.3829  1.4295
  428TMC3    C4 6382   1.209   2.049  14.993  0.2586  0.6692 -0.4514
  428TMC3    C5 6383   1.279   1.958  15.070 -0.8498  0.1666  0.1721
  428TMC3    C6 6384   1.215   1.851  15.127  0.0052  0.3629  0.0904
  428TMC3     C 6385   1.004   2.105  14.877 -0.0129 -0.0631  0.3074
  428TMC3     O 6386   1.062   2.140  14.775 -0.0922 -0.1814  0.6405
  428TMC3     H 6387   0.916   1.885  14.990  0.1208  2.6093 -2.4864
  428TMC3    H1 6388   1.251   2.139  14.949 -3.1275  3.0468  1.2097
  428TMC3    H2 6389   1.289   1.786  15.172 -1.9071 -1.0035  1.2522
  428TMC3    C7 6390   1.414   1.986  15.113  0.1266  0.1583  0.4778
  428TMC3    C8 6391   1.026   1.700  15.149  0.4773 -0.4535  0.0497
  428TMC3    O1 6392   1.445   1.941  15.222  0.0263  0.2258  0.0407
  428TMC3    O2 6393   0.980   1.617  15.069  0.6115  0.3308 -0.0818
  429MPD2     C 6394   2.068   2.303  17.564 -0.2462  0.0119 -0.2349
  429MPD2    C1 6395   2.017   2.333  17.441 -1.2128  0.5465  0.0568
  429MPD2    C2 6396   2.094   2.396  17.351  0.1392  0.7007  0.0660
  429MPD2    C3 6397   2.212   2.459  17.381  0.1074  0.1046 -0.4303
  429MPD2    C4 6398   2.262   2.433  17.511  0.9465 -0.5890  0.9773
  429MPD2    C5 6399   2.186   2.359  17.599 -0.1405 -0.0828  0.0427
  429MPD2     H 6400   2.053   2.402  17.250 -0.3973 -1.2972  0.1677
  429MPD2    H1 6401   2.352   2.478  17.551  0.9644  0.9353 -0.7724
  429MPD2    H2 6402   2.025   2.243  17.643  1.5276 -0.5680  0.2943
  429MPD2    H3 6403   2.224   2.345  17.699 -1.6015  1.4680  0.8249
  429MPD2     N 6404   2.285   2.529  17.275 -0.7764  0.1457 -0.0785
  429MPD2    H5 6405   2.236   2.540  17.187 -1.5048  0.0594  0.3186
  429MPD2    N1 6406   1.892   2.295  17.391  0.3189 -0.0556  0.3758
  429MPD2    H7 6407   1.860   2.337  17.305  0.9085 -0.1940  0.0881
  430TMC3    C1 6408   2.474   2.602  17.165  0.0051 -0.0738  0.0051
  430TMC3    C2 6409   2.410   2.691  17.086  0.1968 -0.4944  0.5725
  430TMC3    C3 6410   2.439   2.678  16.947  0.3305 -0.4109 -0.1698
  430TMC3    C4 6411   2.564   2.512  17.117  0.1712 -0.0301 -0.3435
  430TMC3    C5 6412   2.581   2.497  16.981 -0.0144  0.3581 -0.6107
  430TMC3    C6 6413   2.517   2.579  16.895  0.2280  0.2961 -0.6187
  430TMC3     C 6414   2.415   2.560  17.290  0.3285 -0.2167 -0.3656
  430TMC3     O 6415   2.488   2.557  17.384 -0.2774 -0.1425  0.6794
  430TMC3     H 6416   2.331   2.756  17.123  0.1611 -0.1670 -0.0774
  430TMC3    H1 6417   2.603   2.437  17.186 -1.4480  0.9987  1.6582
  430TMC3    H2 6418   2.519   2.567  16.787  0.0964 -0.1293 -0.5717
  430TMC3    C7 6419   2.655   2.389  16.925  0.8849  0.2165  0.1825
  430TMC3    C8 6420   2.391   2.773  16.853  0.0006  1.0920 -0.3269
  430TMC3    O1 6421   2.611   2.330  16.829 -0.2114 -0.2097  0.2918
  430TMC3    O2 6422   2.403   2.750  16.733  0.3014  0.0094  0.1744
  431MPD2     C 6423   3.062   2.734  12.373  0.3064  0.0716  0.3648
  431MPD2    C1 6424   3.151   2.722  12.275  0.2957 -0.2756  0.2971
  431MPD2    C2 6425   3.196   2.603  12.228 -0.5771  0.0446  0.3789
  431MPD2    C3 6426   3.140   2.485  12.275 -0.4771 -0.6635 -0.3054
  431MPD2    C4 6427   3.036   2.492  12.367  0.3465 -0.1790 -1.0381
  431MPD2    C5 6428   2.999   2.618  12.410 -0.6216 -0.3042 -0.1139
  431MPD2     H 6429   3.262   2.609  12.142 -1.9225 -0.8728 -0.7322
  431MPD2    H1 6430   2.972   2.408  12.391  0.2563  0.4075  0.7624
  431MPD2    H2 6431   3.023   2.828  12.411  0.9850  0.1860  0.7818
  431MPD2    H3 6432   2.903   2.625  12.460 -0.7784  0.6498 -0.5648
  431MPD2     N 6433   3.165   2.359  12.220  0.8343  0.1719  0.0151
  431MPD2    H5 6434   3.117   2.278  12.259  0.9737 -0.0593 -0.3041
  431MPD2    N1 6435   3.229   2.830  12.230 -0.5452 -0.2651  0.1910
  431MPD2    H7 6436   3.295   2.809  12.156 -0.3664 -0.6954  0.4738
  432TMC3    C1 6437   3.276   2.198  12.087 -0.2211  0.5135  0.1722
  432TMC3    C2 6438   3.303   2.154  11.963 -0.3373 -0.2463  1.1623
  432TMC3    C3 6439   3.311   2.019  11.942  0.3679 -0.8508  0.4058
  432TMC3    C4 6440   3.271   2.112  12.197 -0.1868  0.2465  0.0501
  432TMC3    C5 6441   3.276   1.975  12.166 -0.3434  0.0150 -0.5068
  432TMC3    C6 6442   3.299   1.933  12.043  0.3593 -0.4105 -0.1206
  432TMC3     C 6443   3.239   2.336  12.106 -0.3715 -0.6237 -0.1023
  432TMC3     O 6444   3.264   2.405  12.012  0.2745  1.0138 -0.5340
  432TMC3     H 6445   3.311   2.227  11.883  1.3290  1.1831  2.6316
  432TMC3    H1 6446   3.249   2.147  12.297  0.2084  2.0106 -0.4732
  432TMC3    H2 6447   3.299   1.825  12.033  1.8147 -0.3626 -0.6664
  432TMC3    C7 6448   3.309   1.885  12.281  0.6510  0.4615  0.3324
  432TMC3    C8 6449   3.365   1.958  11.826 -0.7840 -0.1322  0.0080
  432TMC3    O1 6450   3.369   1.787  12.246  0.5049  0.3434 -0.4178
  432TMC3    O2 6451   3.367   1.836  11.825 -0.3821 -0.5524 -0.6557
  433MPD2     C 6452   2.300   1.623  10.401 -0.0887  0.0579 -0.7559
  433MPD2    C1 6453   2.292   1.514  10.485 -0.3906 -0.0855 -0.1576
  433MPD2    C2 6454   2.278   1.544  10.621  0.1672 -0.0236 -0.2844
  433MPD2    C3 6455   2.269   1.671  10.667  0.3452 -0.5269 -0.1130
  433MPD2    C4 6456   2.268   1.780  10.581  0.5616  0.0108 -0.4495
  433MPD2    C5 6457   2.281   1.749  10.450  0.7574 -0.1674 -0.5113
  433MPD2     H 6458   2.268   1.464  10.693 -1.7900  0.3471 -0.1303
  433MPD2    H1 6459   2.267   1.882  10.615 -2.0635 -0.2267  0.1718
  433MPD2    H2 6460   2.324   1.605  10.297 -1.1143 -0.6215 -0.8775
  433MPD2    H3 6461   2.279   1.833  10.382 -1.1246 -0.2980 -0.6117
  433MPD2     N 6462   2.274   1.677  10.807 -0.0437  0.2839 -0.1874
  433MPD2    H5 6463   2.255   1.592  10.859 -0.1825  1.2186  1.3083
  433MPD2    N1 6464   2.311   1.384  10.432  0.7673  0.4181  0.6594
  433MPD2    H7 6465   2.346   1.381  10.337 -1.8566  3.5557 -0.3796
  434TMC3    C1 6466   2.393   1.167  10.438 -0.4617 -0.3512 -0.1041
  434TMC3    C2 6467   2.450   1.074  10.518 -0.7927 -0.2358 -1.0817
  434TMC3    C3 6468   2.557   1.006  10.462 -0.1308 -0.4070 -0.0371
  434TMC3    C4 6469   2.417   1.176  10.306  0.2910 -0.1439  0.2717
  434TMC3    C5 6470   2.514   1.095  10.249 -0.1432  1.2214  0.4194
  434TMC3    C6 6471   2.590   1.019  10.336  0.5215  0.2103 -0.2796
  434TMC3     C 6472   2.323   1.272  10.508  0.2016 -0.6268  0.0294
  434TMC3     O 6473   2.277   1.243  10.617 -0.0141  0.5342 -0.2300
  434TMC3     H 6474   2.425   1.060  10.622  0.2586  2.4522 -0.4549
  434TMC3    H1 6475   2.359   1.234  10.235 -0.0285 -0.3434  0.3735
  434TMC3    H2 6476   2.656   0.947  10.289 -0.3490 -1.6880  1.4549
  434TMC3    C7 6477   2.473   1.019  10.132  0.3364  0.0469 -0.7854
  434TMC3    C8 6478   2.643   0.932  10.555 -0.1692 -0.2184  0.1259
  434TMC3    O1 6479   2.557   1.015  10.040  0.1467 -0.1297 -0.1066
  434TMC3    O2 6480   2.585   0.876  10.643  0.0226 -0.4671 -0.6126
  435MPD2     C 6481   3.832   0.789  15.518  0.0658 -0.4804  0.5335
  435MPD2    C1 6482   3.806   0.767  15.652 -0.0984  0.3140 -0.2551
  435MPD2    C2 6483   3.898   0.684  15.724 -0.3148 -0.2611  0.0013
  435MPD2    C3 6484   4.012   0.632  15.667 -0.0773 -0.3060 -0.3023
  435MPD2    C4 6485   4.040   0.677  15.532 -0.1581  0.7949 -0.4657
  435MPD2    C5 6486   3.953   0.759  15.463 -0.7726 -0.1636  0.6937
  435MPD2     H 6487   3.877   0.657  15.827 -0.7823 -1.0806 -0.3176
  435MPD2    H1 6488   4.129   0.650  15.477 -0.0256  1.2532 -0.4740
  435MPD2    H2 6489   3.769   0.857  15.462  2.7272  1.3950 -0.2071
  435MPD2    H3 6490   3.973   0.783  15.360 -0.4844 -1.9251  0.3535
  435MPD2     N 6491   4.101   0.555  15.744 -0.2078 -0.3564 -0.1408
  435MPD2    H5 6492   4.089   0.534  15.843  0.0778  3.1315  0.6069
  435MPD2    N1 6493   3.679   0.807  15.707 -0.2320 -0.1573  0.7111
  435MPD2    H7 6494   3.673   0.791  15.807 -0.4503 -3.8439  0.1234
  436TMC3    C1 6495   3.379   0.988  15.923  0.0079  0.1489  0.3711
  436TMC3    C2 6496   3.488   0.946  15.853  0.9310 -0.0997 -0.0964
  436TMC3    C3 6497   3.463   0.900  15.723  0.1405 -0.2933  0.1938
  436TMC3    C4 6498   3.256   0.985  15.875 -0.3365 -0.1408 -0.2854
  436TMC3    C5 6499   3.232   0.939  15.744  0.2951  0.3268  0.1247
  436TMC3    C6 6500   3.339   0.902  15.666  0.0165 -0.3302  0.4056
  436TMC3     C 6501   3.417   1.035  16.049 -0.0495  0.1681  0.2785
  436TMC3     O 6502   3.535   1.074  16.067 -0.4302  0.8482  0.8870
  436TMC3     H 6503   3.583   0.935  15.904  1.0571  0.7624 -0.1474
  436TMC3    H1 6504   3.174   1.022  15.937 -0.4594  1.2232 -1.2661
  436TMC3    H2 6505   3.326   0.854  15.570 -0.4903 -2.6059  1.6093
  436TMC3    C7 6506   3.092   0.943  15.701  0.3379 -0.2567  0.0370
  436TMC3    C8 6507   3.577   0.868  15.641 -0.5881 -0.5685 -0.0389
  436TMC3    O1 6508   3.006   0.958  15.792 -0.3557  0.2248 -0.1526
  436TMC3    O2 6509   3.547   0.890  15.522  0.2457 -0.4490  0.2697
  437TMC3    C1 6510   2.714   3.313  12.838 -0.0943  0.1328  0.3691
  437TMC3    C2 6511   2.664   3.428  12.889  0.1083  0.3750  0.3616
  437TMC3    C3 6512   2.665   3.534  12.803  0.0639  0.2774  0.2399
  437TMC3    C4 6513   2.759   3.301  12.706  0.6969  0.2955  0.8151
  437TMC3    C5 6514   2.740   3.407  12.622  0.0653  0.0479  0.8621
  437TMC3    C6 6515   2.685   3.523  12.673 -0.1388  0.9033 -0.0955
  437TMC3     C 6516   2.722   3.194  12.925 -0.1456  0.2775 -0.1850
  437TMC3     O 6517   2.794   3.102  12.891 -0.2341  0.1850  0.0663
  437TMC3     H 6518   2.655   3.444  12.996 -0.3130  0.4726  0.3113
  437TMC3    H1 6519   2.798   3.203  12.682  0.1460  0.4394 -0.7306
  437TMC3    H2 6520   2.711   3.611  12.614  1.1247  0.8598  0.4026
  437TMC3    C7 6521   2.837   3.425  12.509 -0.0786 -0.5008 -0.2647
  437TMC3    C8 6522   2.681   3.664  12.851 -0.7727 -0.2661 -0.8339
  437TMC3    O1 6523   2.827   3.521  12.433  0.0401  0.4979 -0.3417
  437TMC3    O2 6524   2.624   3.750  12.793  0.2711 -0.3029 -0.5188
  438MPD2     C 6525   4.671   3.357  16.932  0.6547  0.1652  0.2632
  438MPD2    C1 6526   4.687   3.488  16.974  0.5889  0.5333 -0.3938
  438MPD2    C2 6527   4.655   3.521  17.105  0.3013  0.0547 -0.4585
  438MPD2    C3 6528   4.610   3.418  17.193  0.1362  0.3215 -0.5515
  438MPD2    C4 6529   4.581   3.296  17.142 -0.7102  0.9158 -0.2735
  438MPD2    C5 6530   4.612   3.266  17.020 -0.3963 -0.4297  0.2559
  438MPD2     H 6531   4.675   3.622  17.139 -2.5281 -0.0791  1.5751
  438MPD2    H1 6532   4.553   3.219  17.213 -0.5072 -0.2943 -1.5141
  438MPD2    H2 6533   4.689   3.322  16.831 -0.8435  1.4418 -0.4478
  438MPD2    H3 6534   4.585   3.167  16.986 -2.3821 -0.1208  0.9393
  438MPD2     N 6535   4.598   3.434  17.332  0.3118  0.5078  0.6104
  438MPD2    H5 6536   4.548   3.362  17.384 -0.4015  0.3849 -0.2619
  438MPD2    N1 6537   0.022   3.583  16.890 -0.0537 -0.6743  0.2229
  438MPD2    H7 6538   0.048   3.670  16.935  0.0829 -0.2418 -0.6963
  439TMC3    C1 6539   0.167   3.650  16.724  0.6230  0.2513 -0.2391
  439TMC3    C2 6540   0.207   3.627  16.598  0.5037  0.1834  0.5999
  439TMC3    C3 6541   0.338   3.603  16.571  0.0814  0.0408  0.4525
  439TMC3    C4 6542   0.258   3.665  16.825 -0.2741  0.5298 -1.1364
  439TMC3    C5 6543   0.390   3.659  16.797  0.5833 -0.2226 -0.7557
  439TMC3    C6 6544   0.432   3.620  16.671  0.3371 -0.3438  0.5442
  439TMC3     C 6545   0.051   3.571  16.757 -1.1646 -0.2963 -0.3984
  439TMC3     O 6546   0.021   3.480  16.684 -0.0095 -0.0479  0.6313
  439TMC3     H 6547   0.133   3.590  16.527 -2.3119  3.2569  1.9230
  439TMC3    H1 6548   0.235   3.691  16.928 -0.6289 -2.6761 -0.4077
  439TMC3    H2 6549   0.537   3.606  16.646  0.8691  1.1850  1.9348
  439TMC3    C7 6550   0.468   3.607  16.905  0.1314  0.5714 -0.0714
  439TMC3    C8 6551   0.377   3.505  16.470  0.3001  0.4296  0.2755
  439TMC3    O1 6552   0.591   3.606  16.906 -0.4730  0.5478  0.1984
  439TMC3    O2 6553   0.477   3.442  16.485  0.2290  0.7751  0.1195
  440MPD2     C 6554   3.661   4.002  14.720 -0.3514  0.5904 -0.2379
  440MPD2    C1 6555   3.759   4.088  14.764 -0.6245  0.0467 -0.8600
  440MPD2    C2 6556   3.874   4.033  14.812  0.9490  0.0590  0.3129
  440MPD2    C3 6557   3.890   3.893  14.818  0.1935 -0.2002  0.1653
  440MPD2    C4 6558   3.793   3.808  14.771  0.3203  0.7008  0.1325
  440MPD2    C5 6559   3.672   3.860  14.730 -0.1930 -0.3352 -0.6737
  440MPD2     H 6560   3.947   4.100  14.856  0.3495  0.2849  0.9599
  440MPD2    H1 6561   3.803   3.701  14.784 -0.1028  0.5772 -0.5519
  440MPD2    H2 6562   3.564   4.038  14.690  0.0276  2.6111  0.9483
  440MPD2    H3 6563   3.591   3.792  14.705  0.3196 -0.7557 -1.1902
  440MPD2     N 6564   4.005   3.829  14.861  0.1157 -0.0160 -0.0745
  440MPD2    H5 6565   3.996   3.728  14.856  1.3748 -0.0316 -1.8739
  440MPD2    N1 6566   3.737   4.223  14.787  0.4120  0.4319 -0.0887
  440MPD2    H7 6567   3.815   4.268  14.834  1.0091 -1.7378  0.9882
  441TMC3    C1 6568   4.217   3.797  14.977 -0.7099 -0.3419 -0.1294
  441TMC3    C2 6569   4.328   3.866  15.014 -0.6232 -0.1343  0.0903
  441TMC3    C3 6570   4.371   3.864  15.143  0.7621 -0.0534  0.0877
  441TMC3    C4 6571   4.158   3.709  15.057  0.5763  0.1439  0.0080
  441TMC3    C5 6572   4.214   3.689  15.178  0.7945 -0.5864 -1.0911
  441TMC3    C6 6573   4.319   3.768  15.226  0.2288  0.6976  0.1899
  441TMC3     C 6574   4.125   3.881  14.902 -0.0818  0.3832  0.4720
  441TMC3     O 6575   4.148   4.000  14.922  0.2341 -0.0962  0.2001
  441TMC3     H 6576   4.365   3.941  14.945  0.7123 -1.1740 -0.3342
  441TMC3    H1 6577   4.065   3.662  15.027  0.3374 -1.1736  2.8535
  441TMC3    H2 6578   4.330   3.782  15.333 -0.3727  1.6729  0.1255
  441TMC3    C7 6579   4.161   3.598  15.264 -0.1786 -0.5825 -0.0602
  441TMC3    C8 6580   4.390   3.995  15.201 -0.5380  0.4141  0.2332
  441TMC3    O1 6581   4.036   3.579  15.265 -0.2753  0.3554  0.1825
  441TMC3    O2 6582   4.468   4.004  15.295  0.3033  0.2935  0.2100
  442MPD2     C 6583   1.875   0.059  16.136 -0.1757 -0.7495 -0.7164
  442MPD2    C1 6584   1.776   4.709  16.191  0.0049 -0.4743  0.6153
  442MPD2    C2 6585   1.790   4.569  16.208 -0.8391 -0.2188  0.3317
  442MPD2    C3 6586   1.911   4.509  16.178 -0.5381  0.5554 -0.8013
  442MPD2    C4 6587   2.007   4.587  16.119 -0.0002  0.0112  0.2401
  442MPD2    C5 6588   1.990   4.721  16.093 -0.0562  0.5685 -0.2437
  442MPD2     H 6589   1.704   4.511  16.241 -0.8052 -0.2732  0.3242
  442MPD2    H1 6590   2.100   4.535  16.103 -0.2105  0.2820 -1.9397
  442MPD2    H2 6591   1.869   0.164  16.111 -0.1374 -0.7009 -0.5188
  442MPD2    H3 6592   2.074   0.052  16.055  0.5015 -0.8410 -1.0935
  442MPD2     N 6593   1.940   4.374  16.179 -0.3696  0.3868  0.0055
  442MPD2    H5 6594   2.015   4.337  16.121 -1.5713  0.0960 -1.3672
  442MPD2    N1 6595   1.649   0.036  16.227  0.0491 -0.0529 -0.8288
  442MPD2    H7 6596   1.590   4.694  16.275  1.1652  0.9669  1.9885
  443TMC3    C1 6597   1.452   0.181  16.219 -0.3361  0.3246  0.3806
  443TMC3    C2 6598   1.392   0.275  16.139 -0.6257  0.1590  0.0804
  443TMC3    C3 6599   1.265   0.308  16.169 -1.3354  0.6257  0.1876
  443TMC3    C4 6600   1.408   0.136  16.337  0.2755  0.7610 -0.6551
  443TMC3    C5 6601   1.275   0.185  16.365 -0.4289 -0.1751  0.0927
  443TMC3    C6 6602   1.199   0.250  16.278  0.3684  0.7802  0.2094
  443TMC3     C 6603   1.599   0.161  16.199  0.3317 -0.0150 -0.7098
  443TMC3     O 6604   1.660   0.258  16.158  0.6250  0.1700  0.3459
  443TMC3     H 6605   1.443   0.310  16.050 -1.6224 -0.7269 -0.8390
  443TMC3    H1 6606   1.463   0.073  16.407  2.5680  2.1052 -1.2421
  443TMC3    H2 6607   1.094   0.272  16.293  0.3891  1.6190 -0.8179
  443TMC3    C7 6608   1.208   0.092  16.442 -0.3258 -0.1476  0.2584
  443TMC3    C8 6609   1.179   0.373  16.081 -0.6884  0.2998 -0.2414
  443TMC3    O1 6610   1.133   0.137  16.530  0.2645  0.7294  0.1326
  443TMC3    O2 6611   1.110   0.455  16.137 -0.5562 -0.1231  0.3316
  444MPD2     C 6612   2.299   3.681  16.845 -0.1936  0.4186 -0.6502
  444MPD2    C1 6613   2.190   3.635  16.778 -0.1262 -0.6604 -0.2786
  444MPD2    C2 6614   2.203   3.519  16.711  0.0390  0.4325 -0.0940
  444MPD2    C3 6615   2.315   3.434  16.716 -0.1415 -0.1320 -0.0551
  444MPD2    C4 6616   2.422   3.483  16.788  0.4609  0.5436 -0.3644
  444MPD2    C5 6617   2.412   3.604  16.855  0.9746 -0.5912 -0.5475
  444MPD2     H 6618   2.111   3.480  16.668  0.6713  0.7101 -1.7128
  444MPD2    H1 6619   2.517   3.433  16.804 -0.1219 -1.0758 -1.9059
  444MPD2    H2 6620   2.301   3.770  16.908  1.2944 -1.2055  1.6006
  444MPD2    H3 6621   2.492   3.650  16.913  0.2313 -0.8304  0.6706
  444MPD2     N 6622   2.321   3.313  16.638 -0.7100  0.3013  0.2065
  444MPD2    H5 6623   2.251   3.282  16.571 -1.4455  2.9318 -0.2228
  444MPD2    N1 6624   2.074   3.715  16.773  0.6691  0.6053  0.9662
  444MPD2    H7 6625   1.987   3.676  16.739  0.8168 -0.7490  2.1151
  445TMC3    C1 6626   2.412   3.111  16.554 -0.1836 -0.1942 -0.9904
  445TMC3    C2 6627   2.299   3.104  16.472  0.9457  0.2922 -0.2809
  445TMC3    C3 6628   2.303   3.034  16.355  0.5460 -0.7614 -0.2821
  445TMC3    C4 6629   2.527   3.040  16.532  0.1126 -0.2628 -0.1414
  445TMC3    C5 6630   2.521   2.963  16.420  0.0522  0.2106  0.7634
  445TMC3    C6 6631   2.418   2.961  16.331 -0.3700  0.0819 -0.2182
  445TMC3     C 6632   2.416   3.213  16.657 -0.0831  0.5887  0.0664
  445TMC3     O 6633   2.508   3.219  16.738  0.2032 -0.1241 -0.1665
  445TMC3     H 6634   2.200   3.137  16.501  0.1616  0.0651 -2.7123
  445TMC3    H1 6635   2.613   3.036  16.597  0.1586 -0.5929 -0.2267
  445TMC3    H2 6636   2.440   2.919  16.233 -0.4274 -0.9840  0.2255
  445TMC3    C7 6637   2.653   2.911  16.387 -0.6345 -0.7424  0.5354
  445TMC3    C8 6638   2.170   2.995  16.302  0.4966  0.1165  0.3342
  445TMC3    O1 6639   2.752   2.953  16.450  0.4944  0.1041 -0.7110
  445TMC3    O2 6640   2.078   3.077  16.312  0.0251 -0.6384  0.5307
  446MPD2     C 6641   2.397   0.625  10.931 -0.3174  0.2588 -0.0402
  446MPD2    C1 6642   2.299   0.725  10.920 -0.5497  0.6583 -0.6477
  446MPD2    C2 6643   2.337   0.862  10.926  0.3687  0.1289  0.3346
  446MPD2    C3 6644   2.465   0.899  10.943 -0.1485  0.0872  0.0390
  446MPD2    C4 6645   2.560   0.797  10.952 -0.4713 -0.8371  0.4946
  446MPD2    C5 6646   2.524   0.668  10.948 -0.1355  0.4659  0.7670
  446MPD2     H 6647   2.261   0.938  10.916  0.0751 -0.8006 -4.2040
  446MPD2    H1 6648   2.666   0.811  10.970 -0.4696 -0.5562  0.2554
  446MPD2    H2 6649   2.382   0.519  10.915 -0.4818  0.5117 -1.6105
  446MPD2    H3 6650   2.609   0.601  10.952  1.1846  1.9907 -1.8143
  446MPD2     N 6651   2.494   1.035  10.947  0.0169 -0.3855  0.7189
  446MPD2    H5 6652   2.426   1.102  10.915 -0.0343 -1.3334 -1.1449
  446MPD2    N1 6653   2.161   0.701  10.891  0.1107 -0.1749  0.3948
  446MPD2    H7 6654   2.097   0.779  10.885  0.2176 -0.2152 -1.4068
  447TMC3    C1 6655   2.660   1.210  10.959  0.2122 -0.6392  0.2482
  447TMC3    C2 6656   2.653   1.235  10.824 -0.0185 -0.6262 -0.4834
  447TMC3    C3 6657   2.761   1.280  10.753 -0.3190 -0.0283  0.2583
  447TMC3    C4 6658   2.776   1.246  11.023  0.1015 -0.2711 -0.3881
  447TMC3    C5 6659   2.884   1.275  10.946 -0.3732 -0.2827 -0.0312
  447TMC3    C6 6660   2.877   1.290  10.814  0.2907 -0.1194 -0.3909
  447TMC3     C 6661   2.614   1.077  10.998 -0.0568 -0.3808  0.0174
  447TMC3     O 6662   2.696   1.021  11.065 -0.1477 -0.0967 -0.0880
  447TMC3     H 6663   2.561   1.219  10.770 -1.0746 -0.0968  1.1601
  447TMC3    H1 6664   2.775   1.227  11.129 -0.5866 -0.0198 -0.3513
  447TMC3    H2 6665   2.972   1.315  10.767  1.5140 -1.1308  1.5542
  447TMC3    C7 6666   3.013   1.223  10.989 -0.1505  0.0271  0.2774
  447TMC3    C8 6667   2.742   1.294  10.610 -0.1665  0.3226 -0.4082
  447TMC3    O1 6668   3.102   1.210  10.907 -0.0802 -0.5142 -0.0130
  447TMC3    O2 6669   2.630   1.327  10.571 -0.0515 -0.3739  0.4713
  448TMC3    C1 6670   0.784   0.710  17.123  0.6814  1.0059  0.2925
  448TMC3    C2 6671   0.674   0.630  17.090  0.3759  0.2071 -0.6055
  448TMC3    C3 6672   0.651   0.520  17.171 -0.0861  0.1273 -0.2948
  448TMC3    C4 6673   0.874   0.668  17.219  0.0686 -0.1267 -0.0327
  448TMC3    C5 6674   0.849   0.552  17.284 -0.8078  0.4532  0.4471
  448TMC3    C6 6675   0.736   0.474  17.265  0.4421  0.4059  0.5449
  448TMC3     C 6676   0.782   0.844  17.072 -0.5025  0.7085 -0.2641
  448TMC3     O 6677   0.682   0.869  17.006  0.6391 -0.2967 -0.4507
  448TMC3     H 6678   0.605   0.654  17.010 -0.2790 -1.9170 -0.6828
  448TMC3    H1 6679   0.965   0.717  17.253  0.2056 -0.6903  0.4159
  448TMC3    H2 6680   0.689   0.401  17.331 -1.5278 -0.0878 -1.4001
  448TMC3    C7 6681   0.917   0.540  17.414  0.7671 -0.4526  0.0119
  448TMC3    C8 6682   0.552   0.423  17.114 -0.1747 -0.3820  0.5968
  448TMC3    O1 6683   0.952   0.637  17.475  0.3701 -0.0060 -0.2024
  448TMC3    O2 6684   0.582   0.305  17.142  0.0628  0.0496  0.0736
  449MPD2     C 6685   1.769   3.844  13.891  0.2255 -0.2495 -0.2428
  449MPD2    C1 6686   1.755   3.718  13.945 -0.6310 -0.1921  0.1254
  449MPD2    C2 6687   1.830   3.696  14.058  0.4951 -0.1520  0.2416
  449MPD2    C3 6688   1.912   3.789  14.113  0.3865  0.0872  0.5420
  449MPD2    C4 6689   1.935   3.905  14.047 -0.1750  0.3314 -0.7987
  449MPD2    C5 6690   1.858   3.935  13.940  0.1216 -0.1388 -0.7364
  449MPD2     H 6691   1.815   3.600  14.106  2.7436  0.0456  1.3559
  449MPD2    H1 6692   2.019   3.964  14.080 -1.2533  1.5124 -0.1336
  449MPD2    H2 6693   1.712   3.874  13.804  1.5006 -0.6109 -1.1957
  449MPD2    H3 6694   1.877   4.018  13.872  1.4668 -0.7477 -1.0992
  449MPD2     N 6695   1.980   3.746  14.227 -0.0047  0.0503  0.2837
  449MPD2    H5 6696   1.952   3.652  14.254 -0.5314 -0.4136 -1.8539
  449MPD2    N1 6697   1.666   3.618  13.898  0.8165  0.6688 -0.1223
  449MPD2    H7 6698   1.653   3.532  13.952  1.2009  0.7444  0.0876
  450TMC3    C1 6699   1.535   3.498  13.755  0.6309 -0.5413  0.5001
  450TMC3    C2 6700   1.582   3.473  13.627 -0.3373 -0.0405 -0.3862
  450TMC3    C3 6701   1.687   3.390  13.601 -0.5810  0.6691 -0.0479
  450TMC3    C4 6702   1.573   3.409  13.844 -0.2053  0.5684 -0.1086
  450TMC3    C5 6703   1.675   3.317  13.821  0.2039  0.4192  0.1457
  450TMC3    C6 6704   1.741   3.309  13.698  0.2988  0.6453  0.4148
  450TMC3     C 6705   1.573   3.627  13.797  0.5565  0.2081  0.3636
  450TMC3     O 6706   1.545   3.718  13.722 -0.1849 -0.2640  0.4789
  450TMC3     H 6707   1.545   3.537  13.547 -1.0672  0.1240  0.0845
  450TMC3    H1 6708   1.532   3.416  13.944  0.2398  0.8389  0.0572
  450TMC3    H2 6709   1.806   3.225  13.678 -0.0617  0.0587  1.7596
  450TMC3    C7 6710   1.751   3.302  13.939  0.0825  0.5793  0.3963
  450TMC3    C8 6711   1.763   3.420  13.483  0.8326  0.0851 -0.1142
  450TMC3    O1 6712   1.724   3.367  14.038  0.0686 -0.2686 -0.1567
  450TMC3    O2 6713   1.704   3.455  13.381  0.1471  0.1212  0.0629
  451MPD2     C 6714   3.305   2.331   1.903 -0.2474 -0.3556 -0.3154
  451MPD2    C1 6715   3.266   2.342   1.770 -0.1883  0.6166  1.0465
  451MPD2    C2 6716   3.300   2.256   1.668 -0.5655  1.0663  0.1441
  451MPD2    C3 6717   3.378   2.143   1.703  0.5908 -0.1015 -0.0872
  451MPD2    C4 6718   3.426   2.139   1.833 -0.0663  0.2792  0.2485
  451MPD2    C5 6719   3.385   2.226   1.935 -0.8622 -0.1165  0.1768
  451MPD2     H 6720   3.277   2.262   1.562 -1.2437  0.1859  0.2504
  451MPD2    H1 6721   3.485   2.056   1.869  1.1297  0.5087 -1.2164
  451MPD2    H2 6722   3.283   2.408   1.976  2.0832 -1.7730  1.8700
  451MPD2    H3 6723   3.403   2.202   2.039  0.2726 -1.1317 -0.2552
  451MPD2     N 6724   3.411   2.040   1.612  0.3152 -0.1200 -0.0923
  451MPD2    H5 6725   3.491   1.985   1.641 -1.6498 -2.7688  0.2785
  451MPD2    N1 6726   3.191   2.455   1.746 -0.5622  0.3650 -0.2268
  451MPD2    H7 6727   3.166   2.508   1.829 -0.7822 -1.2631  0.7274
  452TMC3    C1 6728   3.425   1.935   1.406 -0.9063 -0.1436 -0.5935
  452TMC3    C2 6729   3.523   1.856   1.463 -0.1321  0.4681 -0.2130
  452TMC3    C3 6730   3.628   1.827   1.373  0.2122  0.4118  0.0420
  452TMC3    C4 6731   3.416   1.967   1.275 -0.1251  0.2847 -0.0634
  452TMC3    C5 6732   3.516   1.929   1.201 -0.3244  0.1113 -0.8531
  452TMC3    C6 6733   3.626   1.850   1.239  0.5105 -0.2432  0.1452
  452TMC3     C 6734   3.348   2.020   1.493 -0.0792 -1.0074  0.2460
  452TMC3     O 6735   3.256   2.080   1.447  0.0003 -0.3674 -0.4381
  452TMC3     H 6736   3.538   1.849   1.570 -0.0105 -1.2649 -0.3506
  452TMC3    H1 6737   3.336   2.030   1.237 -0.2006 -0.1320 -0.5892
  452TMC3    H2 6738   3.703   1.806   1.177 -0.1851 -0.4861 -0.5398
  452TMC3    C7 6739   3.499   1.969   1.068 -0.8319  0.2394  0.1803
  452TMC3    C8 6740   3.740   1.745   1.427 -0.4445  0.0690 -0.4191
  452TMC3    O1 6741   3.385   1.962   1.025  0.2006 -0.2394  0.1689
  452TMC3    O2 6742   3.713   1.664   1.516  0.1858 -0.5699 -0.4053
  453TMC3    C1 6743   0.027   4.642  12.008 -0.2155  0.4840  0.3734
  453TMC3    C2 6744   4.620   4.590  12.022 -0.0469 -0.8153 -0.0740
  453TMC3    C3 6745   4.535   4.595  11.916 -0.0756 -0.0437  0.1673
  453TMC3    C4 6746   0.060   4.710  11.901 -0.1937 -0.2449 -0.1917
  453TMC3    C5 6747   4.689   4.722  11.797 -0.0375 -0.0287  0.1573
  453TMC3    C6 6748   4.560   4.672  11.807 -0.4501  0.7545  0.1899
  453TMC3     C 6749   0.098   4.674  12.129 -0.0924  0.3352  0.3387
  453TMC3     O 6750   0.194   0.024  12.128 -0.2107 -0.0399  0.6443
  453TMC3     H 6751   4.573   4.575  12.118  0.8046  0.7535  0.5739
  453TMC3    H1 6752   0.155   0.036  11.896  0.0747 -0.8446 -1.2506
  453TMC3    H2 6753   4.484   4.683  11.731 -1.3808  2.2625  1.3346
  453TMC3    C7 6754   0.002   0.030  11.666  0.8451  0.5734 -0.3335
  453TMC3    C8 6755   4.423   4.499  11.900 -0.2990  0.0528  0.0201
  453TMC3    O1 6756   4.646   0.063  11.579 -0.0201  0.0414 -0.3675
  453TMC3    O2 6757   4.314   4.546  11.861 -1.3551 -0.0621 -0.4848
  454MPD2     C 6758   2.990   3.195  16.330  0.0423 -0.1927  0.5581
  454MPD2    C1 6759   2.956   3.335  16.319  0.4919 -0.2456 -0.0152
  454MPD2    C2 6760   2.899   3.391  16.428 -0.2044 -0.0741  0.3080
  454MPD2    C3 6761   2.878   3.322  16.548 -0.8459  1.2009  0.1191
  454MPD2    C4 6762   2.926   3.200  16.562  0.1131 -0.1224  0.3701
  454MPD2    C5 6763   2.991   3.141  16.456 -0.0340  0.1001 -0.6302
  454MPD2     H 6764   2.869   3.495  16.426 -1.9056 -0.5953 -1.4506
  454MPD2    H1 6765   2.923   3.142  16.653  0.7885  0.0617  0.5031
  454MPD2    H2 6766   3.020   3.140  16.242  0.8832  3.9196 -1.7243
  454MPD2    H3 6767   2.999   3.033  16.453  0.5154  0.0887  1.8224
  454MPD2     N 6768   2.808   3.379  16.662 -0.5029 -0.1056  0.2780
  454MPD2    H5 6769   2.824   3.328  16.749 -1.4042 -0.2867  0.3337
  454MPD2    N1 6770   2.960   3.408  16.201  0.1861  0.5924  0.7999
  454MPD2    H7 6771   2.941   3.508  16.210  0.0550  0.6189  0.2796
  455TMC3    C1 6772   2.659   3.539  16.553 -0.2006 -0.8088 -0.3259
  455TMC3    C2 6773   2.638   3.673  16.540 -0.8802  0.3163 -0.4234
  455TMC3    C3 6774   2.538   3.718  16.459 -0.1038 -0.3393 -0.1743
  455TMC3    C4 6775   2.592   3.438  16.481 -0.3512  0.1296  0.1633
  455TMC3    C5 6776   2.500   3.495  16.395  0.6092 -0.8984  0.1756
  455TMC3    C6 6777   2.476   3.631  16.379 -0.2020  0.6863 -0.0184
  455TMC3     C 6778   2.750   3.501  16.666 -0.6713 -0.8902  0.1103
  455TMC3     O 6779   2.751   3.574  16.764 -0.1089  0.4040 -0.1891
  455TMC3     H 6780   2.689   3.742  16.605  1.3349  0.0350 -1.8427
  455TMC3    H1 6781   2.609   3.331  16.483  1.1026  0.4166  2.1896
  455TMC3    H2 6782   2.403   3.670  16.308 -0.8955 -0.3438  0.1358
  455TMC3    C7 6783   2.471   3.419  16.272 -0.3432 -0.2996 -0.1473
  455TMC3    C8 6784   2.500   3.860  16.479 -0.2210 -0.1779  0.1727
  455TMC3    O1 6785   2.373   3.457  16.206 -0.0974 -0.0538  0.1824
  455TMC3    O2 6786   2.594   3.930  16.520 -0.6755  0.3566 -0.5483
  456MPD2     C 6787   0.338   3.932  16.361 -0.5207 -0.3652 -0.1380
  456MPD2    C1 6788   0.465   3.930  16.416  0.4778  0.2262  0.1649
  456MPD2    C2 6789   0.500   4.020  16.521  0.0847  0.2114 -0.7542
  456MPD2    C3 6790   0.401   4.113  16.562  0.5169  0.0669  0.3550
  456MPD2    C4 6791   0.273   4.110  16.505 -0.1937 -0.1469 -0.1433
  456MPD2    C5 6792   0.250   4.029  16.395 -0.4689 -0.0938  0.3923
  456MPD2     H 6793   0.594   4.022  16.576 -0.6719  2.6723  0.4532
  456MPD2    H1 6794   0.199   4.185  16.532 -0.2291 -0.9416  2.0442
  456MPD2    H2 6795   0.306   3.856  16.291  0.6244 -1.8317  0.9563
  456MPD2    H3 6796   0.154   4.039  16.347 -0.8304 -3.6462  0.3562
  456MPD2     N 6797   0.444   4.207  16.659 -0.4802 -0.6086 -0.0827
  456MPD2    H5 6798   0.542   4.208  16.687 -0.2911  0.3357 -0.8003
  456MPD2    N1 6799   0.561   3.839  16.349 -0.0839 -0.4056  0.4318
  456MPD2    H7 6800   0.529   3.800  16.261  2.9803 -0.5686 -0.6069
  457TMC3    C1 6801   0.443   4.386  16.812 -0.5696  0.0575  0.2655
  457TMC3    C2 6802   0.374   4.501  16.843  0.0203 -0.4232  0.8526
  457TMC3    C3 6803   0.411   4.564  16.957 -0.0016  0.1606  0.0531
  457TMC3    C4 6804   0.531   4.328  16.905 -0.0667  0.4019  0.1719
  457TMC3    C5 6805   0.555   4.393  17.021 -0.0014  0.0739  0.2811
  457TMC3    C6 6806   0.498   4.512  17.053  0.5374 -0.6168 -0.1106
  457TMC3     C 6807   0.368   4.299  16.726  0.4164  0.4308 -0.0891
  457TMC3     O 6808   0.253   4.334  16.705 -0.2509 -0.1122 -0.4967
  457TMC3     H 6809   0.313   4.545  16.765 -0.0044  0.9553  1.6439
  457TMC3    H1 6810   0.576   4.229  16.900  2.6267  1.7208 -1.3697
  457TMC3    H2 6811   0.509   4.560  17.149 -1.3889 -2.7634  1.1765
  457TMC3    C7 6812   0.672   4.349  17.099 -0.0942  0.6318 -0.1210
  457TMC3    C8 6813   0.355   4.695  16.991  0.7439  0.6226 -0.4819
  457TMC3    O1 6814   0.711   4.236  17.086 -0.1978  0.4116  0.0569
  457TMC3    O2 6815   0.393   0.021  17.096  0.9414 -0.4080 -0.0105
  458MPD2     C 6816   3.308   3.380  12.355  0.1145 -0.2532  0.0951
  458MPD2    C1 6817   3.312   3.349  12.487 -0.7079  0.6830  0.0376
  458MPD2    C2 6818   3.191   3.326  12.545  0.2132  0.2020 -0.0715
  458MPD2    C3 6819   3.075   3.347  12.465  0.1191 -0.2978  0.4077
  458MPD2    C4 6820   3.074   3.380  12.327 -0.4755 -0.3273  0.0840
  458MPD2    C5 6821   3.201   3.392  12.277 -0.1919  0.1120  0.5312
  458MPD2     H 6822   3.174   3.299  12.648  1.1480  0.7100  0.2205
  458MPD2    H1 6823   2.988   3.404  12.267 -0.3102 -0.4111 -0.1851
  458MPD2    H2 6824   3.397   3.405  12.298 -1.1937 -1.0211 -2.2936
  458MPD2    H3 6825   3.204   3.430  12.176 -1.1148  0.7486  0.7411
  458MPD2     N 6826   2.955   3.352  12.542  0.7523  0.0333  0.7391
  458MPD2    H5 6827   2.959   3.320  12.638 -0.7864  1.8508  1.4059
  458MPD2    N1 6828   3.436   3.373  12.556 -0.1333  0.3382  0.0551
  458MPD2    H7 6829   3.507   3.426  12.507 -2.1987  2.3720 -0.7516
  459TMC3    C1 6830   3.552   3.407  12.754  0.2907 -0.2464  0.6076
  459TMC3    C2 6831   3.652   3.489  12.695 -0.9900  0.3229  0.1738
  459TMC3    C3 6832   3.752   3.537  12.778 -0.1336 -1.1925 -0.4903
  459TMC3    C4 6833   3.564   3.383  12.886 -0.7056  0.8203 -0.0856
  459TMC3    C5 6834   3.670   3.425  12.964  0.6132 -0.1637 -0.4295
  459TMC3    C6 6835   3.764   3.507  12.915  0.0334  0.1517  0.0833
  459TMC3     C 6836   3.454   3.335  12.685  0.4015  0.4382 -0.0583
  459TMC3     O 6837   3.389   3.254  12.749  0.3430 -0.2283 -0.2111
  459TMC3     H 6838   3.653   3.495  12.587 -0.6869 -1.3284  0.0957
  459TMC3    H1 6839   3.492   3.311  12.922 -1.3800  2.2125  1.3713
  459TMC3    H2 6840   3.859   3.532  12.961  0.2328 -0.5520  0.0508
  459TMC3    C7 6841   3.700   3.334  13.073 -0.1197 -0.3194  0.2751
  459TMC3    C8 6842   3.836   3.650  12.731 -0.2099  0.0198  0.5787
  459TMC3    O1 6843   3.670   3.217  13.060 -0.2419 -0.1788 -0.1336
  459TMC3    O2 6844   3.941   3.674  12.787  0.0960  0.5675 -0.8405
  460MPD2     C 6845   3.011   1.223  10.367  0.5678 -0.0470  0.2762
  460MPD2    C1 6846   2.878   1.252  10.408  0.5211 -0.0073  0.2250
  460MPD2    C2 6847   2.790   1.297  10.311  0.5367  0.6225 -0.3090
  460MPD2    C3 6848   2.827   1.297  10.176  0.0761  0.5506  1.0390
  460MPD2    C4 6849   2.954   1.258  10.135 -0.5746  0.0579  0.2493
  460MPD2    C5 6850   3.040   1.217  10.233 -0.1361 -0.9764 -0.1705
  460MPD2     H 6851   2.686   1.311  10.340  0.8594 -0.0119  1.1546
  460MPD2    H1 6852   3.000   1.252  10.037  0.2941 -0.9238  0.7104
  460MPD2    H2 6853   3.078   1.168  10.431 -0.3147 -1.9121 -0.4020
  460MPD2    H3 6854   3.139   1.187  10.201 -1.6456 -1.9359 -3.9221
  460MPD2     N 6855   2.722   1.330  10.084  0.0717  0.4552 -0.3666
  460MPD2    H5 6856   2.626   1.342  10.116  0.4857 -1.6861  1.6561
  460MPD2    N1 6857   2.856   1.257  10.546 -0.0495  0.2543  0.0423
  460MPD2    H7 6858   2.936   1.225  10.600  0.5406  0.6085 -0.6091
  461TMC3    C1 6859   2.617   1.368   9.886 -0.6749  0.1763  0.2847
  461TMC3    C2 6860   2.522   1.272   9.866  0.6393  0.3630  0.4989
  461TMC3    C3 6861   2.411   1.323   9.802  0.7251 -0.4859 -0.3344
  461TMC3    C4 6862   2.607   1.503   9.877  0.2640 -0.0008  0.3530
  461TMC3    C5 6863   2.486   1.546   9.820  0.1178 -0.5931  0.2935
  461TMC3    C6 6864   2.385   1.459   9.780 -0.6210  0.2473 -0.1233
  461TMC3     C 6865   2.741   1.333   9.946  0.1195  0.0746  0.2868
  461TMC3     O 6866   2.843   1.321   9.878  0.0774  0.5187  0.5990
  461TMC3     H 6867   2.532   1.166   9.885  1.3772  0.3732  0.1591
  461TMC3    H1 6868   2.691   1.571   9.887  1.7675 -1.7443 -0.2241
  461TMC3    H2 6869   2.292   1.490   9.733 -1.2606 -1.4825  0.0264
  461TMC3    C7 6870   2.468   1.688   9.803 -0.5037 -0.4002  0.5447
  461TMC3    C8 6871   2.316   1.235   9.730  0.1739  0.1671 -0.3317
  461TMC3    O1 6872   2.376   1.716   9.728 -0.3884  0.7570  0.6017
  461TMC3    O2 6873   2.203   1.276   9.715  0.1798  0.1971  0.2963
  462TMC3    C1 6874   1.862   1.526  17.192 -0.8353 -0.0304  0.3687
  462TMC3    C2 6875   1.847   1.423  17.106  0.5470  0.2309  0.0141
  462TMC3    C3 6876   1.911   1.311  17.141 -0.1868 -0.7619  0.8474
  462TMC3    C4 6877   1.936   1.526  17.307 -0.3144 -0.5093  0.2731
  462TMC3    C5 6878   2.014   1.412  17.328 -0.4364 -1.0304  1.1692
  462TMC3    C6 6879   2.010   1.309  17.238  0.0048  0.3898  0.3044
  462TMC3     C 6880   1.812   1.657  17.155  0.0812  0.5756 -0.0322
  462TMC3     O 6881   1.733   1.653  17.061  0.2023  0.6633 -0.2800
  462TMC3     H 6882   1.788   1.427  17.015  1.3134  1.8698 -0.4037
  462TMC3    H1 6883   1.919   1.597  17.387 -0.2561 -0.1455 -0.0406
  462TMC3    H2 6884   2.055   1.212  17.257  1.3952  0.7652 -1.0789
  462TMC3    C7 6885   2.063   1.373  17.463  0.1396 -0.3313  0.2784
  462TMC3    C8 6886   1.883   1.192  17.062 -0.5264  0.5742 -0.0679
  462TMC3    O1 6887   2.106   1.259  17.475  0.2554 -0.3400 -0.5647
  462TMC3    O2 6888   1.769   1.181  17.028  0.7436 -0.0454  0.1723
  463MPD2     C 6889   3.948   0.422   2.065 -0.1957 -0.0980  0.2217
  463MPD2    C1 6890   3.835   0.499   2.048 -0.2618 -0.4332  0.8048
  463MPD2    C2 6891   3.843   0.604   1.951 -0.2160  0.6912  0.3223
  463MPD2    C3 6892   3.966   0.635   1.889 -0.0989 -0.3068  0.3402
  463MPD2    C4 6893   4.082   0.571   1.932 -0.0683  0.0276  0.1478
  463MPD2    C5 6894   4.070   0.460   2.011 -0.7687  0.5020 -0.1705
  463MPD2     H 6895   3.754   0.654   1.914 -1.7944 -2.0674  0.3772
  463MPD2    H1 6896   4.182   0.603   1.905  0.1920 -0.9251  0.0037
  463MPD2    H2 6897   3.946   0.333   2.126 -0.3613  0.4672  1.0431
  463MPD2    H3 6898   4.159   0.399   2.022 -0.4193  0.8664 -0.9411
  463MPD2     N 6899   3.984   0.728   1.783 -0.0132  0.0013 -0.0568
  463MPD2    H5 6900   4.079   0.750   1.755  0.2345  0.7251  1.3489
  463MPD2    N1 6901   3.705   0.461   2.080  0.9277 -0.0520  0.1706
  463MPD2    H7 6902   3.638   0.532   2.053  0.0228 -1.2470 -0.7135
  464TMC3    C1 6903   3.523   0.319   2.105  0.0028  0.5822 -1.0181
  464TMC3    C2 6904   3.443   0.419   2.055  0.6565  0.2081  0.6503
  464TMC3    C3 6905   3.317   0.385   2.038  0.6180 -0.5346  0.2876
  464TMC3    C4 6906   3.476   0.193   2.136  0.3676  0.1880 -0.4285
  464TMC3    C5 6907   3.343   0.165   2.114 -0.9093 -0.1654 -0.5118
  464TMC3    C6 6908   3.260   0.263   2.078  0.6603  0.1525  0.1253
  464TMC3     C 6909   3.666   0.329   2.113  0.3140 -0.1213  0.5309
  464TMC3     O 6910   3.730   0.240   2.166  0.1847  0.7057  0.1843
  464TMC3     H 6911   3.476   0.518   2.028  1.9281 -0.2562  0.5095
  464TMC3    H1 6912   3.543   0.115   2.171 -0.1846 -0.1239 -0.0666
  464TMC3    H2 6913   3.152   0.256   2.075  0.5615  1.6859  0.0236
  464TMC3    C7 6914   3.286   0.037   2.153 -0.6898 -0.4764 -0.2501
  464TMC3    C8 6915   3.222   0.498   2.031  0.0044  0.2286  0.1856
  464TMC3    O1 6916   3.346   4.702   2.239  0.5733 -0.1863 -0.0636
  464TMC3    O2 6917   3.108   0.473   1.996  0.2066  0.2500 -0.2827
  465MPD2     C 6918   4.267   3.417  17.120 -0.4731 -0.0199  1.0140
  465MPD2    C1 6919   4.181   3.474  17.210 -0.1646 -0.0444 -0.4836
  465MPD2    C2 6920   4.081   3.557  17.153  0.9684  0.0575 -0.2155
  465MPD2    C3 6921   4.067   3.578  17.014  0.2235 -0.5648  0.3356
  465MPD2    C4 6922   4.159   3.518  16.935 -0.2460 -0.1044  0.5072
  465MPD2    C5 6923   4.262   3.446  16.983  0.1696 -0.0878 -0.1843
  465MPD2     H 6924   4.004   3.575  17.227 -0.1961 -0.2771 -1.3535
  465MPD2    H1 6925   4.152   3.526  16.827 -0.4989  2.9292  0.7712
  465MPD2    H2 6926   4.348   3.354  17.156 -0.5521 -0.6179  0.1422
  465MPD2    H3 6927   4.337   3.405  16.916  0.7252  2.6738 -1.2367
  465MPD2     N 6928   3.958   3.653  16.963  0.3539 -0.5388  0.0999
  465MPD2    H5 6929   3.899   3.696  17.033 -1.0319 -0.1771 -1.2934
  465MPD2    N1 6930   4.181   3.452  17.350  0.6281 -0.1084 -0.2421
  465MPD2    H7 6931   4.125   3.518  17.403 -0.4904  0.1862 -1.7812
  466TMC3    C1 6932   3.644   3.904  16.911  0.1877  0.1700  0.0780
  466TMC3    C2 6933   3.651   3.987  16.807 -0.2508  0.1609  0.6197
  466TMC3    C3 6934   3.726   3.948  16.692 -0.7090  0.6390 -0.0596
  466TMC3    C4 6935   3.721   3.788  16.915 -0.4909  0.9707  0.0560
  466TMC3    C5 6936   3.809   3.760  16.812 -0.1240  0.1388  0.1574
  466TMC3    C6 6937   3.803   3.834  16.697 -1.0185 -0.4584 -0.4122
  466TMC3     C 6938   3.592   3.955  17.044  0.5358  0.6280 -0.7528
  466TMC3     O 6939   3.590   3.872  17.135  0.1661 -0.0066 -0.0623
  466TMC3     H 6940   3.579   4.067  16.795  0.5831  0.6607 -1.1533
  466TMC3    H1 6941   3.717   3.735  17.009 -1.3271  1.9054  0.5541
  466TMC3    H2 6942   3.879   3.817  16.621 -2.3508  0.3931 -1.9607
  466TMC3    C7 6943   3.926   3.672  16.830  0.2298 -0.8837  0.2853
  466TMC3    C8 6944   3.740   4.048  16.584 -0.2200 -0.2384  0.7260
  466TMC3    O1 6945   3.994   3.649  16.731  0.1753 -0.1402  0.0408
  466TMC3    O2 6946   3.797   4.016  16.482  0.2980 -0.2169  0.0985
  467TMC3    C1 6947   0.458   2.418  13.674 -0.2805 -0.2275  0.2368
  467TMC3    C2 6948   0.435   2.385  13.542  0.4070 -0.3391 -0.1924
  467TMC3    C3 6949   0.307   2.381  13.499  0.1584 -0.1817  0.7532
  467TMC3    C4 6950   0.362   2.453  13.755  0.2439  0.6453  0.1138
  467TMC3    C5 6951   0.235   2.438  13.715 -0.3746 -0.0019  0.7079
  467TMC3    C6 6952   0.199   2.395  13.591 -0.2923  0.4857 -0.0589
  467TMC3     C 6953   0.593   2.444  13.721 -0.7158 -0.4415 -0.1559
  467TMC3     O 6954   0.620   2.535  13.800 -0.3088  0.3871  0.1846
  467TMC3     H 6955   0.517   2.374  13.472 -0.0532  2.5281 -1.1736
  467TMC3    H1 6956   0.388   2.462  13.860 -1.2230 -1.2567  0.6232
  467TMC3    H2 6957   0.095   2.373  13.569 -0.0874  0.5382 -1.0839
  467TMC3    C7 6958   0.131   2.452  13.815 -0.3692  0.2478  0.0538
  467TMC3    C8 6959   0.279   2.299  13.384  0.0763  0.8074  0.3717
  467TMC3    O1 6960   0.168   2.412  13.923 -0.1175  0.0822 -1.1260
  467TMC3    O2 6961   0.202   2.204  13.400  1.1783 -0.1596  0.0367
  468MPD2     C 6962   4.514   1.443  10.606 -0.9115  0.0549  0.0961
  468MPD2    C1 6963   4.618   1.356  10.614 -0.0327 -0.6981 -0.1200
  468MPD2    C2 6964   4.601   1.219  10.629  0.0895 -0.1986  0.7143
  468MPD2    C3 6965   4.470   1.168  10.641 -0.1249 -0.4849 -0.5165
  468MPD2    C4 6966   4.368   1.263  10.648  0.8714 -0.4217  0.2717
  468MPD2    C5 6967   4.391   1.394  10.632  0.5655 -0.5815  1.1940
  468MPD2     H 6968   4.689   1.158  10.615 -0.5161 -1.2224  1.4287
  468MPD2    H1 6969   4.265   1.237  10.673  1.2816 -1.8657  0.4517
  468MPD2    H2 6970   4.529   1.549  10.591  0.7500  0.0084  1.4470
  468MPD2    H3 6971   4.305   1.460  10.623  0.4127 -0.9245  0.1602
  468MPD2     N 6972   4.437   1.030  10.641 -0.0009  0.5988  0.6005
  468MPD2    H5 6973   4.338   1.006  10.636  0.3258 -0.7330  0.5954
  468MPD2    N1 6974   0.017   1.414  10.584  0.1087  0.4103  0.7554
  468MPD2    H7 6975   0.021   1.513  10.561  2.1453 -0.4273 -2.4687
  469TMC3    C1 6976   0.255   1.441  10.597  0.9750 -0.0177 -0.3489
  469TMC3    C2 6977   0.369   1.404  10.662 -0.5651 -0.5038  0.2720
  469TMC3    C3 6978   0.496   1.437  10.608 -0.4566 -0.1981  0.2233
  469TMC3    C4 6979   0.266   1.519  10.481  0.5872  0.5449 -0.2174
  469TMC3    C5 6980   0.395   1.552  10.434 -0.0248 -0.4887 -0.2754
  469TMC3    C6 6981   0.508   1.514  10.493 -0.2720 -0.3418  0.2074
  469TMC3     C 6982   0.140   1.352  10.610  0.1770  0.4266  0.1966
  469TMC3     O 6983   0.172   1.241  10.652  0.3874  0.0824 -0.0208
  469TMC3     H 6984   0.356   1.337  10.746  0.5359  0.3505  1.1283
  469TMC3    H1 6985   0.170   1.529  10.430  1.2055  2.9724 -0.8873
  469TMC3    H2 6986   0.606   1.529  10.448 -0.6748  0.3874 -0.4175
  469TMC3    C7 6987   0.415   1.645  10.323 -0.0507  0.4974  0.1607
  469TMC3    C8 6988   0.621   1.384  10.665 -0.1346  0.1166  0.4069
  469TMC3    O1 6989   0.534   1.670  10.306 -0.3209  0.0732  0.0210
  469TMC3    O2 6990   0.730   1.439  10.662  0.1972  0.7363 -0.0952
  470TMC3    C1 6991   2.467   2.114   0.491  0.8133  0.2735 -0.5974
  470TMC3    C2 6992   2.365   2.180   0.561  0.0072 -0.3744 -0.6306
  470TMC3    C3 6993   2.303   2.114   0.661 -0.5398  0.2281  0.4026
  470TMC3    C4 6994   2.480   1.980   0.511  0.2925 -0.1256  0.1805
  470TMC3    C5 6995   2.395   1.917   0.596 -0.1064  0.5909 -0.3151
  470TMC3    C6 6996   2.322   1.982   0.688  0.4001  0.4176 -0.2979
  470TMC3     C 6997   2.563   2.190   0.416 -0.2704 -0.1470  0.0586
  470TMC3     O 6998   2.557   2.312   0.412 -0.0401  0.4685  0.1090
  470TMC3     H 6999   2.347   2.286   0.547 -2.2845 -0.2433  3.1809
  470TMC3    H1 7000   2.565   1.932   0.462 -0.2372 -0.8110 -0.0640
  470TMC3    H2 7001   2.263   1.935   0.765  0.8472 -0.1223 -0.2805
  470TMC3    C7 7002   2.442   1.783   0.624  0.2850 -0.2090 -0.1617
  470TMC3    C8 7003   2.199   2.186   0.741  0.4690 -0.4871  0.3742
  470TMC3    O1 7004   2.501   1.726   0.533 -0.1931 -0.2265 -0.4792
  470TMC3    O2 7005   2.170   2.139   0.850  0.0585 -0.2768 -0.3071
  471MPD2     C 7006   2.030   3.090  16.747 -0.6037 -0.3649 -0.7351
  471MPD2    C1 7007   2.043   2.960  16.711  0.2689  0.2795 -0.6238
  471MPD2    C2 7008   2.155   2.891  16.770  0.0855 -0.6802  0.3751
  471MPD2    C3 7009   2.240   2.953  16.857  0.0177  0.1282 -0.3239
  471MPD2    C4 7010   2.217   3.075  16.901  0.1282 -0.7010 -0.1491
  471MPD2    C5 7011   2.108   3.146  16.845 -0.6652  0.0518 -0.5208
  471MPD2     H 7012   2.164   2.786  16.744  0.9037 -0.8230  1.2102
  471MPD2    H1 7013   2.286   3.112  16.975 -1.1986  2.5988 -0.5506
  471MPD2    H2 7014   1.939   3.148  16.728 -1.2348 -1.5395 -1.2717
  471MPD2    H3 7015   2.085   3.243  16.889  1.2392 -0.4997  1.6776
  471MPD2     N 7016   2.341   2.881  16.920  0.6543  0.6236 -0.4283
  471MPD2    H5 7017   2.372   2.910  17.012  0.9133  0.5772 -0.4988
  471MPD2    N1 7018   1.957   2.888  16.626 -0.3868 -0.0078  1.0071
  471MPD2    H7 7019   1.967   2.788  16.616  1.4003  0.3366 -0.6565
  472TMC3    C1 7020   1.801   2.832  16.466  0.7799  0.8883 -0.0817
  472TMC3    C2 7021   1.666   2.835  16.447  0.3426 -0.8805 -0.7299
  472TMC3    C3 7022   1.604   2.726  16.389  0.6599 -0.4608 -0.4558
  472TMC3    C4 7023   1.878   2.730  16.430  0.1387 -0.4098 -0.4540
  472TMC3    C5 7024   1.810   2.623  16.374 -0.8559 -0.2395 -0.1267
  472TMC3    C6 7025   1.677   2.618  16.356 -0.7325 -0.4092 -0.7021
  472TMC3     C 7026   1.859   2.935  16.544 -0.6477  0.2083  0.1323
  472TMC3     O 7027   1.802   3.043  16.532  0.5124  0.2457 -0.3357
  472TMC3     H 7028   1.602   2.907  16.497  2.2641 -0.3044  0.9076
  472TMC3    H1 7029   1.986   2.726  16.425  0.0787  0.4529 -2.4205
  472TMC3    H2 7030   1.630   2.522  16.342  0.4711 -1.2260  0.9378
  472TMC3    C7 7031   1.886   2.496  16.350 -0.3161 -0.1659 -0.7869
  472TMC3    C8 7032   1.461   2.711  16.392  0.5704 -0.5057 -0.5178
  472TMC3    O1 7033   1.970   2.471  16.433 -0.2168 -0.2638 -0.3868
  472TMC3    O2 7034   1.402   2.794  16.460 -0.4596 -0.0294  0.1572
  473MPD2     C 7035   2.274   0.144  13.796 -0.8185  0.0225  0.2835
  473MPD2    C1 7036   2.180   0.245  13.782 -0.2206  0.0886 -0.4556
  473MPD2    C2 7037   2.187   0.348  13.876  0.0367 -0.2471  0.3644
  473MPD2    C3 7038   2.280   0.363  13.974 -0.6298  0.4770 -0.4918
  473MPD2    C4 7039   2.378   0.263  13.981 -0.6476 -0.4791 -0.5019
  473MPD2    C5 7040   2.370   0.157  13.896 -1.0515 -0.2062  0.3151
  473MPD2     H 7041   2.127   0.438  13.875  2.2724  1.2744  3.0707
  473MPD2    H1 7042   2.459   0.264  14.053 -1.1487  1.2892  0.0231
  473MPD2    H2 7043   2.280   0.055  13.734 -2.0352 -2.9996  4.5309
  473MPD2    H3 7044   2.443   0.081  13.919  1.8539  2.2803 -0.6808
  473MPD2     N 7045   2.271   0.476  14.059 -0.7976 -0.2098 -0.3847
  473MPD2    H5 7046   2.200   0.546  14.043 -0.7344 -0.0940 -0.1486
  473MPD2    N1 7047   2.088   0.255  13.677  0.7930 -0.4218  0.5370
  473MPD2    H7 7048   2.016   0.326  13.688 -0.5465 -2.0509  2.4133
  474TMC3    C1 7049   2.320   0.628  14.232 -0.1847  0.7040  0.0926
  474TMC3    C2 7050   2.194   0.676  14.217  0.7410  0.2051 -0.6116
  474TMC3    C3 7051   2.167   0.788  14.290 -0.0796  0.3460  0.7133
  474TMC3    C4 7052   2.411   0.678  14.325  0.4523  0.5934 -0.8799
  474TMC3    C5 7053   2.379   0.799  14.384 -0.1105  1.0653 -0.7473
  474TMC3    C6 7054   2.254   0.849  14.368  0.5876 -0.7617  0.2961
  474TMC3     C 7055   2.363   0.503  14.164 -0.3690 -0.7042 -0.5419
  474TMC3     O 7056   2.468   0.455  14.190 -0.0520  0.4101  0.4597
  474TMC3     H 7057   2.115   0.639  14.153 -0.8534  1.2032  0.7566
  474TMC3    H1 7058   2.510   0.633  14.333  0.0174 -0.3025 -0.5867
  474TMC3    H2 7059   2.227   0.930  14.436 -1.0254 -1.5681  0.6212
  474TMC3    C7 7060   2.431   0.816  14.520  0.2921 -0.6508  0.6139
  474TMC3    C8 7061   2.040   0.853  14.253 -0.0771 -0.2504 -0.0027
  474TMC3    O1 7062   2.402   0.920  14.580 -0.3166 -0.1686 -0.5032
  474TMC3    O2 7063   1.965   0.781  14.184  0.0566  0.0167  0.3419
  475MPD2     C 7064   0.611   3.234  11.013  0.1388 -0.2752  0.1350
  475MPD2    C1 7065   0.579   3.370  11.032 -0.1767 -0.1676 -0.3050
  475MPD2    C2 7066   0.450   3.416  10.997 -0.6470  0.2368  0.6580
  475MPD2    C3 7067   0.360   3.328  10.937  0.5076  0.5479 -0.7390
  475MPD2    C4 7068   0.401   3.200  10.896  0.6883  0.0835  0.2893
  475MPD2    C5 7069   0.524   3.151  10.944  0.2378 -0.2180  0.0626
  475MPD2     H 7070   0.428   3.519  11.022 -0.8402  0.3431  0.0618
  475MPD2    H1 7071   0.340   3.144  10.827  1.9005  0.0396 -0.7534
  475MPD2    H2 7072   0.709   3.196  11.038 -0.6907 -0.0077  3.7819
  475MPD2    H3 7073   0.562   3.051  10.925  1.3293  0.4098 -1.0684
  475MPD2     N 7074   0.237   3.385  10.890  0.1437 -0.0800 -0.2446
  475MPD2    H5 7075   0.211   3.481  10.910  0.4068  0.8574 -4.3600
  475MPD2    N1 7076   0.668   3.461  11.102  0.0181  0.2236 -0.6706
  475MPD2    H7 7077   0.631   3.544  11.147 -2.2594 -0.2047 -1.7691
  476TMC3    C1 7078   0.856   3.591  11.090 -0.2100  0.8938  0.1471
  476TMC3    C2 7079   0.918   3.640  10.977 -0.3778 -0.0847 -0.2161
  476TMC3    C3 7080   0.941   3.777  10.963 -0.9198  0.7014  0.2795
  476TMC3    C4 7081   0.825   3.670  11.196  0.3846  0.0235  0.2112
  476TMC3    C5 7082   0.856   3.807  11.184 -0.4790  0.0713 -0.9526
  476TMC3    C6 7083   0.911   3.865  11.067  0.0699  0.4236 -0.5550
  476TMC3     C 7084   0.801   3.453  11.081  1.5671 -0.7591  0.4870
  476TMC3     O 7085   0.863   3.384  10.999 -0.2551 -0.0764 -0.6193
  476TMC3     H 7086   0.972   3.579  10.905  0.9562  0.7081  0.1169
  476TMC3    H1 7087   0.780   3.633  11.287  0.3415  1.3336  0.7124
  476TMC3    H2 7088   0.950   3.966  11.071  2.4078 -0.4577 -1.2133
  476TMC3    C7 7089   0.878   3.862  11.313  0.1845 -0.0456 -0.2767
  476TMC3    C8 7090   0.932   3.835  10.832  0.4039  0.4231  0.3132
  476TMC3    O1 7091   0.890   3.788  11.408 -0.2664 -0.1416  0.7088
  476TMC3    O2 7092   0.932   3.959  10.828 -0.2596  0.6530  0.2640
  477MPD2     C 7093   3.079   0.835  11.893  0.1597  0.2091  0.7869
  477MPD2    C1 7094   3.084   0.740  11.789 -0.1717 -0.1615 -0.8243
  477MPD2    C2 7095   3.106   0.609  11.817 -0.0827 -0.1169 -0.1321
  477MPD2    C3 7096   3.125   0.574  11.950  0.4676 -0.0869 -0.5375
  477MPD2    C4 7097   3.127   0.669  12.055 -0.5414 -0.1134 -0.0317
  477MPD2    C5 7098   3.106   0.800  12.021  0.0561 -0.2057 -0.4160
  477MPD2     H 7099   3.107   0.533  11.740 -0.6862  0.1779 -0.4322
  477MPD2    H1 7100   3.153   0.650  12.158  1.6929  0.4432 -0.4865
  477MPD2    H2 7101   3.067   0.941  11.872 -0.8481  0.3869  2.2608
  477MPD2    H3 7102   3.116   0.873  12.100  0.2467 -0.7359  0.0485
  477MPD2     N 7103   3.138   0.433  11.980 -0.0279 -0.0828  0.3811
  477MPD2    H5 7104   3.168   0.372  11.906 -1.6317  0.7216 -0.9469
  477MPD2    N1 7105   3.052   0.791  11.656 -0.0627 -0.2203 -0.3209
  477MPD2    H7 7106   3.044   0.892  11.655  0.0357 -0.2086  0.2023
  478TMC3    C1 7107   2.996   0.786  11.427  0.4393  0.7569  0.2231
  478TMC3    C2 7108   2.884   0.866  11.446  0.7362 -0.0756  0.4314
  478TMC3    C3 7109   2.790   0.865  11.350  0.3806 -0.4120 -0.5438
  478TMC3    C4 7110   3.025   0.724  11.304  0.5165  0.4357 -0.7414
  478TMC3    C5 7111   2.937   0.747  11.200  0.1899  0.3633 -0.4149
  478TMC3    C6 7112   2.815   0.803  11.231 -0.1567  0.0900 -0.2603
  478TMC3     C 7113   3.060   0.716  11.541 -0.1102 -0.2904 -0.4721
  478TMC3     O 7114   3.107   0.604  11.519  0.2539  0.5037 -0.1788
  478TMC3     H 7115   2.853   0.907  11.542 -2.3276 -0.4515 -0.3887
  478TMC3    H1 7116   3.120   0.673  11.294  0.2067  0.0033 -1.4647
  478TMC3    H2 7117   2.743   0.806  11.150  1.4319  0.2979 -1.6521
  478TMC3    C7 7118   2.990   0.736  11.063  0.5534  0.7803  0.1480
  478TMC3    C8 7119   2.651   0.888  11.401 -0.0326  0.3846  0.2424
  478TMC3    O1 7120   3.095   0.673  11.053  0.1100  0.3367 -0.0751
  478TMC3    O2 7121   2.637   0.837  11.511 -0.2776  0.3491  0.0311
  479MPD2     C 7122   1.697   2.167  14.946  0.9824 -0.5125 -0.3738
  479MPD2    C1 7123   1.628   2.094  15.041 -0.4038  0.6754 -0.1876
  479MPD2    C2 7124   1.703   2.064  15.156 -0.1967 -0.3500  0.0902
  479MPD2    C3 7125   1.820   2.123  15.181  0.0724 -0.1625  0.0108
  479MPD2    C4 7126   1.888   2.191  15.081 -0.4752  0.3508 -0.1229
  479MPD2    C5 7127   1.820   2.223  14.967 -0.0558  0.1051 -0.2261
  479MPD2     H 7128   1.663   2.000  15.235 -0.1537 -0.3892  0.0802
  479MPD2    H1 7129   1.991   2.223  15.087  0.1671 -1.9689  1.2630
  479MPD2    H2 7130   1.647   2.209  14.860 -0.3216  3.2249  2.1810
  479MPD2    H3 7131   1.863   2.300  14.904  2.0658 -1.6775 -0.9700
  479MPD2     N 7132   1.884   2.113  15.308 -0.0319  0.7305  0.4932
  479MPD2    H5 7133   1.979   2.148  15.310  0.7197 -1.2722  0.0107
  479MPD2    N1 7134   1.499   2.044  15.011  0.7098  0.0188 -0.7261
  479MPD2    H7 7135   1.452   2.071  14.925 -1.7917 -0.6768  0.4365
  480TMC3    C1 7136   1.573   2.047  15.655  0.0228 -0.0237  0.2012
  480TMC3    C2 7137   1.485   2.142  15.604 -0.1912 -0.3129  0.4320
  480TMC3    C3 7138   1.529   2.223  15.503 -0.1648  0.7688 -0.2061
  480TMC3    C4 7139   1.682   2.011  15.592 -0.4451  0.5643  0.4140
  480TMC3    C5 7140   1.717   2.077  15.478 -0.2325 -0.9268  0.9270
  480TMC3    C6 7141   1.641   2.184  15.430  0.5060 -0.0568 -0.7940
  480TMC3     C 7142   1.515   1.953  15.749 -0.0104 -0.3660  0.4877
  480TMC3     O 7143   1.591   1.870  15.801  0.3930 -0.3107  0.0069
  480TMC3     H 7144   1.420   2.186  15.679  1.4527  0.9721  1.1306
  480TMC3    H1 7145   1.743   1.935  15.639 -0.7250  0.6479  0.9159
  480TMC3    H2 7146   1.680   2.248  15.352 -0.6992 -0.8439 -2.0243
  480TMC3    C7 7147   1.847   2.049  15.425 -0.3452  0.1038  0.8387
  480TMC3    C8 7148   1.422   2.294  15.419  0.0354  0.2170  0.5187
  480TMC3    O1 7149   1.920   2.010  15.517  0.6673  0.0081 -0.2552
  480TMC3    O2 7150   1.319   2.325  15.486 -0.3937  0.1289  0.0241
  481MPD2     C 7151   3.178   1.515  14.035  0.2086 -0.1581  0.1533
  481MPD2    C1 7152   3.062   1.458  14.086  0.0074 -0.1960 -0.1875
  481MPD2    C2 7153   3.055   1.431  14.225  0.0793 -0.2381  1.0584
  481MPD2    C3 7154   3.164   1.452  14.307  0.8116 -0.3446 -0.7583
  481MPD2    C4 7155   3.281   1.509  14.255 -0.4678  0.0420 -0.8368
  481MPD2    C5 7156   3.280   1.544  14.121  0.5587 -0.1904  0.2289
  481MPD2     H 7157   2.965   1.387  14.266 -1.1818 -0.9582 -2.4244
  481MPD2    H1 7158   3.358   1.542  14.323 -2.5034 -2.7014  2.8297
  481MPD2    H2 7159   3.182   1.531  13.928  0.2156 -1.1723  0.0107
  481MPD2    H3 7160   3.363   1.604  14.085  0.3124  0.1156  0.1688
  481MPD2     N 7161   3.160   1.422  14.446  0.0756  0.1940 -0.4168
  481MPD2    H5 7162   3.234   1.452  14.508  0.1798 -1.0953  0.0807
  481MPD2    N1 7163   2.956   1.443  13.999  0.0538 -0.1625  0.3253
  481MPD2    H7 7164   2.972   1.482  13.907  0.7778  0.4334  0.6909
  482TMC3    C1 7165   2.731   1.404  13.937 -0.0215 -0.3726  0.2289
  482TMC3    C2 7166   2.636   1.303  13.936  0.3539 -0.5490  1.0827
  482TMC3    C3 7167   2.519   1.326  13.876  0.1022 -0.0658 -0.8034
  482TMC3    C4 7168   2.713   1.520  13.879 -0.2694 -0.1738  0.4798
  482TMC3    C5 7169   2.586   1.544  13.827 -0.8124  0.0713  0.4254
  482TMC3    C6 7170   2.486   1.449  13.825 -0.0762 -0.0865 -0.0891
  482TMC3     C 7171   2.842   1.382  14.030  0.6039  0.2427 -0.2068
  482TMC3     O 7172   2.837   1.280  14.095  0.1886  0.4134 -0.2704
  482TMC3     H 7173   2.668   1.204  13.968 -0.3287 -2.3699 -3.8088
  482TMC3    H1 7174   2.783   1.599  13.907 -1.0677 -0.2283  2.6281
  482TMC3    H2 7175   2.394   1.475  13.775 -0.7035 -0.3344  0.9357
  482TMC3    C7 7176   2.552   1.671  13.767  0.0728 -0.0317  0.1635
  482TMC3    C8 7177   2.447   1.220  13.807  0.2803 -0.4094  0.0497
  482TMC3    O1 7178   2.437   1.686  13.721  0.1177  0.0571  0.4428
  482TMC3    O2 7179   2.524   1.131  13.776 -0.3317  1.2851 -0.0308
  483TMC3    C1 7180   1.051   0.103   0.572 -0.0536 -0.3315 -1.0702
  483TMC3    C2 7181   1.049   0.239   0.584 -0.1161 -0.1247  0.2260
  483TMC3    C3 7182   1.081   0.298   0.700 -0.4180 -0.3642 -0.1223
  483TMC3    C4 7183   1.080   0.019   0.677  0.1164 -0.2358 -0.1234
  483TMC3    C5 7184   1.103   0.079   0.800 -0.8119  0.0734  0.0170
  483TMC3    C6 7185   1.093   0.219   0.811  0.0561 -0.8139  0.0311
  483TMC3     C 7186   1.046   0.042   0.437  0.1250 -0.4435  0.3241
  483TMC3     O 7187   1.062   0.117   0.339  0.1421  0.1443 -0.1468
  483TMC3     H 7188   1.025   0.307   0.502  1.6394 -0.1868 -0.3343
  483TMC3    H1 7189   1.110   4.642   0.663  0.4668 -0.2225  0.5072
  483TMC3    H2 7190   1.119   0.263   0.907 -0.5137 -1.4575  0.4828
  483TMC3    C7 7191   1.213   0.026   0.876 -0.0149  0.4587  0.5439
  483TMC3    C8 7192   1.148   0.429   0.688  0.3693 -0.2330  0.7449
  483TMC3    O1 7193   1.295   4.685   0.812 -0.0739 -0.5493  0.2492
  483TMC3    O2 7194   1.176   0.467   0.574 -0.4920  0.7203  0.9391
  484MPD2     C 7195   3.739   3.910  12.478 -0.5475  0.1725  0.3514
  484MPD2    C1 7196   3.824   3.833  12.555 -0.2941  0.2675 -0.1634
  484MPD2    C2 7197   3.960   3.868  12.553  0.1133 -0.0451  0.5399
  484MPD2    C3 7198   4.013   3.975  12.478  0.2911  0.4298 -0.6553
  484MPD2    C4 7199   3.922   4.057  12.409 -0.8525  0.6971  0.4848
  484MPD2    C5 7200   3.786   4.020  12.406  0.3952 -0.2048  0.1526
  484MPD2     H 7201   4.020   3.792  12.603  1.5959 -0.1339 -1.3832
  484MPD2    H1 7202   3.943   4.154  12.365  0.8556  0.3359  0.4829
  484MPD2    H2 7203   3.634   3.885  12.485 -0.3563 -1.0744 -1.2889
  484MPD2    H3 7204   3.715   4.090  12.363 -1.1087 -2.4783 -1.0403
  484MPD2     N 7205   4.157   3.989  12.460  0.3950  0.0906 -0.8023
  484MPD2    H5 7206   4.210   3.919  12.511  0.3066 -0.6450 -1.7180
  484MPD2    N1 7207   3.772   3.727  12.632  0.1995  0.4281 -0.4857
  484MPD2    H7 7208   3.672   3.715  12.630  0.1917  0.5848 -1.0014
  485TMC3    C1 7209   4.367   4.078  12.409 -0.4866  0.2030  0.4575
  485TMC3    C2 7210   4.422   3.973  12.485  0.1201 -0.4816  0.3358
  485TMC3    C3 7211   4.555   3.997  12.514 -0.6467 -0.4465 -0.9817
  485TMC3    C4 7212   4.429   4.199  12.378  0.1799 -0.7446 -0.2054
  485TMC3    C5 7213   4.558   4.204  12.406  0.9742 -0.6534  0.0337
  485TMC3    C6 7214   4.620   4.107  12.476 -0.0038 -0.9162  0.5817
  485TMC3     C 7215   4.222   4.091  12.397  0.0682 -0.0564  0.9489
  485TMC3     O 7216   4.173   4.198  12.363  0.8616  0.4683 -0.4665
  485TMC3     H 7217   4.381   3.873  12.476  0.1218 -0.6883  2.7587
  485TMC3    H1 7218   4.387   4.277  12.316  0.9852 -0.6578 -0.6466
  485TMC3    H2 7219   4.725   4.114  12.499  0.6516 -0.8110 -2.4427
  485TMC3    C7 7220   4.643   4.256  12.294 -0.1811 -0.5567 -0.7280
  485TMC3    C8 7221   4.629   3.882  12.472 -0.1989  0.4067 -0.5706
  485TMC3    O1 7222   4.622   4.359  12.239  0.1108  0.0072  0.3126
  485TMC3    O2 7223   4.723   3.912  12.399 -0.1034  0.0377 -0.6257
  486MPD2     C 7224   1.261   2.434  13.084  0.6161  0.9337  0.1137
  486MPD2    C1 7225   1.218   2.446  12.955 -0.3270  0.4174 -0.0576
  486MPD2    C2 7226   1.205   2.572  12.898 -0.3732 -0.0610 -0.5953
  486MPD2    C3 7227   1.232   2.685  12.971  0.7212  0.3817  0.7519
  486MPD2    C4 7228   1.271   2.672  13.102  0.0902  0.3308 -0.4826
  486MPD2    C5 7229   1.289   2.544  13.151  0.6408  0.2788  0.3729
  486MPD2     H 7230   1.165   2.582  12.798 -0.7416  0.3688 -0.4055
  486MPD2    H1 7231   1.294   2.757  13.165 -0.1951  0.2974 -0.3343
  486MPD2    H2 7232   1.287   2.335  13.121 -1.6147  0.4796  0.4811
  486MPD2    H3 7233   1.334   2.539  13.250 -0.8652 -5.9020  0.7788
  486MPD2     N 7234   1.217   2.808  12.900  0.2981 -0.0441 -0.4028
  486MPD2    H5 7235   1.199   2.792  12.801  3.3506  0.7688 -1.0841
  486MPD2    N1 7236   1.187   2.328  12.879  0.0033 -0.7971  0.4475
  486MPD2    H7 7237   1.224   2.237  12.906  1.8391 -0.5556 -1.2143
  487TMC3    C1 7238   1.085   2.188  12.734  0.1392 -0.3158  0.4153
  487TMC3    C2 7239   0.949   2.173  12.713 -0.0629 -0.5555  0.1185
  487TMC3    C3 7240   0.896   2.062  12.652  0.4170  0.0054  0.5596
  487TMC3    C4 7241   1.180   2.097  12.697  0.2346  0.7657 -0.3946
  487TMC3    C5 7242   1.121   1.985  12.650  0.2937 -0.1301  0.1121
  487TMC3    C6 7243   0.987   1.960  12.628  0.0001 -0.1690 -0.0499
  487TMC3     C 7244   1.108   2.331  12.770  0.6760 -0.4384 -0.3909
  487TMC3     O 7245   1.028   2.416  12.723  1.0064 -0.6772  0.0080
  487TMC3     H 7246   0.886   2.245  12.764 -0.1138  0.2897 -1.1389
  487TMC3    H1 7247   1.283   2.128  12.712  0.5250 -1.3742  2.0645
  487TMC3    H2 7248   0.960   1.887  12.552  0.7864 -2.0076  1.4381
  487TMC3    C7 7249   1.170   1.868  12.729 -0.5901  0.2692  0.0029
  487TMC3    C8 7250   0.785   2.011  12.735  0.5799 -0.1244 -0.2256
  487TMC3    O1 7251   1.258   1.898  12.807  0.3012  0.2580  0.0521
  487TMC3    O2 7252   0.700   2.092  12.777  0.0349 -0.1762  0.1434
  488MPD2     C 7253   1.537   4.082  16.567  0.0276  0.2253 -0.0823
  488MPD2    C1 7254   1.466   4.202  16.542 -0.2557 -0.9180 -0.4955
  488MPD2    C2 7255   1.400   4.270  16.642  0.6933  0.5418 -0.3451
  488MPD2    C3 7256   1.412   4.220  16.773 -0.0384 -0.2311  0.5375
  488MPD2    C4 7257   1.475   4.093  16.795 -1.0535 -0.1653  0.4411
  488MPD2    C5 7258   1.534   4.020  16.692 -0.6735 -0.2716  0.1534
  488MPD2     H 7259   1.352   4.364  16.617  0.2108  0.8565  1.7310
  488MPD2    H1 7260   1.487   4.056  16.896  0.1500 -0.2502  0.2558
  488MPD2    H2 7261   1.591   4.030  16.489  0.3674  3.2986 -1.8693
  488MPD2    H3 7262   1.573   3.920  16.706 -0.5147 -0.5256 -2.1853
  488MPD2     N 7263   1.346   4.293  16.876 -0.2222 -0.1879  0.1934
  488MPD2    H5 7264   1.301   4.378  16.843 -1.9435 -0.7465  1.1058
  488MPD2    N1 7265   1.458   4.259  16.412 -0.1906  0.0658 -0.1871
  488MPD2    H7 7266   1.446   4.359  16.407 -0.0623  0.1021  0.2097
  489TMC3    C1 7267   1.280   4.367  17.073 -0.5723 -0.2058  0.6137
  489TMC3    C2 7268   1.159   4.391  17.020  0.0691  0.3797  0.0515
  489TMC3    C3 7269   1.095   4.512  17.039  0.3308 -0.0594 -0.0557
  489TMC3    C4 7270   1.330   4.445  17.176 -0.1170 -0.4452 -0.1408
  489TMC3    C5 7271   1.262   4.560  17.204 -0.4838  0.2939 -0.2638
  489TMC3    C6 7272   1.157   4.599  17.128  0.4884 -0.2906 -0.5389
  489TMC3     C 7273   1.360   4.265  17.007 -0.4320  0.2285  0.0181
  489TMC3     O 7274   1.437   4.192  17.071 -0.0417  0.6111  0.1894
  489TMC3     H 7275   1.119   4.314  16.956  1.0964 -0.5219  0.5007
  489TMC3    H1 7276   1.424   4.413  17.220 -0.1120  0.5371  0.5574
  489TMC3    H2 7277   1.114   4.696  17.152 -0.8693 -0.7307 -1.1906
  489TMC3    C7 7278   1.302   4.648  17.311  0.1508  0.5656 -0.3681
  489TMC3    C8 7279   1.073   4.572  16.909  0.8035 -0.2202  0.0335
  489TMC3    O1 7280   1.269   0.037  17.303  0.0519  0.7114  0.1362
  489TMC3    O2 7281   1.123   4.684  16.896 -0.2801 -0.2037  0.3250
  490MPD2     C 7282   2.180   3.887  17.202  0.0608  0.0580  0.2093
  490MPD2    C1 7283   2.270   3.784  17.223 -0.0878 -0.4765  0.2018
  490MPD2    C2 7284   2.398   3.823  17.271 -0.7616 -0.7934  0.0013
  490MPD2    C3 7285   2.426   3.956  17.284 -0.1533  0.1964  0.1792
  490MPD2    C4 7286   2.333   4.051  17.257  0.8629  0.5964 -0.3038
  490MPD2    C5 7287   2.206   4.018  17.216 -0.4745 -0.4748 -0.5685
  490MPD2     H 7288   2.458   3.740  17.305  1.0309  1.0777  1.3981
  490MPD2    H1 7289   2.352   4.158  17.265 -0.9678  0.7460  1.9241
  490MPD2    H2 7290   2.084   3.863  17.158 -0.4747 -0.1805  1.5091
  490MPD2    H3 7291   2.131   4.093  17.192 -0.3946 -0.1285  0.2556
  490MPD2     N 7292   2.551   3.981  17.347 -0.6729 -0.2733  0.0360
  490MPD2    H5 7293   2.605   3.906  17.388 -1.9606 -1.3166 -0.1706
  490MPD2    N1 7294   2.238   3.645  17.206  0.4741  0.0080  0.4105
  490MPD2    H7 7295   2.308   3.572  17.218  0.9924  0.5081  0.3934
  491TMC3    C1 7296   2.118   3.447  17.154 -0.0890 -0.5446  0.3216
  491TMC3    C2 7297   2.181   3.380  17.259  0.1555  0.1282 -0.1106
  491TMC3    C3 7298   2.130   3.262  17.302  0.3221 -0.4044 -0.5610
  491TMC3    C4 7299   2.006   3.395  17.096  0.0756 -0.7666 -0.1347
  491TMC3    C5 7300   1.962   3.272  17.148  0.1571  0.1433 -0.2922
  491TMC3    C6 7301   2.019   3.208  17.254  0.4493  0.1396  0.3784
  491TMC3     C 7302   2.118   3.597  17.153 -0.3333 -0.2142  0.5736
  491TMC3     O 7303   2.020   3.655  17.101  0.0082 -0.0291  0.1719
  491TMC3     H 7304   2.265   3.419  17.317 -1.6217  0.8911  1.9343
  491TMC3    H1 7305   1.964   3.447  17.011 -0.0602 -0.8057 -0.0922
  491TMC3    H2 7306   1.983   3.116  17.298 -0.4207  0.0802 -0.4529
  491TMC3    C7 7307   1.832   3.225  17.109 -0.2597 -0.5344 -0.2309
  491TMC3    C8 7308   2.190   3.209  17.420  0.4952  0.5023  0.8545
  491TMC3    O1 7309   1.789   3.128  17.171 -0.1884 -0.0375 -0.0193
  491TMC3    O2 7310   2.255   3.283  17.496 -0.1075  0.0319 -0.3918
  492MPD2     C 7311   2.722   3.865  11.343  0.1161  1.0630 -0.2596
  492MPD2    C1 7312   2.599   3.820  11.299 -1.1602  0.5107 -0.3907
  492MPD2    C2 7313   2.520   3.734  11.381  0.1458 -0.1758  0.2339
  492MPD2    C3 7314   2.558   3.717  11.516 -0.0396 -0.2203 -0.3341
  492MPD2    C4 7315   2.685   3.760  11.556 -0.0993 -0.1126  0.7764
  492MPD2    C5 7316   2.771   3.826  11.466 -0.0570  0.3701 -0.2518
  492MPD2     H 7317   2.431   3.691  11.336  0.0310 -1.6492  1.8471
  492MPD2    H1 7318   2.715   3.742  11.659 -1.1861 -0.8240  0.9762
  492MPD2    H2 7319   2.786   3.920  11.276  2.1652 -0.7307  0.2314
  492MPD2    H3 7320   2.864   3.869  11.503 -0.4195 -0.1373  1.2436
  492MPD2     N 7321   2.485   3.641  11.612  0.0614 -0.2962 -0.4031
  492MPD2    H5 7322   2.529   3.617  11.699  3.0210 -0.0044 -1.8068
  492MPD2    N1 7323   2.558   3.876  11.175 -0.5984 -0.6593 -0.2074
  492MPD2    H7 7324   2.623   3.945  11.141 -0.8252 -0.5069 -0.3346
  493TMC3    C1 7325   2.415   3.943  11.004  0.0537 -0.4444  0.9191
  493TMC3    C2 7326   2.522   4.017  10.960  0.3737 -0.1486 -0.1725
  493TMC3    C3 7327   2.501   4.102  10.854 -0.5841  0.7264 -0.3580
  493TMC3    C4 7328   2.294   3.945  10.941  0.6185  0.0294  0.5954
  493TMC3    C5 7329   2.274   4.040  10.844 -0.2644  0.1562  0.5532
  493TMC3    C6 7330   2.376   4.121  10.793 -0.0370  0.5217  0.3147
  493TMC3     C 7331   2.433   3.854  11.113  0.5305  1.2836 -0.1606
  493TMC3     O 7332   2.345   3.772  11.133 -0.1988  0.0689  0.5005
  493TMC3     H 7333   2.625   3.994  10.983  0.2608 -1.1613 -0.6904
  493TMC3    H1 7334   2.208   3.892  10.980  0.0512  1.3667  1.1829
  493TMC3    H2 7335   2.372   4.190  10.710 -0.3659  1.6339  1.2522
  493TMC3    C7 7336   2.164   4.031  10.756  0.9033  0.0212  0.2419
  493TMC3    C8 7337   2.591   4.209  10.851 -0.3351 -0.8119  0.2843
  493TMC3    O1 7338   2.156   4.124  10.681 -0.3854 -0.2758  0.0820
  493TMC3    O2 7339   2.642   4.237  10.958  0.3954  0.0029  0.0095
  494TMC3    C1 7340   3.177   0.782   0.860  0.0393 -0.4439 -0.3453
  494TMC3    C2 7341   3.246   0.675   0.906 -0.0504  0.7654 -0.4476
  494TMC3    C3 7342   3.317   0.597   0.815  0.2438 -0.2233 -0.1292
  494TMC3    C4 7343   3.188   0.826   0.728 -0.0262 -0.1556  0.4957
  494TMC3    C5 7344   3.253   0.747   0.645 -0.5888  0.1241  0.2490
  494TMC3    C6 7345   3.314   0.628   0.678 -0.5903 -0.3315 -0.1409
  494TMC3     C 7346   3.115   0.866   0.962  0.1285 -0.3043  0.1124
  494TMC3     O 7347   3.080   0.805   1.064 -0.2194 -0.5732 -0.6520
  494TMC3     H 7348   3.252   0.649   1.011 -0.4127  0.1496 -0.5772
  494TMC3    H1 7349   3.134   0.914   0.695 -0.2890 -1.3517 -2.3186
  494TMC3    H2 7350   3.356   0.561   0.603 -1.8446  1.5590 -2.5291
  494TMC3    C7 7351   3.256   0.778   0.502  0.0728  0.0140  0.1605
  494TMC3    C8 7352   3.362   0.467   0.858 -0.1203 -0.2324 -0.1818
  494TMC3    O1 7353   3.268   0.677   0.426  0.1570  0.4169 -0.0784
  494TMC3    O2 7354   3.322   0.430   0.968  0.0572  0.3456  0.2921
  495TMC3    C1 7355   1.660   2.459  14.475 -0.3199 -0.0946 -0.6743
  495TMC3    C2 7356   1.569   2.509  14.388 -0.3279  0.7573 -0.0590
  495TMC3    C3 7357   1.448   2.537  14.435  0.0229 -0.1337 -0.1121
  495TMC3    C4 7358   1.637   2.456  14.607 -0.1389  0.0812  0.2470
  495TMC3    C5 7359   1.512   2.474  14.649  0.3638 -0.2402  0.4915
  495TMC3    C6 7360   1.414   2.517  14.565 -0.0262  0.0971  0.3864
  495TMC3     C 7361   1.703   2.332  14.423 -0.0622  0.2400  0.0585
  495TMC3     O 7362   1.627   2.286  14.338 -0.0983 -0.2090  0.8045
  495TMC3     H 7363   1.603   2.531  14.288 -1.4157  1.4536 -0.2691
  495TMC3    H1 7364   1.716   2.418  14.671 -1.0036  1.0114  1.8277
  495TMC3    H2 7365   1.312   2.526  14.602  0.1497 -0.1970  0.9391
  495TMC3    C7 7366   1.487   2.451  14.785 -0.3624  0.2867 -0.1448
  495TMC3    C8 7367   1.346   2.499  14.338  0.1357 -0.3260  0.2151
  495TMC3    O1 7368   1.582   2.468  14.861 -0.3873  0.4048  0.5723
  495TMC3    O2 7369   1.236   2.545  14.357 -0.6273  0.6384  0.0962
  496MPD2     C 7370   3.399   2.102  15.116 -0.3779  0.9362 -0.7442
  496MPD2    C1 7371   3.474   2.039  15.216 -0.0225  0.2375  0.9801
  496MPD2    C2 7372   3.438   2.054  15.348  0.2078 -0.4051 -0.2100
  496MPD2    C3 7373   3.322   2.115  15.389 -0.2597  0.7442 -0.8015
  496MPD2    C4 7374   3.241   2.165  15.295  0.0341  0.2340 -0.3079
  496MPD2    C5 7375   3.289   2.170  15.165 -0.0114 -0.1311  0.4016
  496MPD2     H 7376   3.488   1.997  15.425  0.3328  0.4919  0.3632
  496MPD2    H1 7377   3.145   2.213  15.310  0.3483 -0.1489  3.0014
  496MPD2    H2 7378   3.430   2.103  15.012 -0.7298 -2.3506 -0.8815
  496MPD2    H3 7379   3.224   2.226  15.098  1.8892  1.6394  0.0222
  496MPD2     N 7380   3.267   2.101  15.520  0.0908 -0.1971 -0.1619
  496MPD2    H5 7381   3.168   2.097  15.544 -0.4308  0.0882 -2.2810
  496MPD2    N1 7382   3.578   1.962  15.172 -0.3761  0.0331 -0.7925
  496MPD2    H7 7383   3.585   1.935  15.074 -2.3675  0.1805 -0.9625
  497TMC3    C1 7384   3.317   2.004  15.735 -0.0210 -0.8947 -0.4512
  497TMC3    C2 7385   3.236   1.904  15.696 -0.2767  0.3938 -0.2590
  497TMC3    C3 7386   3.213   1.806  15.788 -0.5853 -0.1706  0.1926
  497TMC3    C4 7387   3.371   2.014  15.860 -0.1847 -0.7627  0.2300
  497TMC3    C5 7388   3.333   1.920  15.954  0.2996  0.0763  0.4188
  497TMC3    C6 7389   3.248   1.819  15.914 -0.0051  0.2039 -0.0318
  497TMC3     C 7390   3.353   2.088  15.629  0.0614 -0.1642  0.7368
  497TMC3     O 7391   3.469   2.128  15.635  0.4484  0.3372 -0.2368
  497TMC3     H 7392   3.196   1.888  15.597 -0.7577 -0.9733  0.1587
  497TMC3    H1 7393   3.448   2.090  15.869  1.0155 -1.9296 -0.3129
  497TMC3    H2 7394   3.206   1.756  15.991 -1.2670 -1.3956 -2.0182
  497TMC3    C7 7395   3.311   1.965  16.090  0.3294 -0.1098 -0.3472
  497TMC3    C8 7396   3.113   1.710  15.758 -0.1184 -0.0019 -0.0092
  497TMC3    O1 7397   3.249   1.893  16.170  0.1762 -0.0442  0.1079
  497TMC3    O2 7398   3.038   1.664  15.843 -0.2556 -0.1488 -0.3083
  498MPD2     C 7399   0.565   4.084   9.752 -0.2150  0.8923  0.0096
  498MPD2    C1 7400   0.572   3.979   9.843 -0.1306  1.0956 -0.3744
  498MPD2    C2 7401   0.460   3.944   9.913 -0.3067  0.1923  0.0350
  498MPD2    C3 7402   0.343   4.019   9.906  0.0534 -0.1322 -0.0846
  498MPD2    C4 7403   0.337   4.130   9.816 -0.2925 -0.2078  0.5675
  498MPD2    C5 7404   0.456   4.164   9.749 -0.1248  0.3592  0.1430
  498MPD2     H 7405   0.453   3.850   9.967  0.3147  1.3721  2.1556
  498MPD2    H1 7406   0.252   4.195   9.800  1.7831  2.7069  1.3152
  498MPD2    H2 7407   0.651   4.117   9.697 -0.5672 -1.7702 -2.0941
  498MPD2    H3 7408   0.456   4.254   9.688  1.0301  0.2196 -0.0528
  498MPD2     N 7409   0.228   3.966   9.972 -0.7784  0.3429  0.1513
  498MPD2    H5 7410   0.230   3.866   9.989 -0.9691  0.0688 -1.4364
  498MPD2    N1 7411   0.690   3.908   9.858  0.3069 -0.8681  0.5015
  498MPD2    H7 7412   0.684   3.829   9.922 -0.6504 -1.1588  0.0595
  499TMC3    C1 7413   0.916   3.841   9.863  0.1660  0.0564  0.2960
  499TMC3    C2 7414   0.876   3.719   9.913  0.0476 -0.0230  0.2339
  499TMC3    C3 7415   0.974   3.629   9.929 -0.2431 -0.5211 -0.2736
  499TMC3    C4 7416   1.049   3.867   9.832 -0.5428 -0.0722 -0.2207
  499TMC3    C5 7417   1.143   3.779   9.855 -0.5501 -0.2184 -0.2962
  499TMC3    C6 7418   1.108   3.656   9.891 -0.9579  0.1762  0.4590
  499TMC3     C 7419   0.817   3.940   9.817 -0.3971 -0.0689  1.1041
  499TMC3     O 7420   0.859   4.045   9.774 -0.1527  0.4932  0.1715
  499TMC3     H 7421   0.776   3.687   9.939 -0.2435  0.2682 -0.5560
  499TMC3    H1 7422   1.076   3.958   9.779  1.2693  0.1453  1.0447
  499TMC3    H2 7423   1.174   3.584   9.937 -0.7585 -0.4076 -0.7274
  499TMC3    C7 7424   1.274   3.801   9.801 -0.7525  0.6242  0.4381
  499TMC3    C8 7425   0.950   3.511  10.006 -0.1577  0.7232  0.8125
  499TMC3    O1 7426   1.299   3.908   9.743  0.2169  0.7390  0.4507
  499TMC3    O2 7427   0.836   3.466   9.990 -0.1063  0.0632 -0.3082
  500MPD2     C 7428   1.721   0.146  10.808 -0.4047  0.6802  0.1047
  500MPD2    C1 7429   1.751   0.185  10.676  0.4655  0.0563  0.5141
  500MPD2    C2 7430   1.646   0.197  10.584  0.0057 -0.3574 -0.2276
  500MPD2    C3 7431   1.522   0.147  10.617 -0.0296  0.4167  0.5861
  500MPD2    C4 7432   1.499   0.096  10.748  0.1803  0.0786 -0.0467
  500MPD2    C5 7433   1.595   0.111  10.845 -0.6186  0.0618 -0.3135
  500MPD2     H 7434   1.679   0.224  10.484 -0.7949  2.1339  0.1744
  500MPD2    H1 7435   1.402   0.060  10.779  0.1269  0.1692 -0.1082
  500MPD2    H2 7436   1.793   0.144  10.889 -0.7399 -0.5927  0.3716
  500MPD2    H3 7437   1.583   0.086  10.950 -2.1766  0.7603 -0.3287
  500MPD2     N 7438   1.407   0.134  10.532  0.1304  0.1070 -0.2712
  500MPD2    H5 7439   1.324   0.095  10.576 -0.5253  1.9238  0.1094
  500MPD2    N1 7440   1.883   0.214  10.630 -0.3426  0.5902  0.3765
  500MPD2    H7 7441   1.880   0.249  10.534 -3.7432 -1.1979 -0.1749
  501TMC3    C1 7442   2.119   0.257  10.641 -0.0745  0.4826 -0.4010
  501TMC3    C2 7443   2.109   0.350  10.544 -0.1943  1.2000  0.1264
  501TMC3    C3 7444   2.233   0.397  10.500  0.0232  0.1729  0.0695
  501TMC3    C4 7445   2.234   0.209  10.683  0.9858  0.2521 -0.0580
  501TMC3    C5 7446   2.353   0.268  10.641  0.1009 -0.0977  0.0305
  501TMC3    C6 7447   2.357   0.361  10.538  0.0100 -0.0111 -0.7578
  501TMC3     C 7448   2.002   0.192  10.700 -0.5003 -0.3113 -0.3633
  501TMC3     O 7449   2.011   0.134  10.805  0.1821 -0.4631 -0.3286
  501TMC3     H 7450   2.014   0.393  10.512 -1.3742  1.1597  3.5685
  501TMC3    H1 7451   2.236   0.133  10.761 -0.4323 -0.7126 -0.9741
  501TMC3    H2 7452   2.448   0.392  10.487  0.7208  0.6379  0.9010
  501TMC3    C7 7453   2.459   0.267  10.743  0.0951 -0.2040  0.0538
  501TMC3    C8 7454   2.230   0.490  10.390 -0.4946  0.1408  1.2788
  501TMC3    O1 7455   2.427   0.199  10.838  0.0581  0.0537 -0.0885
  501TMC3    O2 7456   2.132   0.557  10.374 -0.0295  0.0819 -0.4205
  502TMC3    C1 7457   1.240   3.047  15.379  0.1195  0.1032  0.1212
  502TMC3    C2 7458   1.260   3.137  15.277  0.5611  0.0228 -0.3974
  502TMC3    C3 7459   1.170   3.139  15.168 -0.0809  0.0891 -0.0413
  502TMC3    C4 7460   1.130   2.968  15.374 -0.1873  0.3183 -0.0791
  502TMC3    C5 7461   1.044   2.984  15.272  0.3431  0.0491  0.2333
  502TMC3    C6 7462   1.067   3.054  15.158  0.9595  0.0058 -0.1427
  502TMC3     C 7463   1.316   3.055  15.506  0.4544  0.0663 -0.3334
  502TMC3     O 7464   1.433   3.071  15.494 -0.3272 -0.0838  0.3932
  502TMC3     H 7465   1.344   3.204  15.288  0.8576 -0.1590 -1.5222
  502TMC3    H1 7466   1.091   2.928  15.467  0.6923  0.1520  0.2119
  502TMC3    H2 7467   0.993   3.057  15.079  2.4991  0.4687 -1.5517
  502TMC3    C7 7468   0.908   2.936  15.291  0.0724  0.3205 -0.6827
  502TMC3    C8 7469   1.201   3.238  15.063  0.2264  0.4179  0.0476
  502TMC3    O1 7470   0.892   2.837  15.364 -0.6411 -0.2425  0.0545
  502TMC3    O2 7471   1.215   3.357  15.090  0.3431 -0.1427  0.1188
  503MPD2     C 7472   3.122   4.175  17.071 -0.5547 -0.6570 -0.6168
  503MPD2    C1 7473   3.223   4.230  17.143  0.2591 -0.6953 -0.4635
  503MPD2    C2 7474   3.287   4.149  17.238 -0.3812  0.1802 -0.3164
  503MPD2    C3 7475   3.254   4.016  17.264  0.5807 -0.2991 -0.0814
  503MPD2    C4 7476   3.159   3.960  17.188  0.1065  0.2517  0.1694
  503MPD2    C5 7477   3.092   4.046  17.099  0.1197  0.4865 -0.0017
  503MPD2     H 7478   3.375   4.197  17.279 -0.3126  0.3407 -0.6462
  503MPD2    H1 7479   3.130   3.856  17.203  3.0614 -0.7244 -0.9361
  503MPD2    H2 7480   3.053   4.231  17.009 -0.4734 -0.4438 -0.5153
  503MPD2    H3 7481   3.010   4.006  17.041  0.3701 -1.6155  1.1081
  503MPD2     N 7482   3.342   3.933  17.332 -0.1486 -0.0467  0.2322
  503MPD2    H5 7483   3.422   3.976  17.377  1.5836 -0.1465 -2.7117
  503MPD2    N1 7484   3.240   4.369  17.130  0.3841  0.2861  0.2074
  503MPD2    H7 7485   3.281   4.416  17.211  0.2378  0.4606  0.1806
  504TMC3    C1 7486   3.445   3.743  17.421  0.2413 -0.1073  0.5955
  504TMC3    C2 7487   3.478   3.807  17.538 -0.6008 -0.4626  0.0334
  504TMC3    C3 7488   3.583   3.754  17.610 -0.3583  0.5308  0.4778
  504TMC3    C4 7489   3.520   3.640  17.381 -0.1166  0.2740 -0.5962
  504TMC3    C5 7490   3.629   3.598  17.449 -0.3708  0.1354 -0.6386
  504TMC3    C6 7491   3.657   3.645  17.567 -0.1517 -0.2360 -0.4417
  504TMC3     C 7492   3.346   3.794  17.325 -0.6041  0.5668  0.1645
  504TMC3     O 7493   3.295   3.720  17.241 -0.1608  0.4308 -0.1187
  504TMC3     H 7494   3.421   3.893  17.572  0.6719  0.3209  0.1754
  504TMC3    H1 7495   3.496   3.602  17.282  0.0059 -1.0577 -0.1145
  504TMC3    H2 7496   3.748   3.611  17.616  0.4936  2.9973  0.5950
  504TMC3    C7 7497   3.715   3.507  17.376 -0.2758 -0.0823  0.3203
  504TMC3    C8 7498   3.595   3.791   0.042  0.0245  0.1646  0.1569
  504TMC3    O1 7499   3.690   3.494  17.255  0.1441 -0.0155 -0.1042
  504TMC3    O2 7500   3.557   3.906   0.068 -0.2222  0.1276 -0.0504
  505MPD2     C 7501   3.965   3.383  10.613  0.3909 -0.1071 -1.7183
  505MPD2    C1 7502   3.974   3.293  10.511  0.0928  0.2653  0.6127
  505MPD2    C2 7503   4.079   3.200  10.513 -0.4106 -0.3007  0.3617
  505MPD2    C3 7504   4.175   3.200  10.613  0.6347  0.9560  0.1544
  505MPD2    C4 7505   4.158   3.295  10.718  0.2231 -0.2664 -0.3152
  505MPD2    C5 7506   4.049   3.383  10.716  0.0167  0.2237 -0.1886
  505MPD2     H 7507   4.083   3.129  10.431 -2.9477 -0.5573  0.4525
  505MPD2    H1 7508   4.217   3.300  10.809  0.1443 -0.3030 -0.2628
  505MPD2    H2 7509   3.885   3.457  10.605  0.0736 -0.0425  2.0544
  505MPD2    H3 7510   4.036   3.463  10.789 -1.6510 -1.4197  1.3244
  505MPD2     N 7511   4.276   3.106  10.609 -0.5917 -0.1593 -1.0584
  505MPD2    H5 7512   4.259   3.037  10.537 -1.0741  0.8887 -1.9455
  505MPD2    N1 7513   3.874   3.297  10.407 -0.2610  0.0696  0.2970
  505MPD2    H7 7514   3.802   3.368  10.412 -1.7961 -1.4596 -0.4733
  506TMC3    C1 7515   3.778   3.239  10.204 -0.4056 -0.0808 -0.1876
  506TMC3    C2 7516   3.811   3.359  10.147  0.8189  0.7318  0.7232
  506TMC3    C3 7517   3.801   3.365  10.010 -0.8085  0.6083 -0.2263
  506TMC3    C4 7518   3.767   3.125  10.128 -0.0189  0.0903 -0.3913
  506TMC3    C5 7519   3.771   3.136   9.992  0.2873  0.6283 -0.9154
  506TMC3    C6 7520   3.775   3.261   9.928  0.0199 -0.6646  0.1054
  506TMC3     C 7521   3.863   3.204  10.311 -0.0817 -0.3464  0.0581
  506TMC3     O 7522   3.920   3.098  10.297 -0.2349  0.3230 -0.0508
  506TMC3     H 7523   3.813   3.450  10.206  1.2080  1.9522 -1.1872
  506TMC3    H1 7524   3.739   3.033  10.178 -0.9705  0.1037 -0.8965
  506TMC3    H2 7525   3.793   3.269   9.821 -2.3888  0.0442 -0.2326
  506TMC3    C7 7526   3.855   3.035   9.925 -0.1695  0.0619 -0.3379
  506TMC3    C8 7527   3.831   3.488   9.945  0.2619  0.2661 -0.6698
  506TMC3    O1 7528   3.868   3.035   9.802  0.8216 -0.2886 -0.0965
  506TMC3    O2 7529   3.805   3.502   9.825  0.2860  0.1920 -0.1743
  507TMC3    C1 7530   4.364   3.409  14.632  0.3641 -0.0309 -0.0937
  507TMC3    C2 7531   4.478   3.372  14.571  0.4230  0.1274  0.0551
  507TMC3    C3 7532   4.590   3.453  14.583  0.5818 -0.5536 -0.0869
  507TMC3    C4 7533   4.360   3.513  14.726 -0.9394  0.9734  0.0917
  507TMC3    C5 7534   4.476   3.586  14.741 -0.0511 -0.8850 -0.1852
  507TMC3    C6 7535   4.593   3.555  14.675 -0.6546 -0.3045  0.3912
  507TMC3     C 7536   4.249   3.392  14.550  0.4014 -0.1063  0.3587
  507TMC3     O 7537   4.252   3.296  14.474  0.0485 -0.2185  0.5712
  507TMC3     H 7538   4.480   3.288  14.502 -0.8268 -0.7622  1.0797
  507TMC3    H1 7539   4.272   3.551  14.776 -0.9650 -1.0372  1.5805
  507TMC3    H2 7540   4.680   3.619  14.682 -0.2048 -0.8368 -0.4302
  507TMC3    C7 7541   4.447   3.718  14.709  0.1967  0.6531 -0.9846
  507TMC3    C8 7542   4.600   3.526  14.457  0.1745  0.4106 -0.0193
  507TMC3    O1 7543   4.358   3.740  14.633  0.0770  0.4106 -0.0576
  507TMC3    O2 7544   4.662   3.632  14.459 -0.2720  0.3718  0.0419
  508MPD2     C 7545   0.090   0.743  15.805 -0.4638 -0.0002  0.4159
  508MPD2    C1 7546   0.139   0.847  15.874  0.3562 -0.2985 -0.1678
  508MPD2    C2 7547   0.128   0.970  15.813 -0.3023  0.1469  0.2673
  508MPD2    C3 7548   0.071   0.985  15.686 -0.4313 -0.3128  1.0297
  508MPD2    C4 7549   0.028   0.870  15.618  0.2970 -0.4054 -0.0826
  508MPD2    C5 7550   0.030   0.754  15.678  0.5043  0.0123  0.2634
  508MPD2     H 7551   0.175   1.060  15.851  1.1598 -0.4080 -0.2345
  508MPD2    H1 7552   0.002   0.877  15.513  2.2513 -1.6365 -0.6423
  508MPD2    H2 7553   0.102   0.642  15.843  0.5912  0.7802  2.1766
  508MPD2    H3 7554   4.722   0.669  15.618 -1.0467 -1.0008  2.5857
  508MPD2     N 7555   0.068   1.114  15.630 -0.0187  0.0869 -0.1669
  508MPD2    H5 7556   0.117   1.188  15.681  0.2020  1.1652 -1.9433
  508MPD2    N1 7557   0.215   0.832  15.990 -0.3633  1.0738  0.4216
  508MPD2    H7 7558   0.244   0.736  16.010  0.5972  1.0091 -1.2294
  509TMC3    C1 7559   4.699   1.506  15.527  0.1224  0.1723  0.1402
  509TMC3    C2 7560   0.092   1.542  15.464 -0.8122  0.7846  0.6998
  509TMC3    C3 7561   0.166   1.439  15.409 -0.3501  0.2102 -0.1539
  509TMC3    C4 7562   4.658   1.377  15.536  0.2832  0.0890 -0.5739
  509TMC3    C5 7563   0.008   1.280  15.477  0.3048  0.1510 -0.9389
  509TMC3    C6 7564   0.126   1.312  15.409  0.1209  0.0232 -0.7455
  509TMC3     C 7565   4.595   1.610  15.545 -0.3719  0.4104 -0.3798
  509TMC3     O 7566   4.504   1.578  15.620  0.0197 -0.0665  0.0758
  509TMC3     H 7567   0.122   1.645  15.451 -0.3459  0.4711 -0.7965
  509TMC3    H1 7568   4.569   1.355  15.594  0.5357  0.2250 -0.1370
  509TMC3    H2 7569   0.185   1.229  15.371  1.0437  1.0753 -1.6481
  509TMC3    C7 7570   4.719   1.143  15.515  0.2663  0.5098  0.0344
  509TMC3    C8 7571   0.309   1.464  15.377  0.6138 -0.1155  0.0793
  509TMC3    O1 7572   4.640   1.070  15.458 -0.1132 -0.0399 -0.5072
  509TMC3    O2 7573   0.371   1.376  15.322 -0.5775 -0.2038  0.0727
  510MPD2     C 7574   3.176   2.970  14.290  0.1491  0.7904 -0.5071
  510MPD2    C1 7575   3.225   2.861  14.369 -0.5565 -0.2095  0.1496
  510MPD2    C2 7576   3.359   2.819  14.347 -0.0684 -0.0537 -0.3638
  510MPD2    C3 7577   3.437   2.883  14.258 -0.7507  0.5523  0.0108
  510MPD2    C4 7578   3.388   2.990  14.188  0.3119 -0.6848 -0.5752
  510MPD2    C5 7579   3.261   3.039  14.209  0.6755  0.3392 -0.3715
  510MPD2     H 7580   3.385   2.736  14.412  2.1540  0.4178 -0.6666
  510MPD2    H1 7581   3.450   3.051  14.123  0.4336 -0.9313 -0.6893
  510MPD2    H2 7582   3.078   3.009  14.313 -0.1219 -0.5826  0.6880
  510MPD2    H3 7583   3.223   3.127  14.160 -0.2351 -0.6303 -1.4075
  510MPD2     N 7584   3.568   2.831  14.240  0.1954  0.0493 -0.3077
  510MPD2    H5 7585   3.598   2.774  14.318 -0.2831  0.1204 -0.0687
  510MPD2    N1 7586   3.127   2.807  14.456 -0.2919 -0.8489 -0.5134
  510MPD2    H7 7587   3.033   2.844  14.451  0.6636  1.6074 -0.3166
  511TMC3    C1 7588   3.026   2.650  14.603  0.2756 -1.1933 -0.7093
  511TMC3    C2 7589   2.923   2.727  14.642 -0.0836 -0.3935 -0.1729
  511TMC3    C3 7590   2.812   2.664  14.690 -0.0916  0.5680  0.6739
  511TMC3    C4 7591   3.018   2.516  14.612  0.5027 -0.2404 -0.8467
  511TMC3    C5 7592   2.907   2.452  14.649  0.2367 -0.2906  0.4508
  511TMC3    C6 7593   2.803   2.528  14.692  0.3963  0.4190  0.4841
  511TMC3     C 7594   3.152   2.701  14.541  0.3468  0.3388  0.0631
  511TMC3     O 7595   3.248   2.627  14.539  0.1738 -0.3776 -0.3542
  511TMC3     H 7596   2.944   2.833  14.653  0.8630 -0.7389  1.4162
  511TMC3    H1 7597   3.099   2.450  14.584  1.3385  0.5639 -0.3270
  511TMC3    H2 7598   2.708   2.484  14.720  0.7079  0.1149  1.0683
  511TMC3    C7 7599   2.904   2.311  14.619  0.4530 -0.1161  0.3046
  511TMC3    C8 7600   2.715   2.742  14.768 -0.0371 -0.1391 -0.5571
  511TMC3    O1 7601   2.970   2.272  14.522 -0.4873  0.4596 -0.8155
  511TMC3    O2 7602   2.746   2.851  14.814 -0.7583  0.1493 -0.2784
  512TMC3    C1 7603   1.663   2.473  13.084 -0.4019 -0.8751 -0.0692
  512TMC3    C2 7604   1.676   2.416  13.204  0.7914 -0.1419 -0.2503
  512TMC3    C3 7605   1.661   2.280  13.209 -0.1412 -0.1316  0.6552
  512TMC3    C4 7606   1.632   2.400  12.972 -0.6368  0.0476 -0.6650
  512TMC3    C5 7607   1.628   2.267  12.984 -0.7208 -0.1430  0.5508
  512TMC3    C6 7608   1.641   2.203  13.101  0.5874  0.8009 -0.4017
  512TMC3     C 7609   1.673   2.616  13.080 -0.1454  0.3419  0.8078
  512TMC3     O 7610   1.720   2.681  13.173  0.0561  0.4361  0.3398
  512TMC3     H 7611   1.694   2.480  13.290  0.2038 -1.2009  0.6616
  512TMC3    H1 7612   1.618   2.454  12.880  0.0433  2.2110  0.4950
  512TMC3    H2 7613   1.624   2.096  13.112 -0.5926  0.8750 -1.4518
  512TMC3    C7 7614   1.604   2.194  12.856  0.1450 -0.3443  0.5030
  512TMC3    C8 7615   1.704   2.208  13.323  0.2265  0.8706  0.2624
  512TMC3    O1 7616   1.562   2.267  12.766  0.0942 -0.8797 -0.1325
  512TMC3    O2 7617   1.658   2.093  13.338 -0.1608  0.0130 -0.3496
  513MPD2     C 7618   3.616   2.635  12.028 -0.4892 -0.7289 -0.1586
  513MPD2    C1 7619   3.593   2.502  12.072 -0.6906  1.1666  0.1357
  513MPD2    C2 7620   3.537   2.486  12.204  0.0990 -0.2663 -0.1576
  513MPD2    C3 7621   3.528   2.593  12.291 -0.4437 -0.0663  0.5953
  513MPD2    C4 7622   3.549   2.724  12.243  0.0961  0.3972  0.0448
  513MPD2    C5 7623   3.595   2.738  12.113  0.3288  0.0950 -0.2768
  513MPD2     H 7624   3.515   2.389  12.248  0.2863 -0.0187  0.4855
  513MPD2    H1 7625   3.545   2.807  12.313 -0.8538  0.1957  0.2372
  513MPD2    H2 7626   3.661   2.654  11.931 -0.9667  0.0911 -0.2129
  513MPD2    H3 7627   3.631   2.837  12.085 -0.3471  0.7008  1.0165
  513MPD2     N 7628   3.489   2.553  12.425  0.9656 -0.0690  0.0708
  513MPD2    H5 7629   3.479   2.453  12.439 -2.2892  0.3618  0.8146
  513MPD2    N1 7630   3.643   2.399  11.990 -0.7275 -0.4390  0.0541
  513MPD2    H7 7631   3.699   2.422  11.909  1.0527 -1.3186  1.0346
  514TMC3    C1 7632   3.693   2.183  11.931  0.0989 -0.1124 -0.6504
  514TMC3    C2 7633   3.812   2.223  11.875 -0.3567  0.1593 -0.1535
  514TMC3    C3 7634   3.907   2.121  11.850  0.0776  0.2277  0.4715
  514TMC3    C4 7635   3.681   2.053  11.968  0.2287 -0.3112  0.3156
  514TMC3    C5 7636   3.784   1.961  11.963  1.2251 -0.2034  0.4992
  514TMC3    C6 7637   3.898   1.993  11.893 -0.4397  0.4967 -0.2627
  514TMC3     C 7638   3.627   2.268  12.023 -0.0396  0.3274  0.1529
  514TMC3     O 7639   3.612   2.220  12.135 -0.0207  0.0860  0.7506
  514TMC3     H 7640   3.817   2.319  11.825 -1.0864 -0.2789 -1.0658
  514TMC3    H1 7641   3.586   2.029  12.013  0.6428  0.8730  1.7919
  514TMC3    H2 7642   3.982   1.924  11.891 -1.3305 -0.6158  0.4336
  514TMC3    C7 7643   3.810   1.906  12.097 -0.4353  0.6891 -0.0677
  514TMC3    C8 7644   4.002   2.152  11.745  0.3455  0.2232 -0.0803
  514TMC3    O1 7645   3.914   1.845  12.113  0.1831 -0.1068  0.1538
  514TMC3    O2 7646   4.023   2.274  11.740 -0.4157 -0.1619 -0.0480
  515MPD2     C 7647   1.858   3.941  15.302 -0.0374 -0.2823  0.0648
  515MPD2    C1 7648   1.903   3.913  15.177  0.3521  0.3610 -1.0335
  515MPD2    C2 7649   2.031   3.955  15.144  0.4917  0.0525 -0.6269
  515MPD2    C3 7650   2.103   4.030  15.237  0.5053 -0.3709 -0.0817
  515MPD2    C4 7651   2.060   4.038  15.367 -0.4034 -0.4612 -0.5282
  515MPD2    C5 7652   1.937   3.994  15.396 -0.4279  0.5595  0.2338
  515MPD2     H 7653   2.058   3.932  15.041  1.2290 -0.4210 -0.3266
  515MPD2    H1 7654   2.105   4.092  15.449 -3.4853  1.3387 -0.0532
  515MPD2    H2 7655   1.760   3.918  15.344  0.9725  0.2906  2.6979
  515MPD2    H3 7656   1.906   4.013  15.498 -2.5462 -0.4325 -0.2288
  515MPD2     N 7657   2.208   4.114  15.202 -0.0496 -0.3835 -0.0129
  515MPD2    H5 7658   2.264   4.146  15.280  0.5004  1.5220 -1.1887
  515MPD2    N1 7659   1.826   3.841  15.089 -0.0019  0.0565 -0.0157
  515MPD2    H7 7660   1.855   3.841  14.992  1.0321 -0.0493  0.2966
  516TMC3    C1 7661   1.687   3.667  15.001  0.5617 -0.4081  0.2663
  516TMC3    C2 7662   1.703   3.712  14.868 -0.3499 -0.1868 -0.2599
  516TMC3    C3 7663   1.683   3.619  14.769 -0.7620  0.1399 -0.5140
  516TMC3    C4 7664   1.651   3.538  15.026  0.0260  0.1007  0.7959
  516TMC3    C5 7665   1.622   3.452  14.925  0.4721 -0.8858  0.2675
  516TMC3    C6 7666   1.638   3.487  14.798 -0.0220  0.1358  0.0517
  516TMC3     C 7667   1.734   3.745  15.115  0.6571 -0.0088 -0.3789
  516TMC3     O 7668   1.712   3.707  15.231 -0.5455 -0.0118  0.1885
  516TMC3     H 7669   1.716   3.819  14.850  1.7737 -0.3261  0.4435
  516TMC3    H1 7670   1.651   3.503  15.128  0.2913  3.4473  1.9644
  516TMC3    H2 7671   1.617   3.422  14.714  0.1338 -1.1890  1.0473
  516TMC3    C7 7672   1.572   3.322  14.969  0.4251 -0.2602  0.6332
  516TMC3    C8 7673   1.686   3.658  14.632 -0.5177  0.1233  0.2277
  516TMC3    O1 7674   1.543   3.322  15.086 -0.1842 -0.4592 -0.7415
  516TMC3    O2 7675   1.595   3.612  14.559 -0.1874  0.0468 -0.1492
  517MPD2     C 7676   1.296   0.632  17.532 -0.2040  0.1783 -0.7492
  517MPD2    C1 7677   1.436   0.642  17.532  0.8062 -1.0901 -0.2380
  517MPD2    C2 7678   1.503   0.719  17.624 -0.5456  1.1700  0.6345
  517MPD2    C3 7679   1.431   0.777   0.022  0.3792 -0.2615  0.2744
  517MPD2    C4 7680   1.298   0.762   0.029  0.1695 -0.2160 -0.2410
  517MPD2    C5 7681   1.224   0.692  17.637 -0.1921 -0.0431  0.2053
  517MPD2     H 7682   1.607   0.736  17.600  0.0958 -0.8268  1.9833
  517MPD2    H1 7683   1.243   0.794   0.117  0.3633  0.8596 -0.5048
  517MPD2    H2 7684   1.239   0.582  17.454  1.3276 -1.3437 -0.9064
  517MPD2    H3 7685   1.116   0.685  17.644 -0.3091  3.3151  1.5079
  517MPD2     N 7686   1.485   0.856   0.122 -0.6605  0.3348  0.2453
  517MPD2    H5 7687   1.422   0.890   0.194  1.2378 -0.4178  2.2670
  517MPD2    N1 7688   1.518   0.560  17.451 -0.2875 -0.0377 -0.3679
  517MPD2    H7 7689   1.616   0.569  17.476 -0.3310  1.2530 -0.6540
  518TMC3    C1 7690   1.588   0.364  17.351 -0.2189 -0.5236  0.2876
  518TMC3    C2 7691   1.556   0.228  17.324  0.1118 -0.0826 -0.5236
  518TMC3    C3 7692   1.661   0.137  17.352 -0.4513  0.2568  0.3190
  518TMC3    C4 7693   1.713   0.404  17.358 -0.5898  0.0194 -0.9505
  518TMC3    C5 7694   1.808   0.308  17.382 -0.3052  0.8714 -0.2860
  518TMC3    C6 7695   1.786   0.173  17.381  0.2932 -0.0683 -0.5948
  518TMC3     C 7696   1.477   0.456  17.373 -0.1262  0.1241 -0.0038
  518TMC3     O 7697   1.364   0.410  17.354  0.3609 -0.4186  0.4014
  518TMC3     H 7698   1.458   0.184  17.315  1.2761 -3.3294  2.1816
  518TMC3    H1 7699   1.748   0.504  17.380  1.0630 -1.0518  1.3618
  518TMC3    H2 7700   1.863   0.101  17.408 -3.1639 -3.7646 -0.5382
  518TMC3    C7 7701   1.934   0.357  17.356 -0.3924 -0.4248  0.8647
  518TMC3    C8 7702   1.655   0.004  17.288 -0.0288  0.8060 -0.0387
  518TMC3    O1 7703   1.961   0.468  17.394  0.8603 -0.3727  0.0480
  518TMC3    O2 7704   1.734   4.647  17.329 -0.0235 -0.7418 -0.3066
  519MPD2     C 7705   3.231   4.199  14.005 -0.6586 -0.3608 -0.4459
  519MPD2    C1 7706   3.125   4.132  14.047 -0.0980 -0.5756  0.5053
  519MPD2    C2 7707   3.142   4.003  14.097  0.2034  0.0175  0.7538
  519MPD2    C3 7708   3.268   3.943  14.089  0.6199  0.0936 -0.3517
  519MPD2    C4 7709   3.377   4.023  14.047 -0.0639 -0.5585  0.4751
  519MPD2    C5 7710   3.355   4.151  14.020 -0.6040 -0.6852 -0.4328
  519MPD2     H 7711   3.060   3.951  14.144  0.8735 -1.5507  0.1934
  519MPD2    H1 7712   3.475   3.982  14.026 -0.3163 -0.5751 -0.6821
  519MPD2    H2 7713   3.216   4.304  13.982 -0.2933 -0.3841 -0.7981
  519MPD2    H3 7714   3.431   4.218  13.980 -1.3430  0.6397  0.3879
  519MPD2     N 7715   3.296   3.813  14.133 -0.1870 -0.0391 -0.5304
  519MPD2    H5 7716   3.387   3.777  14.106  0.6494  1.2364  0.5540
  519MPD2    N1 7717   2.995   4.179  14.021 -0.3368 -0.3702  0.0685
  519MPD2    H7 7718   2.979   4.249  13.949  0.0446  2.9087  3.1564
  520TMC3    C1 7719   3.226   3.595  14.143 -0.5691 -0.1964  0.2588
  520TMC3    C2 7720   3.147   3.556  14.041  0.6581 -0.5386 -0.1140
  520TMC3    C3 7721   3.177   3.435  13.983 -1.2061 -0.7122 -0.3028
  520TMC3    C4 7722   3.340   3.522  14.176  0.3910 -0.0211 -0.2181
  520TMC3    C5 7723   3.369   3.402  14.108 -0.7855 -0.3807  0.3453
  520TMC3    C6 7724   3.282   3.358  14.011  0.1684  0.5936 -0.5858
  520TMC3     C 7725   3.200   3.730  14.184  0.3401 -1.0657  0.3752
  520TMC3     O 7726   3.079   3.748  14.205 -0.2100 -0.7127  0.4761
  520TMC3     H 7727   3.094   3.628  13.979  1.0444  0.9789  1.3143
  520TMC3    H1 7728   3.408   3.561  14.251 -0.4279 -0.3399  0.6899
  520TMC3    H2 7729   3.290   3.261  13.963  0.0762  1.7077 -2.8633
  520TMC3    C7 7730   3.487   3.334  14.142 -0.3294  0.3761 -0.1528
  520TMC3    C8 7731   3.109   3.416  13.852  0.4220 -0.4099 -0.9608
  520TMC3    O1 7732   3.496   3.284  14.255 -0.0195 -0.5379  0.4156
  520TMC3    O2 7733   3.181   3.358  13.770  0.5607 -0.2224  0.5966
  521MPD2     C 7734   4.151   2.097  17.174  0.0365  0.0564 -0.1580
  521MPD2    C1 7735   4.117   1.959  17.180  0.4370 -0.0826  0.5469
  521MPD2    C2 7736   4.208   1.873  17.119  0.2359  0.4180 -0.1812
  521MPD2    C3 7737   4.330   1.918  17.062 -0.2321  0.0306 -0.4355
  521MPD2    C4 7738   4.353   2.053  17.059 -0.0277  0.2177 -0.3841
  521MPD2    C5 7739   4.267   2.143  17.112  0.8361  0.2471 -0.0703
  521MPD2     H 7740   4.195   1.766  17.106 -0.1445  0.1506  2.3822
  521MPD2    H1 7741   4.444   2.102  17.027 -0.5679  1.6402  0.2438
  521MPD2    H2 7742   4.084   2.172  17.215  0.7831  0.7630 -0.2236
  521MPD2    H3 7743   4.293   2.248  17.120  0.8299 -0.0667  3.9341
  521MPD2     N 7744   4.419   1.818  17.022  0.2510  0.1881  0.5776
  521MPD2    H5 7745   4.394   1.720  17.035  1.7148 -0.4892 -1.6770
  521MPD2    N1 7746   4.004   1.917  17.246 -0.5995  0.3629 -0.2190
  521MPD2    H7 7747   3.957   1.979  17.312 -0.2728  0.4734 -0.0917
  522TMC3    C1 7748   4.596   1.698  16.916  0.2534 -0.0009  0.7410
  522TMC3    C2 7749   0.003   1.664  16.930 -0.0439 -0.9695  0.2714
  522TMC3    C3 7750   0.039   1.546  16.885  0.6737 -0.8581  0.1937
  522TMC3    C4 7751   4.506   1.620  16.854  0.3276  0.1759  0.4610
  522TMC3    C5 7752   4.546   1.498  16.811  0.5512  0.0921 -0.1979
  522TMC3    C6 7753   4.675   1.459  16.817 -0.3718 -0.2342  0.3580
  522TMC3     C 7754   4.552   1.824  16.980  0.1956 -0.4909  0.0358
  522TMC3     O 7755   4.626   1.924  16.961  0.2385 -0.8439  0.6201
  522TMC3     H 7756   0.071   1.732  16.979  0.9126 -1.4754 -0.3561
  522TMC3    H1 7757   4.405   1.659  16.842 -0.2232 -1.0017  1.2191
  522TMC3    H2 7758   4.706   1.365  16.772 -0.2079 -0.5194  1.0725
  522TMC3    C7 7759   4.452   1.410  16.743 -0.1903 -0.0974  0.2052
  522TMC3    C8 7760   0.180   1.548  16.846  0.3177 -0.7213  0.0122
  522TMC3    O1 7761   4.472   1.288  16.732  0.6432 -0.7692 -0.2001
  522TMC3    O2 7762   0.246   1.646  16.863  0.7643  0.8974  0.1951
  523MPD2     C 7763   2.697   1.976   9.872  0.2849 -1.1336  0.0400
  523MPD2    C1 7764   2.578   1.910   9.832 -1.3816 -0.0385 -0.1771
  523MPD2    C2 7765   2.475   1.984   9.778 -0.6194  0.1777 -0.3794
  523MPD2    C3 7766   2.476   2.125   9.794 -0.8940 -1.0373  0.1058
  523MPD2    C4 7767   2.595   2.194   9.833 -0.3145 -0.3210 -0.4321
  523MPD2    C5 7768   2.704   2.110   9.855 -0.3891 -0.1456  1.0177
  523MPD2     H 7769   2.389   1.935   9.735 -1.8760 -0.5456  2.9643
  523MPD2    H1 7770   2.607   2.302   9.838 -2.2887 -0.0675 -1.1632
  523MPD2    H2 7771   2.792   1.929   9.896 -0.3637 -3.2555 -1.5549
  523MPD2    H3 7772   2.792   2.157   9.897 -0.2943 -0.0511  0.7129
  523MPD2     N 7773   2.364   2.202   9.773 -0.0862 -0.1698 -0.1387
  523MPD2    H5 7774   2.365   2.295   9.812  3.2980 -0.1400 -0.3570
  523MPD2    N1 7775   2.578   1.768   9.832 -0.1596  0.2342  0.6337
  523MPD2    H7 7776   2.653   1.714   9.874 -1.3778 -0.6229  1.7259
  524TMC3    C1 7777   2.134   2.251   9.760  0.0588  0.7494  0.5995
  524TMC3    C2 7778   2.001   2.213   9.784 -0.6451  0.0744 -0.3216
  524TMC3    C3 7779   1.910   2.307   9.835  0.1689 -0.6636  0.5936
  524TMC3    C4 7780   2.163   2.379   9.761 -0.0840  0.3040  0.6061
  524TMC3    C5 7781   2.065   2.481   9.783 -0.2968 -0.2852 -0.6456
  524TMC3    C6 7782   1.935   2.445   9.821 -1.0997 -0.3751 -0.6509
  524TMC3     C 7783   2.239   2.160   9.743  0.5364  0.5267 -0.3523
  524TMC3     O 7784   2.200   2.063   9.681  0.4633 -0.1645 -0.1223
  524TMC3     H 7785   1.983   2.106   9.784  0.4504 -0.0985 -1.1256
  524TMC3    H1 7786   2.259   2.419   9.730  0.7954 -0.6401  2.1286
  524TMC3    H2 7787   1.854   2.516   9.833 -1.7264 -1.6200  2.5631
  524TMC3    C7 7788   2.100   2.623   9.770  1.4046 -0.0098  0.8619
  524TMC3    C8 7789   1.771   2.271   9.860  0.0621 -0.1706  0.0927
  524TMC3    O1 7790   2.216   2.657   9.794  0.0446  0.5227  0.2737
  524TMC3    O2 7791   1.693   2.361   9.850  0.1316 -0.6487  0.0058
  525MPD2     C 7792   4.615   3.103  14.332 -0.0468  0.5403  0.0993
  525MPD2    C1 7793   4.706   3.141  14.431  0.1222 -0.3892 -0.2552
  525MPD2    C2 7794   0.067   3.241  14.394  0.5370 -0.0315  0.2444
  525MPD2    C3 7795   0.067   3.306  14.269  0.1323 -0.0614 -0.0834
  525MPD2    C4 7796   4.701   3.263  14.177 -0.0407 -0.0604  0.2698
  525MPD2    C5 7797   4.620   3.162  14.205 -0.0842  0.0701  0.4411
  525MPD2     H 7798   0.142   3.271  14.465  1.3194 -0.3910 -0.4361
  525MPD2    H1 7799   4.695   3.315  14.082 -2.6119  1.2702  1.1662
  525MPD2    H2 7800   4.537   3.028  14.338 -1.0320  1.4153 -1.5277
  525MPD2    H3 7801   4.544   3.140  14.131  1.6974 -1.9666 -0.7860
  525MPD2     N 7802   0.142   3.423  14.240 -0.2299  0.1671  0.2853
  525MPD2    H5 7803   0.124   3.469  14.152 -0.6315  0.4187  0.4979
  525MPD2    N1 7804   4.718   3.080  14.556 -0.3066 -0.1998 -0.1685
  525MPD2    H7 7805   0.070   3.106  14.616  0.6585  1.6536 -2.2362
  526TMC3    C1 7806   4.670   2.940  14.735  0.9210  0.5976 -0.3399
  526TMC3    C2 7807   4.576   2.926  14.833 -0.4121  0.1263  0.3495
  526TMC3    C3 7808   4.620   2.854  14.938  0.4955 -0.1885 -0.0964
  526TMC3    C4 7809   0.073   2.892  14.735  0.0269 -0.3318  0.0968
  526TMC3    C5 7810   0.101   2.812  14.837  0.7566  0.2213  0.6424
  526TMC3    C6 7811   0.018   2.801  14.945  0.1886 -0.2904 -0.3430
  526TMC3     C 7812   4.618   3.015  14.621  0.3333  0.1671  0.0414
  526TMC3     O 7813   4.499   3.012  14.591 -0.1628  0.0352  0.1021
  526TMC3     H 7814   4.496   2.999  14.838 -2.1151 -1.6487 -1.1782
  526TMC3    H1 7815   0.133   2.891  14.646 -0.2943  0.9742 -0.1306
  526TMC3    H2 7816   0.043   2.734  15.026 -0.4592  1.0219  0.9546
  526TMC3    C7 7817   0.223   2.738  14.847 -0.2080 -0.8250  0.4720
  526TMC3    C8 7818   4.575   2.903  15.070 -0.0313 -0.0603  0.4211
  526TMC3    O1 7819   0.263   2.712  14.960  0.2261  0.4173 -0.2992
  526TMC3    O2 7820   4.671   2.924  15.140  0.1196 -0.0515  0.0362
  527MPD2     C 7821   3.036   1.369   1.744 -0.1305  0.2107 -0.3733
  527MPD2    C1 7822   3.151   1.305   1.776  0.0118  0.3918 -0.1862
  527MPD2    C2 7823   3.221   1.244   1.679 -0.6479 -0.3083  0.2181
  527MPD2    C3 7824   3.176   1.246   1.546  0.2988 -0.1994  0.1002
  527MPD2    C4 7825   3.057   1.307   1.510  0.0507  0.0422  0.3488
  527MPD2    C5 7826   2.991   1.370   1.611  0.2559  0.0319  0.5225
  527MPD2     H 7827   3.309   1.185   1.702  0.5067  0.5489 -2.0017
  527MPD2    H1 7828   3.001   1.306   1.417  1.4533  0.9031 -0.5151
  527MPD2    H2 7829   2.974   1.417   1.818  0.3147 -1.7777  1.2723
  527MPD2    H3 7830   2.909   1.430   1.574 -0.5867 -0.4346  1.6341
  527MPD2     N 7831   3.251   1.176   1.452  0.1429 -0.7288  0.1214
  527MPD2    H5 7832   3.326   1.116   1.485 -0.2326 -1.3889 -0.2013
  527MPD2    N1 7833   3.210   1.302   1.909 -0.3050  0.1941  0.4141
  527MPD2    H7 7834   3.303   1.263   1.922  0.8862  2.3944 -1.6461
  528TMC3    C1 7835   3.252   1.397   2.121  0.1995  0.3856  0.4641
  528TMC3    C2 7836   3.325   1.300   2.180  0.0929  0.0567  0.2457
  528TMC3    C3 7837   3.363   1.313   2.310  0.8054 -0.3605 -0.5971
  528TMC3    C4 7838   3.233   1.520   2.188 -0.1715 -0.0707  0.5091
  528TMC3    C5 7839   3.293   1.528   2.315 -0.4698  0.3874 -0.6957
  528TMC3    C6 7840   3.356   1.425   2.382 -0.2424  0.4293 -0.5005
  528TMC3     C 7841   3.163   1.374   2.017  0.7015 -0.0250 -0.3891
  528TMC3     O 7842   3.065   1.443   2.032  0.1590 -0.0013 -0.4492
  528TMC3     H 7843   3.321   1.198   2.143  2.1416 -0.7378  2.2232
  528TMC3    H1 7844   3.170   1.600   2.148  1.1807 -0.9584 -3.4676
  528TMC3    H2 7845   3.393   1.424   2.484 -1.1716 -0.6678 -0.1787
  528TMC3    C7 7846   3.294   1.660   2.376 -0.0971 -0.2419  0.0252
  528TMC3    C8 7847   3.474   1.227   2.354  0.3135  0.6964  0.1424
  528TMC3    O1 7848   3.202   1.740   2.352 -0.0956  0.5898 -0.4089
  528TMC3    O2 7849   3.482   1.201   2.476  0.0167 -0.1832 -0.0150
  529MPD2     C 7850   1.010   3.771   0.241 -0.1163 -0.3032  0.2313
  529MPD2    C1 7851   0.926   3.837   0.333 -0.5602  0.1628 -0.0112
  529MPD2    C2 7852   0.873   3.959   0.310  0.1996  0.2085 -0.3005
  529MPD2    C3 7853   0.894   4.018   0.189  0.6122  0.1762  0.1922
  529MPD2    C4 7854   0.976   3.956   0.094 -0.2694  0.0640 -0.5281
  529MPD2    C5 7855   1.028   3.833   0.120  0.6797  0.1223  0.0398
  529MPD2     H 7856   0.821   4.003   0.394 -3.0517  0.3181 -2.3937
  529MPD2    H1 7857   0.996   4.003  17.703  0.7337  0.6429 -0.0305
  529MPD2    H2 7858   1.074   3.685   0.258 -0.8795 -1.0113 -0.4299
  529MPD2    H3 7859   1.085   3.774   0.049  1.3946 -0.7561  1.3443
  529MPD2     N 7860   0.852   4.148   0.157 -0.6102  0.4640 -0.3911
  529MPD2    H5 7861   0.863   4.175   0.060  2.0811  0.2629 -0.1489
  529MPD2    N1 7862   0.901   3.785   0.463  0.5428  0.7960  0.5446
  529MPD2    H7 7863   0.853   3.840   0.534 -3.4674  1.5482 -2.8039
  530TMC3    C1 7864   0.902   3.617   0.642 -0.4262 -1.1373  0.1619
  530TMC3    C2 7865   0.919   3.701   0.755  0.1180 -0.5777 -0.3069
  530TMC3    C3 7866   0.921   3.638   0.880 -0.6081  0.0580  0.5199
  530TMC3    C4 7867   0.888   3.481   0.661 -0.1734  0.4829 -0.7587
  530TMC3    C5 7868   0.871   3.431   0.785 -0.0380 -0.2088 -0.3434
  530TMC3    C6 7869   0.894   3.502   0.897 -0.1831  0.2193 -0.1031
  530TMC3     C 7870   0.944   3.658   0.509  0.0808  0.0308 -0.1300
  530TMC3     O 7871   0.989   3.569   0.435  0.7869  0.2525 -0.3221
  530TMC3     H 7872   0.956   3.802   0.745 -3.3433  0.7599  0.0828
  530TMC3    H1 7873   0.872   3.416   0.576  0.0846 -0.7656  0.1622
  530TMC3    H2 7874   0.890   3.455   0.994 -4.2062  1.6952  0.4702
  530TMC3    C7 7875   0.812   3.300   0.802  0.1174  0.5746  0.5121
  530TMC3    C8 7876   0.964   3.720   0.988  0.0365  0.2921  0.0795
  530TMC3    O1 7877   0.837   3.219   0.713 -0.3450 -0.1760  0.2866
  530TMC3    O2 7878   0.931   3.838   0.988 -0.1476  0.5183  0.3303
  531MPD2     C 7879   3.675   1.909  12.592 -0.3276 -0.2344 -0.4612
  531MPD2    C1 7880   3.624   2.021  12.533 -0.0019  0.3553  0.7371
  531MPD2    C2 7881   3.649   2.044  12.398  0.8721  0.4329  0.1364
  531MPD2    C3 7882   3.723   1.947  12.328 -0.0544  0.4692 -0.2590
  531MPD2    C4 7883   3.758   1.828  12.385  0.3795  0.6117  0.1452
  531MPD2    C5 7884   3.742   1.808  12.523  0.2195 -0.1061 -0.3132
  531MPD2     H 7885   3.607   2.127  12.342  1.1763  0.7689  0.4054
  531MPD2    H1 7886   3.817   1.753  12.334  1.9349  1.2849  0.9209
  531MPD2    H2 7887   3.669   1.896  12.699 -0.5588  1.1908 -0.3092
  531MPD2    H3 7888   3.777   1.714  12.566 -1.0365 -0.7984 -0.7974
  531MPD2     N 7889   3.741   1.980  12.193 -0.7507  0.2472  0.1877
  531MPD2    H5 7890   3.687   2.063  12.172  4.4791  2.8439 -3.1683
  531MPD2    N1 7891   3.564   2.117  12.615 -0.5842 -0.2264 -0.4306
  531MPD2    H7 7892   3.571   2.096  12.714  1.6698  0.5997 -0.4158
  532TMC3    C1 7893   3.486   2.344  12.670 -0.6781  0.2991 -0.0406
  532TMC3    C2 7894   3.397   2.440  12.626 -0.0377  0.1857 -0.0190
  532TMC3    C3 7895   3.430   2.571  12.650 -0.0432  0.0819  0.3917
  532TMC3    C4 7896   3.581   2.370  12.767 -0.3359 -0.8066  1.3958
  532TMC3    C5 7897   3.592   2.501  12.809  0.1202  0.0511 -0.3218
  532TMC3    C6 7898   3.520   2.604  12.751 -0.2246 -0.0479  0.0753
  532TMC3     C 7899   3.507   2.241  12.570  0.2784 -0.0481 -0.3254
  532TMC3     O 7900   3.461   2.271  12.459 -0.4133 -0.1644 -0.4524
  532TMC3     H 7901   3.320   2.419  12.552  1.4712  0.0981 -1.5792
  532TMC3    H1 7902   3.665   2.303  12.781  0.4019 -0.2801 -0.4940
  532TMC3    H2 7903   3.520   2.707  12.784 -3.0055  0.4022 -1.2812
  532TMC3    C7 7904   3.666   2.526  12.933 -0.3477 -0.0856  0.3857
  532TMC3    C8 7905   3.460   2.645  12.524  0.2450 -0.1456  0.2642
  532TMC3    O1 7906   3.680   2.646  12.964  0.0773  0.7865 -0.6235
  532TMC3    O2 7907   3.464   2.766  12.528  0.2509 -0.4282  0.0126
  533TMC3    C1 7908   0.277   3.611  14.280 -0.0413  0.1357  0.7359
  533TMC3    C2 7909   0.407   3.635  14.314 -0.4509 -0.4245  0.9834
  533TMC3    C3 7910   0.439   3.755  14.371  0.0635  0.0422 -0.1572
  533TMC3    C4 7911   0.178   3.701  14.305 -0.1821 -0.1999 -0.4499
  533TMC3    C5 7912   0.213   3.813  14.373 -0.1057 -0.3736 -0.3142
  533TMC3    C6 7913   0.346   3.851  14.397 -0.4205 -0.0030 -0.8116
  533TMC3     C 7914   0.245   3.473  14.315 -0.2937  0.1339 -0.2957
  533TMC3     O 7915   0.308   3.426  14.412 -0.0033  0.1855 -0.2616
  533TMC3     H 7916   0.483   3.558  14.311 -0.9810 -0.7609 -3.4886
  533TMC3    H1 7917   0.080   3.677  14.266 -1.6065  2.1884  1.7306
  533TMC3    H2 7918   0.379   3.941  14.448 -0.3103 -1.3463  1.4963
  533TMC3    C7 7919   0.108   3.914  14.390 -0.1482 -0.8335 -0.7777
  533TMC3    C8 7920   0.581   3.790  14.348  0.1421 -0.2261  0.3086
  533TMC3    O1 7921   0.028   3.929  14.298  0.0840 -0.6424  0.3397
  533TMC3    O2 7922   0.664   3.702  14.347  0.2667  0.0715  0.0663
  534MPD2     C 7923   3.118   4.513   2.166  0.0953 -0.2748 -0.7459
  534MPD2    C1 7924   3.101   4.610   2.068 -0.4095  0.6289 -0.7090
  534MPD2    C2 7925   3.012   4.590   1.964 -0.7167 -0.4048 -0.0483
  534MPD2    C3 7926   2.959   4.459   1.944  0.1632 -1.0065  0.2682
  534MPD2    C4 7927   2.993   4.358   2.032 -0.2780  0.6917  0.8026
  534MPD2    C5 7928   3.055   4.390   2.150 -0.0333 -0.5066  0.5090
  534MPD2     H 7929   2.991   4.662   1.886  0.6250 -1.7905 -1.6874
  534MPD2    H1 7930   2.960   4.256   2.014 -1.1007  1.1551 -0.3694
  534MPD2    H2 7931   3.178   4.518   2.257 -0.9823 -4.3332  0.2226
  534MPD2    H3 7932   3.079   4.302   2.209  1.4224 -0.2879  0.2325
  534MPD2     N 7933   2.879   4.447   1.829  0.8018  0.0508  0.0241
  534MPD2    H5 7934   2.870   4.529   1.770  1.8188  0.4842  0.4662
  534MPD2    N1 7935   3.176   0.009   2.069 -0.7762  0.1470 -0.0930
  534MPD2    H7 7936   3.140   0.077   2.002  0.5171  0.7088 -0.2214
  535TMC3    C1 7937   2.707   4.353   1.680  0.1028 -0.1506  0.2438
  535TMC3    C2 7938   2.591   4.275   1.682  1.0229  0.5176  0.5312
  535TMC3    C3 7939   2.533   4.248   1.562 -0.1254 -0.1338 -0.2731
  535TMC3    C4 7940   2.760   4.407   1.569 -0.0834  0.1104 -0.6791
  535TMC3    C5 7941   2.709   4.358   1.448  0.1202  0.1226 -0.0042
  535TMC3    C6 7942   2.600   4.278   1.443 -0.1034 -0.9296  0.0652
  535TMC3     C 7943   2.801   4.338   1.793 -0.4588  0.0549  0.3990
  535TMC3     O 7944   2.788   4.234   1.855  0.1017 -0.0636 -0.1807
  535TMC3     H 7945   2.549   4.247   1.778  0.2136  3.3825  1.0160
  535TMC3    H1 7946   2.856   4.457   1.565 -0.1748  0.4773  1.7291
  535TMC3    H2 7947   2.568   4.241   1.346  1.4516 -1.3155 -0.3001
  535TMC3    C7 7948   2.752   4.420   1.320  0.8280 -0.3599  0.1009
  535TMC3    C8 7949   2.422   4.153   1.551 -0.3278  0.5261 -0.4817
  535TMC3    O1 7950   2.757   4.339   1.224 -0.2031  0.2136  0.3805
  535TMC3    O2 7951   2.380   4.124   1.442 -0.5150  0.3615  0.6569
  536MPD2     C 7952   0.824   2.426  16.783 -0.6181  0.4004  0.4634
  536MPD2    C1 7953   0.863   2.555  16.789  0.0744 -0.0456  0.5771
  536MPD2    C2 7954   0.841   2.639  16.681 -0.0719 -0.1996  0.1457
  536MPD2    C3 7955   0.776   2.593  16.567  0.3499 -0.8349  0.3934
  536MPD2    C4 7956   0.737   2.464  16.565 -0.9245 -0.1587 -0.3581
  536MPD2    C5 7957   0.760   2.380  16.672 -0.4505 -0.5989 -0.3869
  536MPD2     H 7958   0.881   2.739  16.668 -2.2778  0.8582  1.5353
  536MPD2    H1 7959   0.673   2.433  16.484 -1.0480 -2.8697  0.7819
  536MPD2    H2 7960   0.846   2.357  16.864  1.5975 -3.2618 -3.2928
  536MPD2    H3 7961   0.734   2.276  16.653 -1.9927 -0.3630  0.4896
  536MPD2     N 7962   0.777   2.663  16.442  0.1683 -0.5427 -0.4992
  536MPD2    H5 7963   0.741   2.613  16.362 -3.9612 -0.7166  1.4867
  536MPD2    N1 7964   0.930   2.601  16.911  0.2903  0.3996 -0.1148
  536MPD2    H7 7965   0.955   2.530  16.978  3.1159 -0.3336 -1.9349
  537TMC3    C1 7966   1.041   2.760  17.055 -0.0977  0.6694  0.2079
  537TMC3    C2 7967   1.140   2.849  17.035  0.1488  0.0213 -0.4318
  537TMC3    C3 7968   1.234   2.864  17.130  0.5300 -0.1372 -0.2933
  537TMC3    C4 7969   1.053   2.665  17.154 -0.2927  0.0712 -0.0476
  537TMC3    C5 7970   1.162   2.664  17.234  0.1630  0.3329  0.8602
  537TMC3    C6 7971   1.256   2.764  17.220  0.4206 -0.5351 -0.1992
  537TMC3     C 7972   0.959   2.738  16.935  0.8155  0.0652  0.1565
  537TMC3     O 7973   0.929   2.835  16.867 -0.2012  0.2844 -0.3501
  537TMC3     H 7974   1.138   2.921  16.953  0.1276  0.3648 -0.1274
  537TMC3    H1 7975   0.982   2.585  17.167  0.2947 -0.6343 -1.1927
  537TMC3    H2 7976   1.335   2.769  17.295  0.4137  0.7620 -0.2807
  537TMC3    C7 7977   1.184   2.550  17.321 -0.5779  0.0175  0.4401
  537TMC3    C8 7978   1.350   2.944  17.104 -0.2609 -0.4461 -0.2217
  537TMC3    O1 7979   1.264   2.564  17.416  0.5639  0.2751  0.1430
  537TMC3    O2 7980   1.461   2.909  17.135 -0.0464 -0.1385  0.0676
  538TMC3    C1 7981   2.969   2.028  10.988 -0.5574 -0.5646 -0.5461
  538TMC3    C2 7982   3.030   1.996  10.874  0.0061  0.5111  0.3600
  538TMC3    C3 7983   3.012   2.079  10.767 -0.4880  0.1626  0.2813
  538TMC3    C4 7984   2.892   2.132  10.998  0.3272 -0.0336  0.4551
  538TMC3    C5 7985   2.866   2.211  10.888 -0.5821 -1.0147 -0.5564
  538TMC3    C6 7986   2.931   2.186  10.774 -0.6706 -0.4217  0.8219
  538TMC3     C 7987   2.975   1.939  11.108 -0.3228  0.6449 -0.1529
  538TMC3     O 7988   2.951   1.995  11.215  0.5946 -0.2505 -0.0596
  538TMC3     H 7989   3.107   1.919  10.869 -1.2766 -0.7395 -0.1240
  538TMC3    H1 7990   2.826   2.144  11.084 -1.5117  2.6866 -1.3463
  538TMC3    H2 7991   2.915   2.247  10.685  0.9648 -0.5119  0.4714
  538TMC3    C7 7992   2.730   2.263  10.884  0.2913 -0.3231  0.0791
  538TMC3    C8 7993   3.102   2.072  10.650  0.1567 -0.1891 -0.5586
  538TMC3    O1 7994   2.646   2.252  10.972  0.5257 -0.6801  0.1195
  538TMC3    O2 7995   3.106   2.176  10.582  0.2536 -0.5663 -0.3413
  539MPD2     C 7996   2.428   1.049  11.525  0.2697  0.8274 -0.1429
  539MPD2    C1 7997   2.482   1.073  11.400  0.9309 -0.0908  0.5175
  539MPD2    C2 7998   2.454   1.194  11.342  0.7938 -0.9577  0.4234
  539MPD2    C3 7999   2.383   1.295  11.401  0.1138  0.1411  0.4587
  539MPD2    C4 8000   2.323   1.257  11.523 -0.1042  0.6940  0.8184
  539MPD2    C5 8001   2.344   1.135  11.578 -0.5713  0.6033 -0.2951
  539MPD2     H 8002   2.521   1.220  11.260 -0.3287 -1.1933 -0.5572
  539MPD2    H1 8003   2.254   1.326  11.571 -1.5273 -0.2385  0.1021
  539MPD2    H2 8004   2.441   0.951  11.570  0.8129  2.0265  2.3072
  539MPD2    H3 8005   2.290   1.112  11.670  0.2742 -0.0659  0.0320
  539MPD2     N 8006   2.351   1.422  11.351  0.2622  0.0882  0.1572
  539MPD2    H5 8007   2.322   1.490  11.421 -1.8991 -2.3498  1.6116
  539MPD2    N1 8008   2.592   0.998  11.340  0.7188  0.6086 -0.4366
  539MPD2    H7 8009   2.627   1.034  11.252  1.0000  0.1733 -0.5023
  540TMC3    C1 8010   2.352   1.605  11.197  0.0404 -0.3850 -0.3579
  540TMC3    C2 8011   2.343   1.629  11.065 -0.3129 -0.0409  0.5785
  540TMC3    C3 8012   2.304   1.757  11.026  0.4131 -0.2248 -0.6561
  540TMC3    C4 8013   2.339   1.700  11.293  0.0317  0.2442 -0.0383
  540TMC3    C5 8014   2.291   1.826  11.249  0.0707 -0.4966  0.0471
  540TMC3    C6 8015   2.271   1.858  11.113 -0.3512 -0.4881 -0.3437
  540TMC3     C 8016   2.386   1.468  11.228  0.7367 -0.4916 -0.0898
  540TMC3     O 8017   2.438   1.403  11.136  0.0754  0.5635 -0.2429
  540TMC3     H 8018   2.367   1.550  10.995  1.7338  0.6841  0.4257
  540TMC3    H1 8019   2.352   1.673  11.398 -3.4665 -0.5824  0.1698
  540TMC3    H2 8020   2.235   1.950  11.069  4.1330  0.5783 -1.8338
  540TMC3    C7 8021   2.274   1.925  11.347  0.1526  0.6067  0.1139
  540TMC3    C8 8022   2.272   1.788  10.886 -0.2853  0.5198 -0.0036
  540TMC3    O1 8023   2.291   1.884  11.458  0.5128  0.6691  0.5503
  540TMC3    O2 8024   2.274   1.910  10.859  0.1725  0.2953 -0.2460
  541MPD2     C 8025   0.829   1.963  13.186 -0.7728 -0.1712  0.1281
  541MPD2    C1 8026   0.761   2.050  13.269 -0.1847  1.0110  0.3429
  541MPD2    C2 8027   0.787   2.182  13.256 -0.1066 -0.0251 -0.5565
  541MPD2    C3 8028   0.892   2.235  13.186 -0.6926  0.2974  0.0156
  541MPD2    C4 8029   0.958   2.147  13.104  0.3459  0.1435  0.8258
  541MPD2    C5 8030   0.928   2.008  13.108 -0.2344 -1.1831 -0.4918
  541MPD2     H 8031   0.717   2.250  13.304 -1.2382 -0.2417 -1.8952
  541MPD2    H1 8032   1.037   2.170  13.032  0.1545  0.4907  0.7259
  541MPD2    H2 8033   0.799   1.860  13.174 -0.7220 -0.3024  1.1334
  541MPD2    H3 8034   0.971   1.936  13.039  0.4676 -1.3192  0.0996
  541MPD2     N 8035   0.934   2.371  13.169  0.0192  0.0760  0.2621
  541MPD2    H5 8036   1.015   2.388  13.111 -1.1451 -0.7004 -1.5658
  541MPD2    N1 8037   0.648   1.996  13.337  0.3252 -0.2286 -1.2192
  541MPD2    H7 8038   0.622   1.900  13.318  0.9576 -0.2950 -1.7333
  542TMC3    C1 8039   0.950   2.592  13.197 -0.2731 -0.7247  0.2459
  542TMC3    C2 8040   0.913   2.626  13.072  0.3224 -0.0321  1.0674
  542TMC3    C3 8041   0.892   2.754  13.036  0.3101 -0.9330  0.1632
  542TMC3    C4 8042   0.954   2.697  13.287 -0.6006 -0.9464 -0.1610
  542TMC3    C5 8043   0.948   2.831  13.241 -1.7307 -0.2980  0.6103
  542TMC3    C6 8044   0.906   2.860  13.120  0.4068 -0.4913 -0.5249
  542TMC3     C 8045   0.898   2.475  13.252 -0.1256  0.4120  0.1626
  542TMC3     O 8046   0.826   2.474  13.351 -0.7968  0.1176 -0.4240
  542TMC3     H 8047   0.902   2.547  12.999  1.0302  0.4907  0.3883
  542TMC3    H1 8048   0.943   2.683  13.394 -0.6134 -1.9858 -0.3030
  542TMC3    H2 8049   0.887   2.961  13.086  0.1244 -0.7706 -1.1850
  542TMC3    C7 8050   1.016   2.931  13.317  0.4541 -0.0850 -0.0721
  542TMC3    C8 8051   0.827   2.770  12.913  1.0410  0.5070  0.0751
  542TMC3    O1 8052   1.021   3.045  13.266  0.7340 -0.9347 -0.3063
  542TMC3    O2 8053   0.834   2.677  12.830 -0.0430 -0.0922  0.4195
  543TMC3    C1 8054   4.604   3.544  17.543  0.5652  0.2062  0.1542
  543TMC3    C2 8055   4.633   3.433  17.616 -0.7495 -0.1618 -0.2078
  543TMC3    C3 8056   4.635   3.427   0.043  0.4590 -0.0820 -0.2466
  543TMC3    C4 8057   4.570   3.657  17.616  0.6752  0.1267 -0.2735
  543TMC3    C5 8058   4.571   3.649   0.049  0.1429 -0.2324 -0.7959
  543TMC3    C6 8059   4.608   3.534   0.121 -0.1016 -0.1520 -0.1047
  543TMC3     C 8060   4.630   3.547  17.403  0.0525  0.1292  0.0788
  543TMC3     O 8061   4.653   3.662  17.364 -0.5532 -0.4419 -0.1815
  543TMC3     H 8062   4.656   3.350  17.549  1.7980 -0.6722  1.3017
  543TMC3    H1 8063   4.532   3.742  17.560 -0.3011 -1.2081 -1.6574
  543TMC3    H2 8064   4.609   3.533   0.229  1.6647 -0.2988 -0.1225
  543TMC3    C7 8065   4.496   3.748   0.127  0.0794  0.3709  0.5717
  543TMC3    C8 8066   4.706   3.311   0.097  0.2079 -0.0559 -0.2989
  543TMC3    O1 8067   4.415   3.706   0.213  0.1836  0.0268  0.2283
  543TMC3    O2 8068   0.015   3.228   0.013 -0.0141  0.2575 -0.0530
  544MPD2     C 8069   0.112   2.970   0.469 -0.3920 -0.1289  0.0566
  544MPD2    C1 8070   0.160   2.984   0.344 -0.3582  0.6223  0.1573
  544MPD2    C2 8071   0.126   3.093   0.272 -0.5126  1.1204  0.4409
  544MPD2    C3 8072   0.038   3.191   0.317  0.3227 -0.4173 -0.5286
  544MPD2    C4 8073   4.719   3.181   0.449 -0.1687  0.2633 -0.1693
  544MPD2    C5 8074   0.033   3.073   0.520  0.0279 -0.6235  0.6613
  544MPD2     H 8075   0.166   3.107   0.172  0.3564  1.1247  0.7896
  544MPD2    H1 8076   4.643   3.247   0.489  1.0999  1.6818 -0.0711
  544MPD2    H2 8077   0.127   2.884   0.534 -3.3716  0.2120  1.2260
  544MPD2    H3 8078   4.717   3.051   0.618  1.1620 -2.9359  0.6391
  544MPD2     N 8079   4.713   3.301   0.236 -0.1764  0.4683  0.3663
  544MPD2    H5 8080   4.665   3.369   0.294  0.3134  1.1024  0.0345
  544MPD2    N1 8081   0.243   2.889   0.294 -0.3739  0.0707 -0.1980
  544MPD2    H7 8082   0.240   2.794   0.331 -0.8664 -0.1814 -0.8827
  545TMC3    C1 8083   0.423   2.791   0.165  0.0427 -0.0742 -0.2654
  545TMC3    C2 8084   0.481   2.796   0.041  0.1392 -0.2686  0.6748
  545TMC3    C3 8085   0.474   2.689  17.658  0.5399 -0.6790 -0.2893
  545TMC3    C4 8086   0.380   2.671   0.205  0.1364 -0.3435 -0.2346
  545TMC3    C5 8087   0.384   2.563   0.128 -0.4082 -0.0831 -0.0721
  545TMC3    C6 8088   0.436   2.568   0.002  0.0329  0.5218 -0.1513
  545TMC3     C 8089   0.337   2.904   0.190 -0.1081 -0.6921  0.0568
  545TMC3     O 8090   0.366   3.003   0.120  0.6304  0.2647 -0.0452
  545TMC3     H 8091   0.523   2.888   0.001  0.0542  0.0180  1.2467
  545TMC3    H1 8092   0.348   2.649   0.307  0.7735  1.2196  0.3105
  545TMC3    H2 8093   0.433   2.483  17.639 -0.0682  1.3680 -1.2114
  545TMC3    C7 8094   0.353   2.434   0.190 -0.9777  0.6497  0.2377
  545TMC3    C8 8095   0.494   2.712  17.520 -0.0808 -0.1571 -0.8421
  545TMC3    O1 8096   0.272   2.431   0.285 -0.6589  0.4439  0.2943
  545TMC3    O2 8097   0.449   2.813  17.472 -0.2478 -0.0167  0.0568
  546MPD2     C 8098   1.653   3.400  17.391  0.4907  0.0530  0.6992
  546MPD2    C1 8099   1.552   3.450  17.317  0.1604  0.0042  0.0950
  546MPD2    C2 8100   1.581   3.571  17.245  0.1541  0.0465  0.1744
  546MPD2    C3 8101   1.709   3.618  17.235 -0.1425 -0.1834 -0.0841
  546MPD2    C4 8102   1.807   3.566  17.310 -0.0829 -0.2008  1.0252
  546MPD2    C5 8103   1.778   3.457  17.392 -0.6487  0.1940  0.2525
  546MPD2     H 8104   1.502   3.609  17.180  2.4008 -0.4606 -2.8341
  546MPD2    H1 8105   1.909   3.602  17.304 -0.5901  1.3149  1.6185
  546MPD2    H2 8106   1.652   3.315  17.458  0.9756 -2.2040 -2.1405
  546MPD2    H3 8107   1.861   3.410  17.443 -0.3519  1.2270  0.7223
  546MPD2     N 8108   1.761   3.721  17.143  0.0895 -0.2984 -0.3505
  546MPD2    H5 8109   1.863   3.720  17.135  0.1430 -1.2020  0.3944
  546MPD2    N1 8110   1.432   3.387  17.322  0.2388 -0.4632 -0.2000
  546MPD2    H7 8111   1.425   3.300  17.374 -1.9079  0.6085  1.3127
  547TMC3    C1 8112   1.203   3.358  17.301 -0.5129 -0.3445  0.2601
  547TMC3    C2 8113   1.073   3.415  17.280  0.0962  0.0179 -0.2682
  547TMC3    C3 8114   0.962   3.340  17.320 -0.3628  0.1772 -0.7114
  547TMC3    C4 8115   1.217   3.227  17.343  0.1975 -0.0296  0.9297
  547TMC3    C5 8116   1.102   3.163  17.384 -0.1430 -0.1137  0.6140
  547TMC3    C6 8117   0.974   3.217  17.370 -0.2623  0.2171 -0.7567
  547TMC3     C 8118   1.315   3.445  17.289  0.5288 -0.1088 -0.3484
  547TMC3     O 8119   1.293   3.552  17.232 -1.0726  0.0620 -0.3836
  547TMC3     H 8120   1.063   3.521  17.262  2.9793  0.1322 -1.3538
  547TMC3    H1 8121   1.318   3.187  17.344  0.1237 -0.2083  1.4389
  547TMC3    H2 8122   0.896   3.156  17.414  1.6924 -0.6251  1.5644
  547TMC3    C7 8123   1.131   3.043  17.465  0.0565  0.3348  1.1053
  547TMC3    C8 8124   0.841   3.391  17.248 -0.5150 -0.3387  0.0079
  547TMC3    O1 8125   1.238   3.041  17.524  0.5321 -0.2986  0.3528
  547TMC3    O2 8126   0.863   3.463  17.151  0.5900  0.6080  0.1270
  548MPD2     C 8127   1.694   4.421  12.390 -0.1573  0.1240 -0.5026
  548MPD2    C1 8128   1.671   4.323  12.484  0.0518 -0.5318  0.4995
  548MPD2    C2 8129   1.778   4.227  12.496 -0.9001  0.3522  0.1299
  548MPD2    C3 8130   1.888   4.220  12.408  0.0098  0.1475 -0.0687
  548MPD2    C4 8131   1.894   4.321  12.314 -0.2565  0.1894  0.1976
  548MPD2    C5 8132   1.807   4.423  12.308  0.4339  0.3631  0.1196
  548MPD2     H 8133   1.768   4.152  12.574  1.3511  1.3251  1.3357
  548MPD2    H1 8134   1.975   4.324  12.242  0.0227 -1.1137  0.4517
  548MPD2    H2 8135   1.628   4.506  12.374 -0.4823 -0.5289 -2.5691
  548MPD2    H3 8136   1.822   4.506  12.240  0.9693 -0.1512 -0.3917
  548MPD2     N 8137   1.980   4.117  12.423 -0.2881  0.1323 -0.0728
  548MPD2    H5 8138   1.974   4.063  12.509 -1.8418 -0.0473 -0.2990
  548MPD2    N1 8139   1.548   4.319  12.548  0.3350 -0.0684 -0.0273
  548MPD2    H7 8140   1.489   4.398  12.526 -1.6286 -1.3017  0.7630
  549TMC3    C1 8141   1.360   4.223  12.661  0.1208 -0.6507  0.3990
  549TMC3    C2 8142   1.296   4.345  12.655 -0.5736 -0.2078  0.0768
  549TMC3    C3 8143   1.161   4.345  12.666 -0.0684  0.7425 -0.6649
  549TMC3    C4 8144   1.294   4.100  12.676 -0.1666  0.0379 -0.1073
  549TMC3    C5 8145   1.159   4.111  12.690 -0.1924  0.2908  0.7599
  549TMC3    C6 8146   1.097   4.231  12.686 -0.3790  1.0295 -0.2299
  549TMC3     C 8147   1.496   4.212  12.621  0.2732 -0.0934  0.0393
  549TMC3     O 8148   1.543   4.098  12.633 -0.1046 -0.1023  0.5936
  549TMC3     H 8149   1.353   4.437  12.669 -1.8984  0.6251 -0.0606
  549TMC3    H1 8150   1.354   4.011  12.687 -1.5901 -0.9776 -0.4560
  549TMC3    H2 8151   0.990   4.233  12.704 -0.5162 -0.6761 -0.8540
  549TMC3    C7 8152   1.099   4.007  12.769 -0.0919 -0.2664  0.1860
  549TMC3    C8 8153   1.083   4.467  12.677  0.0994 -0.9780 -0.9031
  549TMC3    O1 8154   1.015   4.053  12.844 -0.1723 -0.1600 -0.3170
  549TMC3    O2 8155   0.969   4.452  12.714  0.0962 -0.4382  0.7316
  550TMC3    C1 8156   4.064   1.999  12.448  0.2656  0.1693  0.6606
  550TMC3    C2 8157   4.057   2.048  12.575  0.0601  0.3949  1.0276
  550TMC3    C3 8158   4.013   2.170  12.585  0.5343  0.3807  0.7966
  550TMC3    C4 8159   4.023   2.064  12.337 -0.0657 -0.0906 -0.1126
  550TMC3    C5 8160   3.992   2.193  12.351  0.7490  0.2179 -0.1104
  550TMC3    C6 8161   3.971   2.244  12.472  0.4921 -0.0339  0.0052
  550TMC3     C 8162   4.111   1.857  12.442 -0.3447 -0.3561  0.6676
  550TMC3     O 8163   4.126   1.805  12.551  0.0148  0.2209 -0.0339
  550TMC3     H 8164   4.075   1.986  12.662 -3.3313 -1.5885  0.3122
  550TMC3    H1 8165   4.030   2.020  12.238  2.1500  1.6424 -0.7470
  550TMC3    H2 8166   3.944   2.349  12.482 -0.4898 -0.1060 -1.9121
  550TMC3    C7 8167   4.016   2.276  12.225  0.5778  0.3838 -0.0795
  550TMC3    C8 8168   4.041   2.251  12.707 -0.6184  0.4360 -0.2262
  550TMC3    O1 8169   4.028   2.214  12.122  0.6223 -0.2788  0.2503
  550TMC3    O2 8170   3.965   2.342  12.741  0.8231 -0.2370  0.2646
  551TMC3    C1 8171   2.575   0.158  13.468 -0.3276 -0.6548  1.0810
  551TMC3    C2 8172   2.683   0.198  13.399  0.2187 -0.0832 -0.0811
  551TMC3    C3 8173   2.801   0.217  13.460  0.2544  0.3564  0.5395
  551TMC3    C4 8174   2.579   0.114  13.595  0.1225  0.3776 -0.9390
  551TMC3    C5 8175   2.700   0.144  13.655 -0.0813  0.5983  0.9697
  551TMC3    C6 8176   2.811   0.205  13.593  0.1275 -0.5937 -0.2639
  551TMC3     C 8177   2.445   0.138  13.403 -0.8008  0.4341 -0.8762
  551TMC3     O 8178   2.375   0.045  13.435 -0.3129  0.1283 -0.8982
  551TMC3     H 8179   2.682   0.215  13.292  2.2314 -1.8512 -0.3873
  551TMC3    H1 8180   2.495   0.069  13.646  1.0437  0.0136  0.2558
  551TMC3    H2 8181   2.911   0.203  13.634  0.4726 -0.9778 -1.1215
  551TMC3    C7 8182   2.702   0.158  13.797  0.2291 -0.4177 -0.1245
  551TMC3    C8 8183   2.922   0.244  13.390 -0.2354 -0.2140  0.3961
  551TMC3    O1 8184   2.669   0.060  13.860  0.2236 -0.0032 -0.3885
  551TMC3    O2 8185   3.016   0.180  13.435 -0.1130 -0.5223 -0.3705
  552MPD2     C 8186   3.878   2.122  13.750  0.2045 -0.1836  0.1116
  552MPD2    C1 8187   3.882   1.987  13.768 -0.8582  0.3323  0.5538
  552MPD2    C2 8188   3.976   1.932  13.851 -0.1909  0.9353 -0.3823
  552MPD2    C3 8189   4.069   2.017  13.911 -0.0412  0.0171 -0.5171
  552MPD2    C4 8190   4.067   2.150  13.886 -0.4847 -1.1700 -0.4063
  552MPD2    C5 8191   3.968   2.204  13.810 -1.0072  0.2972 -0.4243
  552MPD2     H 8192   3.992   1.826  13.863 -0.6233  0.9774  0.5085
  552MPD2    H1 8193   4.139   2.219  13.928 -2.1267  0.0052  0.4739
  552MPD2    H2 8194   3.807   2.184  13.697 -0.9229 -0.6012  1.1253
  552MPD2    H3 8195   3.969   2.307  13.777 -0.3618 -0.3465 -2.4386
  552MPD2     N 8196   4.173   1.964  13.990 -0.0106  0.0750 -0.0543
  552MPD2    H5 8197   4.253   2.026  13.999 -0.2075  0.3727 -0.3964
  552MPD2    N1 8198   3.787   1.905  13.711  0.6642 -0.5659 -0.0455
  552MPD2    H7 8199   3.794   1.806  13.734 -0.4860 -0.7913 -0.6369
  553TMC3    C1 8200   3.581   1.839  13.625  0.1619  1.2884 -0.1285
  553TMC3    C2 8201   3.514   1.858  13.500  0.4373 -0.0484 -0.2898
  553TMC3    C3 8202   3.506   1.753  13.409 -0.5664 -0.1533  0.0559
  553TMC3    C4 8203   3.615   1.712  13.665  0.4226  0.0340 -0.3908
  553TMC3    C5 8204   3.584   1.612  13.579 -1.0554  0.2742 -0.3266
  553TMC3    C6 8205   3.528   1.629  13.456 -0.0059 -0.6224 -0.5893
  553TMC3     C 8206   3.666   1.951  13.660  0.4717 -0.0803  0.4948
  553TMC3     O 8207   3.631   2.065  13.629  0.4138 -0.1383 -0.4229
  553TMC3     H 8208   3.482   1.955  13.464  0.4294  0.2991  0.6308
  553TMC3    H1 8209   3.662   1.691  13.760  0.6364 -0.1008 -0.5279
  553TMC3    H2 8210   3.533   1.546  13.386  1.1280 -0.6786 -0.4326
  553TMC3    C7 8211   3.614   1.469  13.613 -0.5529  0.0588  0.2518
  553TMC3    C8 8212   3.562   1.801  13.284  1.0058  0.0030  0.1639
  553TMC3    O1 8213   3.528   1.387  13.582 -0.1006 -0.1102 -0.0844
  553TMC3    O2 8214   3.628   1.903  13.290  0.0895 -0.0449 -0.3982
  554TMC3    C1 8215   2.007   1.052  11.420  0.4112  0.0390 -0.1996
  554TMC3    C2 8216   2.048   0.961  11.331 -0.2797  0.4028  0.8387
  554TMC3    C3 8217   2.082   0.999  11.202  0.3750 -0.3811 -0.4306
  554TMC3    C4 8218   1.999   1.187  11.396 -0.8154 -0.9962  0.1237
  554TMC3    C5 8219   2.031   1.218  11.265 -0.2735 -0.0006  0.0503
  554TMC3    C6 8220   2.072   1.131  11.167 -0.4060  0.0849 -0.0957
  554TMC3     C 8221   1.991   1.013  11.558  0.7089 -0.5222  0.0537
  554TMC3     O 8222   1.911   1.075  11.627 -0.0205  0.2188 -0.1667
  554TMC3     H 8223   2.048   0.854  11.345  1.0898  0.4414  1.1685
  554TMC3    H1 8224   1.969   1.260  11.471 -1.3562  1.1722 -2.1891
  554TMC3    H2 8225   2.093   1.154  11.063  2.7370 -0.5858  0.3862
  554TMC3    C7 8226   2.017   1.348  11.217 -0.2431 -0.4303  0.0057
  554TMC3    C8 8227   2.021   0.910  11.104 -0.2033  0.1066  0.5385
  554TMC3    O1 8228   1.993   1.359  11.099  0.1065  0.6330 -0.2446
  554TMC3    O2 8229   2.045   0.937  10.988  0.8673 -0.5084  0.2779
  555TMC3    C1 8230   0.489   0.155  14.841  0.1299  0.8957 -0.1701
  555TMC3    C2 8231   0.419   0.261  14.902 -0.2325 -0.2555  0.2871
  555TMC3    C3 8232   0.370   0.249  15.029 -0.1237  1.0166  0.1901
  555TMC3    C4 8233   0.509   0.040  14.911  0.1854 -0.1085  0.4673
  555TMC3    C5 8234   0.450   0.023  15.030 -0.2199 -0.3105 -0.6953
  555TMC3    C6 8235   0.386   0.129  15.093  0.1987  0.1115  0.3390
  555TMC3     C 8236   0.561   0.175  14.719 -0.0868 -0.7216  0.4279
  555TMC3     O 8237   0.674   0.136  14.719  0.1582 -0.0028 -0.1703
  555TMC3     H 8238   0.399   0.358  14.857 -1.3039 -0.1150  1.0542
  555TMC3    H1 8239   0.558   4.684  14.859  1.6018  1.3032 -0.4221
  555TMC3    H2 8240   0.348   0.112  15.193 -2.3397  1.1686 -0.4440
  555TMC3    C7 8241   0.463   4.628  15.111 -0.3697  0.2256 -0.1731
  555TMC3    C8 8242   0.346   0.361  15.118  0.1668 -0.4012 -0.8091
  555TMC3    O1 8243   0.387   4.607  15.205 -0.5302  0.1112  0.0148
  555TMC3    O2 8244   0.295   0.454  15.057 -0.4387  0.5976  0.2751
  556MPD2     C 8245   3.668   1.578  11.281  0.1177  0.2180 -0.5282
  556MPD2    C1 8246   3.599   1.667  11.202  0.3658 -0.4672 -0.3626
  556MPD2    C2 8247   3.620   1.669  11.069  0.4723 -0.4116 -0.1110
  556MPD2    C3 8248   3.710   1.577  11.006 -0.1183 -0.1261 -0.0238
  556MPD2    C4 8249   3.773   1.491  11.089 -0.0174  0.5131  0.9153
  556MPD2    C5 8250   3.751   1.492  11.221 -0.9005 -0.5619  0.1076
  556MPD2     H 8251   3.569   1.740  11.006 -1.2735 -0.2748  1.4764
  556MPD2    H1 8252   3.837   1.411  11.055  0.9840  1.0129  1.6190
  556MPD2    H2 8253   3.645   1.572  11.387  2.8052  0.6594  0.0676
  556MPD2    H3 8254   3.786   1.414  11.288  0.2951  2.4506  2.9973
  556MPD2     N 8255   3.716   1.574  10.863  0.3691 -0.2649 -0.8913
  556MPD2    H5 8256   3.649   1.632  10.814 -1.0659 -1.2882 -0.1098
  556MPD2    N1 8257   3.503   1.758  11.253 -0.7763 -0.4000  0.0722
  556MPD2    H7 8258   3.467   1.830  11.192  1.3960  1.3440  0.8862
  557TMC3    C1 8259   3.732   1.442  10.681  0.3025  0.2485  0.0398
  557TMC3    C2 8260   3.809   1.384  10.582  0.1936 -0.0965  0.7432
  557TMC3    C3 8261   3.757   1.347  10.463  0.4464  0.2811  0.2190
  557TMC3    C4 8262   3.597   1.450  10.672 -0.5732 -0.4583  0.2357
  557TMC3    C5 8263   3.542   1.425  10.549  0.0941 -0.6976 -0.1186
  557TMC3    C6 8264   3.621   1.375  10.447  0.5617 -0.0150  0.1864
  557TMC3     C 8265   3.797   1.488  10.800  0.0024  0.0815  0.8302
  557TMC3     O 8266   3.903   1.437  10.827 -0.0691  0.4235  0.1234
  557TMC3     H 8267   3.915   1.372  10.600  0.1912 -0.1299  0.7356
  557TMC3    H1 8268   3.527   1.475  10.751 -1.3601 -2.0437  0.0405
  557TMC3    H2 8269   3.567   1.354  10.356 -0.8729 -0.4422  1.1327
  557TMC3    C7 8270   3.430   1.505  10.531 -0.4572 -0.3620  0.2570
  557TMC3    C8 8271   3.850   1.347  10.355 -0.2022 -0.9468 -0.6791
  557TMC3    O1 8272   3.361   1.513  10.631 -0.3326 -0.9549  0.6791
  557TMC3    O2 8273   3.955   1.409  10.384 -0.6506 -0.5613 -0.0444
  558TMC3    C1 8274   1.276   0.157  10.349 -0.5396 -0.1088  0.0889
  558TMC3    C2 8275   1.170   0.151  10.430  0.6414  0.1697 -0.4068
  558TMC3    C3 8276   1.052   0.101  10.378  0.5183  0.2522  0.2183
  558TMC3    C4 8277   1.270   0.122  10.220  0.4081  0.6359 -0.0067
  558TMC3    C5 8278   1.157   0.055  10.172 -0.4520 -0.8878 -0.2115
  558TMC3    C6 8279   1.045   0.049  10.252 -0.8106  0.2843  0.4276
  558TMC3     C 8280   1.407   0.185  10.404 -0.1876 -0.8589 -0.2100
  558TMC3     O 8281   1.502   0.223  10.339  0.5432  0.3209 -0.2605
  558TMC3     H 8282   1.167   0.205  10.524  2.4253 -0.9251  0.2788
  558TMC3    H1 8283   1.353   0.151  10.156 -1.0894  0.8247 -1.8537
  558TMC3    H2 8284   0.966   4.702  10.240  0.3414 -0.9293  0.2259
  558TMC3    C7 8285   1.158   4.708  10.043  0.4320 -0.7331  0.1804
  558TMC3    C8 8286   0.931   0.112  10.456 -1.2205 -0.0381 -0.2042
  558TMC3    O1 8287   1.055   4.659   9.994  0.1185 -0.3928 -0.6010
  558TMC3    O2 8288   0.824   0.117  10.393 -0.3274 -0.0160 -0.1950
  559MPD2     C 8289   1.276   0.541  10.361  0.9196 -0.1283  0.0174
  559MPD2    C1 8290   1.249   0.519  10.491 -0.2407 -0.3500  0.2755
  559MPD2    C2 8291   1.349   0.526  10.584  0.1396 -0.2951 -0.2947
  559MPD2    C3 8292   1.478   0.554  10.547 -0.0897 -0.3194  0.0356
  559MPD2    C4 8293   1.501   0.585  10.416  0.2378  0.2688  0.1645
  559MPD2    C5 8294   1.398   0.581  10.329  0.1236  0.0934 -0.1289
  559MPD2     H 8295   1.332   0.502  10.688 -0.8520  0.4222 -0.2925
  559MPD2    H1 8296   1.595   0.620  10.376 -0.0821  1.1776  0.2095
  559MPD2    H2 8297   1.211   0.531  10.275  0.1698 -0.1928  0.5899
  559MPD2    H3 8298   1.424   0.621  10.232  1.9679  1.8706  1.0806
  559MPD2     N 8299   1.578   0.555  10.651  0.2663 -0.2939 -0.4449
  559MPD2    H5 8300   1.538   0.544  10.743 -0.4040 -2.7446 -1.0179
  559MPD2    N1 8301   1.110   0.495  10.530 -0.0088  0.2550 -1.1573
  559MPD2    H7 8302   1.033   0.509  10.465 -0.1388 -1.1938 -1.2973
  560TMC3    C1 8303   1.785   0.548  10.767 -0.8405 -0.2867  0.7495
  560TMC3    C2 8304   1.726   0.468  10.850 -0.2219 -0.0204  0.3294
  560TMC3    C3 8305   1.793   0.429  10.963 -0.0198  0.5664  0.2764
  560TMC3    C4 8306   1.904   0.610  10.783  0.3994 -0.9599  0.0256
  560TMC3    C5 8307   1.963   0.574  10.902  0.9540 -0.9521  0.5930
  560TMC3    C6 8308   1.920   0.480  10.993  0.9988 -0.3863 -0.0803
  560TMC3     C 8309   1.711   0.570  10.642 -1.0788 -0.2797 -0.0714
  560TMC3     O 8310   1.777   0.602  10.546 -0.9013 -0.2222 -0.3157
  560TMC3     H 8311   1.629   0.422  10.832  1.0732 -3.9525  3.4244
  560TMC3    H1 8312   1.944   0.667  10.700  0.9042 -0.8150  0.3687
  560TMC3    H2 8313   1.990   0.452  11.070  1.3333  2.0558  0.4917
  560TMC3    C7 8314   2.107   0.578  10.908 -0.7651 -0.0508  0.1722
  560TMC3    C8 8315   1.719   0.362  11.066  0.7957 -1.0022 -0.3337
  560TMC3    O1 8316   2.163   0.468  10.919  0.4497 -0.2308  0.3771
  560TMC3    O2 8317   1.599   0.386  11.062 -0.8521  0.2729  0.2600
  561TMC3    C1 8318   4.234   0.065  11.499  0.2347 -0.3721 -0.5715
  561TMC3    C2 8319   4.211   0.074  11.634  0.0536 -0.7805 -0.3089
  561TMC3    C3 8320   4.100   0.149  11.670  0.1455 -0.1009  0.2015
  561TMC3    C4 8321   4.154   0.126  11.407  0.6465  0.2738 -0.0423
  561TMC3    C5 8322   4.047   0.203  11.442 -0.3140  0.5636  0.4899
  561TMC3    C6 8323   4.021   0.213  11.580 -0.6566 -0.0260 -0.2327
  561TMC3     C 8324   4.349   4.724  11.445  0.8456 -0.7317 -0.4449
  561TMC3     O 8325   4.381   0.009  11.329 -0.3018 -0.1556  0.4613
  561TMC3     H 8326   4.276   0.046  11.717  1.9480  1.0467 -1.1703
  561TMC3    H1 8327   4.181   0.110  11.303 -1.3388 -0.2718 -0.4876
  561TMC3    H2 8328   3.947   0.287  11.608  0.3651  1.3084 -1.0527
  561TMC3    C7 8329   3.976   0.284  11.353  0.2840 -0.7993 -0.4096
  561TMC3    C8 8330   4.090   0.166  11.810 -0.3285  0.0448 -0.8281
  561TMC3    O1 8331   3.864   0.310  11.389 -0.2110  0.6883 -0.2835
  561TMC3    O2 8332   4.181   0.143  11.887  0.7798 -0.1702 -0.1664
  562TMC3    C1 8333   0.050   0.233  15.582 -0.3113 -0.7844 -0.1009
  562TMC3    C2 8334   0.028   0.263  15.454 -0.8618  0.3040  0.0851
  562TMC3    C3 8335   0.080   0.176  15.354  0.2934  0.3702 -0.6194
  562TMC3    C4 8336   0.105   0.112  15.624  0.1370 -0.2263  0.1734
  562TMC3    C5 8337   0.140   0.025  15.522 -0.8357  0.3800 -0.4511
  562TMC3    C6 8338   0.144   0.058  15.389  0.4676  0.8313  0.4432
  562TMC3     C 8339   4.714   0.322  15.677  0.0222  0.3639 -0.0554
  562TMC3     O 8340   4.647   0.411  15.625 -0.1452  0.3331 -0.2779
  562TMC3     H 8341   4.694   0.346  15.417 -0.0302  1.1787  0.7139
  562TMC3    H1 8342   0.120   0.078  15.726 -0.9568 -1.8427 -0.2091
  562TMC3    H2 8343   0.187   4.711  15.321  0.3413 -1.3104  2.6626
  562TMC3    C7 8344   0.207   4.628  15.564 -0.0368 -0.1152 -0.4647
  562TMC3    C8 8345   0.061   0.194  15.210  0.7677  0.3164 -0.2168
  562TMC3    O1 8346   0.285   4.574  15.484  0.1759  0.0732  0.1282
  562TMC3    O2 8347   0.084   0.091  15.146  0.9224  0.1978  0.1913
  563MPD2     C 8348   2.315   1.587  15.594  0.3056 -0.7456 -0.1139
  563MPD2    C1 8349   2.395   1.688  15.639 -0.4412  0.4943  0.1441
  563MPD2    C2 8350   2.506   1.663  15.718  0.2584  0.8936  0.6284
  563MPD2    C3 8351   2.545   1.532  15.742  0.1382  0.5134  0.1608
  563MPD2    C4 8352   2.467   1.433  15.693  0.5401  0.5581  0.2502
  563MPD2    C5 8353   2.348   1.461  15.634  0.3350 -0.4135 -0.5427
  563MPD2     H 8354   2.564   1.749  15.750  2.0632 -0.2760  0.4988
  563MPD2    H1 8355   2.482   1.333  15.732 -0.2997  0.5552  0.5772
  563MPD2    H2 8356   2.225   1.612  15.540  0.7621 -0.3091 -0.6648
  563MPD2    H3 8357   2.273   1.389  15.604 -1.8762  2.4189 -1.6955
  563MPD2     N 8358   2.653   1.509  15.831 -0.2027  0.2107 -0.5889
  563MPD2    H5 8359   2.692   1.592  15.876 -0.3123  1.2570 -2.4434
  563MPD2    N1 8360   2.341   1.821  15.615  0.2897  0.0901  0.6786
  563MPD2    H7 8361   2.244   1.814  15.587  0.0866  0.4359  1.3167
  564TMC3    C1 8362   2.302   2.020  15.741  0.1491 -0.6373 -0.8394
  564TMC3    C2 8363   2.175   1.975  15.727  0.3966 -0.0407  0.5597
  564TMC3    C3 8364   2.093   1.960  15.832  0.7508  0.0747  0.2051
  564TMC3    C4 8365   2.352   2.039  15.866 -0.7776 -0.0523  0.6314
  564TMC3    C5 8366   2.274   2.015  15.976  0.5155 -0.4187  0.0233
  564TMC3    C6 8367   2.140   1.991  15.954  0.1110 -0.5642 -0.0158
  564TMC3     C 8368   2.395   1.938  15.660 -0.5091  0.2486 -0.4637
  564TMC3     O 8369   2.512   1.962  15.675 -0.5833  1.1689  0.3446
  564TMC3     H 8370   2.129   1.983  15.629  0.2772 -0.9226  0.5487
  564TMC3    H1 8371   2.460   2.043  15.875 -0.8041 -0.0180  0.9543
  564TMC3    H2 8372   2.080   1.963  16.040  0.0010 -2.8043 -0.8403
  564TMC3    C7 8373   2.344   1.927  16.069 -0.0808  0.7324 -0.2375
  564TMC3    C8 8374   2.021   1.835  15.846 -0.7502 -0.2729 -0.1459
  564TMC3    O1 8375   2.439   1.966  16.134  0.3384 -0.0546  0.4641
  564TMC3    O2 8376   2.036   1.769  15.946  0.0359  0.3600  0.2419
  565TMC3    C1 8377   2.808   3.902   9.928 -0.3794  0.0773  0.2574
  565TMC3    C2 8378   2.923   3.863   9.999  0.2497 -0.3458 -0.2784
  565TMC3    C3 8379   2.924   3.743  10.061  0.1203 -0.2012  0.3943
  565TMC3    C4 8380   2.695   3.824   9.913 -0.3744 -0.2936 -0.5893
  565TMC3    C5 8381   2.704   3.703   9.981 -0.3831 -0.3554  0.0322
  565TMC3    C6 8382   2.816   3.657  10.044  0.2066 -0.2634 -0.1455
  565TMC3     C 8383   2.828   4.020   9.839 -0.0893 -0.1264 -0.2737
  565TMC3     O 8384   2.934   4.075   9.846  0.2573  0.1181  0.5804
  565TMC3     H 8385   3.009   3.927  10.008  0.5337 -0.4558 -2.2084
  565TMC3    H1 8386   2.603   3.863   9.869  0.5343 -1.8945 -3.9379
  565TMC3    H2 8387   2.795   3.579  10.115 -0.5768  0.4111  0.3596
  565TMC3    C7 8388   2.591   3.613   9.975  0.5268  0.0524  0.8747
  565TMC3    C8 8389   3.033   3.697  10.155 -0.4912  0.0347  0.2934
  565TMC3    O1 8390   2.610   3.492   9.984 -0.3307 -0.0598 -0.2745
  565TMC3    O2 8391   3.004   3.593  10.210  0.3479 -0.3374  0.3320
  566MPD2     C 8392   4.654   4.589  14.036  0.4069  0.1282  0.2814
  566MPD2    C1 8393   0.011   4.689  13.992  0.4104  0.4438  0.2472
  566MPD2    C2 8394   4.696   0.045  13.891 -0.5962 -0.1671 -0.2853
  566MPD2    C3 8395   4.588   0.009  13.815 -0.4842  0.3841 -0.5609
  566MPD2    C4 8396   4.501   4.632  13.859  0.0273 -0.7934 -0.7490
  566MPD2    C5 8397   4.534   4.566  13.974  0.1295  0.6627 -0.8577
  566MPD2     H 8398   0.035   0.124  13.855  0.8272 -0.8277  0.7973
  566MPD2    H1 8399   4.409   4.604  13.808 -0.0419  0.9827 -1.5641
  566MPD2    H2 8400   4.683   4.520  14.115  0.6768 -0.5670 -0.4128
  566MPD2    H3 8401   4.468   4.485  14.004  1.0568 -0.1673 -1.0583
  566MPD2     N 8402   4.573   0.085  13.703  0.2913  0.2420  0.0081
  566MPD2    H5 8403   4.613   0.178  13.696  0.1255  0.2594 -0.6890
  566MPD2    N1 8404   0.141   4.695  14.054  0.0888  0.1100  0.0252
  566MPD2    H7 8405   0.158   4.631  14.130  0.5779 -0.1872 -0.3299
  567TMC3    C1 8406   0.377   0.017  14.074  0.0517  0.9805 -0.0159
  567TMC3    C2 8407   0.487   0.063  14.003 -0.0227 -0.7673  0.4620
  567TMC3    C3 8408   0.595   0.095  14.077 -0.0943 -1.2612  0.1522
  567TMC3    C4 8409   0.385   4.704  14.204 -0.0381  1.2174 -0.4818
  567TMC3    C5 8410   0.509   4.705  14.256  1.1582  0.2834 -0.1260
  567TMC3    C6 8411   0.614   0.037  14.196 -0.7358 -0.0851 -0.0443
  567TMC3     C 8412   0.251   0.033  14.003 -0.5113  0.1658 -0.3379
  567TMC3     O 8413   0.257   0.099  13.902 -0.3061 -0.1450  0.0712
  567TMC3     H 8414   0.479   0.095  13.900 -0.9034  0.4338  0.9168
  567TMC3    H1 8415   0.293   4.668  14.248  0.5200 -0.7935 -0.9705
  567TMC3    H2 8416   0.711   0.046  14.243 -0.7605  3.9193 -0.7245
  567TMC3    C7 8417   0.537   4.638  14.381  0.4946  0.1293  0.5452
  567TMC3    C8 8418   0.667   0.215  14.026 -0.4438  0.4390 -0.8990
  567TMC3    O1 8419   0.655   4.616  14.412 -0.2842 -0.1227  0.6520
  567TMC3    O2 8420   0.608   0.274  13.937 -0.5687 -0.3017  0.2568
  568MPD2     C 8421   2.479   0.528  16.280  0.6036 -0.4943  0.2000
  568MPD2    C1 8422   2.364   0.557  16.348 -0.4744  0.3400 -1.0463
  568MPD2    C2 8423   2.290   0.666  16.320 -0.4500 -0.6007 -0.4202
  568MPD2    C3 8424   2.323   0.752  16.217  0.4939 -0.3112  0.3842
  568MPD2    C4 8425   2.439   0.723  16.148  0.2930  0.4421  0.1898
  568MPD2    C5 8426   2.510   0.611  16.173  0.2125  0.7196  0.0176
  568MPD2     H 8427   2.203   0.680  16.382 -0.2866 -0.4243 -0.2324
  568MPD2    H1 8428   2.470   0.781  16.062  2.0314 -0.7020  0.0373
  568MPD2    H2 8429   2.531   0.434  16.289 -1.8136 -2.0777 -2.1261
  568MPD2    H3 8430   2.592   0.583  16.108  0.2285  2.1026 -0.5594
  568MPD2     N 8431   2.236   0.854  16.183 -0.6186  0.0839  0.0132
  568MPD2    H5 8432   2.163   0.886  16.246 -1.3047 -1.9089  0.2326
  568MPD2    N1 8433   2.336   0.463  16.453  0.2234 -0.0188 -0.4353
  568MPD2    H7 8434   2.397   0.382  16.450  0.5353  0.1755  0.6951
  569TMC3    C1 8435   2.138   1.009  16.038  0.3594  0.4461  0.1038
  569TMC3    C2 8436   2.125   1.093  16.142 -0.0997 -0.5060 -0.0502
  569TMC3    C3 8437   2.010   1.176  16.143  0.0405  0.5205 -0.3214
  569TMC3    C4 8438   2.057   1.012  15.930 -0.3095  0.9462  0.5080
  569TMC3    C5 8439   1.949   1.095  15.933  0.3881 -0.3309 -0.3676
  569TMC3    C6 8440   1.918   1.166  16.046 -0.0141  0.5955  0.8888
  569TMC3     C 8441   2.235   0.900  16.057  0.4977 -0.9572 -0.0554
  569TMC3     O 8442   2.292   0.859  15.958  0.3026  0.4353 -0.1383
  569TMC3     H 8443   2.197   1.101  16.222  0.2769  1.3189 -0.5776
  569TMC3    H1 8444   2.074   0.945  15.846  0.4809  2.1448 -0.3048
  569TMC3    H2 8445   1.826   1.222  16.057 -0.0500  0.8024 -0.4273
  569TMC3    C7 8446   1.939   1.175  15.823 -0.0362 -0.5092  0.7959
  569TMC3    C8 8447   2.021   1.313  16.182 -0.1660 -0.0708  0.1991
  569TMC3    O1 8448   1.948   1.117  15.713 -0.1943  0.0043 -0.0593
  569TMC3    O2 8449   1.966   1.398  16.111  0.0364  0.2752  0.4280
  570TMC3    C1 8450   1.491   4.276  16.182  0.3275 -0.6873 -0.2263
  570TMC3    C2 8451   1.570   4.226  16.074  0.6014  0.3639 -0.0827
  570TMC3    C3 8452   1.605   4.313  15.969 -0.1331 -0.4552  0.2645
  570TMC3    C4 8453   1.441   4.406  16.177  0.0261  0.3377 -0.5829
  570TMC3    C5 8454   1.477   4.483  16.074  0.2623 -0.0280  0.0031
  570TMC3    C6 8455   1.563   4.442  15.973  0.6112 -0.3937 -0.2709
  570TMC3     C 8456   1.482   4.191  16.294 -0.4770  0.3396 -0.1694
  570TMC3     O 8457   1.519   4.071  16.284 -0.8033  0.4058 -0.1332
  570TMC3     H 8458   1.633   4.139  16.088 -0.9800 -0.7872 -0.2318
  570TMC3    H1 8459   1.367   4.432  16.252  1.4911  4.2773 -0.5052
  570TMC3    H2 8460   1.592   4.510  15.894 -1.0367  0.0506 -0.4863
  570TMC3    C7 8461   1.378   4.580  16.045  0.3640 -0.3320 -0.6433
  570TMC3    C8 8462   1.724   4.287  15.886 -0.0529 -0.1443 -0.3075
  570TMC3    O1 8463   1.321   4.626  16.139  0.3736  0.0024 -0.2676
  570TMC3    O2 8464   1.753   4.384  15.819 -0.1629  0.3553  0.1936
  571MPD2     C 8465   0.308   1.686  17.209 -0.3981 -0.1453  0.3071
  571MPD2    C1 8466   0.220   1.579  17.215  0.4877 -0.7831 -0.4667
  571MPD2    C2 8467   0.084   1.605  17.251 -0.5063 -0.1948 -0.1846
  571MPD2    C3 8468   0.044   1.740  17.276 -0.8395  0.2324 -0.6051
  571MPD2    C4 8469   0.139   1.844  17.277  0.1021  0.5858  0.2034
  571MPD2    C5 8470   0.268   1.818  17.237 -0.1209  0.9121 -0.2693
  571MPD2     H 8471   0.016   1.522  17.265 -0.9025  0.5969  2.7546
  571MPD2    H1 8472   0.097   1.943  17.292  0.3075  0.9173 -1.3982
  571MPD2    H2 8473   0.413   1.670  17.187 -0.6963 -0.3470 -0.9762
  571MPD2    H3 8474   0.339   1.899  17.230  2.1438 -0.9883  0.7349
  571MPD2     N 8475   4.634   1.775  17.311 -0.6493  0.2463 -0.1130
  571MPD2    H5 8476   4.621   1.872  17.341  1.5655  0.1133  1.3127
  571MPD2    N1 8477   0.273   1.456  17.195  0.2165 -0.1185 -0.2069
  571MPD2    H7 8478   0.374   1.449  17.191  0.2015  0.8161 -1.9117
  572TMC3    C1 8479   4.417   1.739  17.393  0.4669  0.1821 -0.6479
  572TMC3    C2 8480   4.314   1.652  17.433  0.6652  0.2414  0.7043
  572TMC3    C3 8481   4.224   1.697  17.524  0.3049 -0.4853 -0.0121
  572TMC3    C4 8482   4.409   1.873  17.416  0.2917 -0.6688  0.0464
  572TMC3    C5 8483   4.303   1.920  17.501 -0.1235 -0.0718  0.3410
  572TMC3    C6 8484   4.212   1.831  17.557 -0.7560 -0.6542 -0.5140
  572TMC3     C 8485   4.532   1.684  17.334 -0.8359 -0.4805  0.7143
  572TMC3     O 8486   4.520   1.563  17.313 -0.0422 -0.2166  0.0947
  572TMC3     H 8487   4.305   1.547  17.409  0.1573  0.1824  1.1612
  572TMC3    H1 8488   4.441   1.953  17.351  0.1006 -0.0059  0.7686
  572TMC3    H2 8489   4.129   1.858  17.621  1.8669  3.1993  1.3074
  572TMC3    C7 8490   4.270   2.061  17.502 -0.5559 -0.5060 -0.3655
  572TMC3    C8 8491   4.139   1.609  17.595 -0.4058 -0.3629 -0.3887
  572TMC3    O1 8492   4.155   2.087  17.526  0.6441 -0.7425 -0.0077
  572TMC3    O2 8493   4.095   1.515  17.533  0.9002 -0.3223  0.5046
  573MPD2     C 8494   1.145   1.418   0.558  0.3069 -0.1412 -0.2726
  573MPD2    C1 8495   1.180   1.524   0.481  0.4891  0.2965 -0.3062
  573MPD2    C2 8496   1.110   1.533   0.359  0.1525 -0.9453  0.7312
  573MPD2    C3 8497   1.015   1.446   0.311 -0.3699 -0.0904 -0.0059
  573MPD2    C4 8498   0.990   1.341   0.400  0.6769  0.8055 -0.5486
  573MPD2    C5 8499   1.053   1.322   0.520 -0.3912  0.3687 -0.0997
  573MPD2     H 8500   1.128   1.622   0.300 -0.1837 -1.6775 -0.4779
  573MPD2    H1 8501   0.910   1.271   0.381  0.5352  0.3935  1.5733
  573MPD2    H2 8502   1.187   1.431   0.657  1.9745 -0.0219 -1.0017
  573MPD2    H3 8503   1.022   1.245   0.590  2.8382 -0.6666  0.2039
  573MPD2     N 8504   0.939   1.463   0.195  1.1004  0.3604 -0.4933
  573MPD2    H5 8505   0.871   1.388   0.189  1.7385 -0.1244 -1.5485
  573MPD2    N1 8506   1.269   1.618   0.536  0.3384  0.0066 -0.1070
  573MPD2    H7 8507   1.293   1.606   0.634 -2.5336  2.8288  0.9344
  574TMC3    C1 8508   0.859   1.567   0.004  0.5059  0.3246  0.6654
  574TMC3    C2 8509   0.742   1.603   0.059  0.3965  0.4783 -0.6554
  574TMC3    C3 8510   0.662   1.692  17.693  0.4864  0.5342 -0.1067
  574TMC3    C4 8511   0.894   1.617  17.587 -0.0542  0.1608  0.0605
  574TMC3    C5 8512   0.812   1.704  17.520  0.6415  0.4493  0.1470
  574TMC3    C6 8513   0.688   1.744  17.570  0.1176 -0.3563 -0.3069
  574TMC3     C 8514   0.968   1.556   0.097  0.8925 -0.1067  0.3496
  574TMC3     O 8515   1.074   1.614   0.075  0.1428 -0.0908  0.6558
  574TMC3     H 8516   0.716   1.560   0.155  0.0720 -1.2779 -1.5240
  574TMC3    H1 8517   0.980   1.578  17.534 -0.8654 -0.4782 -0.7862
  574TMC3    H2 8518   0.615   1.797  17.511 -0.3099  0.0569  0.6019
  574TMC3    C7 8519   0.843   1.716  17.381 -0.1024 -0.1374  0.9818
  574TMC3    C8 8520   0.559   1.755   0.066  0.1521  0.1083  0.2811
  574TMC3    O1 8521   0.930   1.648  17.329 -0.0498 -0.0671 -0.3454
  574TMC3    O2 8522   0.533   1.705   0.176 -0.1073  0.3086 -0.2139
  575TMC3    C1 8523   3.250   3.275  10.912  0.4264  0.1376  0.8520
  575TMC3    C2 8524   3.257   3.354  11.023 -0.1585 -0.3325 -0.6613
  575TMC3    C3 8525   3.230   3.487  11.011 -0.1762 -0.5503  0.3530
  575TMC3    C4 8526   3.222   3.327  10.785  0.0516  0.7284  0.7546
  575TMC3    C5 8527   3.199   3.459  10.778 -0.8494 -0.3903  0.6724
  575TMC3    C6 8528   3.208   3.545  10.885  0.2576 -0.4620  0.7627
  575TMC3     C 8529   3.289   3.135  10.934 -0.1371 -0.8744  0.7479
  575TMC3     O 8530   3.321   3.095  11.045 -0.0155  0.0609 -0.0241
  575TMC3     H 8531   3.258   3.304  11.119  1.3430  0.8901 -0.0315
  575TMC3    H1 8532   3.234   3.276  10.691  0.2017  1.1282  0.5607
  575TMC3    H2 8533   3.191   3.651  10.869 -0.5920 -0.5738  0.9174
  575TMC3    C7 8534   3.181   3.510  10.645 -0.7559  0.2102  0.0434
  575TMC3    C8 8535   3.270   3.574  11.120  0.2661  0.2272 -0.6108
  575TMC3    O1 8536   3.074   3.499  10.593  0.1126  0.0524 -0.3146
  575TMC3    O2 8537   3.372   3.534  11.174 -0.0810 -0.3955  0.2775
  576MPD2     C 8538   2.917   0.279  12.671 -0.3875 -0.1851  0.1123
  576MPD2    C1 8539   2.940   0.336  12.555  0.0032  0.5624  0.1548
  576MPD2    C2 8540   2.897   0.469  12.524  0.2448 -0.6626 -0.2794
  576MPD2    C3 8541   2.825   0.544  12.620 -0.0467 -0.4133 -0.5729
  576MPD2    C4 8542   2.792   0.478  12.735 -0.4490  0.3587 -0.6469
  576MPD2    C5 8543   2.840   0.349  12.757  0.0268 -0.3769  0.0083
  576MPD2     H 8544   2.933   0.516  12.433  1.1328  1.8247  1.3695
  576MPD2    H1 8545   2.735   0.519  12.818 -0.3082  1.6072 -1.1570
  576MPD2    H2 8546   2.954   0.182  12.700  0.4446 -0.1467 -0.8364
  576MPD2    H3 8547   2.821   0.316  12.859 -1.4018  1.3738  0.2972
  576MPD2     N 8548   2.789   0.682  12.596  0.3411 -0.5060 -0.3854
  576MPD2    H5 8549   2.839   0.727  12.520  0.1990  2.0410  1.0147
  576MPD2    N1 8550   3.015   0.282  12.450 -0.1913 -0.1923  0.2766
  576MPD2    H7 8551   3.018   0.325  12.358  0.5018  0.1765  0.4723
  577TMC3    C1 8552   3.135   0.131  12.330  0.0471 -0.1625 -0.9162
  577TMC3    C2 8553   3.266   0.110  12.324  0.9729 -0.2156  0.1531
  577TMC3    C3 8554   3.339   0.171  12.219 -0.1436 -0.8916 -0.1839
  577TMC3    C4 8555   3.072   0.198  12.227  0.1880 -0.5828 -0.3623
  577TMC3    C5 8556   3.147   0.247  12.120  0.0940  0.3230  0.2555
  577TMC3    C6 8557   3.280   0.220  12.108  0.5543  0.1937  0.0208
  577TMC3     C 8558   3.086   0.163  12.459  0.6330  0.0425  0.1767
  577TMC3     O 8559   3.130   0.112  12.558 -0.0473  0.1796 -0.6229
  577TMC3     H 8560   3.309   0.065  12.412 -0.2525 -2.2420 -0.2676
  577TMC3    H1 8561   2.965   0.213  12.227  0.0957 -1.3140  0.6056
  577TMC3    H2 8562   3.336   0.273  12.031 -2.4875  4.5885  0.8667
  577TMC3    C7 8563   3.100   0.376  12.096 -0.1025  0.1989 -0.9200
  577TMC3    C8 8564   3.482   0.182  12.248 -0.9677  0.6535 -0.2547
  577TMC3    O1 8565   3.039   0.429  12.187  0.0043 -0.0702 -0.1367
  577TMC3    O2 8566   3.517   0.152  12.364  0.3405  0.4912  0.0633
  578MPD2     C 8567   1.151   4.054   0.871  1.3386  0.3629 -0.3437
  578MPD2    C1 8568   1.234   3.965   0.809  0.6586  0.0061 -0.8017
  578MPD2    C2 8569   1.322   3.902   0.891  0.0123  0.2151  0.7557
  578MPD2    C3 8570   1.346   3.934   1.020  0.2618  0.1133 -0.2159
  578MPD2    C4 8571   1.263   4.032   1.081 -0.3594  0.1751 -0.3055
  578MPD2    C5 8572   1.164   4.088   1.007  0.2513  0.2574  0.2530
  578MPD2     H 8573   1.394   3.833   0.847  0.8488  1.4493  0.1610
  578MPD2    H1 8574   1.269   4.066   1.184 -0.0905  0.5055 -0.4332
  578MPD2    H2 8575   1.072   4.096   0.811  0.6125 -2.1617 -1.1641
  578MPD2    H3 8576   1.103   4.169   1.046  2.0846  0.7213  2.1321
  578MPD2     N 8577   1.455   3.880   1.094 -0.1593  0.4302 -0.4843
  578MPD2    H5 8578   1.502   3.800   1.054  1.0388  0.8746  0.0346
  578MPD2    N1 8579   1.207   3.933   0.676 -0.4146  0.3953  0.3477
  578MPD2    H7 8580   1.186   4.011   0.614 -1.9899 -0.1007  0.2620
  579TMC3    C1 8581   1.611   3.841   1.272  0.4430  0.3375  0.1912
  579TMC3    C2 8582   1.676   3.897   1.377  0.3402  0.4231 -0.9207
  579TMC3    C3 8583   1.787   3.833   1.429 -0.1814  0.5586 -0.0221
  579TMC3    C4 8584   1.654   3.726   1.206  0.5305 -0.6662 -0.5161
  579TMC3    C5 8585   1.761   3.663   1.266 -0.0753  0.5880  0.1835
  579TMC3    C6 8586   1.827   3.712   1.378 -0.5241 -0.8813 -0.7041
  579TMC3     C 8587   1.508   3.925   1.209  0.8466  1.5179  0.4046
  579TMC3     O 8588   1.480   4.024   1.273  0.0518 -0.4438  0.7396
  579TMC3     H 8589   1.643   3.994   1.413 -4.9541 -0.7721 -2.6657
  579TMC3    H1 8590   1.589   3.675   1.136 -1.1229  0.2561  0.3498
  579TMC3    H2 8591   1.904   3.649   1.420  0.1511 -0.2620 -1.0093
  579TMC3    C7 8592   1.826   3.546   1.207 -0.1051 -0.4635 -0.6178
  579TMC3    C8 8593   1.836   3.885   1.554 -0.2623 -0.3108 -0.1239
  579TMC3    O1 8594   1.913   3.487   1.269  0.1369  0.0840  0.2558
  579TMC3    O2 8595   1.761   3.951   1.630 -0.3308 -0.1181  0.0613
  580TMC3    C1 8596   0.565   3.957  12.394 -0.1423 -1.0918 -0.9307
  580TMC3    C2 8597   0.636   4.055  12.462  0.3232  0.1465 -0.0170
  580TMC3    C3 8598   0.771   4.030  12.498 -1.1430  1.2780 -0.6445
  580TMC3    C4 8599   0.624   3.833  12.393 -0.5962  0.4463 -0.3974
  580TMC3    C5 8600   0.746   3.806  12.448  1.0443 -0.1128  0.1862
  580TMC3    C6 8601   0.827   3.907  12.493  0.6741  0.5596  0.3435
  580TMC3     C 8602   0.535   4.009  12.263  0.0587  0.2788 -0.3486
  580TMC3     O 8603   0.609   3.978  12.170 -0.1542  0.0093 -0.0064
  580TMC3     H 8604   0.606   4.159  12.469 -0.3124 -0.1177  1.2985
  580TMC3    H1 8605   0.575   3.762  12.327 -0.6205 -1.4424  1.6401
  580TMC3    H2 8606   0.923   3.888  12.540  0.1378 -2.2083  0.3318
  580TMC3    C7 8607   0.791   3.671  12.479  0.1948 -1.0900 -0.5063
  580TMC3    C8 8608   0.860   4.135  12.462  0.4752  0.4079  0.1068
  580TMC3    O1 8609   0.895   3.662  12.553  0.3153  0.1771  0.2940
  580TMC3    O2 8610   0.823   4.250  12.485 -0.7625 -0.0253  0.1300
  581MPD2     C 8611   3.069   2.963  14.903 -0.0528  0.4225 -0.3185
  581MPD2    C1 8612   3.175   2.957  14.812  0.4937  0.9407 -0.3462
  581MPD2    C2 8613   3.185   3.046  14.709 -0.3907  0.3674  0.1561
  581MPD2    C3 8614   3.089   3.150  14.706  0.6397  0.7652 -0.6983
  581MPD2    C4 8615   2.983   3.153  14.798  0.7334  0.6404  0.2105
  581MPD2    C5 8616   2.974   3.056  14.889  0.5574  0.1936  0.1002
  581MPD2     H 8617   3.267   3.049  14.638  0.9871 -1.4321  1.6896
  581MPD2    H1 8618   2.901   3.223  14.797 -0.1241 -0.3464  1.2169
  581MPD2    H2 8619   3.059   2.884  14.977 -0.5456  1.6975  0.9752
  581MPD2    H3 8620   2.895   3.052  14.963  0.9513  2.4175  0.6508
  581MPD2     N 8621   3.089   3.260  14.608 -0.5349  0.5869 -0.4945
  581MPD2    H5 8622   3.001   3.309  14.599  0.7938  2.9900 -0.2321
  581MPD2    N1 8623   3.256   2.844  14.835 -0.4355 -0.0354  0.3414
  581MPD2    H7 8624   3.226   2.785  14.912 -3.4189 -2.6878 -2.8821
  582TMC3    C1 8625   3.432   2.705  14.830  0.3436 -0.0848 -0.4565
  582TMC3    C2 8626   3.527   2.746  14.914 -0.0972 -0.5683  0.4896
  582TMC3    C3 8627   3.534   2.719  15.042  0.1017  0.6999  0.0066
  582TMC3    C4 8628   3.345   2.618  14.887  0.3280  0.5017  0.4467
  582TMC3    C5 8629   3.354   2.577  15.020 -0.3607 -0.3849 -0.2037
  582TMC3    C6 8630   3.450   2.631  15.103 -0.3124  0.5480  0.1455
  582TMC3     C 8631   3.376   2.825  14.775 -0.1281  0.0990  0.1180
  582TMC3     O 8632   3.444   2.888  14.695 -0.3648 -0.1675 -0.0615
  582TMC3     H 8633   3.591   2.821  14.869 -1.0600 -0.0383  0.0033
  582TMC3    H1 8634   3.255   2.591  14.832  0.6446  0.0222  0.1697
  582TMC3    H2 8635   3.453   2.587  15.203 -1.4737 -0.5407 -0.2888
  582TMC3    C7 8636   3.225   2.546  15.081 -0.0723 -0.0881  0.0730
  582TMC3    C8 8637   3.638   2.772  15.123 -0.1359  0.0237 -0.3970
  582TMC3    O1 8638   3.164   2.451  15.034  0.2260  0.3412 -0.6316
  582TMC3    O2 8639   3.747   2.804  15.073  0.2553  0.5943  0.4331
  583MPD2     C 8640   3.514   0.001  17.088  0.4058  0.0992  0.3974
  583MPD2    C1 8641   3.495   0.101  16.993  0.2489  0.2671 -0.5565
  583MPD2    C2 8642   3.468   0.230  17.035  0.1553 -0.0019 -0.5682
  583MPD2    C3 8643   3.446   0.256  17.175 -0.7398 -0.0766  0.1805
  583MPD2    C4 8644   3.473   0.152  17.260  0.6438  0.1763 -0.4765
  583MPD2    C5 8645   3.513   0.028  17.219 -0.8145 -0.3603 -0.6113
  583MPD2     H 8646   3.456   0.309  16.962  0.1393  0.1169 -0.4366
  583MPD2    H1 8647   3.458   0.158  17.368 -1.3665  0.2461 -0.7619
  583MPD2    H2 8648   3.547   4.631  17.050 -0.9347 -0.5254  0.8032
  583MPD2    H3 8649   3.522   4.669  17.285 -0.9102  0.2530  0.1823
  583MPD2     N 8650   3.402   0.382  17.212 -0.3843  0.0578 -0.0911
  583MPD2    H5 8651   3.360   0.434  17.135  1.9584  2.0596 -0.0267
  583MPD2    N1 8652   3.513   0.082  16.859 -0.0548  0.1300 -1.0758
  583MPD2    H7 8653   3.480   0.151  16.792 -1.0556 -0.4379 -1.1710
  584TMC3    C1 8654   3.373   0.571  17.365  0.2725  0.4121  0.0822
  584TMC3    C2 8655   3.373   0.662  17.264 -0.5750  0.0097  0.1741
  584TMC3    C3 8656   3.357   0.796  17.287 -0.5005 -0.4388  0.5320
  584TMC3    C4 8657   3.355   0.615  17.489 -0.2536 -0.4121  0.3631
  584TMC3    C5 8658   3.326   0.746  17.521  0.1247 -0.2312  0.2460
  584TMC3    C6 8659   3.330   0.843  17.421  0.3042 -0.5448  0.2949
  584TMC3     C 8660   3.410   0.428  17.342 -0.6046  0.7771 -0.1144
  584TMC3     O 8661   3.454   0.369  17.439  0.5634 -0.0460  0.1887
  584TMC3     H 8662   3.387   0.634  17.160 -1.6312  0.1365 -0.0065
  584TMC3    H1 8663   3.360   0.541  17.568  2.0630 -2.1992 -1.4320
  584TMC3    H2 8664   3.320   0.948  17.444  0.7034 -0.6586  0.9878
  584TMC3    C7 8665   3.309   0.780  17.658 -0.1632  0.1528  0.3814
  584TMC3    C8 8666   3.389   0.890  17.185 -1.0266  0.4130  1.1350
  584TMC3    O1 8667   3.338   0.693   0.038  0.1867  0.1929 -0.4357
  584TMC3    O2 8668   3.367   0.845  17.072  0.4665 -0.2371  0.3294
  585MPD2     C 8669   2.618   4.332   0.500  0.2217  0.1025  0.3833
  585MPD2    C1 8670   2.747   4.327   0.458 -0.2526 -1.3902  0.3636
  585MPD2    C2 8671   2.774   4.300   0.324 -0.0875 -0.2330  0.3570
  585MPD2    C3 8672   2.675   4.267   0.231 -0.1326  0.1674 -0.3056
  585MPD2    C4 8673   2.542   4.288   0.277 -0.8215  0.7103 -0.1993
  585MPD2    C5 8674   2.516   4.309   0.412  0.7759 -0.1114  0.5365
  585MPD2     H 8675   2.876   4.312   0.288 -1.2125 -1.1665 -3.1726
  585MPD2    H1 8676   2.460   4.275   0.208 -1.5673 -2.1811  1.2566
  585MPD2    H2 8677   2.602   4.339   0.607  0.6686 -0.2754  0.4745
  585MPD2    H3 8678   2.411   4.317   0.437  0.5234 -1.4152 -0.0863
  585MPD2     N 8679   2.700   4.229   0.099 -0.5242  0.6086 -0.1978
  585MPD2    H5 8680   2.618   4.233   0.039 -1.9855  0.8392  1.8216
  585MPD2    N1 8681   2.850   4.341   0.551 -0.4199  0.1431 -0.1050
  585MPD2    H7 8682   2.828   4.380   0.642  1.4040  1.0202 -0.0429
  586TMC3    C1 8683   2.836   4.137  17.628 -0.3721  0.7610 -0.0574
  586TMC3    C2 8684   2.927   4.037  17.597  0.6205  0.3311  0.9036
  586TMC3    C3 8685   2.902   3.974  17.469 -0.3543  0.0255  0.2668
  586TMC3    C4 8686   2.742   4.180  17.544 -0.0490 -0.0302  0.1197
  586TMC3    C5 8687   2.726   4.113  17.421 -0.5416 -0.4967 -0.6962
  586TMC3    C6 8688   2.805   4.012  17.379 -0.7809  0.7018  0.3008
  586TMC3     C 8689   2.824   4.175   0.062 -0.5249 -0.4678  0.6195
  586TMC3     O 8690   2.910   4.136   0.136  0.3348  0.0096  0.3332
  586TMC3     H 8691   3.009   4.012  17.663  1.7298 -0.6752 -0.8288
  586TMC3    H1 8692   2.678   4.264  17.566  0.6321  0.9608 -1.6958
  586TMC3    H2 8693   2.794   3.962  17.284 -1.2160 -0.2560  0.8518
  586TMC3    C7 8694   2.593   4.106  17.381 -0.3637  0.2049  0.2205
  586TMC3    C8 8695   2.961   3.840  17.446  0.3061  0.4147 -0.4534
  586TMC3    O1 8696   2.524   4.210  17.385  0.3008  0.0834  1.1295
  586TMC3    O2 8697   2.933   3.775  17.343  0.0203  0.0644  0.2478
  587TMC3    C1 8698   0.144   2.588  16.325  0.3438 -0.0594  1.0736
  587TMC3    C2 8699   0.086   2.713  16.313  0.0654  0.9846  0.3993
  587TMC3    C3 8700   0.163   2.801  16.241 -0.3244  0.3150 -0.2020
  587TMC3    C4 8701   0.259   2.552  16.263  0.3317  0.5938 -0.3124
  587TMC3    C5 8702   0.330   2.648  16.193 -0.1704  1.5586  0.6685
  587TMC3    C6 8703   0.292   2.779  16.188 -0.2228 -0.2789 -0.0813
  587TMC3     C 8704   0.063   2.475  16.375  0.2616  0.0009 -0.2729
  587TMC3     O 8705   0.116   2.368  16.399 -0.0783  0.1427 -0.4048
  587TMC3     H 8706   4.717   2.747  16.354  0.1326 -1.7140  2.8083
  587TMC3    H1 8707   0.294   2.449  16.259 -1.5321 -0.0168 -0.7548
  587TMC3    H2 8708   0.338   2.869  16.149  0.0996 -0.1705  0.5477
  587TMC3    C7 8709   0.446   2.612  16.114 -0.3683  0.0475 -0.2612
  587TMC3    C8 8710   0.110   2.935  16.238  0.6842 -0.0812 -0.0302
  587TMC3    O1 8711   0.518   2.530  16.165  0.4808 -0.3754  0.7260
  587TMC3    O2 8712   0.110   2.992  16.126  0.4012  0.1724  0.2111
  588TMC3    C1 8713   2.831   1.047   9.630  0.3237  0.6524  0.0617
  588TMC3    C2 8714   2.771   0.921   9.636  0.3690  1.0443  0.0560
  588TMC3    C3 8715   2.805   0.831   9.736  0.7090 -0.2991 -0.2516
  588TMC3    C4 8716   2.931   1.069   9.720 -0.7051 -0.2984  0.6702
  588TMC3    C5 8717   2.979   0.974   9.798  0.3542 -0.0515 -0.1889
  588TMC3    C6 8718   2.917   0.855   9.807 -0.1874  0.0569  0.1595
  588TMC3     C 8719   2.754   1.151   9.585  0.2981  0.1735 -0.3311
  588TMC3     O 8720   2.631   1.136   9.604 -0.3307  0.5734 -0.0690
  588TMC3     H 8721   2.687   0.906   9.569 -0.8531  0.2104  1.7928
  588TMC3    H1 8722   2.966   1.172   9.725  0.4389 -0.5735 -2.0297
  588TMC3    H2 8723   2.951   0.784   9.881  1.6125  1.0742  0.3089
  588TMC3    C7 8724   3.113   0.987   9.859  0.1882  0.2092  0.4454
  588TMC3    C8 8725   2.733   0.699   9.728 -0.8018 -0.4479  0.3930
  588TMC3    O1 8726   3.142   0.922   9.960  0.4483  0.7097  0.0018
  588TMC3    O2 8727   2.660   0.680   9.632 -0.0806 -0.5817 -0.2474
  589TMC3    C1 8728   1.739   2.681   1.357 -0.2734 -0.8823 -0.0088
  589TMC3    C2 8729   1.817   2.675   1.469 -0.8660 -0.0463  0.2285
  589TMC3    C3 8730   1.926   2.584   1.473 -0.4111 -0.4873  0.2152
  589TMC3    C4 8731   1.754   2.582   1.253 -0.6643 -0.2996  0.1786
  589TMC3    C5 8732   1.863   2.501   1.266 -0.7915 -0.0887 -0.1309
  589TMC3    C6 8733   1.944   2.492   1.376 -0.1931  0.4057 -0.4724
  589TMC3     C 8734   1.634   2.783   1.336  0.4554 -0.3494 -0.3351
  589TMC3     O 8735   1.595   2.789   1.217 -0.7743  0.3769  0.7140
  589TMC3     H 8736   1.830   2.763   1.531 -2.8701  1.5497 -1.6480
  589TMC3    H1 8737   1.696   2.591   1.162 -0.7324 -1.7651  0.0849
  589TMC3    H2 8738   2.016   2.412   1.382 -1.8275 -0.7999  2.9455
  589TMC3    C7 8739   1.922   2.436   1.149 -0.4194  0.0397  0.5609
  589TMC3    C8 8740   2.011   2.573   1.596  0.1123 -0.8465 -0.2567
  589TMC3    O1 8741   2.024   2.374   1.156  0.2886  0.1908  0.0031
  589TMC3    O2 8742   1.966   2.614   1.702  0.0639  0.2765  0.0147
  590MPD2     C 8743   0.981   0.702  16.395  0.1545 -0.2339  0.8378
  590MPD2    C1 8744   0.917   0.781  16.311 -0.4761  0.2056 -0.0547
  590MPD2    C2 8745   1.000   0.853  16.234  0.4656  0.1802  0.3785
  590MPD2    C3 8746   1.139   0.864  16.241 -0.2179 -0.6289 -0.0174
  590MPD2    C4 8747   1.196   0.779  16.335 -0.7702  0.7056 -0.2351
  590MPD2    C5 8748   1.114   0.698  16.411  0.0918 -0.2075 -0.8203
  590MPD2     H 8749   0.941   0.912  16.165  0.7953 -2.4876 -2.1316
  590MPD2    H1 8750   1.300   0.788  16.366 -1.0566 -4.1257  2.1490
  590MPD2    H2 8751   0.926   0.632  16.458 -1.5331 -0.7301 -1.1494
  590MPD2    H3 8752   1.158   0.623  16.475  0.7352  1.0688  0.2290
  590MPD2     N 8753   1.204   0.972  16.181 -0.6477 -0.3725  0.6472
  590MPD2    H5 8754   1.149   1.034  16.122 -1.5488 -1.6210  0.1721
  590MPD2    N1 8755   0.769   0.783  16.312  0.7885  0.7300 -0.2504
  590MPD2    H7 8756   0.725   0.736  16.390  0.3887 -0.1033 -0.9732
  591TMC3    C1 8757   1.377   1.080  16.073  0.2336  0.6020  0.3883
  591TMC3    C2 8758   1.477   1.058  15.978 -0.2832  0.9052  0.3445
  591TMC3    C3 8759   1.514   1.154  15.889 -0.7180  0.3648 -0.8980
  591TMC3    C4 8760   1.309   1.203  16.078  0.0388 -0.0391  0.7503
  591TMC3    C5 8761   1.344   1.297  15.985 -0.0047  0.2199  0.2921
  591TMC3    C6 8762   1.437   1.267  15.889 -0.2827  0.1679 -0.0768
  591TMC3     C 8763   1.343   0.985  16.165 -0.5284 -0.5367  0.3964
  591TMC3     O 8764   1.433   0.908  16.201  0.0331 -0.0538 -0.0284
  591TMC3     H 8765   1.514   0.956  15.978  0.0112  1.0185  1.6367
  591TMC3    H1 8766   1.224   1.209  16.145  0.3800 -2.7514  1.4239
  591TMC3    H2 8767   1.446   1.337  15.807  2.0527 -0.7708 -0.6274
  591TMC3    C7 8768   1.252   1.401  15.968 -0.2984 -0.0439 -0.8247
  591TMC3    C8 8769   1.590   1.110  15.776  0.3112 -0.2373 -0.2046
  591TMC3    O1 8770   1.142   1.396  16.019 -0.4186  0.4679  0.0366
  591TMC3    O2 8771   1.652   1.003  15.794  0.1322  0.2089  0.1986
  592MPD2     C 8772   1.913   3.563  11.560  0.3483  0.0937 -0.4903
  592MPD2    C1 8773   1.910   3.601  11.690 -0.3897  0.3530  0.4563
  592MPD2    C2 8774   1.815   3.540  11.776 -0.5207 -0.3119  0.4184
  592MPD2    C3 8775   1.744   3.428  11.739 -0.4965 -1.0622 -0.5813
  592MPD2    C4 8776   1.769   3.379  11.612  0.0240 -0.3125 -0.6138
  592MPD2    C5 8777   1.835   3.458  11.523  0.3157 -0.1414 -0.3297
  592MPD2     H 8778   1.817   3.565  11.882  0.9015  1.0489  0.0698
  592MPD2    H1 8779   1.723   3.285  11.584  1.5355 -0.7681 -1.5514
  592MPD2    H2 8780   1.979   3.606  11.485 -2.0410  0.7006 -2.2572
  592MPD2    H3 8781   1.846   3.424  11.421  0.1377 -0.2785 -0.3038
  592MPD2     N 8782   1.670   3.358  11.839 -0.2656 -0.0507 -0.1446
  592MPD2    H5 8783   1.686   3.385  11.936  0.1467 -0.0603 -0.2078
  592MPD2    N1 8784   2.001   3.707  11.727 -0.6699  0.2638  0.4578
  592MPD2    H7 8785   2.049   3.760  11.656 -1.5823  0.6085  0.0932
  593TMC3    C1 8786   2.151   3.833  11.856 -0.2434 -0.6966 -0.3459
  593TMC3    C2 8787   2.220   3.834  11.974  0.1571 -0.2863 -0.1320
  593TMC3    C3 8788   2.347   3.893  11.966  0.0943  0.2785 -0.4666
  593TMC3    C4 8789   2.186   3.891  11.743  0.2767 -0.0250 -0.6500
  593TMC3    C5 8790   2.309   3.952  11.739 -0.7393  0.1473 -0.4250
  593TMC3    C6 8791   2.393   3.954  11.852  1.2179 -0.3549 -0.4611
  593TMC3     C 8792   2.029   3.748  11.854 -0.1166 -0.3850 -0.8517
  593TMC3     O 8793   1.984   3.707  11.961 -0.0957  0.1017  0.4259
  593TMC3     H 8794   2.178   3.799  12.067  1.2893 -1.2827  0.0130
  593TMC3    H1 8795   2.112   3.901  11.664  0.9258 -2.8087 -1.6210
  593TMC3    H2 8796   2.484   4.012  11.862  0.6737  0.5206 -0.5577
  593TMC3    C7 8797   2.361   4.008  11.623 -0.0409 -0.1371 -0.3073
  593TMC3    C8 8798   2.394   3.952  12.091  0.9769  0.1526 -0.0348
  593TMC3    O1 8799   2.478   4.043  11.640  0.4461  0.2595 -0.1697
  593TMC3    O2 8800   2.401   4.076  12.092 -0.2306  0.2924  0.3374
  594MPD2     C 8801   0.029   1.993  13.758  0.4617  0.2248  0.2470
  594MPD2    C1 8802   0.042   1.966  13.892 -0.1902 -0.1453 -0.1784
  594MPD2    C2 8803   0.149   2.014  13.964 -0.2658 -0.0258 -0.3623
  594MPD2    C3 8804   0.257   2.069  13.907  0.5598  0.0024  0.2463
  594MPD2    C4 8805   0.245   2.089  13.770  0.1188  0.2792  0.6902
  594MPD2    C5 8806   0.136   2.050  13.696 -0.1458 -0.2578  0.0102
  594MPD2     H 8807   0.150   1.994  14.071 -1.5825  0.2915 -0.2837
  594MPD2    H1 8808   0.323   2.146  13.721 -1.3414  1.8883  0.2315
  594MPD2    H2 8809   4.679   1.941  13.701 -0.3372  0.7784  0.7905
  594MPD2    H3 8810   0.134   2.071  13.590  0.0270 -1.8133 -0.2940
  594MPD2     N 8811   0.360   2.110  13.989  0.1294 -0.4121 -0.5338
  594MPD2    H5 8812   0.346   2.103  14.089 -0.4423  0.0894 -0.5798
  594MPD2    N1 8813   4.653   1.911  13.953 -0.0755 -0.7836 -0.4660
  594MPD2    H7 8814   4.576   1.888  13.891 -0.5717 -3.3749  1.1263
  595TMC3    C1 8815   0.750   2.328  14.088  0.2364 -0.1400  0.5194
  595TMC3    C2 8816   0.693   2.222  14.021  0.7742  0.2355  0.3400
  595TMC3    C3 8817   0.562   2.205  14.054 -0.5675 -0.6957  0.3260
  595TMC3    C4 8818   0.688   2.400  14.189  0.8213  0.2040  0.2419
  595TMC3    C5 8819   0.555   2.377  14.215 -0.4174 -0.2708 -0.3032
  595TMC3    C6 8820   0.494   2.274  14.149 -0.2308 -0.1313 -0.5278
  595TMC3     C 8821   0.899   2.335  14.100  0.4147 -1.2053  0.8460
  595TMC3     O 8822   0.938   2.431  14.165 -0.2180  0.0440 -0.8825
  595TMC3     H 8823   0.731   2.178  13.929  1.2247 -0.6378  0.9454
  595TMC3    H1 8824   0.730   2.496  14.214  0.4795  0.3451  0.2667
  595TMC3    H2 8825   0.390   2.255  14.172  0.5856  0.9790  3.9178
  595TMC3    C7 8826   0.484   2.457  14.312 -0.6663  0.4081  0.0380
  595TMC3    C8 8827   0.484   2.150  13.942  0.3276 -0.3140 -0.4263
  595TMC3    O1 8828   0.371   2.421  14.343  0.6834  0.6020  0.3050
  595TMC3    O2 8829   0.526   2.149  13.825  0.5178  0.5258  0.3907
  596MPD2     C 8830   4.264   4.427  16.828 -0.1963 -0.1306  0.0028
  596MPD2    C1 8831   4.268   4.557  16.775  0.3349 -0.3013  0.7042
  596MPD2    C2 8832   4.256   4.580  16.640  0.3640 -0.2562 -0.3683
  596MPD2    C3 8833   4.243   4.474  16.551 -0.6366  0.3481  0.6259
  596MPD2    C4 8834   4.229   4.349  16.602  0.7143  0.2644 -0.0869
  596MPD2    C5 8835   4.251   4.324  16.738  0.0310  0.3958  0.1195
  596MPD2     H 8836   4.260   4.684  16.612 -0.6039  0.1059  0.8356
  596MPD2    H1 8837   4.206   4.267  16.535  0.4009  1.2749 -1.2143
  596MPD2    H2 8838   4.253   4.404  16.934 -0.9423  0.4080  0.0396
  596MPD2    H3 8839   4.242   4.222  16.774  3.6769 -0.9508 -2.8150
  596MPD2     N 8840   4.231   4.476  16.410  0.7666  0.1246  0.1290
  596MPD2    H5 8841   4.214   4.387  16.366 -0.3753  0.4429 -0.0543
  596MPD2    N1 8842   4.272   4.667  16.858  0.2013 -0.0707  0.7299
  596MPD2    H7 8843   4.262   0.031  16.811 -1.3503 -1.2808 -1.2091
  597TMC3    C1 8844   4.248   0.077  17.059 -0.1196  0.1721  0.0947
  597TMC3    C2 8845   4.228   0.186  16.973  0.6716  0.0003  0.3648
  597TMC3    C3 8846   4.211   0.308  17.038  0.4595 -0.7800 -0.5415
  597TMC3    C4 8847   4.248   0.087  17.201  0.7226 -0.4723 -0.1748
  597TMC3    C5 8848   4.217   0.201  17.249  0.2791  0.3305  0.4251
  597TMC3    C6 8849   4.201   0.313  17.175 -0.3604  0.1152 -0.0737
  597TMC3     C 8850   4.277   4.671  16.995  0.3680 -0.6854  0.4119
  597TMC3     O 8851   4.292   4.575  17.072  0.2020 -0.0649 -0.1600
  597TMC3     H 8852   4.242   0.185  16.865  0.5531  1.4268  0.3375
  597TMC3    H1 8853   4.274   0.006  17.269  0.9422  0.7592  1.2048
  597TMC3    H2 8854   4.195   0.408  17.227  1.4128  0.4493 -0.5155
  597TMC3    C7 8855   4.153   0.208  17.380 -0.0812 -0.5905 -0.2230
  597TMC3    C8 8856   4.190   0.419  16.950  0.5139  0.5947 -0.7254
  597TMC3    O1 8857   4.101   0.315  17.414 -0.1835 -0.0272 -0.0702
  597TMC3    O2 8858   4.164   0.390  16.834  0.1674 -0.6427  0.2320
  598TMC3    C1 8859   2.299   1.775  15.188  0.3672  0.3842 -0.1717
  598TMC3    C2 8860   2.212   1.672  15.178 -0.3944 -0.5261  0.9961
  598TMC3    C3 8861   2.217   1.608  15.056 -0.2996  0.6548  0.0094
  598TMC3    C4 8862   2.396   1.804  15.094  0.7644  0.4827  0.5051
  598TMC3    C5 8863   2.393   1.742  14.970  0.5952 -0.0144 -0.5096
  598TMC3    C6 8864   2.311   1.632  14.954  0.0835 -0.7111 -0.7616
  598TMC3     C 8865   2.273   1.884  15.294  0.6280  0.1550 -0.2910
  598TMC3     O 8866   2.187   1.849  15.375 -0.0173  0.0577  0.0139
  598TMC3     H 8867   2.129   1.660  15.246 -1.9651 -0.0781 -0.8578
  598TMC3    H1 8868   2.464   1.888  15.105  1.0620  0.4677 -1.2660
  598TMC3    H2 8869   2.305   1.581  14.858  0.3500 -1.5508 -0.3351
  598TMC3    C7 8870   2.475   1.762  14.851  0.5261  0.4428  0.4161
  598TMC3    C8 8871   2.156   1.474  15.059 -0.2513  0.3376  0.7765
  598TMC3    O1 8872   2.465   1.692  14.752  0.2144 -0.7537  0.1288
  598TMC3    O2 8873   2.135   1.421  14.948 -0.0077 -0.0322  0.4963
  599MPD2     C 8874   2.708   3.953  16.183  0.4882  0.1497  0.0879
  599MPD2    C1 8875   2.634   3.858  16.118  0.3295 -0.1358 -0.4485
  599MPD2    C2 8876   2.493   3.878  16.099  0.3094 -0.1080 -0.2443
  599MPD2    C3 8877   2.432   3.990  16.159 -0.3460  0.8860  0.0526
  599MPD2    C4 8878   2.509   4.083  16.235  0.3714  0.3253  0.3866
  599MPD2    C5 8879   2.646   4.068  16.234  0.0655 -0.2270  0.0042
  599MPD2     H 8880   2.437   3.797  16.055  1.3502  0.2326 -2.2007
  599MPD2    H1 8881   2.468   4.177  16.270  0.6538  1.0660 -1.2747
  599MPD2    H2 8882   2.816   3.953  16.186  0.5357  3.5090 -1.7772
  599MPD2    H3 8883   2.707   4.147  16.278 -0.2150  0.7394 -1.3267
  599MPD2     N 8884   2.290   4.020  16.150 -0.0792  0.4204 -0.0575
  599MPD2    H5 8885   2.252   4.094  16.207  0.0463  1.7204 -1.6414
  599MPD2    N1 8886   2.707   3.753  16.056  0.5651  0.3681 -0.4990
  599MPD2    H7 8887   2.805   3.746  16.081  0.8866  0.2358 -1.7806
  600TMC3    C1 8888   2.075   3.993  16.108  0.3267  0.4655  0.0383
  600TMC3    C2 8889   1.998   3.889  16.151 -0.4118  0.3629 -0.1986
  600TMC3    C3 8890   1.879   3.905  16.216 -0.4629 -0.0756 -0.2194
  600TMC3    C4 8891   2.035   4.124  16.141 -0.5668 -0.3082  0.2530
  600TMC3    C5 8892   1.920   4.141  16.216 -0.2181  0.0069 -0.4665
  600TMC3    C6 8893   1.844   4.031  16.254 -0.1459  0.3281 -0.0688
  600TMC3     C 8894   2.206   3.957  16.066  0.6591  1.0331  0.3569
  600TMC3     O 8895   2.231   3.863  15.992 -0.6547 -0.1386 -0.8277
  600TMC3     H 8896   2.055   3.797  16.142  0.0844  0.4980  1.5044
  600TMC3    H1 8897   2.103   4.202  16.111 -0.4981 -0.7979 -0.8690
  600TMC3    H2 8898   1.755   4.047  16.313  0.2346 -2.0091  1.1270
  600TMC3    C7 8899   1.863   4.279  16.242 -0.1425  0.2438 -0.6851
  600TMC3    C8 8900   1.819   3.786  16.278  0.4209  0.0326 -0.6085
  600TMC3    O1 8901   1.775   4.296  16.324  0.2625  0.1927 -0.7614
  600TMC3    O2 8902   1.884   3.687  16.301  0.7304 -0.2064 -0.4797
  601MPD2     C 8903   4.318   2.550  17.376 -0.7493 -0.1043  0.2206
  601MPD2    C1 8904   4.220   2.480  17.446  0.3616 -0.4426 -0.0322
  601MPD2    C2 8905   4.242   2.353  17.487 -0.1809  0.0285 -0.3838
  601MPD2    C3 8906   4.359   2.287  17.442 -0.2470  0.1311  0.1225
  601MPD2    C4 8907   4.459   2.347  17.371 -0.5756  0.1450  0.7659
  601MPD2    C5 8908   4.439   2.481  17.343 -0.1719  0.0085  0.2047
  601MPD2     H 8909   4.166   2.295  17.538  1.7204 -0.5953  1.7396
  601MPD2    H1 8910   4.533   2.295  17.310  0.0449  2.1157 -0.1712
  601MPD2    H2 8911   4.295   2.651  17.344 -0.3487 -0.1603 -0.2396
  601MPD2    H3 8912   4.510   2.534  17.281 -1.4813  1.5666  0.0278
  601MPD2     N 8913   4.373   2.149  17.458  0.2156  0.1116  0.2971
  601MPD2    H5 8914   4.462   2.102  17.441  0.4531  0.5790  0.2585
  601MPD2    N1 8915   4.089   2.535  17.477  0.4720  0.1105  0.2261
  601MPD2    H7 8916   4.016   2.483  17.524  0.2396  0.5061  0.3024
  602TMC3    C1 8917   3.903   2.664  17.433 -0.9619  0.1513 -0.4096
  602TMC3    C2 8918   3.842   2.783  17.453 -0.0650 -0.3463  0.4074
  602TMC3    C3 8919   3.706   2.794  17.450 -0.3789  0.2509  0.3301
  602TMC3    C4 8920   3.829   2.544  17.411  0.3992 -0.4714 -0.4607
  602TMC3    C5 8921   3.692   2.556  17.414  0.7402 -0.2063 -0.3743
  602TMC3    C6 8922   3.636   2.679  17.432  0.5396  1.0662 -0.1568
  602TMC3     C 8923   4.046   2.660  17.447  0.1743 -0.2271 -0.3446
  602TMC3     O 8924   4.105   2.768  17.423 -0.3006 -0.3317  0.3158
  602TMC3     H 8925   3.897   2.876  17.454 -0.2509 -0.2213 -1.2034
  602TMC3    H1 8926   3.877   2.447  17.399 -0.5215 -0.8162 -1.3647
  602TMC3    H2 8927   3.528   2.685  17.437  0.3407  0.1948 -3.2276
  602TMC3    C7 8928   3.622   2.451  17.342  0.0284 -0.2979 -0.2978
  602TMC3    C8 8929   3.640   2.918  17.410  0.5027  0.3952  0.3364
  602TMC3    O1 8930   3.702   2.362  17.311 -0.0411  0.1670 -0.5713
  602TMC3    O2 8931   3.665   3.017  17.475  0.3438  0.2758 -0.1018
  603TMC3    C1 8932   2.204   3.280  11.343 -0.8402  0.5730 -0.4537
  603TMC3    C2 8933   2.277   3.208  11.438  0.4463 -0.7011 -0.1635
  603TMC3    C3 8934   2.414   3.211  11.418 -0.1703 -0.2546 -0.1621
  603TMC3    C4 8935   2.263   3.332  11.234  0.0033 -0.4937 -0.5893
  603TMC3    C5 8936   2.404   3.326  11.227 -0.2822  0.2206  0.2525
  603TMC3    C6 8937   2.479   3.275  11.323  0.4557  0.5150 -0.8679
  603TMC3     C 8938   2.074   3.221  11.302  0.1591 -0.1253  0.1294
  603TMC3     O 8939   2.034   3.238  11.184 -0.2663  0.0291 -0.6541
  603TMC3     H 8940   2.236   3.157  11.524 -0.1142 -0.3979 -0.2515
  603TMC3    H1 8941   2.207   3.398  11.169  2.9856  0.8540 -1.8084
  603TMC3    H2 8942   2.583   3.255  11.300 -0.0286 -0.5700 -2.1469
  603TMC3    C7 8943   2.479   3.385  11.112  0.5942  0.1978  0.7144
  603TMC3    C8 8944   2.489   3.143  11.521  0.5844 -0.2052 -0.4532
  603TMC3    O1 8945   2.590   3.422  11.131 -0.3468  0.4410 -0.3898
  603TMC3    O2 8946   2.443   3.152  11.633  0.1853  0.7748  0.2535
  604MPD2     C 8947   3.287   1.372  16.416  0.2996 -0.0544 -0.5949
  604MPD2    C1 8948   3.185   1.278  16.401  0.4050  0.5658  0.5691
  604MPD2    C2 8949   3.196   1.172  16.317  0.3016  0.5422  0.2133
  604MPD2    C3 8950   3.303   1.166  16.228 -0.1379  0.2592 -0.0083
  604MPD2    C4 8951   3.397   1.271  16.239 -0.6402  0.2086  0.3143
  604MPD2    C5 8952   3.399   1.365  16.341  0.5666  0.4029 -0.7237
  604MPD2     H 8953   3.121   1.093  16.314  0.4623  0.3831  0.3883
  604MPD2    H1 8954   3.483   1.283  16.173 -1.2265  2.6741  0.0217
  604MPD2    H2 8955   3.274   1.456  16.482 -0.4627  0.7415 -1.7548
  604MPD2    H3 8956   3.470   1.447  16.346  3.6709 -2.2605 -1.4988
  604MPD2     N 8957   3.311   1.065  16.128  0.1428  0.0039  0.0091
  604MPD2    H5 8958   3.226   1.017  16.101  0.5146 -0.8963  0.4570
  604MPD2    N1 8959   3.067   1.309  16.469 -0.5846 -0.2231  0.4247
  604MPD2    H7 8960   3.066   1.390  16.530 -1.3671  0.6191 -0.7124
  605TMC3    C1 8961   2.849   1.303  16.538  1.0562 -0.2863  0.2560
  605TMC3    C2 8962   2.902   1.374  16.638  0.0807  0.3551  0.3900
  605TMC3    C3 8963   2.873   1.506  16.655 -0.0735  0.3822  0.0515
  605TMC3    C4 8964   2.759   1.362  16.462 -0.9650 -0.4704  0.2940
  605TMC3    C5 8965   2.735   1.491  16.475 -0.1152 -0.4331 -0.5146
  605TMC3    C6 8966   2.787   1.568  16.571  0.3485 -0.1130  0.4787
  605TMC3     C 8967   2.948   1.241  16.456  0.8510 -0.7382  0.5990
  605TMC3     O 8968   2.909   1.169  16.364 -0.3136  0.3010  0.0183
  605TMC3     H 8969   2.960   1.313  16.706  0.4271  1.3208  0.9591
  605TMC3    H1 8970   2.734   1.299  16.378 -1.3339  0.4064 -0.2592
  605TMC3    H2 8971   2.772   1.675  16.560 -0.6772 -0.0886  2.1698
  605TMC3    C7 8972   2.654   1.560  16.372 -0.1533 -0.4856 -0.0395
  605TMC3    C8 8973   2.986   1.578  16.708 -0.3453  0.6693 -0.4962
  605TMC3    O1 8974   2.670   1.678  16.350 -0.3421  0.2825  0.3368
  605TMC3    O2 8975   3.088   1.511  16.704 -0.4185 -0.0749 -0.3012
  606TMC3    C1 8976   4.682   4.513  16.902  0.0298  0.0198  0.6173
  606TMC3    C2 8977   0.047   4.490  16.999 -0.6634  0.2551  0.2719
  606TMC3    C3 8978   0.058   4.369  17.061  0.2179 -0.1948  0.5286
  606TMC3    C4 8979   4.594   4.419  16.866  0.2832  0.2377  0.2637
  606TMC3    C5 8980   4.612   4.291  16.918  0.4198  0.6526 -0.1803
  606TMC3    C6 8981   4.697   4.269  17.023 -0.0721 -0.1328  0.2166
  606TMC3     C 8982   4.654   4.652  16.880  0.5110 -0.0496 -0.0864
  606TMC3     O 8983   4.701   0.016  16.952  0.1588 -0.3225  0.3082
  606TMC3     H 8984   0.113   4.572  17.026 -1.2853  1.3288 -1.4686
  606TMC3    H1 8985   4.512   4.439  16.798  0.4456 -0.5962 -0.1806
  606TMC3    H2 8986   4.686   4.177  17.080 -0.1781  0.6247  1.4068
  606TMC3    C7 8987   4.502   4.194  16.921  0.4020 -0.0502  0.2891
  606TMC3    C8 8988   0.157   4.344  17.158  0.0410  0.0671 -0.2236
  606TMC3    O1 8989   4.494   4.117  16.823  0.2225  0.4372  0.6337
  606TMC3    O2 8990   0.209   4.449  17.197  0.1560  0.5489 -0.0774
  607MPD2     C 8991   1.889   3.037  11.888 -1.0530 -0.3097 -0.1606
  607MPD2    C1 8992   1.938   3.138  11.973  0.0388  0.3609  0.3018
  607MPD2    C2 8993   1.911   3.139  12.108  0.3217 -0.1992  0.5954
  607MPD2    C3 8994   1.840   3.036  12.165 -0.5100  0.7566 -0.3726
  607MPD2    C4 8995   1.784   2.935  12.080  0.7260 -0.7255 -0.0634
  607MPD2    C5 8996   1.820   2.936  11.949  0.3154  0.0187  0.6653
  607MPD2     H 8997   1.940   3.217  12.178  0.4970  0.5076 -0.2700
  607MPD2    H1 8998   1.728   2.850  12.117 -0.2342  0.2319  0.6787
  607MPD2    H2 8999   1.901   3.034  11.780 -0.2035 -0.0582 -0.0751
  607MPD2    H3 9000   1.769   2.872  11.878  2.4071 -1.7430  0.7253
  607MPD2     N 9001   1.830   3.040  12.303  0.9778 -0.6841  0.1423
  607MPD2    H5 9002   1.877   3.113  12.356  2.5503 -0.6262 -1.3363
  607MPD2    N1 9003   2.020   3.241  11.927  0.1050  0.1010 -0.3376
  607MPD2    H7 9004   2.022   3.319  11.991  3.0847 -0.1607 -0.0994
  608TMC3    C1 9005   2.181   3.356  11.808 -0.5245 -0.1758 -0.5824
  608TMC3    C2 9006   2.236   3.373  11.930  0.2741  0.6239  0.3919
  608TMC3    C3 9007   2.334   3.468  11.943  0.1359  0.3087  0.5020
  608TMC3    C4 9008   2.213   3.428  11.696 -0.3947 -0.4174 -0.0371
  608TMC3    C5 9009   2.316   3.514  11.715  0.3989 -0.2184  0.2571
  608TMC3    C6 9010   2.373   3.549  11.837  0.0750 -0.4450  0.5084
  608TMC3     C 9011   2.073   3.261  11.802  0.1376 -0.3100 -0.6799
  608TMC3     O 9012   2.061   3.203  11.693 -0.4725  0.1335  0.2381
  608TMC3     H 9013   2.212   3.311  12.016  1.4774  1.7304  1.5397
  608TMC3    H1 9014   2.164   3.412  11.600 -3.5590  0.0494  1.4922
  608TMC3    H2 9015   2.444   3.626  11.865 -0.7574  1.5379 -2.8278
  608TMC3    C7 9016   2.363   3.580  11.596 -0.0396  0.9872  0.3233
  608TMC3    C8 9017   2.382   3.508  12.081 -0.2796  0.5033  0.1197
  608TMC3    O1 9018   2.281   3.593  11.505 -0.5036 -0.1742 -0.7415
  608TMC3    O2 9019   2.485   3.576  12.091 -0.5912  0.1772  0.5021
  609TMC3    C1 9020   1.988   1.631   9.779 -0.6318  0.8967 -0.3315
  609TMC3    C2 9021   2.016   1.520   9.844  0.5057  0.0081 -0.3034
  609TMC3    C3 9022   2.084   1.528   9.959 -0.1416 -0.6813 -1.3512
  609TMC3    C4 9023   2.005   1.752   9.837  0.1295 -0.6188 -0.5357
  609TMC3    C5 9024   2.080   1.763   9.950  0.5316  0.3820  0.0201
  609TMC3    C6 9025   2.126   1.646  10.011 -0.0029 -0.0323  0.1541
  609TMC3     C 9026   1.867   1.622   9.701 -0.1785  0.8256  0.4346
  609TMC3     O 9027   1.785   1.546   9.752 -0.2894 -1.0124  0.4614
  609TMC3     H 9028   1.986   1.423   9.807  0.8432 -0.8494  1.6591
  609TMC3    H1 9029   1.973   1.842   9.785 -0.5599 -0.1385  0.7200
  609TMC3    H2 9030   2.188   1.641  10.100  1.0219  2.1645 -0.4338
  609TMC3    C7 9031   2.090   1.890  10.018 -0.6862 -0.7875 -0.0344
  609TMC3    C8 9032   2.109   1.408  10.038 -0.5285 -0.0041 -0.7189
  609TMC3    O1 9033   1.996   1.971  10.008 -0.1600  0.2055  0.4002
  609TMC3    O2 9034   2.175   1.433  10.140  0.2519 -0.5773 -0.1060
  610TMC3    C1 9035   2.409   2.941  12.835  0.0596 -0.4822 -0.0283
  610TMC3    C2 9036   2.475   2.986  12.730  0.5599 -0.2470 -0.5113
  610TMC3    C3 9037   2.577   2.915  12.674 -0.2961 -0.3213  0.2623
  610TMC3    C4 9038   2.451   2.834  12.903 -0.1578 -0.6784 -0.3427
  610TMC3    C5 9039   2.549   2.755  12.840 -0.0659  0.0811  0.0696
  610TMC3    C6 9040   2.613   2.796  12.729 -1.1217 -0.9125  0.2844
  610TMC3     C 9041   2.313   3.029  12.893  0.3196  0.5651 -0.0165
  610TMC3     O 9042   2.323   3.145  12.862 -0.6714 -0.0428  0.3473
  610TMC3     H 9043   2.443   3.079  12.685 -0.7561 -0.7803 -0.7122
  610TMC3    H1 9044   2.410   2.804  12.999  1.2873  0.9620  0.7907
  610TMC3    H2 9045   2.697   2.735  12.698  0.3842  1.1882  0.2490
  610TMC3    C7 9046   2.618   2.647  12.909  0.2225  0.7763 -0.2488
  610TMC3    C8 9047   2.643   2.943  12.549 -0.2948 -0.7792  0.0861
  610TMC3    O1 9048   2.724   2.609  12.862  0.0815  0.2489 -0.0025
  610TMC3    O2 9049   2.742   2.878  12.531  0.0840 -0.2855 -0.1413
  611MPD2     C 9050   1.796   2.880  10.562 -0.8451  0.3372 -0.3386
  611MPD2    C1 9051   1.746   2.920  10.442 -0.6651 -0.1718 -0.6895
  611MPD2    C2 9052   1.790   3.040  10.387 -0.6275 -0.4012  0.1118
  611MPD2    C3 9053   1.880   3.115  10.467  0.5908 -0.5636  0.6256
  611MPD2    C4 9054   1.927   3.072  10.588  0.4413  0.1665  0.7121
  611MPD2    C5 9055   1.878   2.950  10.630 -0.5336  0.5543 -0.0087
  611MPD2     H 9056   1.753   3.080  10.293  0.6384  1.0503  0.2171
  611MPD2    H1 9057   2.002   3.132  10.639 -0.7071 -0.6273  3.3195
  611MPD2    H2 9058   1.770   2.780  10.595  0.3539 -0.0803 -0.6701
  611MPD2    H3 9059   1.913   2.910  10.725  2.4421  2.2462 -0.3751
  611MPD2     N 9060   1.935   3.237  10.420 -0.3526 -0.1578 -0.0006
  611MPD2    H5 9061   2.004   3.279  10.482  0.8419  0.8770 -2.0081
  611MPD2    N1 9062   1.660   2.834  10.374 -0.0282  0.3170  0.5790
  611MPD2    H7 9063   1.656   2.736  10.397  0.6137  0.7503  2.5690
  612TMC3    C1 9064   1.970   3.439  10.302 -0.1000 -0.0335 -1.2008
  612TMC3    C2 9065   2.093   3.458  10.361 -0.1599 -0.4783  0.4622
  612TMC3    C3 9066   2.137   3.590  10.359  0.1916  0.3450 -0.1692
  612TMC3    C4 9067   1.904   3.546  10.243 -0.0745 -0.1137 -0.4705
  612TMC3    C5 9068   1.967   3.666  10.230 -0.6308 -1.1674 -1.0453
  612TMC3    C6 9069   2.089   3.687  10.277 -0.6008  0.0589 -0.2494
  612TMC3     C 9070   1.890   3.319  10.320 -0.1808 -0.0101  0.2937
  612TMC3     O 9071   1.794   3.307  10.248 -0.1952 -0.0544  0.3720
  612TMC3     H 9072   2.148   3.374  10.402  1.8345  0.5545 -0.1238
  612TMC3    H1 9073   1.810   3.538  10.189 -0.6579  1.9944  0.2357
  612TMC3    H2 9074   2.152   3.775  10.282 -2.1785  1.0584  1.8175
  612TMC3    C7 9075   1.876   3.774  10.206 -0.2649  0.1634  0.2053
  612TMC3    C8 9076   2.253   3.626  10.438  0.1949 -0.3819  0.3055
  612TMC3    O1 9077   1.755   3.757  10.187 -0.1117  0.1210  0.0106
  612TMC3    O2 9078   2.324   3.721  10.402  0.2000 -0.6230 -0.6231
  613MPD2     C 9079   0.161   0.360  16.409  0.0600  0.6770 -0.6162
  613MPD2    C1 9080   0.286   0.333  16.370 -0.3415  0.1406 -0.2337
  613MPD2    C2 9081   0.343   0.212  16.412 -0.1021  0.5492 -0.4018
  613MPD2    C3 9082   0.264   0.115  16.466  0.1948  0.4867 -0.9503
  613MPD2    C4 9083   0.133   0.141  16.499  0.6434  0.1032 -0.1372
  613MPD2    C5 9084   0.082   0.268  16.480 -0.5986 -0.6153  0.0986
  613MPD2     H 9085   0.445   0.183  16.390  0.8541  0.7300  3.8721
  613MPD2    H1 9086   0.061   0.074  16.546  0.4599  0.7820  0.5459
  613MPD2    H2 9087   0.115   0.456  16.394  2.0848  1.7082 -0.2600
  613MPD2    H3 9088   4.709   0.300  16.513  0.2004  1.5152  0.4661
  613MPD2     N 9089   0.308   4.713  16.496 -0.3444  0.6285 -0.2900
  613MPD2    H5 9090   0.231   4.651  16.519 -0.0518  0.2463 -0.3360
  613MPD2    N1 9091   0.353   0.420  16.282 -0.8119 -0.1474 -0.2819
  613MPD2    H7 9092   0.300   0.495  16.240  0.8780  1.1974 -0.0247
  614TMC3    C1 9093   0.537   0.489  16.144 -0.1115  0.1244  0.0704
  614TMC3    C2 9094   0.677   0.482  16.139 -0.1099 -0.4731  0.1981
  614TMC3    C3 9095   0.741   0.466  16.021  0.6984 -0.2102  0.1179
  614TMC3    C4 9096   0.466   0.501  16.033 -0.0717 -0.1918 -0.5429
  614TMC3    C5 9097   0.530   0.495  15.915  0.6484  0.0749 -0.3160
  614TMC3    C6 9098   0.664   0.471  15.901  0.4752 -0.2938  1.2139
  614TMC3     C 9099   0.484   0.409  16.248  0.1754 -1.0479 -0.5618
  614TMC3     O 9100   0.570   0.343  16.303  0.1256 -1.4090 -0.1566
  614TMC3     H 9101   0.733   0.470  16.231 -0.6917  0.1753  0.6378
  614TMC3    H1 9102   0.359   0.516  16.033 -0.1503 -0.7509  0.3259
  614TMC3    H2 9103   0.713   0.452  15.806  0.6466 -1.1370  1.4683
  614TMC3    C7 9104   0.457   0.549  15.803  0.0248 -0.3699 -0.0921
  614TMC3    C8 9105   0.817   0.344  16.008  0.4704 -0.4490  0.0075
  614TMC3    O1 9106   0.389   0.645  15.831 -0.2313 -0.2432 -0.0507
  614TMC3    O2 9107   0.888   0.333  15.908  0.0371  0.5748 -0.3675
  615MPD2     C 9108   4.300   1.699  16.035  0.3714  0.0278  0.0905
  615MPD2    C1 9109   4.375   1.629  15.942  0.0321  1.1487 -0.0484
  615MPD2    C2 9110   4.361   1.494  15.928 -0.1271  0.4194  0.5554
  615MPD2    C3 9111   4.268   1.424  16.000  0.1845 -0.5564 -0.3595
  615MPD2    C4 9112   4.186   1.492  16.087 -0.8301 -1.1358  0.2079
  615MPD2    C5 9113   4.203   1.629  16.102  0.4610  0.0581 -0.4217
  615MPD2     H 9114   4.430   1.447  15.858 -2.1006 -0.5091 -0.7648
  615MPD2    H1 9115   4.112   1.437  16.145 -2.2750 -0.2924 -0.8194
  615MPD2    H2 9116   4.305   1.806  16.044 -1.0367  0.0908  0.1309
  615MPD2    H3 9117   4.132   1.684  16.163 -0.5701  0.7304 -2.2642
  615MPD2     N 9118   4.254   1.281  15.985  0.3470 -0.0949  0.4059
  615MPD2    H5 9119   4.171   1.242  16.028 -0.3772  0.3708 -0.5560
  615MPD2    N1 9120   4.472   1.699  15.870  0.0202  0.2596  0.8617
  615MPD2    H7 9121   4.543   1.646  15.820 -0.5866 -0.1499  0.4383
  616TMC3    C1 9122   4.618   1.880  15.813 -0.3054  0.5823  0.8232
  616TMC3    C2 9123   4.725   1.792  15.828  0.5083 -0.8316 -0.4012
  616TMC3    C3 9124   0.125   1.830  15.779 -0.7775  0.4212  0.2012
  616TMC3    C4 9125   4.639   2.004  15.764  0.2776 -0.0113  0.4497
  616TMC3    C5 9126   0.044   2.033  15.724 -0.3011 -0.3298  0.0167
  616TMC3    C6 9127   0.150   1.947  15.724  0.2140  0.3433  0.1847
  616TMC3     C 9128   4.489   1.838  15.867  0.1290  0.0047 -0.1838
  616TMC3     O 9129   4.406   1.926  15.886  0.0555  0.6073  0.2671
  616TMC3     H 9130   4.717   1.697  15.879  2.2063 -2.0116 -2.2922
  616TMC3    H1 9131   4.562   2.081  15.755 -0.0668 -0.3372  0.6186
  616TMC3    H2 9132   0.251   1.976  15.696 -0.0634  1.3786  0.2544
  616TMC3    C7 9133   0.074   2.167  15.676 -0.5080  0.3762  0.1325
  616TMC3    C8 9134   0.223   1.731  15.780 -0.4656  0.1827 -0.2751
  616TMC3    O1 9135   0.182   2.172  15.616  0.1859  0.4987  0.1449
  616TMC3    O2 9136   0.198   1.624  15.724  0.4043  0.0495  0.4379
  617MPD2     C 9137   3.117   4.566  13.628 -0.1108  0.0822 -0.1965
  617MPD2    C1 9138   3.159   4.570  13.760 -0.1518  0.5708  0.0656
  617MPD2    C2 9139   3.061   4.560  13.855  0.1129  0.1562 -0.3834
  617MPD2    C3 9140   2.928   4.578  13.819 -0.1864  0.3495 -0.2707
  617MPD2    C4 9141   2.897   4.610  13.691  0.1203  0.3195 -0.4304
  617MPD2    C5 9142   2.989   4.593  13.588  0.2553  0.1594 -0.4537
  617MPD2     H 9143   3.091   4.546  13.958 -0.0545  1.5228 -0.1531
  617MPD2    H1 9144   2.794   4.618  13.657 -0.2541 -0.1208  0.6089
  617MPD2    H2 9145   3.190   4.553  13.550  2.4168 -0.5496  2.2781
  617MPD2    H3 9146   2.956   4.599  13.485  1.9214  0.1416 -0.9896
  617MPD2     N 9147   2.822   4.568  13.915  0.1494 -0.5224 -0.1306
  617MPD2    H5 9148   2.726   4.599  13.903  0.3601 -0.1129 -0.7366
  617MPD2    N1 9149   3.298   4.576  13.781 -0.1012 -0.1648 -0.2379
  617MPD2    H7 9150   3.358   4.575  13.700  2.8350  0.3715  1.9265
  618TMC3    C1 9151   3.508   4.566  13.884  1.0577  0.2199 -0.1961
  618TMC3    C2 9152   3.580   4.454  13.927  0.2754 -0.4410  0.1003
  618TMC3    C3 9153   3.682   4.413  13.848  1.3661 -0.1472 -0.8493
  618TMC3    C4 9154   3.551   4.644  13.778  1.0537  0.0982  0.2774
  618TMC3    C5 9155   3.652   4.593  13.700 -0.0642  0.1590 -0.4667
  618TMC3    C6 9156   3.723   4.480  13.739 -0.2586 -0.0164  0.0369
  618TMC3     C 9157   3.369   4.546  13.897  0.4442 -0.4382 -0.5658
  618TMC3     O 9158   3.340   4.524  14.012  0.1559  0.0008 -0.2472
  618TMC3     H 9159   3.539   4.392  14.005 -0.5170  1.5172  1.2445
  618TMC3    H1 9160   3.496   0.003  13.740  1.4748 -0.6159 -1.9390
  618TMC3    H2 9161   3.789   4.455  13.657  0.2076  0.8495  0.1546
  618TMC3    C7 9162   3.619   4.598  13.560  0.4761 -0.2794  0.4402
  618TMC3    C8 9163   3.721   4.272  13.850  0.0012  0.2092  0.7056
  618TMC3    O1 9164   3.505   4.560  13.541 -0.0647  0.0305  0.3235
  618TMC3    O2 9165   3.643   4.187  13.887  0.5277  0.5353 -0.1789
  619MPD2     C 9166   4.344   1.465  13.469  0.2489 -0.0585 -0.2194
  619MPD2    C1 9167   4.229   1.482  13.386  0.6839 -0.2128  0.0854
  619MPD2    C2 9168   4.119   1.396  13.396 -0.2006  0.3108 -0.2799
  619MPD2    C3 9169   4.136   1.288  13.480 -0.1369 -0.1769 -0.1421
  619MPD2    C4 9170   4.248   1.267  13.550 -0.4371  0.2633 -0.1676
  619MPD2    C5 9171   4.354   1.354  13.545 -0.6470  0.1381 -0.3326
  619MPD2     H 9172   4.026   1.429  13.350  0.9824  2.7010 -0.9433
  619MPD2    H1 9173   4.256   1.172  13.602 -1.4202  0.0080 -0.4881
  619MPD2    H2 9174   4.429   1.532  13.457  2.3756 -2.6075  0.8206
  619MPD2    H3 9175   4.432   1.335  13.618 -0.7216 -0.4142 -0.3907
  619MPD2     N 9176   4.027   1.192  13.489  0.4925 -0.2748 -0.1633
  619MPD2    H5 9177   4.040   1.112  13.550 -2.8180 -0.5481  0.1843
  619MPD2    N1 9178   4.212   1.594  13.299 -0.0913 -0.0409  0.4683
  619MPD2    H7 9179   4.125   1.609  13.248 -0.5019  0.9336  1.4685
  620TMC3    C1 9180   4.260   1.793  13.190 -0.0513  0.2711 -0.3349
  620TMC3    C2 9181   4.164   1.761  13.099  0.9063 -0.3223  0.2021
  620TMC3    C3 9182   4.135   1.853  12.997 -0.4362 -0.0354 -0.3468
  620TMC3    C4 9183   4.302   1.922  13.204  0.8957  0.1144  0.4394
  620TMC3    C5 9184   4.257   2.014  13.116  0.3296  0.0055  0.6420
  620TMC3    C6 9185   4.185   1.977  13.010 -0.5137  0.4267 -0.6147
  620TMC3     C 9186   4.309   1.688  13.268 -0.4474 -0.1206  0.0199
  620TMC3     O 9187   4.418   1.703  13.317 -0.0189 -0.2430 -1.1612
  620TMC3     H 9188   4.128   1.660  13.084  0.9090 -0.2269 -0.4525
  620TMC3    H1 9189   4.363   1.967  13.282 -1.2888  1.6447  1.2816
  620TMC3    H2 9190   4.148   2.050  12.939 -0.7183  0.2741 -0.6682
  620TMC3    C7 9191   4.214   2.134  13.186  0.0372  0.2083 -0.2632
  620TMC3    C8 9192   3.992   1.873  12.953  0.3544 -0.4288  0.2841
  620TMC3    O1 9193   4.284   2.188  13.272  0.2711  0.2531 -0.1356
  620TMC3    O2 9194   3.941   1.983  12.971  0.1284 -0.7456 -0.7100
  621MPD2     C 9195   1.402   1.368   9.579  0.0930 -0.6352 -0.2155
  621MPD2    C1 9196   1.284   1.313   9.607 -0.8964  0.3637  0.3015
  621MPD2    C2 9197   1.237   1.296   9.737  0.0061  0.6057 -0.1904
  621MPD2    C3 9198   1.325   1.328   9.840  1.2257  0.4827  0.3650
  621MPD2    C4 9199   1.436   1.404   9.813  0.8067  0.2208  0.0429
  621MPD2    C5 9200   1.481   1.407   9.684  0.5678  0.2066  0.6620
  621MPD2     H 9201   1.152   1.231   9.755  2.0064 -2.9303 -3.2862
  621MPD2    H1 9202   1.495   1.441   9.895 -1.5460  0.4511  1.6210
  621MPD2    H2 9203   1.440   1.379   9.478  2.2563  0.4587  0.7171
  621MPD2    H3 9204   1.580   1.447   9.667  0.5788  0.7174  1.9449
  621MPD2     N 9205   1.285   1.301   9.977  0.2306  0.0885  0.1738
  621MPD2    H5 9206   1.192   1.268   9.998  1.1140 -2.3793  0.2102
  621MPD2    N1 9207   1.194   1.267   9.505 -0.6359  0.5358 -0.0474
  621MPD2    H7 9208   1.108   1.220   9.532  0.0826 -1.5001 -1.2918
  622TMC3    C1 9209   1.102   1.226   9.294  0.6087 -0.2322 -0.1652
  622TMC3    C2 9210   1.062   1.097   9.330 -0.1327 -0.6609 -0.6547
  622TMC3    C3 9211   1.017   1.017   9.223  0.4012 -0.0999  0.6776
  622TMC3    C4 9212   1.082   1.277   9.162  0.3524 -0.5613  0.4756
  622TMC3    C5 9213   1.019   1.198   9.066  0.1079 -0.1798  0.3561
  622TMC3    C6 9214   0.986   1.070   9.096 -0.1923 -0.2734 -0.5628
  622TMC3     C 9215   1.211   1.285   9.373 -0.4448  0.4468 -1.1199
  622TMC3     O 9216   1.287   1.359   9.310  0.2356 -0.1235  0.5187
  622TMC3     H 9217   1.097   1.052   9.423 -1.8383 -2.7522 -1.0263
  622TMC3    H1 9218   1.113   1.376   9.132 -0.9423  0.1549  1.4343
  622TMC3    H2 9219   0.941   0.999   9.027  0.7668 -1.4236 -0.0076
  622TMC3    C7 9220   0.991   1.253   8.936  0.4203 -0.7288  0.6678
  622TMC3    C8 9221   0.937   0.898   9.260  0.1986  0.1171 -0.1449
  622TMC3    O1 9222   1.048   1.357   8.907  0.5832  0.4097  0.6497
  622TMC3    O2 9223   0.942   0.796   9.191  0.5682  0.0429  0.3715
  623MPD2     C 9224   3.430   1.487  15.881  0.0134  0.1356 -0.3234
  623MPD2    C1 9225   3.361   1.503  15.997  0.0774 -1.1781  0.1490
  623MPD2    C2 9226   3.402   1.594  16.092  0.3235  0.9870 -0.7788
  623MPD2    C3 9227   3.507   1.673  16.070 -0.0681 -0.1070 -0.5113
  623MPD2    C4 9228   3.587   1.655  15.960  0.8942 -0.2867 -0.0045
  623MPD2    C5 9229   3.548   1.558  15.865 -0.3067  0.1660 -0.9775
  623MPD2     H 9230   3.339   1.597  16.180  0.7193  0.7451 -0.4916
  623MPD2    H1 9231   3.676   1.711  15.931  0.2015  0.6690 -0.2846
  623MPD2    H2 9232   3.404   1.400  15.821  1.6383 -1.1255  0.8092
  623MPD2    H3 9233   3.599   1.553  15.769 -1.0586  1.5651 -1.4405
  623MPD2     N 9234   3.539   1.764  16.173 -0.5878  0.5360  0.1026
  623MPD2    H5 9235   3.493   1.765  16.263  1.7565 -3.5532  1.3873
  623MPD2    N1 9236   3.244   1.439  16.016 -0.7295 -0.3199 -0.5317
  623MPD2    H7 9237   3.198   1.464  16.102  2.9728  0.5700  1.1694
  624TMC3    C1 9238   3.818   1.783  16.474 -0.4873  0.2963  0.6919
  624TMC3    C2 9239   3.714   1.756  16.556  0.6834  0.0424  0.2973
  624TMC3    C3 9240   3.592   1.789  16.514 -0.3893 -0.2951  0.2480
  624TMC3    C4 9241   3.797   1.842  16.356 -0.3307 -0.0314  0.0333
  624TMC3    C5 9242   3.675   1.884  16.314  0.4863  0.9864 -0.6467
  624TMC3    C6 9243   3.568   1.855  16.397  0.0597  0.2768 -0.2398
  624TMC3     C 9244   3.939   1.712  16.498  0.0205 -0.2042 -0.8428
  624TMC3     O 9245   4.042   1.763  16.462  0.1400  0.1462  0.2808
  624TMC3     H 9246   3.728   1.719  16.657  1.1812  2.2360  1.0445
  624TMC3    H1 9247   3.878   1.854  16.286 -0.5104 -1.7579 -0.4656
  624TMC3    H2 9248   3.469   1.890  16.373 -0.7067 -0.5316  1.7624
  624TMC3    C7 9249   3.646   1.848  16.178 -0.1440  0.1117 -0.5398
  624TMC3    C8 9250   3.483   1.778  16.612 -0.5401  0.4828  0.1101
  624TMC3    O1 9251   3.735   1.871  16.099 -0.4531 -0.1501 -0.0367
  624TMC3    O2 9252   3.473   1.662  16.649  0.2786  0.4434 -0.0430
  625MPD2     C 9253   3.761   2.580   0.396  0.4994  0.6633 -0.3082
  625MPD2    C1 9254   3.834   2.641   0.495  0.0141 -0.5272 -0.6022
  625MPD2    C2 9255   3.921   2.562   0.564 -0.2930 -0.3814 -0.3711
  625MPD2    C3 9256   3.945   2.431   0.536 -0.0281  0.3138  0.0798
  625MPD2    C4 9257   3.870   2.380   0.434 -0.4470  0.0106 -0.1490
  625MPD2    C5 9258   3.778   2.452   0.359  0.0222  0.3599  0.1712
  625MPD2     H 9259   3.973   2.606   0.649 -0.7913 -0.5870  0.0398
  625MPD2    H1 9260   3.877   2.275   0.407  0.8701  0.1667 -0.3825
  625MPD2    H2 9261   3.684   2.636   0.344 -0.3200  1.3413  1.6261
  625MPD2    H3 9262   3.726   2.413   0.272 -0.7655 -1.4074  1.4401
  625MPD2     N 9263   4.037   2.365   0.604  0.2675 -0.3412 -0.8292
  625MPD2    H5 9264   4.080   2.421   0.677  0.7945  0.6792 -1.9301
  625MPD2    N1 9265   3.806   2.766   0.550 -0.2270  0.0355  0.1004
  625MPD2    H7 9266   3.866   2.795   0.627  0.1772  1.2186 -0.6672
  626TMC3    C1 9267   3.746   2.987   0.566 -0.5404  0.1776  0.3981
  626TMC3    C2 9268   3.690   3.088   0.500 -0.1714  0.6651 -0.3875
  626TMC3    C3 9269   3.676   3.205   0.571 -0.1525 -1.3310 -0.0903
  626TMC3    C4 9270   3.781   2.987   0.698 -0.3418 -0.3559 -0.0282
  626TMC3    C5 9271   3.763   3.103   0.764  0.5285  0.3248  0.1182
  626TMC3    C6 9272   3.708   3.212   0.704 -0.8800  0.4375 -0.1247
  626TMC3     C 9273   3.736   2.864   0.495 -0.6186  0.0512 -0.2523
  626TMC3     O 9274   3.666   2.859   0.391  0.1799  0.3122 -0.7224
  626TMC3     H 9275   3.660   3.088   0.395 -0.1247 -0.9352 -0.3949
  626TMC3    H1 9276   3.817   2.898   0.749  2.2895  0.4545 -0.4492
  626TMC3    H2 9277   3.675   3.297   0.763 -1.1614  0.5199 -0.3970
  626TMC3    C7 9278   3.813   3.118   0.901  0.4361 -0.0479 -0.5651
  626TMC3    C8 9279   3.625   3.311   0.494 -0.6675  0.2053  0.4856
  626TMC3    O1 9280   3.853   3.229   0.937 -0.4852  0.4547  0.0707
  626TMC3    O2 9281   3.556   3.277   0.397  0.4546  0.7686  0.4799
  627MPD2     C 9282   2.678   3.205  14.069  0.2644 -0.5159 -0.2848
  627MPD2    C1 9283   2.719   3.195  14.196 -0.7988  0.2345  0.9430
  627MPD2    C2 9284   2.665   3.099  14.276  0.1030  0.0088  0.1619
  627MPD2    C3 9285   2.575   3.014  14.215 -0.7093  0.6310 -0.3199
  627MPD2    C4 9286   2.543   3.017  14.083  0.6331  0.4081  0.2409
  627MPD2    C5 9287   2.599   3.113  14.013 -0.1757  0.6740  0.0017
  627MPD2     H 9288   2.693   3.103  14.380 -0.6619  2.5167  0.2793
  627MPD2    H1 9289   2.477   2.944  14.038  0.0816  1.3425 -0.4695
  627MPD2    H2 9290   2.711   3.291  14.011 -5.0307  1.8898  0.2576
  627MPD2    H3 9291   2.565   3.121  13.910 -2.9464 -2.3435  0.6799
  627MPD2     N 9292   2.504   2.922  14.290  0.1430  0.3593 -0.2872
  627MPD2    H5 9293   2.448   2.851  14.244  0.0677  0.7576 -0.8199
  627MPD2    N1 9294   2.807   3.286  14.261  0.4513  0.1434 -0.2550
  627MPD2    H7 9295   2.823   3.271  14.360 -2.2564 -1.5293 -0.0640
  628TMC3    C1 9296   2.950   3.449  14.302  0.5056 -0.1058 -0.5422
  628TMC3    C2 9297   3.059   3.374  14.326 -0.5806  1.4397 -0.2392
  628TMC3    C3 9298   3.140   3.413  14.431 -0.2216  0.3557  0.0189
  628TMC3    C4 9299   2.915   3.551  14.377  0.1323 -0.3735  0.0893
  628TMC3    C5 9300   3.004   3.595  14.474  0.2058 -0.1397 -0.4680
  628TMC3    C6 9301   3.120   3.535  14.498 -0.0766 -0.2726  0.0355
  628TMC3     C 9302   2.856   3.396  14.204 -0.4454 -0.6722  0.3587
  628TMC3     O 9303   2.858   3.429  14.085 -0.1721 -0.3691 -0.1471
  628TMC3     H 9304   3.065   3.285  14.264 -0.7719  1.2205  0.0571
  628TMC3    H1 9305   2.827   3.608  14.351  0.0086 -0.8647 -0.5607
  628TMC3    H2 9306   3.173   3.543  14.592  0.4656  2.8771 -0.5419
  628TMC3    C7 9307   2.970   3.703  14.575  0.1984 -0.1653  0.2729
  628TMC3    C8 9308   3.182   3.310  14.522  0.7829 -1.4202 -0.5983
  628TMC3    O1 9309   3.030   3.704  14.680 -0.7462  0.7791  0.4128
  628TMC3    O2 9310   3.298   3.285  14.513  0.3281 -0.3668 -0.2295
  629MPD2     C 9311   0.676   1.548  15.920 -0.4413 -0.5820 -0.7266
  629MPD2    C1 9312   0.670   1.682  15.958 -0.8874 -0.2312  0.4917
  629MPD2    C2 9313   0.553   1.751  15.933  0.0186  0.1620  1.2054
  629MPD2    C3 9314   0.454   1.688  15.864 -0.4930  0.5639 -1.0623
  629MPD2    C4 9315   0.460   1.549  15.835  0.2208 -0.0926  0.1170
  629MPD2    C5 9316   0.573   1.477  15.863 -0.3001 -0.7716  0.6952
  629MPD2     H 9317   0.534   1.848  15.978  1.3213  0.5757  0.8813
  629MPD2    H1 9318   0.376   1.495  15.793  1.2367 -1.3370 -0.3447
  629MPD2    H2 9319   0.770   1.495  15.935 -1.4489 -2.1829 -0.0049
  629MPD2    H3 9320   0.582   1.370  15.850  3.0067 -0.5044  0.7957
  629MPD2     N 9321   0.335   1.765  15.846  0.1060  0.5483  0.1638
  629MPD2    H5 9322   0.330   1.862  15.874  0.7780  1.1292 -1.6938
  629MPD2    N1 9323   0.782   1.737  16.026 -0.0980  0.2034  0.3781
  629MPD2    H7 9324   0.855   1.667  16.042  0.2764  0.6279  0.5283
  630TMC3    C1 9325   0.929   1.900  16.113  0.0165 -1.2066  0.5448
  630TMC3    C2 9326   0.963   2.033  16.096 -0.4587 -0.1160 -0.7272
  630TMC3    C3 9327   1.091   2.063  16.072  0.5585  0.6450 -0.6891
  630TMC3    C4 9328   1.024   1.801  16.138  0.4956  0.5195 -0.2437
  630TMC3    C5 9329   1.155   1.840  16.157  0.1900 -0.1258  0.0688
  630TMC3    C6 9330   1.180   1.963  16.103  0.6908 -0.3342  0.0821
  630TMC3     C 9331   0.792   1.864  16.065 -0.0253  0.0553  0.0980
  630TMC3     O 9332   0.713   1.960  16.062 -0.4058 -0.0187 -0.1181
  630TMC3     H 9333   0.892   2.107  16.060 -1.1760  0.2496  1.4643
  630TMC3    H1 9334   0.994   1.703  16.173 -0.6933  1.1574  0.4712
  630TMC3    H2 9335   1.285   1.991  16.092  0.8703 -1.0001  0.1266
  630TMC3    C7 9336   1.213   1.808  16.280 -0.3452  0.8955 -0.2521
  630TMC3    C8 9337   1.151   2.196  16.090 -0.3743 -0.1562 -0.6946
  630TMC3    O1 9338   1.130   1.769  16.358  0.3660  0.8610  0.0769
  630TMC3    O2 9339   1.258   2.220  16.033 -0.1910  0.4381 -0.3280
  631MPD2     C 9340   3.651   1.329  15.609  0.6023  0.4951 -0.7289
  631MPD2    C1 9341   3.762   1.332  15.529 -0.5885 -0.5410  0.3287
  631MPD2    C2 9342   3.862   1.243  15.558 -0.2372 -0.2501 -0.1103
  631MPD2    C3 9343   3.851   1.158  15.662 -0.3829  0.8357  0.5137
  631MPD2    C4 9344   3.738   1.158  15.740 -0.3093  0.5378 -0.6276
  631MPD2    C5 9345   3.634   1.243  15.713 -0.2330  0.7826  1.3405
  631MPD2     H 9346   3.958   1.236  15.507 -0.4173  0.3728 -0.5380
  631MPD2    H1 9347   3.726   1.110  15.836  1.0077 -0.0844 -0.7786
  631MPD2    H2 9348   3.568   1.398  15.596  0.8219  0.9501  0.3068
  631MPD2    H3 9349   3.552   1.253  15.783  0.3058  0.3905  2.0290
  631MPD2     N 9350   3.970   1.081  15.697  0.1611 -0.3405  0.1693
  631MPD2    H5 9351   4.046   1.091  15.630  0.5540  0.5090  0.7401
  631MPD2    N1 9352   3.769   1.433  15.430 -0.2882  0.2692  0.1403
  631MPD2    H7 9353   3.692   1.498  15.434 -1.3919 -0.8431 -3.0227
  632TMC3    C1 9354   3.848   1.581  15.268 -0.7003 -0.3079 -0.6403
  632TMC3    C2 9355   3.759   1.673  15.290  0.0137 -0.7160  0.0369
  632TMC3    C3 9356   3.742   1.776  15.203  0.6074  0.3573 -0.1553
  632TMC3    C4 9357   3.936   1.597  15.161  0.3046  0.9203 -0.0845
  632TMC3    C5 9358   3.930   1.715  15.086  0.7448 -0.1380 -0.2015
  632TMC3    C6 9359   3.832   1.807  15.103 -0.0183 -0.1973 -0.6828
  632TMC3     C 9360   3.863   1.456  15.335  0.0489  0.1668  0.5579
  632TMC3     O 9361   3.964   1.390  15.311 -0.4104 -0.3775  0.7816
  632TMC3     H 9362   3.692   1.677  15.375  0.5085  0.0005  0.3991
  632TMC3    H1 9363   4.005   1.521  15.128  0.6066  0.7206  1.0110
  632TMC3    H2 9364   3.813   1.893  15.041  2.0565 -0.4221 -1.6509
  632TMC3    C7 9365   4.004   1.737  14.963  1.0406  0.1328  0.4219
  632TMC3    C8 9366   3.659   1.884  15.258  0.9134 -0.4446 -0.3077
  632TMC3    O1 9367   3.936   1.784  14.871 -0.2107 -0.5203 -0.5563
  632TMC3    O2 9368   3.681   1.896  15.379 -0.1877  0.7334  0.4705
  633MPD2     C 9369   3.756   4.659  17.571  0.7725  0.3547  0.0970
  633MPD2    C1 9370   3.874   4.617  17.504  0.2556  0.4107 -0.0320
  633MPD2    C2 9371   3.948   4.511  17.554  0.1506 -0.3332  0.3687
  633MPD2    C3 9372   3.918   4.454  17.675  0.2099  0.5325  0.1958
  633MPD2    C4 9373   3.802   4.494   0.035 -0.3588 -0.5133  0.5763
  633MPD2    C5 9374   3.730   4.604  17.693  0.6015  0.1043 -0.6650
  633MPD2     H 9375   4.039   4.482  17.501 -0.9785 -1.4657 -0.9503
  633MPD2    H1 9376   3.770   4.450   0.128 -2.5745  0.2422  0.1659
  633MPD2    H2 9377   3.690   0.015  17.543  0.9387 -0.0205 -1.3940
  633MPD2    H3 9378   3.657   4.654   0.051  0.7446 -1.5514  0.8165
  633MPD2     N 9379   3.976   4.337   0.023  0.5426  0.2557 -0.5943
  633MPD2    H5 9380   3.932   4.301   0.107  2.0648  2.6291  1.1920
  633MPD2    N1 9381   3.906   4.661  17.376 -0.2127 -0.5482 -0.1584
  633MPD2    H7 9382   3.967   4.607  17.315 -0.4975 -1.9353  0.7707
  634TMC3    C1 9383   3.885   0.071  17.170  0.0138  0.3103  0.0029
  634TMC3    C2 9384   3.919   4.700  17.085  0.4433  0.0916  0.7005
  634TMC3    C3 9385   3.908   4.717  16.950 -0.2595  0.0486  0.4888
  634TMC3    C4 9386   3.852   0.193  17.122  0.3098 -0.0035  0.4578
  634TMC3    C5 9387   3.847   0.213  16.987 -0.4412  0.2390 -0.7165
  634TMC3    C6 9388   3.877   0.111  16.897  0.2243 -0.1631  0.0394
  634TMC3     C 9389   3.865   0.055  17.318  0.4001 -0.1354  0.4275
  634TMC3     O 9390   3.811   0.146  17.381  0.0411 -0.0175 -0.5609
  634TMC3     H 9391   3.951   4.602  17.117  1.3881  0.3331  0.4967
  634TMC3    H1 9392   3.810   0.265  17.192 -3.0775  0.3616 -1.9322
  634TMC3    H2 9393   3.857   0.115  16.791  2.7945 -3.3559 -0.5409
  634TMC3    C7 9394   3.794   0.339  16.928  0.5122 -0.3615  0.0452
  634TMC3    C8 9395   3.889   4.595  16.873 -0.8877 -0.7037 -0.3176
  634TMC3    O1 9396   3.758   0.333  16.806 -0.3301 -0.4595 -0.4827
  634TMC3    O2 9397   3.878   4.486  16.936  0.3057  0.1393 -0.7470
  635TMC3    C1 9398   0.294   1.229  17.148  0.2867 -0.5068  0.0774
  635TMC3    C2 9399   0.416   1.222  17.213  0.1013 -0.0933  0.2775
  635TMC3    C3 9400   0.478   1.098  17.205 -0.3770  0.0367  0.1393
  635TMC3    C4 9401   0.248   1.129  17.068 -0.1400 -0.5622 -0.1681
  635TMC3    C5 9402   0.324   1.021  17.049  0.0008 -0.0902  0.1789
  635TMC3    C6 9403   0.435   0.994  17.123  0.0026 -0.7404 -0.1777
  635TMC3     C 9404   0.201   1.343  17.166  1.0632 -0.4030  0.2717
  635TMC3     O 9405   0.084   1.325  17.133 -0.2130  0.2146  0.0640
  635TMC3     H 9406   0.449   1.295  17.286  2.9451 -1.5119  0.4129
  635TMC3    H1 9407   0.150   1.125  17.023 -0.6374 -2.1163  1.0376
  635TMC3    H2 9408   0.492   0.903  17.134 -0.6943 -1.0066  1.2691
  635TMC3    C7 9409   0.284   0.924  16.952  0.1351  0.4584 -0.4694
  635TMC3    C8 9410   0.576   1.066  17.302  0.0067  0.7578  0.0761
  635TMC3    O1 9411   0.167   0.903  16.916  0.4039  0.9299 -0.0561
  635TMC3    O2 9412   0.579   0.953  17.349 -0.2537  0.0611 -0.1496
  636MPD2     C 9413   0.318   4.382  15.693  0.5940 -0.1915 -0.0316
  636MPD2    C1 9414   0.253   4.481  15.762 -0.0349  0.6501 -0.9754
  636MPD2    C2 9415   0.252   4.479  15.902  0.1328 -0.1493  0.0634
  636MPD2    C3 9416   0.311   4.380  15.984 -0.4668  0.4522  0.7809
  636MPD2    C4 9417   0.360   4.273  15.907  0.1254 -0.5702 -0.3323
  636MPD2    C5 9418   0.370   4.276  15.768 -0.4679  0.6994  0.0882
  636MPD2     H 9419   0.211   4.562  15.958 -0.1126 -0.4978  0.4000
  636MPD2    H1 9420   0.401   4.185  15.955  2.0801  0.2435 -0.5191
  636MPD2    H2 9421   0.339   4.376  15.586 -2.4715 -0.4033 -0.6255
  636MPD2    H3 9422   0.419   4.188  15.728  1.2608  1.1631  1.1923
  636MPD2     N 9423   0.328   4.396  16.123  0.4781  0.7038 -0.2490
  636MPD2    H5 9424   0.305   4.490  16.152 -1.5214 -0.7835  2.8936
  636MPD2    N1 9425   0.196   4.594  15.700 -0.4942 -0.0281  0.0628
  636MPD2    H7 9426   0.143   4.650  15.766 -0.5452  1.0559 -0.8983
  637TMC3    C1 9427   0.442   4.368  16.330 -0.0825  0.0131  0.2308
  637TMC3    C2 9428   0.381   4.474  16.386  0.3594  0.2872  0.1028
  637TMC3    C3 9429   0.454   4.533  16.491 -0.4723  0.8597 -0.7528
  637TMC3    C4 9430   0.567   4.327  16.372 -0.0439 -0.5152 -0.2451
  637TMC3    C5 9431   0.639   4.396  16.462  0.1858  0.2055 -0.6253
  637TMC3    C6 9432   0.576   4.498  16.532  0.6147  1.1818  0.4124
  637TMC3     C 9433   0.393   4.305  16.208 -0.3499 -0.3434  0.0406
  637TMC3     O 9434   0.443   4.199  16.178  0.0058 -0.4423  0.2248
  637TMC3     H 9435   0.285   4.511  16.351  1.3657  2.0584 -0.8404
  637TMC3    H1 9436   0.608   4.242  16.320  3.8233  0.3376  1.4026
  637TMC3    H2 9437   0.617   4.533  16.626  2.0761 -0.0037  0.2209
  637TMC3    C7 9438   0.752   4.449  16.392  0.7325  0.1788 -0.2733
  637TMC3    C8 9439   0.436   4.672  16.507 -0.0160 -1.0051  0.1376
  637TMC3    O1 9440   0.815   4.365  16.332 -0.0277  0.2420  0.0176
  637TMC3    O2 9441   0.543   0.004  16.502  0.3522  0.6631 -0.6873
  638MPD2     C 9442   0.201   4.086  14.703  0.6196  0.4481  0.1698
  638MPD2    C1 9443   0.183   3.974  14.626 -0.4197  0.6081  0.2459
  638MPD2    C2 9444   0.202   3.850  14.681  0.2715  0.2091 -0.5500
  638MPD2    C3 9445   0.235   3.836  14.811  0.4446 -0.3523 -0.8094
  638MPD2    C4 9446   0.256   3.943  14.891  0.0007  0.7664 -0.2280
  638MPD2    C5 9447   0.228   4.068  14.836  0.0466  0.0704 -0.1570
  638MPD2     H 9448   0.193   3.762  14.618 -3.1575  0.6832 -0.7241
  638MPD2    H1 9449   0.278   3.950  14.997  1.2602  1.2528 -0.5213
  638MPD2    H2 9450   0.182   4.185  14.663  0.4461  0.0110 -0.8323
  638MPD2    H3 9451   0.233   4.153  14.903 -1.8073 -0.8096  1.0962
  638MPD2     N 9452   0.241   3.705  14.866  0.0708 -0.3237 -0.2908
  638MPD2    H5 9453   0.221   3.624  14.809 -1.6660 -0.6284  0.7755
  638MPD2    N1 9454   0.143   4.002  14.493 -0.1740 -0.0694  0.5485
  638MPD2    H7 9455   0.100   4.093  14.483  2.8621  1.1819 -1.1078
  639TMC3    C1 9456   0.208   3.520  15.021  0.3360 -0.3533  0.0876
  639TMC3    C2 9457   0.088   3.479  14.973  0.1929  0.6323 -0.0321
  639TMC3    C3 9458   0.007   3.391  15.047 -0.2418 -0.5934  0.6265
  639TMC3    C4 9459   0.259   3.454  15.130  0.1579  0.0538  0.4708
  639TMC3    C5 9460   0.181   3.365  15.199  0.2988  0.1994 -0.5342
  639TMC3    C6 9461   0.055   3.339  15.160 -0.3105  0.5087 -0.0716
  639TMC3     C 9462   0.257   3.660  14.998  0.6627 -0.1629 -0.1702
  639TMC3     O 9463   0.291   3.729  15.097 -0.4491 -0.1245  0.1915
  639TMC3     H 9464   0.051   3.531  14.885  0.3199 -2.1257 -1.7066
  639TMC3    H1 9465   0.353   3.487  15.174 -1.1590  1.8291  1.9880
  639TMC3    H2 9466   4.720   3.267  15.212  0.6586  1.9306  3.0984
  639TMC3    C7 9467   0.240   3.262  15.283 -0.0220  0.3993 -0.2564
  639TMC3    C8 9468   4.617   3.331  14.979  0.6110 -0.3701 -0.6364
  639TMC3    O1 9469   0.161   3.197  15.348  0.5468 -0.1792 -0.1608
  639TMC3    O2 9470   4.644   3.308  14.862 -0.4301  0.7506  0.1421
  640MPD2     C 9471   0.431   2.660  10.154  0.1291  0.1280  0.0252
  640MPD2    C1 9472   0.545   2.738  10.125  0.3085 -0.2816 -0.1108
  640MPD2    C2 9473   0.541   2.874  10.138  0.2685  0.2810  0.2989
  640MPD2    C3 9474   0.424   2.942  10.180 -0.1594  0.2265  0.1397
  640MPD2    C4 9475   0.327   2.861  10.234  0.5201  0.3187 -0.4465
  640MPD2    C5 9476   0.321   2.726  10.211 -0.0558 -0.2533  0.4808
  640MPD2     H 9477   0.629   2.933  10.114  0.7872 -1.6665 -2.5931
  640MPD2    H1 9478   0.231   2.900  10.265  0.5341 -0.1935  0.2358
  640MPD2    H2 9479   0.423   2.554  10.132  1.0801  0.2023 -0.6719
  640MPD2    H3 9480   0.229   2.674  10.236 -0.3563 -0.0177 -0.1255
  640MPD2     N 9481   0.397   3.077  10.161  0.4664 -0.1760 -0.1168
  640MPD2    H5 9482   0.298   3.099  10.170  0.0530 -2.8848  1.7804
  640MPD2    N1 9483   0.647   2.665  10.067 -0.5691  0.0749  0.5280
  640MPD2    H7 9484   0.648   2.568  10.098  0.1129 -0.0205  0.2090
  641TMC3    C1 9485   0.863   2.608   9.985 -1.2930  0.2884 -0.1725
  641TMC3    C2 9486   0.997   2.637   9.984 -0.1513 -0.2286 -0.3693
  641TMC3    C3 9487   1.084   2.543   9.939  0.1792 -0.1786  0.1410
  641TMC3    C4 9488   0.816   2.486   9.934 -0.1093  0.5457  0.0427
  641TMC3    C5 9489   0.912   2.392   9.904  0.0673  0.4378 -0.0309
  641TMC3    C6 9490   1.042   2.415   9.909  0.2832  0.4826 -0.4541
  641TMC3     C 9491   0.766   2.715  10.010 -0.1109 -0.0820  0.6490
  641TMC3     O 9492   0.806   2.828   9.991 -0.7421  0.5615  0.2027
  641TMC3     H 9493   1.025   2.732  10.028 -0.2821  0.5652 -1.9634
  641TMC3    H1 9494   0.710   2.464   9.925 -0.1671 -0.4073  2.9429
  641TMC3    H2 9495   1.114   2.335   9.899 -0.6464 -0.0638 -2.7556
  641TMC3    C7 9496   0.860   2.260   9.873 -0.0748 -0.6109  0.0365
  641TMC3    C8 9497   1.222   2.573   9.953  0.1371 -0.7487  0.6263
  641TMC3    O1 9498   0.746   2.239   9.914  0.0586 -0.4949  0.0852
  641TMC3    O2 9499   1.296   2.479   9.964 -0.6747  0.1672 -1.2119
  642TMC3    C1 9500   2.134   3.958  12.358 -0.1538 -0.2827 -0.3723
  642TMC3    C2 9501   2.183   3.989  12.479 -0.2295 -0.5768  0.3914
  642TMC3    C3 9502   2.181   3.893  12.574  0.1348 -1.0644  0.0988
  642TMC3    C4 9503   2.085   3.835  12.330 -0.1552  0.4718 -0.3357
  642TMC3    C5 9504   2.083   3.739  12.426 -0.2599 -0.3696 -0.1728
  642TMC3    C6 9505   2.131   3.769  12.551  0.3179 -0.2639 -0.0042
  642TMC3     C 9506   2.060   4.077  12.318 -0.1785  0.1012  0.5366
  642TMC3     O 9507   2.040   4.097  12.200 -0.1656  0.1612  0.0888
  642TMC3     H 9508   2.227   4.087  12.488  0.7025 -0.8253 -1.4998
  642TMC3    H1 9509   2.030   3.824  12.237 -1.1062 -0.0578  0.2925
  642TMC3    H2 9510   2.145   3.690  12.624 -1.3208 -0.5547  0.0006
  642TMC3    C7 9511   1.981   3.642  12.409  0.2899  0.7642  0.2329
  642TMC3    C8 9512   2.248   3.918  12.710  0.3007 -0.1234  0.1983
  642TMC3    O1 9513   1.938   3.625  12.293 -0.1537  0.4613  0.6325
  642TMC3    O2 9514   2.246   3.823  12.789 -0.0323 -0.3685 -0.6842
  643TMC3    C1 9515   1.455   3.040   0.191 -0.2251 -0.1088 -0.1497
  643TMC3    C2 9516   1.343   3.119   0.194  0.2909  0.1504  0.1338
  643TMC3    C3 9517   1.225   3.051   0.200  0.4933  0.1427 -0.0872
  643TMC3    C4 9518   1.456   2.905   0.156  0.2972  1.0154 -0.2304
  643TMC3    C5 9519   1.330   2.844   0.157 -0.7524 -0.7893  0.2172
  643TMC3    C6 9520   1.214   2.916   0.186 -0.3609  0.1348  0.0460
  643TMC3     C 9521   1.578   3.119   0.211  0.8979 -0.2879 -0.4570
  643TMC3     O 9522   1.579   3.238   0.190 -0.4847  0.3250 -0.2785
  643TMC3     H 9523   1.363   3.224   0.210  1.1554 -0.1509  1.0809
  643TMC3    H1 9524   1.551   2.859   0.134 -0.1316  0.0929 -0.1504
  643TMC3    H2 9525   1.121   2.866   0.164  0.0658  1.1305 -3.9038
  643TMC3    C7 9526   1.334   2.700   0.133  0.3967 -0.3440  0.0817
  643TMC3    C8 9527   1.112   3.123   0.140  0.0498 -0.0482 -0.0544
  643TMC3    O1 9528   1.441   2.655   0.174 -0.1496 -0.6983  0.4262
  643TMC3    O2 9529   0.994   3.097   0.162  0.4497 -0.2086  0.6929
  644MPD2     C 9530   1.081   3.668   9.497 -0.2843 -0.4656 -1.0350
  644MPD2    C1 9531   1.022   3.559   9.567  0.5725 -0.1322 -0.2505
  644MPD2    C2 9532   0.885   3.572   9.588 -0.3100  0.0694 -0.5331
  644MPD2    C3 9533   0.815   3.687   9.553  0.1038 -0.4431 -0.2166
  644MPD2    C4 9534   0.883   3.793   9.491 -0.7308  0.9883  0.6445
  644MPD2    C5 9535   1.010   3.780   9.457 -0.2170  0.9129  0.7331
  644MPD2     H 9536   0.846   3.479   9.628  0.2346 -0.8698 -2.1904
  644MPD2    H1 9537   0.845   3.892   9.469 -2.3765  0.2357  0.1497
  644MPD2    H2 9538   1.184   3.689   9.473 -0.0717  0.3600  0.6441
  644MPD2    H3 9539   1.062   3.856   9.400 -1.5607  1.2209 -0.0817
  644MPD2     N 9540   0.679   3.692   9.579  0.2750  0.4159  0.0808
  644MPD2    H5 9541   0.641   3.613   9.630 -1.6996  0.5052 -1.2545
  644MPD2    N1 9542   1.100   3.449   9.598  0.3563 -0.2849  0.5317
  644MPD2    H7 9543   1.051   3.378   9.651 -2.0943  1.5262  0.7430
  645TMC3    C1 9544   0.448   3.758   9.585 -0.1649 -0.4264  0.0943
  645TMC3    C2 9545   0.405   3.630   9.611  0.8943  0.5568  0.7233
  645TMC3    C3 9546   0.265   3.612   9.628 -0.1280  0.1702 -0.7349
  645TMC3    C4 9547   0.360   3.858   9.579  0.6088 -1.3867  0.2094
  645TMC3    C5 9548   0.226   3.837   9.601 -0.5070  0.1138 -0.6889
  645TMC3    C6 9549   0.177   3.717   9.623  0.8913 -0.3449  0.1471
  645TMC3     C 9550   0.588   3.791   9.552 -0.2236 -0.8199  0.3547
  645TMC3     O 9551   0.612   3.894   9.487 -0.0840  0.1009 -0.4508
  645TMC3     H 9552   0.481   3.552   9.608 -1.6075 -1.8257 -0.5930
  645TMC3    H1 9553   0.399   3.957   9.556 -1.1275 -0.5173  0.9839
  645TMC3    H2 9554   0.069   3.710   9.631  0.9448 -1.3602  0.0200
  645TMC3    C7 9555   0.126   3.946   9.593 -1.0672 -0.2613  0.3702
  645TMC3    C8 9556   0.216   3.477   9.635 -0.0087  0.4382 -0.6742
  645TMC3    O1 9557   0.028   3.932   9.659 -0.3380 -0.3989 -0.0601
  645TMC3    O2 9558   0.098   3.464   9.599 -0.0714 -0.2926 -0.3500
  646MPD2     C 9559   0.027   2.425  14.549  0.4815  0.2448 -0.5975
  646MPD2    C1 9560   4.686   2.464  14.665  0.1676 -0.1574 -0.5235
  646MPD2    C2 9561   4.582   2.557  14.653  0.4761 -0.0189  0.2013
  646MPD2    C3 9562   4.551   2.612  14.530  0.5425  0.3022 -0.3452
  646MPD2    C4 9563   4.615   2.568  14.422  0.4009  0.1429 -0.0389
  646MPD2    C5 9564   4.718   2.483  14.433  0.3973 -0.6671 -0.0854
  646MPD2     H 9565   4.522   2.579  14.740  1.0211  1.1107  0.2918
  646MPD2    H1 9566   4.613   2.606  14.321 -0.5294 -1.5606 -0.6658
  646MPD2    H2 9567   0.112   2.358  14.561  1.9511  2.3901  0.9886
  646MPD2    H3 9568   0.047   2.451  14.345 -0.7263 -0.5765 -0.8140
  646MPD2     N 9569   4.449   2.708  14.521  0.2385  0.5636 -0.2314
  646MPD2    H5 9570   4.402   2.727  14.609  0.8041  1.3739 -0.1025
  646MPD2    N1 9571   0.018   2.417  14.782 -1.1286  0.0838  0.1108
  646MPD2    H7 9572   0.102   2.360  14.774 -0.5030  0.5969  3.0337
  647TMC3    C1 9573   0.058   2.393  15.012  0.3753  0.1064  0.6902
  647TMC3    C2 9574   4.715   2.347  15.123  0.1713  0.7686 -0.0166
  647TMC3    C3 9575   0.067   2.297  15.219 -1.2600  0.0353 -0.7139
  647TMC3    C4 9576   0.188   2.398  14.999 -0.5763 -0.2643 -0.0000
  647TMC3    C5 9577   0.264   2.345  15.097  0.5210  0.2383  0.1112
  647TMC3    C6 9578   0.204   2.296  15.210  0.8487  0.1686 -0.0077
  647TMC3     C 9579   4.701   2.451  14.905  0.7327 -0.3290  0.3522
  647TMC3     O 9580   4.601   2.513  14.943  0.0896  0.1091  0.2186
  647TMC3     H 9581   4.608   2.353  15.139  0.1913  1.1165 -0.0188
  647TMC3    H1 9582   0.238   2.460  14.925  0.1493 -0.2523  0.4978
  647TMC3    H2 9583   0.258   2.233  15.280 -0.5145 -1.4484 -0.3940
  647TMC3    C7 9584   0.401   2.302  15.069 -0.1435 -0.1127  0.2670
  647TMC3    C8 9585   0.020   2.170  15.271  0.4691  0.2994  0.1628
  647TMC3    O1 9586   0.475   2.270  15.157 -0.4209 -0.4217 -0.4696
  647TMC3    O2 9587   0.102   2.078  15.275 -0.4121 -0.8573 -0.7894
  648TMC3    C1 9588   4.169   4.567  16.207 -0.4076  0.3007  0.7292
  648TMC3    C2 9589   4.232   4.469  16.145  0.1853  0.4025  0.4474
  648TMC3    C3 9590   4.224   4.476  16.007  0.3290 -0.2288 -0.1626
  648TMC3    C4 9591   4.089   4.663  16.156  0.2438  0.2264  0.1805
  648TMC3    C5 9592   4.084   4.661  16.020 -0.1720  0.7342  0.1451
  648TMC3    C6 9593   4.150   4.568  15.943 -0.6402  0.3203  0.5202
  648TMC3     C 9594   4.207   4.591  16.339 -0.4983 -0.8515  0.6163
  648TMC3     O 9595   4.198   4.710  16.379  0.1249 -0.0725 -0.9559
  648TMC3     H 9596   4.312   4.410  16.187 -1.3100 -2.0365 -0.1491
  648TMC3    H1 9597   4.035   0.006  16.219  0.2549  0.1205  0.3057
  648TMC3    H2 9598   4.136   4.561  15.835  0.7438 -2.6692  0.5220
  648TMC3    C7 9599   3.983   0.012  15.950 -0.7902 -0.3587 -0.0018
  648TMC3    C8 9600   4.321   4.406  15.921 -0.5592  0.0907  0.2152
  648TMC3    O1 9601   3.953   4.708  15.838 -0.0175 -0.4603  0.0167
  648TMC3    O2 9602   4.434   4.387  15.957  0.4509  0.1410  0.1938
  649TMC3    C1 9603   3.392   0.992  12.989 -0.5021  0.4850  0.7347
  649TMC3    C2 9604   3.519   0.956  13.027 -0.7776  0.2791 -0.2275
  649TMC3    C3 9605   3.536   0.904  13.154  0.6878 -0.8367 -0.5789
  649TMC3    C4 9606   3.286   0.952  13.069 -0.3723 -0.2163  0.2508
  649TMC3    C5 9607   3.307   0.883  13.189  0.6359 -0.0241  0.7800
  649TMC3    C6 9608   3.435   0.863  13.238 -0.9063 -0.0927 -0.7782
  649TMC3     C 9609   3.373   1.072  12.873 -0.1332 -0.2163 -0.3388
  649TMC3     O 9610   3.253   1.098  12.852  0.2548  0.8495  0.1288
  649TMC3     H 9611   3.611   0.958  12.970 -0.9735  0.4878 -0.5328
  649TMC3    H1 9612   3.186   0.961  13.029 -0.4629  0.2324  0.5859
  649TMC3    H2 9613   3.452   0.822  13.338  0.0260  4.0871  0.7628
  649TMC3    C7 9614   3.187   0.853  13.271 -0.3325 -0.0675  0.8474
  649TMC3    C8 9615   3.666   0.860  13.198  0.3645 -0.7839 -0.8445
  649TMC3    O1 9616   3.081   0.911  13.252 -0.6336  0.2525 -0.9697
  649TMC3    O2 9617   3.672   0.754  13.260 -0.1681  0.3447  0.6302
  650TMC3    C1 9618   1.197   3.031  12.856  0.0356 -0.8827  0.2781
  650TMC3    C2 9619   1.263   3.152  12.852 -0.8131 -0.7483  0.1112
  650TMC3    C3 9620   1.266   3.227  12.744  0.1217  0.6491 -0.8344
  650TMC3    C4 9621   1.144   2.970  12.737 -0.0138 -0.0814  0.7476
  650TMC3    C5 9622   1.143   3.057  12.632  0.0101 -0.1752 -0.0475
  650TMC3    C6 9623   1.209   3.181  12.626 -0.4319  0.1815 -0.6551
  650TMC3     C 9624   1.233   2.933  12.956 -0.1897  0.2926 -0.3236
  650TMC3     O 9625   1.272   2.963  13.072  0.5251  0.2125  0.2303
  650TMC3     H 9626   1.292   3.187  12.951  0.6278  2.3242 -1.4090
  650TMC3    H1 9627   1.071   2.891  12.726  0.1185  0.1804 -2.1203
  650TMC3    H2 9628   1.215   3.237  12.534  1.0583 -0.9397 -1.2481
  650TMC3    C7 9629   1.025   3.065  12.560 -0.4245 -0.3461  0.3887
  650TMC3    C8 9630   1.255   3.373  12.760 -0.0219 -0.1817  0.8633
  650TMC3    O1 9631   0.973   2.960  12.508 -0.2354 -0.0694 -0.1882
  650TMC3    O2 9632   1.279   3.440  12.661  0.2619  0.3429 -0.0060
  651MPD2     C 9633   0.120   0.300  10.463  0.8948  1.0747  0.4580
  651MPD2    C1 9634   0.124   0.429  10.516 -0.0049 -0.5164  0.2309
  651MPD2    C2 9635   0.250   0.486  10.534  0.1310  0.1920  0.3132
  651MPD2    C3 9636   0.365   0.422  10.513  0.9748 -0.2613 -0.0351
  651MPD2    C4 9637   0.357   0.297  10.466  0.0969  0.2532  0.1980
  651MPD2    C5 9638   0.236   0.239  10.436  0.3935 -0.6300 -0.1752
  651MPD2     H 9639   0.252   0.582  10.584 -1.2422  0.8014 -0.8056
  651MPD2    H1 9640   0.451   0.246  10.447  0.0491  0.5192 -0.7591
  651MPD2    H2 9641   0.027   0.252  10.435  0.4499  0.8726  2.3045
  651MPD2    H3 9642   0.237   0.135  10.405 -2.0120 -0.7519  0.1344
  651MPD2     N 9643   0.490   0.472  10.558  0.2167 -0.6937  0.2865
  651MPD2    H5 9644   0.488   0.559  10.611  1.1676 -0.2980 -0.3323
  651MPD2    N1 9645   0.014   0.501  10.553 -0.2969 -0.3373  0.1809
  651MPD2    H7 9646   0.023   0.590  10.600  1.5376 -1.5479  2.0802
  652TMC3    C1 9647   0.938   0.490  10.690  0.0330  0.0979 -0.7599
  652TMC3    C2 9648   0.851   0.482  10.592  0.5054 -1.1194  0.3629
  652TMC3    C3 9649   0.718   0.487  10.632 -0.8405  0.2900  0.3142
  652TMC3    C4 9650   0.904   0.502  10.825 -0.1234 -0.2584  0.2041
  652TMC3    C5 9651   0.770   0.510  10.854 -0.4861  0.4944  0.7313
  652TMC3    C6 9652   0.672   0.491  10.760  0.4788  0.3695  0.5130
  652TMC3     C 9653   1.075   0.470  10.662  0.4211 -0.0718  0.0652
  652TMC3     O 9654   1.142   0.406  10.745  0.1254 -0.2395 -0.5488
  652TMC3     H 9655   0.871   0.442  10.493  1.8460  2.0269 -0.6342
  652TMC3    H1 9656   0.978   0.507  10.903  1.6248 -0.5246 -1.4389
  652TMC3    H2 9657   0.567   0.502  10.786  0.0389  1.2626 -1.5879
  652TMC3    C7 9658   0.731   0.543  10.983 -0.2237  0.2264 -0.1626
  652TMC3    C8 9659   0.618   0.431  10.534 -0.2457  1.0992 -0.7149
  652TMC3    O1 9660   0.621   0.511  11.025 -0.4829  0.6595 -0.1039
  652TMC3    O2 9661   0.655   0.352  10.451  0.1950 -0.0690  0.0695
  653MPD2     C 9662   3.134   0.259   0.051  0.2595  0.3221 -0.5532
  653MPD2    C1 9663   3.260   0.239   0.007  0.3146 -0.5307 -0.2566
  653MPD2    C2 9664   3.267   0.165  17.596 -0.5705 -0.2630 -0.9946
  653MPD2    C3 9665   3.160   0.121  17.517 -0.1211 -0.4437  0.2704
  653MPD2    C4 9666   3.036   0.141  17.576  0.6542 -0.2134  0.7252
  653MPD2    C5 9667   3.030   0.207  17.692  0.6964 -0.3527 -0.3653
  653MPD2     H 9668   3.370   0.137  17.575 -1.0650 -2.8485  0.0495
  653MPD2    H1 9669   2.943   0.115  17.525  2.3873 -0.0804 -2.4579
  653MPD2    H2 9670   3.114   0.314   0.142 -0.2103 -0.2778 -0.2983
  653MPD2    H3 9671   2.930   0.234   0.021  2.0884  3.2069  0.9001
  653MPD2     N 9672   3.173   0.063  17.389  0.5771  0.1454 -0.6100
  653MPD2    H5 9673   3.262   0.022  17.364  1.6155  1.0432  1.5838
  653MPD2    N1 9674   3.382   0.292   0.061 -0.2670 -0.8827  0.4667
  653MPD2    H7 9675   3.464   0.272   0.005 -0.7290  0.5331 -0.7279
  654TMC3    C1 9676   3.113   0.023  17.161 -0.4026 -0.1445  0.3271
  654TMC3    C2 9677   3.039   0.082  17.060 -0.5388  0.0705 -0.1222
  654TMC3    C3 9678   3.064   0.023  16.938  0.1596 -1.1245  0.1412
  654TMC3    C4 9679   3.192   4.636  17.153 -0.1905 -0.0984 -0.4334
  654TMC3    C5 9680   3.213   4.584  17.031 -0.3996 -0.2431  0.2520
  654TMC3    C6 9681   3.145   4.636  16.924  0.2827 -0.2648  0.1358
  654TMC3     C 9682   3.076   0.079  17.295  0.1995  0.5212  0.8304
  654TMC3     O 9683   2.971   0.141  17.295 -0.1102  0.3561  0.1208
  654TMC3     H 9684   2.993   0.179  17.072 -1.6077 -0.5459  0.7798
  654TMC3    H1 9685   3.245   4.591  17.236  2.8250  1.8932 -1.2708
  654TMC3    H2 9686   3.171   4.594  16.828 -1.4850 -0.7657 -0.1196
  654TMC3    C7 9687   3.219   4.441  17.013 -0.0498 -0.4018 -0.8730
  654TMC3    C8 9688   2.965   0.053  16.830 -0.4059 -0.6797 -0.3865
  654TMC3    O1 9689   3.180   4.401  16.905  1.1122  0.0819  0.3229
  654TMC3    O2 9690   2.895   0.155  16.839  0.2101  0.0740  0.6698
  655MPD2     C 9691   4.553   4.566  15.671 -0.1145  0.8633  0.4231
  655MPD2    C1 9692   4.496   4.683  15.608 -0.0051  0.0480 -0.3963
  655MPD2    C2 9693   4.519   4.694  15.470 -0.2316 -0.3243  0.0751
  655MPD2    C3 9694   4.578   4.591  15.396  0.3384  0.3642 -0.0451
  655MPD2    C4 9695   4.641   4.489  15.462  0.4271 -0.2426 -1.1540
  655MPD2    C5 9696   4.625   4.478  15.597 -0.2724  0.2692 -0.7341
  655MPD2     H 9697   4.476   0.055  15.421  2.1703 -0.4344 -2.2448
  655MPD2    H1 9698   4.689   4.408  15.408  1.5942  1.0832 -2.1167
  655MPD2    H2 9699   4.540   4.551  15.778 -0.3019 -0.7938  0.1644
  655MPD2    H3 9700   4.666   4.398  15.657  0.0689  0.5264 -0.6200
  655MPD2     N 9701   4.603   4.595  15.258  0.3626 -0.1248  0.0397
  655MPD2    H5 9702   4.663   4.526  15.215  0.3604  1.7903 -3.0778
  655MPD2    N1 9703   4.432   0.065  15.669 -0.2639 -0.3557  0.3762
  655MPD2    H7 9704   4.394   0.137  15.608 -1.1001 -1.2679 -0.1685
  656TMC3    C1 9705   4.367   0.212  15.854 -0.4791  0.0481  0.4207
  656TMC3    C2 9706   4.335   0.221  15.983 -0.3513  0.0901 -0.6829
  656TMC3    C3 9707   4.265   0.335  16.018 -0.4458  0.0322  0.1060
  656TMC3    C4 9708   4.348   0.312  15.759 -0.4756  0.0281  0.5685
  656TMC3    C5 9709   4.282   0.424  15.803 -0.7370  0.1822 -0.2731
  656TMC3    C6 9710   4.245   0.439  15.930 -0.0312  0.2254  0.0404
  656TMC3     C 9711   4.426   0.088  15.808 -0.3581  0.0061  0.3912
  656TMC3     O 9712   4.452   0.005  15.897 -0.6086  0.6479  0.5643
  656TMC3     H 9713   4.343   0.136  16.049  1.5709  2.1677  1.7387
  656TMC3    H1 9714   4.387   0.317  15.658 -3.8252 -0.9627 -0.7890
  656TMC3    H2 9715   4.191   0.518  15.980  0.8403 -0.3763  1.8967
  656TMC3    C7 9716   4.224   0.507  15.703  0.2729  0.0354  0.2753
  656TMC3    C8 9717   4.194   0.324  16.140  0.5221  0.1848 -0.0555
  656TMC3    O1 9718   4.270   0.492  15.595 -0.0255  0.2520 -0.0303
  656TMC3    O2 9719   4.159   0.212  16.162  0.3515  0.2330 -0.4431
  657TMC3    C1 9720   3.610   4.423  14.803  0.2551 -0.1407 -0.2875
  657TMC3    C2 9721   3.606   4.425  14.945  0.1161 -0.9697  0.2571
  657TMC3    C3 9722   3.537   4.521  15.016 -0.2368  0.3770 -0.2115
  657TMC3    C4 9723   3.533   4.517  14.733 -0.3028  0.7580 -0.4622
  657TMC3    C5 9724   3.464   4.613  14.804 -0.4175 -0.1777 -0.3924
  657TMC3    C6 9725   3.470   4.618  14.943 -0.4946 -0.6549 -0.8273
  657TMC3     C 9726   3.630   4.293  14.737 -0.0027 -0.8383 -0.5763
  657TMC3     O 9727   3.558   4.277  14.641 -0.3003  0.6256 -0.0148
  657TMC3     H 9728   3.662   4.345  14.992 -0.4874 -1.5836 -0.0660
  657TMC3    H1 9729   3.551   4.529  14.627 -2.3640 -1.0919 -1.0033
  657TMC3    H2 9730   3.415   4.700  14.988 -0.9491 -1.6667  0.4783
  657TMC3    C7 9731   3.381   4.717  14.738 -0.2025  0.0007  0.2781
  657TMC3    C8 9732   3.609   4.583  15.124  0.5286  0.5099 -0.4325
  657TMC3    O1 9733   3.361   0.094  14.797  0.0510 -0.1821 -0.1350
  657TMC3    O2 9734   3.625   4.707  15.117 -0.2217  0.2195 -0.0757
  658MPD2     C 9735   0.375   4.421  14.817 -0.2549 -0.2975  0.4897
  658MPD2    C1 9736   0.271   4.481  14.759  0.4646 -0.6414 -0.3125
  658MPD2    C2 9737   0.288   4.536  14.628 -0.2391 -0.4645 -0.2295
  658MPD2    C3 9738   0.413   4.540  14.573  0.6009 -0.0561 -0.6752
  658MPD2    C4 9739   0.522   4.482  14.637 -0.6366 -0.2008  0.4955
  658MPD2    C5 9740   0.499   4.420  14.753  0.1264 -0.1368 -0.1697
  658MPD2     H 9741   0.207   4.589  14.579  0.0663  0.8571  0.6917
  658MPD2    H1 9742   0.623   4.466  14.603 -1.1250  1.0085 -1.5369
  658MPD2    H2 9743   0.359   4.377  14.914  1.3374 -0.3626  0.7161
  658MPD2    H3 9744   0.577   4.379  14.815 -0.3336  0.7106  0.9652
  658MPD2     N 9745   0.419   4.602  14.446 -0.3443  0.3974  0.6502
  658MPD2    H5 9746   0.333   4.638  14.405  0.4094  0.0009 -1.2954
  658MPD2    N1 9747   0.147   4.479  14.822  0.0069  0.6311  0.2829
  658MPD2    H7 9748   0.135   4.418  14.902  2.1151  1.9437  1.5882
  659TMC3    C1 9749   4.661   4.516  14.872  0.1108 -0.0993 -0.3532
  659TMC3    C2 9750   4.665   4.582  14.993  0.4561 -0.0307 -0.4514
  659TMC3    C3 9751   4.545   4.636  15.043 -0.2959 -0.6905  0.5388
  659TMC3    C4 9752   4.545   4.519  14.805 -0.3311  0.0736 -0.5812
  659TMC3    C5 9753   4.431   4.583  14.844 -0.4071 -1.0538  0.0343
  659TMC3    C6 9754   4.428   4.645  14.971 -0.5541  0.4616 -0.0304
  659TMC3     C 9755   0.043   4.554  14.781  0.1871 -0.4548 -0.1471
  659TMC3     O 9756   0.046   4.669  14.739 -0.0222 -0.3134 -0.5526
  659TMC3     H 9757   0.035   4.601  15.041  0.1794  1.5713 -0.5500
  659TMC3    H1 9758   4.547   4.470  14.708 -1.3107 -0.0586 -0.5359
  659TMC3    H2 9759   4.339   4.702  14.996  0.2859  0.7176  2.3992
  659TMC3    C7 9760   4.303   4.572  14.763 -0.5886 -0.1874  0.1448
  659TMC3    C8 9761   4.541   4.684  15.173  0.1963  0.3812 -0.4053
  659TMC3    O1 9762   4.218   4.651  14.804  0.2409 -0.3376  0.3682
  659TMC3    O2 9763   4.450   0.037  15.191 -0.4252  0.5311 -0.0992
  660MPD2     C 9764   3.326   3.461  13.109 -0.7658 -0.5473  0.0955
  660MPD2    C1 9765   3.204   3.474  13.043 -0.2767 -0.7472  0.8621
  660MPD2    C2 9766   3.083   3.443  13.110  0.3490 -0.1191 -0.1618
  660MPD2    C3 9767   3.088   3.380  13.237  0.1767  0.7022 -0.4417
  660MPD2    C4 9768   3.210   3.357  13.295 -0.3160 -0.2615  0.5371
  660MPD2    C5 9769   3.328   3.407  13.237  0.0479  0.4653  0.3243
  660MPD2     H 9770   2.991   3.456  13.054  0.4167  0.4660 -0.1378
  660MPD2    H1 9771   3.217   3.312  13.393  0.4712  2.4502  1.7275
  660MPD2    H2 9772   3.405   3.526  13.075 -1.2987 -0.0295 -0.1460
  660MPD2    H3 9773   3.421   3.400  13.291  0.1194 -0.8418  0.0295
  660MPD2     N 9774   2.967   3.334  13.303  0.3288  0.0120 -0.4235
  660MPD2    H5 9775   2.984   3.279  13.387  1.4240  1.7733  0.5273
  660MPD2    N1 9776   3.217   3.532  12.920 -0.4216 -0.1380  0.5941
  660MPD2    H7 9777   3.297   3.589  12.893  0.2927 -0.2688  2.4433
  661TMC3    C1 9778   3.135   3.635  12.715  0.4677 -0.1762 -0.5452
  661TMC3    C2 9779   3.261   3.669  12.687  0.0391 -0.0479 -0.3327
  661TMC3    C3 9780   3.276   3.751  12.569  0.1375  0.6599  0.6585
  661TMC3    C4 9781   3.026   3.682  12.652  0.2643 -0.2092 -0.2029
  661TMC3    C5 9782   3.046   3.760  12.543 -0.3471 -0.2738  0.0181
  661TMC3    C6 9783   3.169   3.801  12.505  0.5713 -0.0837  0.4738
  661TMC3     C 9784   3.104   3.547  12.836  0.8393 -0.2102 -0.3077
  661TMC3     O 9785   2.998   3.490  12.835 -0.0599 -0.0311 -0.9433
  661TMC3     H 9786   3.352   3.627  12.726 -0.4013 -1.8230 -1.2228
  661TMC3    H1 9787   2.928   3.661  12.691  0.2284  1.9414  0.8389
  661TMC3    H2 9788   3.180   3.862  12.416 -1.2375 -2.0239 -1.0833
  661TMC3    C7 9789   2.940   3.854  12.504  1.0128  0.4500  0.0356
  661TMC3    C8 9790   3.398   3.718  12.502 -0.0904  0.3870  0.3589
  661TMC3    O1 9791   2.976   3.970  12.491  0.1727  0.2978 -0.1016
  661TMC3    O2 9792   3.498   3.690  12.569 -0.3946  0.3371 -0.1723
  662MPD2     C 9793   3.237   3.458  17.658  0.7670  0.5142  0.4962
  662MPD2    C1 9794   3.162   3.454  17.542 -0.4373  0.3264 -0.0283
  662MPD2    C2 9795   3.090   3.564  17.504 -0.4135 -0.1967 -0.0039
  662MPD2    C3 9796   3.102   3.680  17.579 -0.3777 -0.0131 -0.0032
  662MPD2    C4 9797   3.179   3.688  17.693 -0.2991 -0.1010 -0.0583
  662MPD2    C5 9798   3.241   3.570   0.025 -0.0019 -0.8334  0.4068
  662MPD2     H 9799   3.036   3.568  17.410  0.1258 -1.1273 -0.3465
  662MPD2    H1 9800   3.198   3.779   0.045  0.4665 -1.7255  2.3185
  662MPD2    H2 9801   3.278   3.365  17.697  0.3847  0.8822  1.7934
  662MPD2    H3 9802   3.292   3.571   0.121 -0.0995  1.9279  0.4332
  662MPD2     N 9803   3.052   3.807  17.543  0.1438 -0.5706  0.3455
  662MPD2    H5 9804   3.074   3.879  17.611 -2.8223  0.7026 -0.0754
  662MPD2    N1 9805   3.155   3.344  17.457  0.4740  0.5089  0.0874
  662MPD2    H7 9806   3.098   3.355  17.374  1.3539  2.5088 -0.2623
  663TMC3    C1 9807   3.184   3.122  17.383  0.3108  0.4780  0.2836
  663TMC3    C2 9808   3.061   3.133  17.326 -0.6015  0.1637  0.9888
  663TMC3    C3 9809   2.976   3.025  17.306  0.2230  0.1001 -0.3690
  663TMC3    C4 9810   3.224   3.003  17.433 -0.4480  0.0995 -0.0616
  663TMC3    C5 9811   3.134   2.900  17.422  0.3641 -0.2696  0.0853
  663TMC3    C6 9812   3.011   2.913  17.363  0.1381  0.2413 -0.3852
  663TMC3     C 9813   3.219   3.228  17.468 -0.2783 -0.1927 -0.4455
  663TMC3     O 9814   3.297   3.199  17.557 -0.1026  0.3498 -0.1610
  663TMC3     H 9815   3.028   3.214  17.262 -1.1546  0.0709  1.1511
  663TMC3    H1 9816   3.318   2.991  17.485 -1.1235 -1.1746  0.8824
  663TMC3    H2 9817   2.946   2.831  17.333  0.5801 -0.7224  1.2884
  663TMC3    C7 9818   3.186   2.766  17.444  0.1197  0.7464 -0.4148
  663TMC3    C8 9819   2.845   3.066  17.338 -0.0500  0.6061 -0.2600
  663TMC3    O1 9820   3.305   2.743  17.417  0.7449 -0.0328 -0.2136
  663TMC3    O2 9821   2.801   3.154  17.266 -0.7480 -0.5017 -0.3822
  664MPD2     C 9822   1.299   1.257  17.414  0.1673 -0.0692  0.1775
  664MPD2    C1 9823   1.317   1.391  17.453 -0.5166 -0.0058 -0.0145
  664MPD2    C2 9824   1.338   1.421  17.585  0.5835 -0.8730 -1.2350
  664MPD2    C3 9825   1.351   1.323  17.685 -0.4075  0.4970 -0.2590
  664MPD2    C4 9826   1.338   1.195  17.645 -0.0332 -0.4795 -0.1159
  664MPD2    C5 9827   1.311   1.159  17.514 -0.0056 -0.2029  0.0100
  664MPD2     H 9828   1.355   1.526  17.608  1.6051 -0.5244 -3.5911
  664MPD2    H1 9829   1.351   1.116   0.013 -0.6872  1.1338  1.7525
  664MPD2    H2 9830   1.268   1.222  17.316  0.0672 -1.7097  0.8017
  664MPD2    H3 9831   1.297   1.056  17.484 -1.9988 -0.6823  2.6200
  664MPD2     N 9832   1.384   1.357   0.116 -0.0286 -0.6223 -0.7042
  664MPD2    H5 9833   1.406   1.455   0.130 -1.3575 -0.4059 -0.1669
  664MPD2    N1 9834   1.297   1.498  17.360 -0.1042  0.1208 -0.0133
  664MPD2    H7 9835   1.267   1.588  17.397  3.6738  2.2560 -2.2337
  665TMC3    C1 9836   1.459   1.335   0.341  0.0139  0.1660  0.6430
  665TMC3    C2 9837   1.440   1.267   0.459 -1.3285  0.4117  0.0891
  665TMC3    C3 9838   1.502   1.328   0.564  0.4091  0.5170 -0.0851
  665TMC3    C4 9839   1.553   1.424   0.328 -0.9600  0.2833 -0.5942
  665TMC3    C5 9840   1.620   1.473   0.435 -0.5338 -0.1508  0.0165
  665TMC3    C6 9841   1.594   1.428   0.556 -0.2098 -0.4578 -0.0781
  665TMC3     C 9842   1.390   1.276   0.230  0.2605 -0.2291  0.2415
  665TMC3     O 9843   1.369   1.153   0.244  0.0045  0.0170  0.6314
  665TMC3     H 9844   1.369   1.186   0.459 -0.1728 -0.5891 -0.6778
  665TMC3    H1 9845   1.584   1.464   0.233  2.6834 -0.5897  0.2193
  665TMC3    H2 9846   1.632   1.464   0.651 -0.9446  0.3526 -0.0893
  665TMC3    C7 9847   1.672   1.606   0.427 -0.4446  0.2174 -0.2268
  665TMC3    C8 9848   1.463   1.292   0.701  0.0360  0.3454 -1.0451
  665TMC3    O1 9849   1.632   1.676   0.331 -0.5539 -0.1459 -0.0879
  665TMC3    O2 9850   1.490   1.379   0.785  0.0325  0.5767 -0.6765
  666TMC3    C1 9851   1.288   1.367  10.197  0.4932  0.2002 -0.5053
  666TMC3    C2 9852   1.335   1.343  10.324  0.3710  0.7549  0.3993
  666TMC3    C3 9853   1.242   1.348  10.425  0.9008 -0.0122  0.4140
  666TMC3    C4 9854   1.161   1.418  10.179  0.4271 -0.1861 -0.4838
  666TMC3    C5 9855   1.085   1.431  10.288  0.4830 -0.1067  0.1076
  666TMC3    C6 9856   1.109   1.381  10.412 -0.6925  0.0372 -0.0085
  666TMC3     C 9857   1.366   1.337  10.084  0.6093  0.3633 -0.9128
  666TMC3     O 9858   1.483   1.341  10.099 -0.1529 -0.5694  0.2066
  666TMC3     H 9859   1.434   1.303  10.345  0.6711 -0.0958 -2.5685
  666TMC3    H1 9860   1.114   1.441  10.084  1.0081  1.4077 -0.3859
  666TMC3    H2 9861   1.031   1.400  10.484  1.2728 -2.3265  2.7344
  666TMC3    C7 9862   0.970   1.520  10.283  0.4696 -0.8305  0.5632
  666TMC3    C8 9863   1.289   1.322  10.564  0.3383  0.5106  0.0635
  666TMC3    O1 9864   0.869   1.500  10.350  0.0916  0.3043 -0.1096
  666TMC3    O2 9865   1.198   1.285  10.640 -0.3614 -0.0554 -0.1649
  667MPD2     C 9866   1.638   1.441  14.521 -0.0476 -0.0015  0.4392
  667MPD2    C1 9867   1.575   1.516  14.622 -0.2181 -0.5735 -0.4672
  667MPD2    C2 9868   1.441   1.490  14.639  0.3533  0.0597 -0.5729
  667MPD2    C3 9869   1.365   1.417  14.550  0.5753 -0.1774 -0.1359
  667MPD2    C4 9870   1.437   1.356  14.446 -0.5921  0.2890  0.4210
  667MPD2    C5 9871   1.574   1.363  14.444  0.2199  0.3634  0.4720
  667MPD2     H 9872   1.386   1.545  14.715  2.4844  0.5583  0.6140
  667MPD2    H1 9873   1.387   1.314  14.360  0.0554  0.9741 -0.2931
  667MPD2    H2 9874   1.744   1.447  14.503 -0.2407 -1.0171 -0.9918
  667MPD2    H3 9875   1.628   1.314  14.363 -2.9213 -0.5943 -1.0240
  667MPD2     N 9876   1.228   1.406  14.561  0.6120 -0.2162  0.5097
  667MPD2    H5 9877   1.180   1.342  14.498 -2.3616 -0.2337  2.8223
  667MPD2    N1 9878   1.651   1.592  14.723  0.4088 -0.1452  0.0430
  667MPD2    H7 9879   1.600   1.636  14.798 -0.6724  0.0443 -0.8002
  668TMC3    C1 9880   1.830   1.683  14.833 -0.1890  0.3222  0.1632
  668TMC3    C2 9881   1.934   1.764  14.811 -0.4216 -0.5075  0.4303
  668TMC3    C3 9882   1.994   1.812  14.926  0.0346  0.5210 -0.9406
  668TMC3    C4 9883   1.767   1.658  14.954 -0.1014 -0.8981 -0.7985
  668TMC3    C5 9884   1.830   1.715  15.058 -0.5193  0.3531  0.3734
  668TMC3    C6 9885   1.941   1.788  15.052 -0.6685  0.0808 -0.7760
  668TMC3     C 9886   1.785   1.607  14.721  0.6718  0.0994 -0.1611
  668TMC3     O 9887   1.872   1.579  14.639 -0.4385  0.1800 -0.6557
  668TMC3     H 9888   1.973   1.789  14.713 -0.4754 -1.3482  0.1937
  668TMC3    H1 9889   1.695   1.577  14.965  1.1412 -1.7853  0.9115
  668TMC3    H2 9890   1.970   1.843  15.140 -1.1362 -0.0616 -0.5351
  668TMC3    C7 9891   1.770   1.705  15.193  0.1334  0.1864 -0.1352
  668TMC3    C8 9892   2.083   1.928  14.923  0.8290  0.6148  0.0734
  668TMC3    O1 9893   1.840   1.748  15.284  0.0989  0.7178 -0.1281
  668TMC3    O2 9894   2.110   1.965  15.035  0.0181  0.3094  0.0822
  669TMC3    C1 9895   4.401   1.690  14.285 -0.5736 -0.0184 -0.2839
  669TMC3    C2 9896   4.284   1.729  14.231  0.5168  0.5761  0.6090
  669TMC3    C3 9897   4.287   1.811  14.122 -1.0044 -0.8969  0.0452
  669TMC3    C4 9898   4.522   1.743  14.231 -1.1773  0.2090  0.5101
  669TMC3    C5 9899   4.520   1.813  14.118  0.3139  0.1357 -0.7160
  669TMC3    C6 9900   4.402   1.851  14.058  0.2394  0.1198 -0.2757
  669TMC3     C 9901   4.409   1.583  14.382 -0.0234  0.8430 -0.3018
  669TMC3     O 9902   4.304   1.532  14.413 -1.0838  0.2277 -0.4621
  669TMC3     H 9903   4.190   1.688  14.267  0.2869  0.6859  0.1375
  669TMC3    H1 9904   4.617   1.727  14.279 -1.2965  1.4962  1.1504
  669TMC3    H2 9905   4.407   1.913  13.969 -0.6019  0.4866 -0.0630
  669TMC3    C7 9906   4.640   1.880  14.083 -0.1698 -0.7801 -0.5018
  669TMC3    C8 9907   4.163   1.844  14.053  0.5964 -0.1035  0.0855
  669TMC3    O1 9908   4.709   1.906  14.179 -0.2120  0.1482  0.5064
  669TMC3    O2 9909   4.065   1.773  14.073  0.0348  0.2192 -0.1513
  670MPD2     C 9910   2.738   4.531  13.270 -0.5491  0.6188  0.9338
  670MPD2    C1 9911   2.841   4.444  13.306  0.1281 -0.2101 -0.0967
  670MPD2    C2 9912   2.839   4.372  13.423 -0.4681  0.0920 -0.1398
  670MPD2    C3 9913   2.727   4.388  13.505  0.4832  0.3324  0.5924
  670MPD2    C4 9914   2.631   4.483  13.474  0.0174  0.2910 -0.7492
  670MPD2    C5 9915   2.634   4.549  13.355  0.3631 -0.3365 -0.5489
  670MPD2     H 9916   2.926   4.309  13.440  0.1889  1.2623  0.8863
  670MPD2    H1 9917   2.558   4.520  13.546  1.1029 -0.6588  0.8383
  670MPD2    H2 9918   2.733   4.591  13.179 -0.9668 -0.5861  0.1680
  670MPD2    H3 9919   2.564   4.628  13.330 -0.1551 -0.4454  0.5416
  670MPD2     N 9920   2.723   4.303  13.620  0.7912  0.2942 -0.1363
  670MPD2    H5 9921   2.799   4.239  13.639  0.0977 -0.5436 -0.1987
  670MPD2    N1 9922   2.944   4.400  13.216 -0.1768 -0.0009  0.1234
  670MPD2    H7 9923   3.019   4.348  13.260  0.6313  0.2917 -0.9173
  671TMC3    C1 9924   2.636   4.216  13.823  0.6711 -0.1062  0.4209
  671TMC3    C2 9925   2.755   4.206  13.896 -0.6329 -0.3062  0.0890
  671TMC3    C3 9926   2.758   4.134  14.010 -0.7841  0.8096  0.4542
  671TMC3    C4 9927   2.545   4.124  13.854  0.3220 -0.4183 -0.4085
  671TMC3    C5 9928   2.556   4.038  13.964  0.2856 -0.3860 -0.7080
  671TMC3    C6 9929   2.657   4.049  14.054  0.1832 -0.7182  0.2589
  671TMC3     C 9930   2.612   4.296  13.703 -0.2183  0.2965 -0.0426
  671TMC3     O 9931   2.499   4.333  13.685  0.5839 -0.2068 -0.2251
  671TMC3     H 9932   2.826   4.281  13.865  0.0644 -1.1465 -0.3504
  671TMC3    H1 9933   2.460   4.121  13.787  1.1232 -1.1727 -1.4114
  671TMC3    H2 9934   2.683   3.984  14.138 -0.0290 -1.9390 -0.6120
  671TMC3    C7 9935   2.478   3.915  13.952 -0.7285  0.1967 -0.1311
  671TMC3    C8 9936   2.880   4.126  14.086  0.2709  0.2011  0.2915
  671TMC3    O1 9937   2.395   3.909  13.860 -0.5355  0.1531 -0.4431
  671TMC3    O2 9938   2.868   4.068  14.197 -0.2587  0.1322  0.5841
  672MPD2     C 9939   3.188   4.472   1.548  1.5053 -0.0297  0.3638
  672MPD2    C1 9940   3.262   4.554   1.461 -0.1418 -0.3709  0.0698
  672MPD2    C2 9941   3.349   4.655   1.509 -0.0528 -0.0879 -0.6175
  672MPD2    C3 9942   3.369   4.671   1.644  0.3862  0.6701  0.1072
  672MPD2    C4 9943   3.290   4.598   1.729 -0.2833  0.2718 -0.1957
  672MPD2    C5 9944   3.205   4.501   1.683  0.3393  0.6604 -0.4796
  672MPD2     H 9945   3.405   4.710   1.434 -0.4849 -0.2044 -1.0215
  672MPD2    H1 9946   3.305   4.612   1.836  0.6254 -0.7846 -0.1859
  672MPD2    H2 9947   3.127   4.385   1.527  1.7910 -0.3060  0.6845
  672MPD2    H3 9948   3.153   4.440   1.757  1.9538  1.2374  1.1431
  672MPD2     N 9949   3.472   0.027   1.693  0.2374 -0.0737  0.6718
  672MPD2    H5 9950   3.508   0.087   1.620  1.0293 -0.6395  0.5936
  672MPD2    N1 9951   3.272   4.539   1.315  0.2209  0.0882  0.4174
  672MPD2    H7 9952   3.320   4.614   1.267  0.5875 -1.6814 -1.9897
  673TMC3    C1 9953   3.293   4.406   1.116  0.0180 -0.6294 -1.1322
  673TMC3    C2 9954   3.324   4.274   1.096  0.1973 -0.2926 -0.0810
  673TMC3    C3 9955   3.431   4.242   1.018 -0.0682  0.0718  0.1786
  673TMC3    C4 9956   3.367   4.508   1.052 -0.1378 -0.2817  0.1165
  673TMC3    C5 9957   3.477   4.468   0.980 -0.4200  0.2464 -0.7446
  673TMC3    C6 9958   3.513   4.334   0.971 -0.3757  0.0062 -0.9679
  673TMC3     C 9959   3.225   4.427   1.246 -0.4079 -0.6770 -0.1178
  673TMC3     O 9960   3.176   4.323   1.292 -0.3686  0.5291 -0.0178
  673TMC3     H 9961   3.273   4.188   1.140  0.4360  0.6217  1.9552
  673TMC3    H1 9962   3.345   4.610   1.078 -0.3982 -0.4254  0.4584
  673TMC3    H2 9963   3.597   4.304   0.910 -0.0121 -0.0523 -0.4409
  673TMC3    C7 9964   3.578   4.562   0.942 -0.1756  0.4634 -0.1359
  673TMC3    C8 9965   3.519   4.161   1.097  0.0968 -0.4213 -0.5293
  673TMC3    O1 9966   3.686   4.517   0.907  0.2588  0.6801 -0.6124
  673TMC3    O2 9967   3.619   4.216   1.142  0.3630  0.4487 -0.0404
  674MPD2     C 9968   3.800   4.029   0.737 -0.1817  0.2716 -0.2508
  674MPD2    C1 9969   3.683   3.985   0.791 -0.1006  1.0252 -0.2957
  674MPD2    C2 9970   3.565   4.045   0.757 -0.0284 -0.0883  0.1431
  674MPD2    C3 9971   3.563   4.168   0.690  0.5225  0.3432 -0.4819
  674MPD2    C4 9972   3.685   4.212   0.647 -0.6610  0.1474  0.1461
  674MPD2    C5 9973   3.800   4.141   0.667  0.3710  0.1792 -0.3198
  674MPD2     H 9974   3.473   4.021   0.809 -1.1624 -0.1220 -1.8686
  674MPD2    H1 9975   3.701   4.306   0.596  1.5718  1.0778  2.5862
  674MPD2    H2 9976   3.896   3.986   0.763  0.9939  2.7737 -0.3949
  674MPD2    H3 9977   3.896   4.179   0.635  0.4704  0.1527 -0.0481
  674MPD2     N 9978   3.438   4.240   0.660 -0.4251 -0.3496  0.4787
  674MPD2    H5 9979   3.351   4.196   0.690 -0.2254 -0.5601  0.7499
  674MPD2    N1 9980   3.683   3.862   0.864 -0.5949 -0.1530  0.0862
  674MPD2    H7 9981   3.775   3.823   0.883 -2.3222 -3.6021  1.4045
  675TMC3    C1 9982   3.620   3.666   0.969 -0.0855 -0.2927  0.3289
  675TMC3    C2 9983   3.545   3.549   0.951 -0.6287  0.3455  0.8314
  675TMC3    C3 9984   3.581   3.445   1.035  0.0274  0.2342  0.0999
  675TMC3    C4 9985   3.733   3.673   1.051  0.1003  0.2626 -0.6772
  675TMC3    C5 9986   3.772   3.557   1.111 -0.0643 -0.8177 -0.0834
  675TMC3    C6 9987   3.695   3.448   1.110  1.2676  0.3701  0.6115
  675TMC3     C 9988   3.575   3.787   0.902 -0.3650  0.3836  0.7739
  675TMC3     O 9989   3.456   3.796   0.871  0.1989  0.1718 -0.2445
  675TMC3     H 9990   3.468   3.551   0.874  0.5216 -0.9407 -0.3693
  675TMC3    H1 9991   3.798   3.758   1.070  0.7661 -0.4701  0.3689
  675TMC3    H2 9992   3.736   3.357   1.151 -0.1180 -0.5021  0.0634
  675TMC3    C7 9993   3.906   3.545   1.174  0.6681 -0.9036  0.0441
  675TMC3    C8 9994   3.527   3.320   0.985 -0.0749 -0.5294  0.4871
  675TMC3    O1 9995   3.986   3.633   1.161 -0.3364  0.6129  0.0560
  675TMC3    O2 9996   3.474   3.321   0.874 -0.2061  0.6769 -0.4480
  676MPD2     C 9997   1.383   2.827  11.242  0.3141 -0.6399 -0.0192
  676MPD2    C1 9998   1.301   2.773  11.339  0.3260 -1.1865 -0.5176
  676MPD2    C2 9999   1.273   2.634  11.324  0.0397  0.1510  0.5273
  676MPD2    C310000   1.328   2.551  11.230  0.0623  0.2063  0.4802
  676MPD2    C410001   1.419   2.615  11.145 -0.8338 -0.3957  0.5811
  676MPD2    C510002   1.436   2.748  11.147 -0.7454 -0.3101  0.7004
  676MPD2     H10003   1.204   2.591  11.395 -1.3785  1.7099  0.1044
  676MPD2    H110004   1.469   2.565  11.063 -2.2030 -0.0966 -0.4196
  676MPD2    H210005   1.417   2.930  11.247 -2.0246  0.2360 -2.4186
  676MPD2    H310006   1.499   2.791  11.070 -0.0683 -0.1646  1.3356
  676MPD2     N10007   1.284   2.416  11.204 -0.2634 -0.6730 -0.2204
  676MPD2    H510008   1.349   2.362  11.147  0.0725 -0.5827  0.0732
  676MPD2    N110009   1.241   2.845  11.441  0.3920  0.2068  0.1585
  676MPD2    H710010   1.171   2.796  11.497  0.1946  1.6606  1.1812
  677TMC3    C110011   1.133   3.038  11.522 -0.5562  0.4291 -0.7397
  677TMC3    C210012   1.029   2.954  11.542  0.3925 -0.0991  0.6720
  677TMC3    C310013   0.935   2.990  11.629 -0.0385 -0.0522  0.0486
  677TMC3    C410014   1.151   3.153  11.597 -0.5531  0.4843  0.0069
  677TMC3    C510015   1.053   3.180  11.687  0.3351  0.3209 -0.2416
  677TMC3    C610016   0.939   3.104  11.699 -0.3363 -0.2043  0.1977
  677TMC3     C10017   1.258   2.981  11.469  0.4735 -0.3455 -0.1537
  677TMC3     O10018   1.348   3.060  11.435  0.9358 -0.0677  0.0671
  677TMC3     H10019   1.009   2.867  11.482  1.1155  0.6521 -0.6581
  677TMC3    H110020   1.241   3.213  11.590  0.1800 -0.4882  1.1310
  677TMC3    H210021   0.861   3.129  11.770  1.1923 -1.1885  2.2175
  677TMC3    C710022   1.077   3.273  11.799  0.1448 -0.2145 -0.1352
  677TMC3    C810023   0.825   2.900  11.646  0.0753 -0.6929  0.0087
  677TMC3    O110024   0.985   3.285  11.879 -0.1696  0.2171  0.5011
  677TMC3    O210025   0.784   2.841  11.545  0.2484 -0.6818 -0.5240
  678MPD2     C10026   2.459   2.501   1.839 -0.1843 -0.2760  0.2184
  678MPD2    C110027   2.474   2.556   1.716  0.7715  0.9706  0.9064
  678MPD2    C210028   2.370   2.563   1.621 -0.0658 -0.2773  0.2613
  678MPD2    C310029   2.244   2.533   1.666  0.3462  0.2742  0.3753
  678MPD2    C410030   2.222   2.507   1.798  0.7686 -0.0475 -0.1879
  678MPD2    C510031   2.329   2.489   1.882 -0.2696 -0.0716 -0.7588
  678MPD2     H10032   2.386   2.587   1.517  2.9810  0.8395  0.9896
  678MPD2    H110033   2.122   2.488   1.833  1.4591 -1.0523  1.2260
  678MPD2    H210034   2.537   2.468   1.908 -0.4770  0.0531  0.7119
  678MPD2    H310035   2.310   2.454   1.983  0.3059 -1.2457 -1.0553
  678MPD2     N10036   2.141   2.545   1.570 -0.6501  0.2084 -0.5986
  678MPD2    H510037   2.176   2.539   1.475  0.4631 -3.0574  0.0115
  678MPD2    N110038   2.603   2.590   1.665 -0.0834 -0.1831  0.1293
  678MPD2    H710039   2.609   2.609   1.566  0.0280 -0.1659  0.1396
  679TMC3    C110040   3.074   2.627   1.631 -0.1412 -0.0224 -0.2345
  679TMC3    C210041   2.955   2.599   1.704  0.8875 -0.1740 -0.0879
  679TMC3    C310042   2.838   2.634   1.654 -0.4142 -0.0152  0.5873
  679TMC3    C410043   3.066   2.696   1.514  0.1951 -0.5493  0.3774
  679TMC3    C510044   2.946   2.753   1.472  1.1445 -0.0777  0.1051
  679TMC3    C610045   2.833   2.726   1.551  0.0816  0.0912 -0.8096
  679TMC3     C10046   3.166   2.514   1.623 -0.0702 -0.0526 -0.3228
  679TMC3     O10047   3.184   2.472   1.510  0.4540  0.5956 -0.1458
  679TMC3     H10048   2.952   2.522   1.780 -0.5716 -0.9946 -0.9762
  679TMC3    H110049   3.152   2.702   1.448 -1.3528 -0.0959 -1.6035
  679TMC3    H210050   2.737   2.766   1.520 -0.7652 -0.8272  0.6049
  679TMC3    C710051   2.936   2.765   1.326 -0.4617 -1.1946  0.4442
  679TMC3    C810052   2.722   2.599   1.738  0.0752 -0.5120  0.2700
  679TMC3    O110053   3.027   2.805   1.253 -0.0775 -0.0305 -0.0490
  679TMC3    O210054   2.746   2.570   1.856  0.7827  0.3151 -0.1193
  680MPD2     C10055   2.065   1.038  13.513 -0.5339 -0.3060 -0.3664
  680MPD2    C110056   2.196   1.006  13.521  0.0108  0.6255  0.3809
  680MPD2    C210057   2.283   1.074  13.604  0.3673  0.0376 -1.1680
  680MPD2    C310058   2.237   1.172  13.691 -0.1096 -0.3052 -0.0321
  680MPD2    C410059   2.105   1.204  13.686 -0.1718 -0.8215  0.0042
  680MPD2    C510060   2.025   1.140  13.594 -0.3304  0.1416  0.3283
  680MPD2     H10061   2.389   1.055  13.617  0.1268  0.7103  1.8180
  680MPD2    H110062   2.054   1.268  13.757  2.0867 -1.7810  2.5058
  680MPD2    H210063   1.993   0.989  13.448  0.1982  0.3592 -1.7032
  680MPD2    H310064   1.921   1.170  13.591 -0.4128 -0.4345 -2.5897
  680MPD2     N10065   2.320   1.249  13.778  0.8023  0.3085 -0.1716
  680MPD2    H510066   2.274   1.324  13.830 -0.4975 -0.0207 -0.8394
  680MPD2    N110067   2.240   0.895  13.450 -0.8576  0.0930  0.4167
  680MPD2    H710068   2.166   0.841  13.408  0.1187 -0.7993 -0.1454
  681TMC3    C110069   2.380   0.714  13.407  0.6950  0.5674  0.0794
  681TMC3    C210070   2.277   0.643  13.461 -0.0664 -0.1288 -0.4107
  681TMC3    C310071   2.310   0.553  13.559  0.2971  0.2014 -0.2547
  681TMC3    C410072   2.511   0.679  13.421  0.5274  0.4590 -0.3288
  681TMC3    C510073   2.537   0.574  13.509  0.3243  0.1781  0.2962
  681TMC3    C610074   2.437   0.513  13.584  0.0375 -0.4218 -0.1678
  681TMC3     C10075   2.367   0.851  13.441 -0.1451 -0.7057 -0.8288
  681TMC3     O10076   2.476   0.899  13.467 -0.2211  0.2566  0.4431
  681TMC3     H10077   2.172   0.671  13.455 -0.1044 -0.5295 -1.5042
  681TMC3    H110078   2.596   0.731  13.378  1.0840 -0.6031 -0.5200
  681TMC3    H210079   2.443   0.444  13.668  0.5247 -0.5985 -0.3529
  681TMC3    C710080   2.665   0.533  13.548  0.6574 -0.1308 -0.2506
  681TMC3    C810081   2.241   0.597  13.673 -0.2992  0.6822 -0.4684
  681TMC3    O110082   2.684   0.471  13.649  0.1789  0.9123 -0.2961
  681TMC3    O210083   2.120   0.597  13.663  0.1997 -0.4857  0.4728
  682MPD2     C10084   0.040   2.507  10.518  0.0566  0.2080 -0.6408
  682MPD2    C110085   0.075   2.416  10.616 -0.4400 -0.7327  0.5841
  682MPD2    C210086   0.060   2.457  10.751  0.4738 -0.0468 -0.8277
  682MPD2    C310087   4.721   2.577  10.783 -0.0673 -0.0680  0.3944
  682MPD2    C410088   4.680   2.658  10.683  0.5597 -0.0004  0.5414
  682MPD2    C510089   4.698   2.617  10.555  0.4624 -0.7600 -1.1270
  682MPD2     H10090   0.093   2.388  10.827 -2.2075  0.3923  0.7276
  682MPD2    H110091   4.626   2.749  10.708 -0.3052 -0.2130 -0.5650
  682MPD2    H210092   0.054   2.491  10.412  0.0355  1.2064 -0.8009
  682MPD2    H310093   4.658   2.674  10.472  1.9804  0.7584 -0.8060
  682MPD2     N10094   4.704   2.621  10.917  0.0870 -0.2354  0.0923
  682MPD2    H510095   4.656   2.710  10.928  0.6743 -0.4441  4.1874
  682MPD2    N110096   0.139   2.292  10.593 -0.0091 -0.2973  0.2759
  682MPD2    H710097   0.171   2.249  10.680 -0.1840  1.5110  1.2385
  683TMC3    C110098   0.069   2.834  11.262 -0.0575  0.3277  0.2829
  683TMC3    C210099   0.017   2.781  11.378  0.9276 -0.8954  0.2851
  683TMC3    C310100   4.672   2.663  11.368  0.5515  1.3230  0.4535
  683TMC3    C410101   0.064   2.760  11.147  0.7166  0.0252  0.3535
  683TMC3    C510102   4.724   2.641  11.146 -0.7593 -0.2607  0.2950
  683TMC3    C610103   4.663   2.588  11.255 -0.2553 -0.5097 -0.1340
  683TMC3     C10104   0.142   2.964  11.258 -0.4126 -0.2867  0.3130
  683TMC3     O10105   0.175   2.990  11.144  0.4180  0.3184 -0.1993
  683TMC3     H10106   0.019   2.833  11.474  1.2261  0.7785 -0.6319
  683TMC3    H110107   0.109   2.794  11.054 -0.5932  1.3749  0.2182
  683TMC3    H210108   4.602   2.499  11.248  1.2087 -1.5747  0.6495
  683TMC3    C710109   0.014   2.555  11.031  0.0489  0.1650 -0.3778
  683TMC3    C810110   4.604   2.612  11.479 -0.0433  0.7441 -0.5555
  683TMC3    O110111   0.037   2.438  11.046 -0.0664  0.0132 -0.2225
  683TMC3    O210112   4.565   2.693  11.558  0.1493  0.2598  0.1226
  684MPD2     C10113   2.912   1.875  16.319  0.2918  0.0481  0.6496
  684MPD2    C110114   2.930   1.846  16.185 -0.4903  0.4777 -0.8500
  684MPD2    C210115   2.937   1.954  16.092  0.0639  0.7493  0.2549
  684MPD2    C310116   2.968   2.079  16.140 -0.4488  0.1024  0.6579
  684MPD2    C410117   2.965   2.106  16.275  0.2546  0.0110 -0.3934
  684MPD2    C510118   2.924   2.009  16.363 -0.4879  0.6622  0.2261
  684MPD2     H10119   2.940   1.929  15.987  0.9568  0.1104  0.4262
  684MPD2    H110120   2.984   2.202  16.321 -0.9170  0.2355 -0.3913
  684MPD2    H210121   2.891   1.800  16.395  0.9098  0.3920  1.1593
  684MPD2    H310122   2.906   2.032  16.468  2.8864  1.2722  0.6463
  684MPD2     N10123   3.005   2.178  16.047  0.0205  0.2173 -0.2086
  684MPD2    H510124   3.048   2.263  16.082 -0.0537  0.1783 -0.0227
  684MPD2    N110125   2.928   1.715  16.135  0.6015  0.1408 -0.0002
  684MPD2    H710126   2.908   1.704  16.036  0.2290 -0.1574  0.1122
  685TMC3    C110127   2.915   1.481  16.140  0.1459  0.2075 -0.4473
  685TMC3    C210128   2.817   1.492  16.050 -0.3567 -0.0830  0.7234
  685TMC3    C310129   2.827   1.407  15.944 -0.0397 -0.2540 -0.1271
  685TMC3    C410130   3.026   1.405  16.120  0.5624 -0.2732  0.2347
  685TMC3    C510131   3.042   1.332  16.003 -0.1177  0.1522  0.5703
  685TMC3    C610132   2.938   1.326  15.923 -0.1834  0.0778 -0.1179
  685TMC3     C10133   2.947   1.608  16.210 -0.9199 -0.4376 -0.3998
  685TMC3     O10134   3.004   1.602  16.320 -0.0670  0.1482  0.2721
  685TMC3     H10135   2.720   1.538  16.066  1.2117  2.8042  1.9129
  685TMC3    H110136   3.107   1.410  16.191  0.8330 -0.8782 -0.0262
  685TMC3    H210137   2.947   1.260  15.837 -1.3386 -0.1824 -0.0400
  685TMC3    C710138   3.163   1.361  15.930 -0.4592 -0.0994  0.4929
  685TMC3    C810139   2.710   1.388  15.862 -0.1564  0.1983 -0.8663
  685TMC3    O110140   3.179   1.318  15.820  0.0578 -0.3157 -0.4537
  685TMC3    O210141   2.700   1.271  15.813 -0.4742 -0.2990  0.2875
  686MPD2     C10142   4.253   1.124  15.242  0.6201 -0.2631 -0.1369
  686MPD2    C110143   4.276   1.157  15.376  0.0345 -0.3617  0.1074
  686MPD2    C210144   4.321   1.062  15.464  0.4786 -0.4288 -0.0252
  686MPD2    C310145   4.326   0.929  15.430 -0.0909 -0.1524 -0.0042
  686MPD2    C410146   4.291   0.893  15.304  0.4002  0.9844  0.1507
  686MPD2    C510147   4.265   0.992  15.210  0.4711  0.1995 -0.1304
  686MPD2     H10148   4.382   1.111  15.540  0.1163 -2.2687  1.4445
  686MPD2    H110149   4.304   0.792  15.266  0.5408  1.1912 -0.3510
  686MPD2    H210150   4.219   1.193  15.165 -2.4396 -1.1350  0.4392
  686MPD2    H310151   4.238   0.951  15.114 -0.4511  1.0311 -0.2319
  686MPD2     N10152   4.369   0.824  15.518  0.5359 -0.1886 -0.0830
  686MPD2    H510153   4.388   0.733  15.477  3.4748  1.3046 -2.0604
  686MPD2    N110154   4.243   1.289  15.414 -0.1486  0.5835  0.2457
  686MPD2    H710155   4.211   1.362  15.351 -0.4648  1.5429  1.5228
  687TMC3    C110156   4.325   0.945  15.717  0.1029 -0.5850 -1.1385
  687TMC3    C210157   4.190   0.937  15.717 -0.0433  0.1141 -0.1587
  687TMC3    C310158   4.120   0.979  15.827 -0.3762  0.2205 -0.0334
  687TMC3    C410159   4.386   1.007  15.821  0.2474  0.1151  0.0329
  687TMC3    C510160   4.309   1.068  15.916  0.7950 -0.5450  0.4130
  687TMC3    C610161   4.173   1.047  15.929  0.0655  0.0519 -0.0709
  687TMC3     C10162   4.391   0.835  15.651 -0.0565 -0.3690  0.0018
  687TMC3     O10163   4.447   0.752  15.719  0.4559  0.4930  0.2357
  687TMC3     H10164   4.139   0.887  15.636  0.1730 -1.2934  0.5794
  687TMC3    H110165   4.494   1.007  15.829  0.1083  2.5817  2.0135
  687TMC3    H210166   4.112   1.088  16.009  0.4447 -0.0690  0.2843
  687TMC3    C710167   4.353   1.202  15.942 -0.1064 -0.0185  0.1658
  687TMC3    C810168   3.982   1.015  15.814 -0.1757  0.5228  0.3260
  687TMC3    O110169   4.469   1.229  15.921 -0.2134 -0.4176  0.3739
  687TMC3    O210170   3.909   0.996  15.910 -0.6508  0.1729  0.0132
  688MPD2     C10171   4.048   0.068   0.170  0.4286  0.0835 -0.3893
  688MPD2    C110172   3.990   0.160   0.083 -0.0219  0.1359 -0.5823
  688MPD2    C210173   4.031   0.181  17.656  0.0908 -0.2538 -0.0281
  688MPD2    C310174   4.138   0.104  17.612  0.6744  0.0936  0.1647
  688MPD2    C410175   4.188   0.009  17.693 -0.2343 -0.0623  0.0608
  688MPD2    C510176   4.143   4.710   0.114  0.3709  0.1535 -0.3298
  688MPD2     H10177   3.988   0.252  17.586  0.8981  0.7012  0.4361
  688MPD2    H110178   4.260   4.669  17.645 -0.2976 -0.3458  0.3591
  688MPD2    H210179   4.020   0.037   0.270 -0.3999 -2.0832 -1.2791
  688MPD2    H310180   4.176   4.636   0.185 -0.1259 -0.7713 -1.0638
  688MPD2     N10181   4.188   0.112  17.479 -0.1648 -0.1176 -0.3012
  688MPD2    H510182   4.257   0.042  17.454 -0.1550  0.7682 -2.7968
  688MPD2    N110183   3.876   0.231   0.125 -1.2224 -0.2295  0.0048
  688MPD2    H710184   3.821   0.281   0.056 -0.6875  0.4160  0.0443
  689TMC3    C110185   3.736   0.338   0.264 -0.0078  0.4003 -0.5588
  689TMC3    C210186   3.737   0.420   0.373 -0.2044  0.0820  0.1122
  689TMC3    C310187   3.642   0.516   0.373  0.1404  0.7961  0.0153
  689TMC3    C410188   3.627   0.327   0.181  0.3188  0.0705  0.0220
  689TMC3    C510189   3.525   0.419   0.195  0.2583 -0.4619  0.3886
  689TMC3    C610190   3.530   0.518   0.290  0.4101  0.9053  0.5423
  689TMC3     C10191   3.847   0.251   0.260  0.1493  0.5763  0.5394
  689TMC3     O10192   3.915   0.223   0.358 -0.1040 -1.0412  0.1790
  689TMC3     H10193   3.825   0.419   0.437 -0.8603  1.2452  1.0209
  689TMC3    H110194   3.621   0.236   0.122  1.1338 -0.7674  1.2191
  689TMC3    H210195   3.452   0.594   0.288 -2.4440 -2.0019  0.6328
  689TMC3    C710196   3.390   0.375   0.173  0.0112  0.9643 -0.1237
  689TMC3    C810197   3.630   0.612   0.480 -0.7306 -0.6702  0.0857
  689TMC3    O110198   3.302   0.415   0.250  0.2747 -0.1224  0.9432
  689TMC3    O210199   3.645   0.576   0.596 -0.0487  0.2780 -0.5376
  690MPD2     C10200   1.084   2.540  16.003  0.8756  0.1893  0.0308
  690MPD2    C110201   1.082   2.478  15.876  0.0643  0.7391  0.0103
  690MPD2    C210202   1.186   2.513  15.786  0.2466 -0.1857 -0.6754
  690MPD2    C310203   1.273   2.622  15.824  0.3288  0.0302 -0.6176
  690MPD2    C410204   1.260   2.684  15.948 -0.5457 -0.3218  0.5029
  690MPD2    C510205   1.172   2.635  16.044 -0.4525 -0.2316  0.1057
  690MPD2     H10206   1.200   2.467  15.689  0.8160  1.2227 -1.2608
  690MPD2    H110207   1.317   2.772  15.974 -1.1259 -0.3574  1.8975
  690MPD2    H210208   1.015   2.520  16.084  1.1729  0.1834  0.2822
  690MPD2    H310209   1.158   2.690  16.136 -3.5989 -0.0887 -0.4464
  690MPD2     N10210   1.372   2.659  15.725 -0.8553  0.2739  0.0533
  690MPD2    H510211   1.362   2.624  15.630 -0.4947  0.6592 -0.1225
  690MPD2    N110212   0.985   2.384  15.835  0.3374  0.5420 -0.4373
  690MPD2    H710213   1.000   2.345  15.742 -2.0746  2.6778 -1.7354
  691TMC3    C110214   0.761   2.275  15.835  0.4131 -0.6520 -0.4434
  691TMC3    C210215   0.633   2.279  15.887 -0.2865 -0.3744  0.4960
  691TMC3    C310216   0.539   2.196  15.835  0.2468  0.5098 -0.6460
  691TMC3    C410217   0.800   2.178  15.747 -0.1709 -0.7722  0.3585
  691TMC3    C510218   0.707   2.088  15.711  0.2968  0.1623 -0.2177
  691TMC3    C610219   0.578   2.089  15.752  0.3819  0.7456 -0.0977
  691TMC3     C10220   0.864   2.355  15.906 -0.0299  1.0255 -0.4308
  691TMC3     O10221   0.828   2.387  16.017  0.0241  0.3351  0.3648
  691TMC3     H10222   0.608   2.359  15.955  3.2674  0.6770  0.5367
  691TMC3    H110223   0.901   2.163  15.710  0.3756  1.6622  0.8539
  691TMC3    H210224   0.495   2.024  15.726 -2.1447  4.5796 -1.5896
  691TMC3    C710225   0.753   1.968  15.642 -0.5070  0.2487 -0.0330
  691TMC3    C810226   0.413   2.172  15.906 -0.1603 -0.7475 -0.0372
  691TMC3    O110227   0.870   1.934  15.657  0.5608 -0.5481  0.0900
  691TMC3    O210228   0.362   2.060  15.923 -0.2007  0.1596  0.0366
  692TMC3    C110229   2.756   3.557  15.938 -0.3931  0.0319  0.9021
  692TMC3    C210230   2.878   3.550  16.003 -0.4341  0.1629  0.4685
  692TMC3    C310231   2.969   3.451  15.966  1.0138 -0.1147  0.3198
  692TMC3    C410232   2.717   3.469  15.844  0.3291 -0.1128 -0.1209
  692TMC3    C510233   2.813   3.376  15.803  0.2148  0.9634 -0.4880
  692TMC3    C610234   2.942   3.380  15.849  0.1143  0.0487 -0.5279
  692TMC3     C10235   2.650   3.646  15.993 -0.0254 -0.5812  0.3388
  692TMC3     O10236   2.534   3.622  15.964 -0.1650 -0.5103 -0.5441
  692TMC3     H10237   2.923   3.631  16.059 -1.9548  0.0161  1.9152
  692TMC3    H110238   2.614   3.470  15.808  0.2039 -3.2102  0.0992
  692TMC3    H210239   3.020   3.313  15.815  0.2033 -1.2207  2.1432
  692TMC3    C710240   2.782   3.274  15.710 -0.2352 -0.1960 -0.2477
  692TMC3    C810241   2.981   3.361  16.078  0.3100 -0.1705 -0.5845
  692TMC3    O110242   2.700   3.298  15.621 -0.2776  0.4349 -0.4026
  692TMC3    O210243   2.993   3.242  16.043  0.1272  0.4258 -0.2472
  693MPD2     C10244   2.363   2.351  10.542  0.7928  0.0138  0.1573
  693MPD2    C110245   2.365   2.270  10.656  0.5439  0.3991  0.1050
  693MPD2    C210246   2.473   2.275  10.737 -0.5016  0.3108 -0.0125
  693MPD2    C310247   2.583   2.346  10.697  0.1058 -0.2202  0.6298
  693MPD2    C410248   2.594   2.414  10.577 -0.0197 -0.4709 -0.1334
  693MPD2    C510249   2.479   2.418  10.508  0.2541 -0.3759 -0.4746
  693MPD2     H10250   2.473   2.218  10.830  0.0201 -0.2781 -0.3723
  693MPD2    H110251   2.675   2.478  10.544 -0.7410  1.3469  1.6448
  693MPD2    H210252   2.279   2.349  10.473 -0.1433  1.4190  1.2312
  693MPD2    H310253   2.485   2.485  10.424  0.3178 -0.4490 -0.5284
  693MPD2     N10254   2.706   2.328  10.767 -0.1121 -0.4090  0.1799
  693MPD2    H510255   2.782   2.359  10.708  0.9060 -0.4652  1.4803
  693MPD2    N110256   2.254   2.184  10.689  0.3610 -0.4694  0.4137
  693MPD2    H710257   2.256   2.129  10.774 -1.4115  0.9553  1.3767
  694TMC3    C110258   2.039   2.072  10.652  0.1047 -0.0825  1.0537
  694TMC3    C210259   1.982   1.978  10.569  0.5437  0.6137  0.3810
  694TMC3    C310260   1.924   1.865  10.625 -0.1552  0.1443 -0.6214
  694TMC3    C410261   2.013   2.067  10.786  0.0103  0.1959 -0.3048
  694TMC3    C510262   1.956   1.960  10.835  0.1614  0.6102  0.7904
  694TMC3    C610263   1.912   1.850  10.762 -0.1273 -0.0288 -0.1823
  694TMC3     C10264   2.140   2.168  10.601  0.0210 -0.7734  0.2568
  694TMC3     O10265   2.110   2.219  10.490 -0.1170 -0.0187 -0.3046
  694TMC3     H10266   2.003   1.989  10.464  0.5513 -0.9441  0.2118
  694TMC3    H110267   2.028   2.152  10.853 -2.0763  0.0107  0.4092
  694TMC3    H210268   1.851   1.773  10.808  0.0129 -0.0577 -0.0442
  694TMC3    C710269   1.969   1.952  10.981  0.0059  0.0739  0.2162
  694TMC3    C810270   1.869   1.759  10.543  0.2992 -0.4746  0.0034
  694TMC3    O110271   1.999   2.055  11.047  0.9137  0.1170 -0.0050
  694TMC3    O210272   1.813   1.669  10.604 -0.1010  0.5633  0.0658
  695MPD2     C10273   2.980   3.500  13.608  0.7324 -0.1041 -0.5473
  695MPD2    C110274   2.910   3.494  13.731 -0.3701 -0.0679 -0.1551
  695MPD2    C210275   2.779   3.532  13.742  0.0946 -0.4709 -0.2588
  695MPD2    C310276   2.715   3.587  13.633  0.1854  0.7036  0.1557
  695MPD2    C410277   2.780   3.598  13.516 -0.2241 -0.4486  0.2243
  695MPD2    C510278   2.913   3.560  13.507 -0.2249  0.5124 -0.0637
  695MPD2     H10279   2.735   3.524  13.841  2.4295  2.2277  1.0352
  695MPD2    H110280   2.742   3.655  13.431  1.8566  1.8652  0.8302
  695MPD2    H210281   3.084   3.470  13.599  0.5980 -0.7767  0.1523
  695MPD2    H310282   2.968   3.576  13.415  1.9137 -1.2501  0.9272
  695MPD2     N10283   2.583   3.629  13.654 -0.2848  0.4301 -0.5842
  695MPD2    H510284   2.539   3.588  13.736  0.0551  0.3269 -0.4518
  695MPD2    N110285   2.979   3.463  13.846 -0.1944 -1.1684  0.2231
  695MPD2    H710286   2.927   3.481  13.932 -1.0887 -1.7667 -0.1898
  696TMC3    C110287   2.366   3.720  13.625 -0.2242  0.4067  1.1142
  696TMC3    C210288   2.303   3.614  13.680 -0.7631  0.5156 -0.2004
  696TMC3    C310289   2.177   3.626  13.726 -0.2763 -0.8591 -0.0423
  696TMC3    C410290   2.286   3.831  13.596  0.4623  0.4349 -0.1986
  696TMC3    C510291   2.145   3.825  13.612  0.0334 -0.1854  0.2383
  696TMC3    C610292   2.096   3.726  13.686  0.1061  0.1437 -0.6117
  696TMC3     C10293   2.507   3.710  13.577 -0.0716  0.6045  0.3999
  696TMC3     O10294   2.538   3.783  13.484 -0.4351  0.0507 -0.2459
  696TMC3     H10295   2.357   3.531  13.726 -1.7847  0.2194  0.4661
  696TMC3    H110296   2.336   3.910  13.542  1.0201  1.1819  1.3871
  696TMC3    H210297   2.001   3.741  13.737  0.5774 -2.0083  0.9123
  696TMC3    C710298   2.093   3.951  13.633 -0.0764 -0.0696  0.1909
  696TMC3    C810299   2.129   3.520  13.814  0.3016  0.0947  0.0566
  696TMC3    O110300   1.973   3.962  13.600 -0.1354  0.0075  0.0413
  696TMC3    O210301   2.019   3.474  13.782 -0.3116 -0.7800  0.1512
  697MPD2     C10302   2.198   0.433  15.787 -0.6260 -0.4438  0.2931
  697MPD2    C110303   2.243   0.387  15.661 -0.1278 -0.2162 -0.5733
  697MPD2    C210304   2.254   0.481  15.557 -0.0754  1.0130 -0.1539
  697MPD2    C310305   2.238   0.616  15.585 -0.3069 -0.0282  0.5720
  697MPD2    C410306   2.197   0.658  15.710 -0.1528  0.4409 -0.2174
  697MPD2    C510307   2.186   0.571  15.811  0.3350 -0.1142  0.5364
  697MPD2     H10308   2.287   0.448  15.459 -0.8929 -2.2434  0.6777
  697MPD2    H110309   2.188   0.765  15.726 -2.4712  0.2442 -0.2161
  697MPD2    H210310   2.181   0.360  15.865 -1.1336 -2.0675 -1.3276
  697MPD2    H310311   2.174   0.605  15.913 -0.7321 -2.0574  1.0648
  697MPD2     N10312   2.276   0.701  15.485  0.0387 -0.0302 -0.3599
  697MPD2    H510313   2.330   0.664  15.408  0.3876 -0.2688 -0.0002
  697MPD2    N110314   2.253   0.251  15.624 -0.1416  0.4236 -0.3947
  697MPD2    H710315   2.282   0.221  15.531  1.1508 -1.9105  0.7632
  698TMC3    C110316   2.334   0.913  15.379  0.6834  0.8016 -0.2663
  698TMC3    C210317   2.361   1.046  15.401 -0.2083 -0.9412  0.2943
  698TMC3    C310318   2.372   1.122  15.291  0.1136 -0.1543  0.1514
  698TMC3    C410319   2.330   0.857  15.258 -0.0489  0.3226  0.7437
  698TMC3    C510320   2.336   0.932  15.145  0.0459  0.7937 -0.4077
  698TMC3    C610321   2.353   1.068  15.166 -0.6913 -0.6235 -0.4022
  698TMC3     C10322   2.266   0.841  15.489 -0.0928 -0.1620  0.2955
  698TMC3     O10323   2.198   0.905  15.573  0.3313  0.1786  0.2145
  698TMC3     H10324   2.367   1.081  15.503  1.5734 -0.0438 -0.1276
  698TMC3    H110325   2.311   0.751  15.247 -3.5066  1.0501 -0.3181
  698TMC3    H210326   2.345   1.138  15.084 -0.6778  1.0350  1.0151
  698TMC3    C710327   2.419   0.896  15.035 -1.0736 -0.0474  0.5447
  698TMC3    C810328   2.423   1.254  15.302 -0.4982  0.0497 -0.7813
  698TMC3    O110329   2.456   0.973  14.950  0.0094 -0.1700 -1.0262
  698TMC3    O210330   2.461   1.282  15.417 -0.2044  0.5789  0.1038
  699TMC3    C110331   2.748   3.276  13.341 -1.0711  0.6468 -0.8276
  699TMC3    C210332   2.801   3.198  13.443 -0.1856 -0.3081 -0.4811
  699TMC3    C310333   2.731   3.184  13.557  0.8479 -0.1585 -0.1485
  699TMC3    C410334   2.633   3.343  13.353  0.2823 -0.3397  0.2602
  699TMC3    C510335   2.566   3.333  13.468  0.2492 -0.5766  0.0444
  699TMC3    C610336   2.614   3.258  13.574 -0.3494 -0.4011  0.1213
  699TMC3     C10337   2.842   3.345  13.257 -0.1542 -0.9210 -0.3496
  699TMC3     O10338   2.802   3.415  13.167  0.3624 -0.7583  0.1478
  699TMC3     H10339   2.892   3.141  13.429  0.6086  1.3986 -2.2244
  699TMC3    H110340   2.583   3.393  13.270 -0.3466 -1.6499 -0.1479
  699TMC3    H210341   2.549   3.247  13.660 -1.7909  2.5145 -0.6116
  699TMC3    C710342   2.420   3.362  13.471 -0.1551 -0.0274 -0.3821
  699TMC3    C810343   2.723   3.055  13.618 -0.2355  0.1826 -0.2590
  699TMC3    O110344   2.358   3.286  13.546 -0.1593 -0.1620  0.5991
  699TMC3    O210345   2.615   3.036  13.676  0.0850  0.2282 -0.3435
  700TMC3    C110346   1.437   0.995  17.134  0.0669 -0.7678 -0.4143
  700TMC3    C210347   1.485   0.867  17.112  0.2887  0.0728 -0.0392
  700TMC3    C310348   1.603   0.839  17.182  0.1101 -0.6247  0.8424
  700TMC3    C410349   1.501   1.087  17.215 -0.2265  0.4213  0.4490
  700TMC3    C510350   1.625   1.055  17.274  0.2116  0.9478 -0.1639
  700TMC3    C610351   1.662   0.922  17.267  0.1752  0.0371  0.4886
  700TMC3     C10352   1.392   1.062  17.011 -0.0733  0.5429  0.3879
  700TMC3     O10353   1.289   1.027  16.953 -0.2358  0.7191 -0.7390
  700TMC3     H10354   1.453   0.812  17.024  0.7299 -2.4747  1.3865
  700TMC3    H110355   1.469   1.190  17.214  1.1235  0.8517  1.9957
  700TMC3    H210356   1.753   0.890  17.317 -0.3382 -0.7546  0.9095
  700TMC3    C710357   1.693   1.142  17.366  0.3751 -0.2621 -0.3808
  700TMC3    C810358   1.669   0.711  17.163 -0.1720 -0.4016 -0.7043
  700TMC3    O110359   1.783   1.106  17.435 -0.0900  0.4817  0.4275
  700TMC3    O210360   1.774   0.677  17.223  0.5320  0.1841 -0.2735
  701TMC3    C110361   1.682   4.241  15.398  0.7695 -0.5068 -0.1281
  701TMC3    C210362   1.718   4.226  15.267  0.2056 -0.3412 -0.5731
  701TMC3    C310363   1.838   4.280  15.228  0.9307  0.0137 -0.1495
  701TMC3    C410364   1.757   4.314  15.486  0.0002 -0.5590  0.2409
  701TMC3    C510365   1.877   4.361  15.453 -0.0099  0.4218 -0.0828
  701TMC3    C610366   1.917   4.342  15.321 -0.3265  0.0132 -0.7606
  701TMC3     C10367   1.542   4.223  15.442 -0.0864  0.7081  0.4763
  701TMC3     O10368   1.516   4.204  15.561  0.6442 -0.5515  0.0314
  701TMC3     H10369   1.650   4.183  15.194 -1.1538  1.4360 -0.3657
  701TMC3    H110370   1.706   4.349  15.574  0.8353  0.4763  0.3273
  701TMC3    H210371   2.014   4.379  15.289  0.6677 -1.3461  0.7109
  701TMC3    C710372   1.915   4.484  15.509 -0.4988 -0.1063  0.8503
  701TMC3    C810373   1.880   4.286  15.088  0.4645 -0.2379  0.0049
  701TMC3    O110374   2.001   4.549  15.449 -0.2365 -0.0782 -0.3066
  701TMC3    O210375   1.954   4.381  15.066  0.3254  0.0188  0.0938
  702MPD2     C10376   1.374   2.020  10.644  0.2717 -0.4115  0.3627
  702MPD2    C110377   1.326   2.130  10.711 -0.0542  0.5379  0.2481
  702MPD2    C210378   1.334   2.254  10.650  0.2206 -0.0215 -0.4246
  702MPD2    C310379   1.374   2.266  10.521  0.6355  0.4093  0.5204
  702MPD2    C410380   1.421   2.157  10.452  0.3416  0.3502 -0.1452
  702MPD2    C510381   1.424   2.035  10.516 -0.5308  0.1709 -0.3447
  702MPD2     H10382   1.300   2.339  10.708 -1.2701 -0.5476 -0.5314
  702MPD2    H110383   1.452   2.159  10.348  1.6227 -1.4992  0.1910
  702MPD2    H210384   1.368   1.923  10.693  2.0222  0.3106  2.0072
  702MPD2    H310385   1.462   1.947  10.466 -0.3753  0.8407 -1.4029
  702MPD2     N10386   1.363   2.394  10.467 -0.7705 -0.4491  0.0270
  702MPD2    H510387   1.306   2.455  10.525  0.9356  1.3482 -0.1987
  702MPD2    N110388   1.270   2.131  10.838 -0.3527  0.0017  0.3000
  702MPD2    H710389   1.242   2.220  10.878 -3.6968  1.1823 -4.7224
  703TMC3    C110390   1.392   2.574  10.325 -0.9288  0.0372  0.1073
  703TMC3    C210391   1.268   2.614  10.362 -0.0637  0.1963 -0.6018
  703TMC3    C310392   1.230   2.738  10.326 -0.0756  0.1257  0.0322
  703TMC3    C410393   1.494   2.662  10.287 -0.0890 -0.4155  0.7127
  703TMC3    C510394   1.458   2.792  10.279  0.4932  0.1549  0.1953
  703TMC3    C610395   1.327   2.832  10.288 -0.1518 -0.1326 -0.3559
  703TMC3     C10396   1.427   2.443  10.356 -0.4545  0.0876  0.1138
  703TMC3     O10397   1.508   2.384  10.290  0.0817  0.2191  0.1445
  703TMC3     H10398   1.200   2.531  10.374  1.3114 -0.6868  1.1669
  703TMC3    H110399   1.592   2.625  10.260  0.2500 -0.7117  2.3042
  703TMC3    H210400   1.299   2.932  10.256  1.1414 -0.1354 -1.5367
  703TMC3    C710401   1.561   2.892  10.295 -0.6964 -0.3111  0.1381
  703TMC3    C810402   1.099   2.802  10.354  0.2218  0.2337  0.2001
  703TMC3    O110403   1.540   3.008  10.262  0.3279  0.1999 -0.2936
  703TMC3    O210404   1.068   2.895  10.277  0.3108 -0.2691  0.1698
  704TMC3    C110405   3.713   0.500  12.426  0.5829  0.3675  0.0527
  704TMC3    C210406   3.838   0.563  12.426 -0.1715 -0.0180  0.1857
  704TMC3    C310407   3.902   0.554  12.547 -0.9029  0.1741 -0.0597
  704TMC3    C410408   3.664   0.422  12.525 -0.9726 -0.0119 -0.6285
  704TMC3    C510409   3.743   0.404  12.640  0.4722 -0.0502  0.3288
  704TMC3    C610410   3.863   0.467  12.647  0.6289 -0.0774 -0.8265
  704TMC3     C10411   3.615   0.529  12.320  0.0820  0.3735  0.1084
  704TMC3     O10412   3.496   0.513  12.336 -0.0468  0.3576  0.4171
  704TMC3     H10413   3.862   0.639  12.352  1.1722 -2.2478 -1.6672
  704TMC3    H110414   3.564   0.384  12.508  0.6278 -3.9379 -1.3158
  704TMC3    H210415   3.924   0.450  12.735  1.2825  2.3697 -0.8134
  704TMC3    C710416   3.752   0.269  12.700 -0.5762 -0.2819 -0.0607
  704TMC3    C810417   4.045   0.588  12.551  0.3044 -0.6489  0.1437
  704TMC3    O110418   3.862   0.235  12.746 -0.5199 -0.5368 -0.1147
  704TMC3    O210419   4.118   0.541  12.469 -0.7033 -0.8855  0.1444
  705MPD2     C10420   2.953   2.697  16.035  0.1537  0.2831 -0.0037
  705MPD2    C110421   2.985   2.805  16.122  0.1654  0.3169 -0.4627
  705MPD2    C210422   2.886   2.837  16.215  0.2217 -0.5173  0.3667
  705MPD2    C310423   2.763   2.776  16.212  0.5932 -0.1125 -0.5482
  705MPD2    C410424   2.734   2.681  16.111 -0.0939  0.3826  0.3506
  705MPD2    C510425   2.832   2.641  16.027 -0.0620  0.4956  0.0911
  705MPD2     H10426   2.902   2.923  16.280  0.2121  0.6087 -1.1423
  705MPD2    H110427   2.638   2.631  16.107 -0.6435  1.1526  3.5879
  705MPD2    H210428   3.030   2.654  15.973  0.4792  0.5711  0.2010
  705MPD2    H310429   2.828   2.557  15.959 -1.4975  1.8486 -1.5047
  705MPD2     N10430   2.654   2.813  16.290 -0.1263 -0.0137 -0.4984
  705MPD2    H510431   2.569   2.764  16.264  0.6290 -0.8024 -1.4744
  705MPD2    N110432   3.103   2.881  16.112  0.2900 -0.3838 -0.1151
  705MPD2    H710433   3.122   2.962  16.169  2.0069 -0.3907 -0.6829
  706TMC3    C110434   3.472   3.053  15.889 -0.2205  0.5912 -0.1025
  706TMC3    C210435   3.465   3.177  15.944  0.1086 -0.0407 -0.6263
  706TMC3    C310436   3.364   3.192  16.042  0.0551 -0.3971  0.3020
  706TMC3    C410437   3.386   2.956  15.928  0.8345 -0.8844  0.4904
  706TMC3    C510438   3.300   2.974  16.031 -0.0680  0.5867 -0.0642
  706TMC3    C610439   3.272   3.098  16.084 -0.2546 -0.3014  0.9683
  706TMC3     C10440   3.580   3.040  15.790  0.4061  0.0360  0.3208
  706TMC3     O10441   3.678   3.107  15.813 -0.4575 -0.5221  0.2958
  706TMC3     H10442   3.526   3.261  15.914 -0.1842  0.1561 -0.6683
  706TMC3    H110443   3.401   2.856  15.889 -1.3604 -0.4996 -1.3835
  706TMC3    H210444   3.182   3.128  16.138 -0.9600 -0.1826 -0.2599
  706TMC3    C710445   3.197   2.877  16.011 -0.0767 -0.6523  0.5020
  706TMC3    C810446   3.336   3.329  16.075  0.4799  0.5670 -0.2253
  706TMC3    O110447   3.193   2.816  15.904  0.4992 -0.5119 -0.2683
  706TMC3    O210448   3.355   3.402  15.975  0.3921  0.5230 -0.4612
  707TMC3    C110449   0.947   2.519   1.039 -0.2480  0.1248  0.1480
  707TMC3    C210450   0.894   2.431   1.123  0.1682  0.0629  0.0182
  707TMC3    C310451   0.836   2.474   1.239  0.4243  0.0209  0.1995
  707TMC3    C410452   0.943   2.657   1.055  0.4590 -0.4480  0.3597
  707TMC3    C510453   0.878   2.695   1.175 -0.0020 -0.0647 -0.4284
  707TMC3    C610454   0.831   2.607   1.269 -0.3741  0.2929 -0.3769
  707TMC3     C10455   1.037   2.464   0.937  0.4641 -0.1854  0.2239
  707TMC3     O10456   1.049   2.344   0.939 -0.1890  0.1343 -0.3180
  707TMC3     H10457   0.879   2.326   1.098 -0.7547  0.4369 -0.9765
  707TMC3    H110458   1.007   2.730   1.007  0.2018 -1.8674 -2.1570
  707TMC3    H210459   0.789   2.637   1.364  0.6981  2.0499 -0.4662
  707TMC3    C710460   0.887   2.841   1.217  0.1253  0.1067  0.2216
  707TMC3    C810461   0.793   2.379   1.336  0.7133 -0.4147 -0.4807
  707TMC3    O110462   0.866   2.854   1.337  0.5655  0.1269 -0.4671
  707TMC3    O210463   0.701   2.406   1.410 -0.2788  0.2345 -0.1644
  708MPD2     C10464   1.571   1.759  13.572  0.6664 -0.4079 -0.4515
  708MPD2    C110465   1.450   1.766  13.637  0.1121  0.0617  0.1191
  708MPD2    C210466   1.430   1.715  13.764  0.6330 -0.2657  0.0025
  708MPD2    C310467   1.533   1.668  13.833 -0.4288  0.5027 -0.4529
  708MPD2    C410468   1.663   1.683  13.775  0.8655 -0.4464 -0.6336
  708MPD2    C510469   1.676   1.705  13.639  0.4314  0.4170  0.3597
  708MPD2     H10470   1.330   1.696  13.801  0.9107 -2.5548 -0.4174
  708MPD2    H110471   1.756   1.662  13.827 -1.1931 -3.1981  1.9645
  708MPD2    H210472   1.588   1.805  13.475 -0.9488 -1.5689 -1.2877
  708MPD2    H310473   1.776   1.712  13.597 -0.0260  1.4203 -0.5383
  708MPD2     N10474   1.526   1.630  13.967  0.0906 -0.7202  0.0352
  708MPD2    H510475   1.617   1.603  14.004  1.0175 -1.5591 -2.8397
  708MPD2    N110476   1.349   1.829  13.555  0.3976 -0.2076 -0.0829
  708MPD2    H710477   1.370   1.847  13.458  3.2139  1.3358  0.8107
  709TMC3    C110478   1.122   1.894  13.510 -0.1983 -0.2985 -0.2354
  709TMC3    C210479   1.096   1.786  13.430  0.3380 -0.7054 -0.2648
  709TMC3    C310480   0.969   1.735  13.417  0.4843 -0.0506  0.0756
  709TMC3    C410481   1.014   1.936  13.585  0.5224  0.8874  0.0423
  709TMC3    C510482   0.888   1.890  13.572 -0.3713  0.4090 -0.2343
  709TMC3    C610483   0.861   1.789  13.481 -0.1544 -0.2229 -0.4861
  709TMC3     C10484   1.224   1.861  13.607  0.0864 -0.1308  0.1479
  709TMC3     O10485   1.193   1.871  13.723  0.0101 -0.2053  0.6526
  709TMC3     H10486   1.182   1.737  13.386  0.9835  1.8799 -1.8821
  709TMC3    H110487   1.025   2.023  13.649 -0.7995  2.1866 -1.5015
  709TMC3    H210488   0.761   1.748  13.474  0.0565 -1.0130  1.2951
  709TMC3    C710489   0.815   1.890  13.695  0.4775 -0.2725 -0.4529
  709TMC3    C810490   0.953   1.656  13.298 -0.2630  0.1998  0.0301
  709TMC3    O110491   0.695   1.869  13.691 -0.2567  0.4327  0.4877
  709TMC3    O210492   0.851   1.585  13.295  0.0003  0.5621 -0.0091
  710TMC3    C110493   2.681   3.282   0.617  0.1822  0.7963 -0.3028
  710TMC3    C210494   2.679   3.269   0.481  0.5025  0.6253 -0.7846
  710TMC3    C310495   2.705   3.146   0.421  0.1898  0.6041  0.8793
  710TMC3    C410496   2.712   3.171   0.702 -0.1864 -0.1423 -0.1363
  710TMC3    C510497   2.752   3.050   0.638 -0.1591 -0.0500 -0.2039
  710TMC3    C610498   2.739   3.040   0.499 -0.1599  0.0526 -0.4087
  710TMC3     C10499   2.618   3.399   0.668  0.7083  0.6270 -0.0108
  710TMC3     O10500   2.563   3.476   0.585  0.9180  0.3740 -0.2466
  710TMC3     H10501   2.677   3.357   0.417  3.3868  0.2529 -1.3985
  710TMC3    H110502   2.713   3.165   0.811  3.8741 -1.7319 -0.2388
  710TMC3    H210503   2.779   2.947   0.459  1.7310  0.6054  0.2136
  710TMC3    C710504   2.746   2.927   0.712  0.0813 -0.5878  0.0185
  710TMC3    C810505   2.720   3.128   0.277 -0.6400  0.1100  0.9449
  710TMC3    O110506   2.728   2.824   0.644  0.2287 -0.0659 -0.4947
  710TMC3    O210507   2.792   3.032   0.244  0.1059 -0.2463  0.4792
  711TMC3    C110508   2.330   4.253  15.075 -0.7073  0.2178  1.0696
  711TMC3    C210509   2.358   4.278  15.203  0.4992 -0.1243  0.1248
  711TMC3    C310510   2.486   4.250  15.253 -0.2156  0.4893  0.0506
  711TMC3    C410511   2.425   4.211  14.986 -0.1062 -0.1420  0.0273
  711TMC3    C510512   2.547   4.173  15.038  0.6084  0.5786 -0.4710
  711TMC3    C610513   2.587   4.200  15.171 -0.3522 -0.0689 -0.4153
  711TMC3     C10514   2.228   4.161  15.077 -0.0864  0.4625  0.0771
  711TMC3     O10515   2.176   4.132  14.971  0.7757  0.1686  0.1934
  711TMC3     H10516   2.289   4.335  15.264  1.2826  2.0376 -1.0125
  711TMC3    H110517   2.401   4.190  14.882 -0.9854 -0.6855  0.3462
  711TMC3    H210518   2.670   4.143  15.213  1.6728  0.0960 -4.2234
  711TMC3    C710519   2.604   4.043  14.997 -0.4423 -0.6454  0.4789
  711TMC3    C810520   2.488   4.223  15.395 -0.0707  0.6887  0.5464
  711TMC3    O110521   2.677   3.982  15.073  0.0891  0.4655  0.1099
  711TMC3    O210522   2.373   4.212  15.438 -0.2321 -0.1744  0.3208
  712MPD2     C10523   4.113   0.436  13.450  0.2004  0.3171  0.1585
  712MPD2    C110524   3.985   0.466  13.433 -0.1917  0.3203 -0.0824
  712MPD2    C210525   3.929   0.564  13.514  0.0008  0.3805 -0.3236
  712MPD2    C310526   4.011   0.645  13.593 -0.6805 -0.4153 -0.9166
  712MPD2    C410527   4.146   0.617  13.607  0.1041 -0.3027  0.2136
  712MPD2    C510528   4.191   0.510  13.534 -0.0114  0.3422 -0.0604
  712MPD2     H10529   3.822   0.584  13.511  0.0647  0.5720 -1.5126
  712MPD2    H110530   4.212   0.671  13.673 -0.9287  0.4625  0.6117
  712MPD2    H210531   4.162   0.357  13.395  1.9734  0.1038  2.0399
  712MPD2    H310532   4.299   0.494  13.533  0.5013  3.7062  0.7371
  712MPD2     N10533   3.959   0.766  13.644  0.1709  0.1297  1.4264
  712MPD2    H510534   4.031   0.827  13.681  1.2242 -0.8536  1.0211
  712MPD2    N110535   3.893   0.395  13.356 -0.8973  0.1804 -0.1901
  712MPD2    H710536   3.798   0.429  13.361 -0.0714  2.5166 -0.2985
  713TMC3    C110537   3.799   0.930  13.651 -0.2192  0.2164  0.0946
  713TMC3    C210538   3.880   1.000  13.569  0.1532 -0.5526 -0.2950
  713TMC3    C310539   3.814   1.105  13.509  0.2541  0.5725 -0.3065
  713TMC3    C410540   3.670   0.962  13.684  0.4042 -0.2595  0.3156
  713TMC3    C510541   3.608   1.064  13.616  0.3646 -0.6823 -0.0496
  713TMC3    C610542   3.683   1.135  13.530 -0.5103 -0.0824  0.0998
  713TMC3     C10543   3.831   0.793  13.675 -0.0739 -0.7234  0.3050
  713TMC3     O10544   3.741   0.715  13.702 -0.2300 -0.1273 -0.2516
  713TMC3     H10545   3.971   0.958  13.529 -0.5359 -0.7183 -1.7035
  713TMC3    H110546   3.605   0.905  13.749  0.9722 -0.8709  0.3503
  713TMC3    H210547   3.635   1.210  13.469  0.9240  0.4048 -0.4148
  713TMC3    C710548   3.470   1.029  13.582 -0.4577  0.1549  0.1537
  713TMC3    C810549   3.903   1.197  13.436 -0.2733 -0.1532 -0.2320
  713TMC3    O110550   3.446   0.912  13.575 -0.3424  0.0592  0.0470
  713TMC3    O210551   3.852   1.279  13.355  0.8575  0.4025 -0.6578
  714MPD2     C10552   1.273   3.774   1.407 -0.0082  0.0366  0.0665
  714MPD2    C110553   1.307   3.662   1.335  0.0149  0.7906  0.3890
  714MPD2    C210554   1.242   3.631   1.216 -0.3187  0.2210 -0.6675
  714MPD2    C310555   1.139   3.703   1.169 -0.7938 -0.1481  0.2486
  714MPD2    C410556   1.107   3.823   1.228  0.2454 -0.0993 -0.5096
  714MPD2    C510557   1.180   3.850   1.349 -0.0698  0.3094 -0.4591
  714MPD2     H10558   1.260   3.536   1.165 -1.0363 -1.7714  2.8392
  714MPD2    H110559   1.045   3.895   1.177  0.4291 -1.6937 -3.0455
  714MPD2    H210560   1.318   3.797   1.504  0.3850  0.6272 -0.2589
  714MPD2    H310561   1.152   3.940   1.402 -0.4176  0.0836 -0.2587
  714MPD2     N10562   1.068   3.657   1.055 -0.2114  0.1493  0.3065
  714MPD2    H510563   1.111   3.577   1.010 -0.5586  1.6805 -2.7772
  714MPD2    N110564   1.403   3.577   1.395 -0.0970 -0.1498 -0.0168
  714MPD2    H710565   1.437   3.612   1.484 -0.8084 -1.5548  0.8009
  715TMC3    C110566   1.562   3.405   1.413 -1.0444  0.1801 -0.3034
  715TMC3    C210567   1.610   3.286   1.372 -0.3816  0.2409 -0.2865
  715TMC3    C310568   1.720   3.230   1.446 -0.7714  0.3454  0.0431
  715TMC3    C410569   1.627   3.474   1.510 -0.0179  0.4962 -0.9175
  715TMC3    C510570   1.736   3.422   1.577 -0.0480  0.2900  0.1019
  715TMC3    C610571   1.781   3.296   1.549  0.5396  0.0415  0.0685
  715TMC3     C10572   1.447   3.459   1.347 -0.0367 -0.4558  0.5345
  715TMC3     O10573   1.404   3.398   1.249 -0.2796  0.0289 -0.3145
  715TMC3     H10574   1.579   3.237   1.280 -0.7989 -1.3229  0.6854
  715TMC3    H110575   1.601   3.577   1.534 -0.5611 -0.1510  1.2843
  715TMC3    H210576   1.858   3.253   1.612  2.5382  1.8555 -1.1343
  715TMC3    C710577   1.744   3.471   1.713 -0.2802 -0.3499  0.3506
  715TMC3    C810578   1.796   3.128   1.378 -0.2526 -0.2614  0.7940
  715TMC3    O110579   1.753   3.589   1.729  0.0602  0.0321 -0.3050
  715TMC3    O210580   1.767   3.093   1.264  0.7463  0.1756  0.0716
  716MPD2     C10581   1.358   2.923   9.918  0.0225 -0.0391  0.4086
  716MPD2    C110582   1.368   2.787   9.941  1.1179 -0.3847 -0.2256
  716MPD2    C210583   1.493   2.737   9.963 -0.7880 -0.8375  0.7010
  716MPD2    C310584   1.603   2.817   9.976  0.0051  0.7390 -0.3360
  716MPD2    C410585   1.589   2.952   9.944  0.4519 -0.0243 -0.2751
  716MPD2    C510586   1.469   3.005   9.913  0.3787 -0.2016 -0.0767
  716MPD2     H10587   1.501   2.634   9.997 -1.1774 -0.9503  0.4495
  716MPD2    H110588   1.672   3.020   9.942  0.3768  0.0555 -0.6096
  716MPD2    H210589   1.264   2.966   9.887  0.5129  0.5541 -0.2808
  716MPD2    H310590   1.461   3.107   9.876  0.4597  0.1159  0.7846
  716MPD2     N10591   1.715   2.766  10.028 -0.4286 -0.3536  0.5151
  716MPD2    H510592   1.708   2.668  10.055  0.7246 -0.7169 -0.5239
  716MPD2    N110593   1.242   2.712   9.941  0.4387  1.0496  0.1617
  716MPD2    H710594   1.156   2.767   9.932 -0.2534  0.0807  0.8526
  717TMC3    C110595   1.926   2.775  10.134 -0.2124 -0.0213 -0.4515
  717TMC3    C210596   1.926   2.639  10.136  0.2129  0.2812  0.5643
  717TMC3    C310597   2.017   2.574  10.213 -0.4733 -0.3814  0.0244
  717TMC3    C410598   2.012   2.856  10.206  0.2181 -0.4190 -0.3027
  717TMC3    C510599   2.103   2.789  10.278 -0.2892 -0.5800  0.2021
  717TMC3    C610600   2.101   2.650  10.294 -0.0713  0.0690 -0.6195
  717TMC3     C10601   1.824   2.844  10.059 -0.2759  0.2677  0.4662
  717TMC3     O10602   1.842   2.964  10.052 -0.0703  0.3750 -0.2905
  717TMC3     H10603   1.862   2.575  10.077 -0.5204  0.1505  1.5055
  717TMC3    H110604   2.008   2.964  10.204 -0.0658 -0.4138  0.3290
  717TMC3    H210605   2.170   2.598  10.359 -2.2267 -1.4094  0.4932
  717TMC3    C710606   2.197   2.861  10.360 -0.4858 -0.0181  0.4600
  717TMC3    C810607   2.053   2.435  10.185  0.2861 -0.0362  0.1390
  717TMC3    O110608   2.241   2.808  10.462  0.3304 -0.4901  0.3695
  717TMC3    O210609   1.964   2.367  10.130 -0.1677 -0.5369 -0.1919
  718MPD2     C10610   0.934   1.301  12.437 -0.3419 -0.7751 -0.4339
  718MPD2    C110611   0.885   1.329  12.311  0.8263  0.0134 -0.1810
  718MPD2    C210612   0.762   1.277  12.284  0.3257  0.8473  0.0550
  718MPD2    C310613   0.692   1.185  12.364  0.8577  0.7240  0.0663
  718MPD2    C410614   0.755   1.154  12.477  0.0132  0.2717  0.7054
  718MPD2    C510615   0.875   1.211  12.520 -0.2357 -0.3006 -0.4163
  718MPD2     H10616   0.703   1.306  12.197  0.7116  0.7117 -0.2494
  718MPD2    H110617   0.721   1.071  12.538 -1.1198  0.1233 -0.1422
  718MPD2    H210618   1.041   1.314  12.451 -0.2786  0.6035 -2.3247
  718MPD2    H310619   0.930   1.176  12.606 -1.6268  0.3004  0.7103
  718MPD2     N10620   0.562   1.143  12.328  0.2345 -0.7349  0.3605
  718MPD2    H510621   0.533   1.183  12.239  1.0877 -1.6646 -0.3331
  718MPD2    N110622   0.954   1.407  12.227 -0.1005  0.9029 -0.1394
  718MPD2    H710623   1.050   1.427  12.255  0.3275 -0.3485 -0.7155
  719TMC3    C110624   0.983   1.578  12.059  0.2690 -0.8261 -0.9957
  719TMC3    C210625   0.895   1.647  11.982  0.4187 -0.4540 -0.1129
  719TMC3    C310626   0.879   1.786  12.000 -0.4121  0.3490 -0.2260
  719TMC3    C410627   1.071   1.649  12.139 -0.4324 -0.0333  0.1199
  719TMC3    C510628   1.048   1.783  12.160  0.8333 -0.2866  0.9654
  719TMC3    C610629   0.958   1.850  12.082  0.6668  0.3756  0.2601
  719TMC3     C10630   0.906   1.456  12.107 -0.3259 -0.5360 -0.2859
  719TMC3     O10631   0.798   1.439  12.054 -0.4061 -0.4008  0.0615
  719TMC3     H10632   0.853   1.592  11.899  1.7725  2.8651 -2.9917
  719TMC3    H110633   1.152   1.596  12.187 -0.3907 -1.7332 -1.7984
  719TMC3    H210634   0.938   1.955  12.105 -1.6068  0.3106 -1.4275
  719TMC3    C710635   1.167   1.852  12.193 -0.8717  0.2525  0.2036
  719TMC3    C810636   0.737   1.826  12.003 -0.1082  0.2190  0.0578
  719TMC3    O110637   1.274   1.790  12.184 -0.2768  0.8406 -0.4634
  719TMC3    O210638   0.694   1.940  12.017 -0.5193 -0.6569  0.4038
  720MPD2     C10639   3.596   2.481  14.135 -0.6333 -0.6026  0.4915
  720MPD2    C110640   3.686   2.480  14.031  0.1743  0.3961  0.9173
  720MPD2    C210641   3.809   2.420  14.049 -0.5140 -0.1546  0.3339
  720MPD2    C310642   3.845   2.364  14.165 -0.6332  0.6728  0.1243
  720MPD2    C410643   3.749   2.352  14.266 -0.1358 -0.2723  0.1021
  720MPD2    C510644   3.632   2.418  14.253  0.2718 -0.0790  0.5302
  720MPD2     H10645   3.879   2.423  13.966  0.3480 -0.2256  1.0590
  720MPD2    H110646   3.782   2.313  14.362  2.0215  1.0714 -0.0960
  720MPD2    H210647   3.502   2.534  14.139 -0.7664 -0.8022 -0.0077
  720MPD2    H310648   3.570   2.426  14.342  1.0331 -1.9277  1.2503
  720MPD2     N10649   3.974   2.302  14.173 -0.1118  0.0129  0.5893
  720MPD2    H510650   4.039   2.333  14.101 -0.7101  1.3034  0.6008
  720MPD2    N110651   3.662   2.556  13.916  0.0973 -0.0806 -0.2283
  720MPD2    H710652   3.742   2.569  13.854 -0.2558 -1.7701 -1.0410
  721TMC3    C110653   4.154   2.186  14.289 -0.3243  0.2797  0.2597
  721TMC3    C210654   4.194   2.079  14.369  0.4970 -0.0848  0.4256
  721TMC3    C310655   4.336   2.066  14.387  0.9933 -0.4076 -0.1352
  721TMC3    C410656   4.245   2.281  14.256 -0.1225  0.0937  0.1505
  721TMC3    C510657   4.381   2.263  14.273 -0.7846 -0.5469 -0.1968
  721TMC3    C610658   4.432   2.155  14.341 -0.0152 -0.3457  0.4031
  721TMC3     C10659   4.014   2.223  14.283 -0.0880  0.0261 -0.3505
  721TMC3     O10660   3.948   2.171  14.373  0.4594 -0.1053 -0.5225
  721TMC3     H10661   4.119   2.006  14.394  0.4823  0.1686  1.1454
  721TMC3    H110662   4.202   2.365  14.201  0.6479  0.8186  0.6511
  721TMC3    H210663   4.538   2.132  14.344 -0.0495 -0.4941  0.5228
  721TMC3    C710664   4.478   2.326  14.186  0.4793 -0.0065  0.5934
  721TMC3    C810665   4.388   1.966  14.486  0.3327 -0.4239 -0.0909
  721TMC3    O110666   4.588   2.278  14.174 -0.3265 -0.5071 -0.1778
  721TMC3    O210667   4.512   1.948  14.483  0.5586  0.0759 -0.1099
  722MPD2     C10668   2.253   1.381  13.356 -0.4313 -0.0313 -0.6746
  722MPD2    C110669   2.316   1.483  13.282  0.2120 -0.6887  0.9725
  722MPD2    C210670   2.272   1.499  13.154 -0.0646 -0.5683  0.0682
  722MPD2    C310671   2.170   1.430  13.096 -0.0304  0.0974 -0.0511
  722MPD2    C410672   2.105   1.336  13.174  0.1111 -0.5752  0.3094
  722MPD2    C510673   2.138   1.315  13.305 -0.9119  0.4559 -0.1097
  722MPD2     H10674   2.329   1.569  13.094  1.3906 -1.5440  0.2975
  722MPD2    H110675   2.013   1.287  13.144  0.7894 -1.4892 -0.2351
  722MPD2    H210676   2.279   1.361  13.459 -2.2934  0.8584 -0.0433
  722MPD2    H310677   2.091   1.245  13.372  0.7979 -1.4230 -0.8802
  722MPD2     N10678   2.144   1.449  12.961  0.6677 -0.1221  0.1690
  722MPD2    H510679   2.192   1.532  12.929 -1.6803  1.4248  0.6687
  722MPD2    N110680   2.432   1.551  13.319 -0.3708 -0.2125  0.0591
  722MPD2    H710681   2.463   1.618  13.249 -3.0738  0.0396 -0.9137
  723TMC3    C110682   2.074   1.415  12.740  0.0146 -0.3846 -0.5915
  723TMC3    C210683   2.086   1.314  12.649  0.1544 -0.5722 -0.2193
  723TMC3    C310684   2.119   1.359  12.523  0.1730 -0.6813  0.2478
  723TMC3    C410685   2.095   1.541  12.712  0.3142  0.1791  0.1630
  723TMC3    C510686   2.111   1.587  12.584 -0.1590  0.5097  0.4182
  723TMC3    C610687   2.125   1.493  12.486 -0.5218  0.1308  0.2798
  723TMC3     C10688   2.064   1.381  12.878 -0.3853  0.3163 -0.0489
  723TMC3     O10689   1.992   1.289  12.906  0.0311 -0.4717  0.3192
  723TMC3     H10690   2.080   1.211  12.683 -0.9466 -0.8940 -1.3660
  723TMC3    H110691   2.100   1.618  12.789 -0.7943  3.0151 -2.6247
  723TMC3    H210692   2.137   1.520  12.381  1.7624 -1.3177  0.1655
  723TMC3    C710693   2.069   1.723  12.549 -0.3751  0.5725 -0.5910
  723TMC3    C810694   2.173   1.269  12.425  0.5930 -0.3466 -1.0116
  723TMC3    O110695   2.100   1.761  12.438 -1.0118 -0.1945  0.6729
  723TMC3    O210696   2.196   1.316  12.314  0.3274  0.4744  0.1078
  724TMC3    C110697   2.983   4.196  10.210 -0.4306 -0.1248 -0.0054
  724TMC3    C210698   2.944   4.282  10.108 -0.3525 -0.2256  0.7772
  724TMC3    C310699   3.031   4.314  10.012 -0.6239 -0.7406  0.2337
  724TMC3    C410700   3.115   4.181  10.236  0.4862 -0.3161  0.0337
  724TMC3    C510701   3.205   4.227  10.144 -0.0942  2.2292  0.9135
  724TMC3    C610702   3.169   4.299  10.035  0.2721 -0.2078  0.2215
  724TMC3     C10703   2.894   4.149  10.316  0.2417 -0.6960 -0.0059
  724TMC3     O10704   2.944   4.068  10.394  0.6615  0.2695  0.4327
  724TMC3     H10705   2.841   4.283  10.076 -0.6612  0.0023  1.8065
  724TMC3    H110706   3.147   4.115  10.316  1.7480 -1.4798 -1.4078
  724TMC3    H210707   3.240   4.333   9.961  0.2342 -0.5560  0.0255
  724TMC3    C710708   3.347   4.230  10.170 -0.4342  0.6023 -0.1525
  724TMC3    C810709   2.982   4.419   9.922  0.3336 -0.7261 -0.8524
  724TMC3    O110710   3.420   4.260  10.076 -0.3270  0.0802 -0.6049
  724TMC3    O210711   2.857   4.431   9.911  0.0450  0.4497 -0.1640
  725TMC3    C110712   4.392   3.041  12.824 -0.4478  0.5024  0.4074
  725TMC3    C210713   4.329   3.076  12.703 -0.2167  0.1823  0.1652
  725TMC3    C310714   4.210   3.012  12.680  1.0616  0.0215 -0.8827
  725TMC3    C410715   4.353   2.932  12.902  0.1700  0.2014 -0.2896
  725TMC3    C510716   4.228   2.881  12.872 -0.2708  0.2870  0.4236
  725TMC3    C610717   4.152   2.924  12.767  1.1253 -0.9660  0.5021
  725TMC3     C10718   4.526   3.082  12.843 -0.6500 -0.2208 -0.3002
  725TMC3     O10719   4.551   3.193  12.790 -0.1442 -0.2205  0.7061
  725TMC3     H10720   4.358   3.162  12.645  0.7148  0.3825  0.9383
  725TMC3    H110721   4.391   2.928  13.004 -1.4669 -2.3429  0.2098
  725TMC3    H210722   4.061   2.872  12.740  1.3624 -1.5771  0.8867
  725TMC3    C710723   4.201   2.743  12.891 -0.5383 -0.0545  0.0169
  725TMC3    C810724   4.158   3.016  12.544  0.1406  1.1206 -0.4822
  725TMC3    O110725   4.089   2.707  12.869 -0.3569 -0.0990  0.3765
  725TMC3    O210726   4.082   2.927  12.516  0.2344  0.0384  0.0711
  726MPD2     C10727   2.465   4.527  10.588 -0.8572 -0.5641  0.2085
  726MPD2    C110728   2.521   4.590  10.693  0.1075  0.1497  0.3607
  726MPD2    C210729   2.463   4.587  10.822  0.5193 -0.1581  0.3427
  726MPD2    C310730   2.343   4.526  10.843  0.1185  0.0808 -0.0639
  726MPD2    C410731   2.285   4.462  10.730  0.4813 -0.4725  0.3266
  726MPD2    C510732   2.347   4.463  10.608  0.4997  0.2302  0.9808
  726MPD2     H10733   2.522   4.637  10.898 -0.4644 -1.5286  1.9958
  726MPD2    H110734   2.187   4.417  10.736  0.9560 -1.5247  0.1595
  726MPD2    H210735   2.516   4.524  10.492 -0.5811  0.4663  0.3117
  726MPD2    H310736   2.291   4.424  10.524 -2.2756 -0.0589  2.9456
  726MPD2     N10737   2.266   4.534  10.963 -0.5445 -0.1922  0.0599
  726MPD2    H510738   2.176   4.487  10.958 -1.6427  1.6930  2.0974
  726MPD2    N110739   2.632   4.676  10.679  0.4439 -0.1515  0.0945
  726MPD2    H710740   2.680   4.701  10.765  0.5468 -0.5419  0.1496
  727TMC3    C110741   2.794   0.100  10.594 -0.0001 -0.3111  0.1470
  727TMC3    C210742   2.895   0.049  10.668 -0.7728  0.5324 -0.3833
  727TMC3    C310743   3.011   0.132  10.683 -0.2898 -0.2296 -1.0094
  727TMC3    C410744   2.802   0.218  10.527  0.0637 -0.5824 -0.2641
  727TMC3    C510745   2.923   0.280  10.528  0.7122 -0.1949  0.6463
  727TMC3    C610746   3.029   0.245  10.607 -0.6005 -0.5925  0.1860
  727TMC3     C10747   2.676   0.018  10.561  0.6044 -0.4303 -0.2641
  727TMC3     O10748   2.593   0.060  10.478 -0.1534 -0.6513  0.0110
  727TMC3     H10749   2.894   4.679  10.717 -0.9413 -0.5832 -2.5913
  727TMC3    H110750   2.726   0.242  10.454 -0.3755  0.0215  0.3945
  727TMC3    H210751   3.124   0.296  10.613 -1.4717  1.0055  0.4270
  727TMC3    C710752   2.947   0.401  10.439 -0.1151 -0.2310 -0.4616
  727TMC3    C810753   3.128   0.078  10.748  0.1459  0.7203  0.5181
  727TMC3    O110754   3.064   0.421  10.410  0.4541  0.0798  0.2040
  727TMC3    O210755   3.236   0.120  10.720  0.3808  0.3246 -0.1938
  728TMC3    C110756   1.585   2.750  15.659  0.3284 -0.1901  0.1158
  728TMC3    C210757   1.695   2.836  15.694 -0.4220  0.9135  0.2550
  728TMC3    C310758   1.780   2.884  15.597  0.4060 -0.5220 -0.1851
  728TMC3    C410759   1.558   2.720  15.531 -0.2145  0.0272  0.1170
  728TMC3    C510760   1.636   2.781  15.440  0.4104  0.3243  0.3859
  728TMC3    C610761   1.736   2.869  15.467 -0.6119 -0.0575 -0.3644
  728TMC3     C10762   1.493   2.711  15.766  0.3281 -0.5971 -0.4667
  728TMC3     O10763   1.539   2.714  15.881  0.3196 -0.0026  0.0158
  728TMC3     H10764   1.731   2.838  15.796  1.6116 -0.0150 -0.4497
  728TMC3    H110765   1.480   2.655  15.493  1.1247 -2.7588  2.0921
  728TMC3    H210766   1.794   2.910  15.385  0.2583  1.8336  1.2079
  728TMC3    C710767   1.582   2.780  15.308  0.7591 -0.1596  0.9791
  728TMC3    C810768   1.881   2.975  15.649 -0.1252  0.1663 -0.1214
  728TMC3    O110769   1.561   2.670  15.264  0.3072 -0.5507  0.7225
  728TMC3    O210770   1.914   2.972  15.767  0.1769  0.2088 -0.3470
  729MPD2     C10771   3.674   4.308  17.175  0.2845  1.3955 -1.1368
  729MPD2    C110772   3.652   4.167  17.176  0.7323  0.0491 -0.1651
  729MPD2    C210773   3.688   4.105  17.294  0.5194  0.0951  0.0711
  729MPD2    C310774   3.721   4.169  17.411  0.0874  0.0437 -0.2150
  729MPD2    C410775   3.708   4.310  17.412  0.5067 -0.2024 -0.0372
  729MPD2    C510776   3.692   4.373  17.291 -0.3791  0.1000 -0.3947
  729MPD2     H10777   3.696   3.997  17.291 -2.3220 -0.0564 -1.2289
  729MPD2    H110778   3.719   4.375  17.499 -1.0645 -0.7298  0.5479
  729MPD2    H210779   3.658   4.368  17.087 -1.4625  2.6503  0.0260
  729MPD2    H310780   3.684   4.481  17.290  0.7427  0.1786 -0.5558
  729MPD2     N10781   3.763   4.106  17.527  0.1850 -0.5476  0.3087
  729MPD2    H510782   3.778   4.171  17.603 -0.4468 -0.3985  0.3082
  729MPD2    N110783   3.609   4.092  17.061  0.4319 -0.0590  0.1678
  729MPD2    H710784   3.618   4.148  16.977  2.3174  0.9905  1.0697
  730TMC3    C110785   3.893   3.962  17.649  0.3787  0.2385  0.0421
  730TMC3    C210786   3.987   3.873  17.616  0.6527 -0.4608  0.4781
  730TMC3    C310787   4.116   3.911  17.611 -0.1027  0.2828 -0.5436
  730TMC3    C410788   3.928   4.088  17.700 -0.3674 -0.3298  0.4612
  730TMC3    C510789   4.060   4.120   0.002 -0.0715  0.2340 -0.0281
  730TMC3    C610790   4.153   4.041  17.647 -0.5839 -0.4406  0.5838
  730TMC3     C10791   3.807   3.981  17.536 -0.4548  0.0418 -0.5508
  730TMC3     O10792   3.815   3.890  17.455 -0.1656 -0.0125  0.2565
  730TMC3     H10793   3.955   3.777  17.576  2.7092 -1.0842  0.3557
  730TMC3    H110794   3.846   4.140   0.043  0.2252  0.9545  0.1027
  730TMC3    H210795   4.256   4.074  17.653 -0.5559  0.0068 -1.9813
  730TMC3    C710796   4.079   4.261  17.675  0.0855 -0.0661 -0.2010
  730TMC3    C810797   4.181   3.856  17.491  0.3187  0.0357  0.1571
  730TMC3    O110798   4.156   4.273  17.579 -0.4988 -0.5441  0.1927
  730TMC3    O210799   4.137   3.749  17.452 -0.4663 -0.4059  0.6848
  731MPD2     C10800   4.238   2.085  11.291 -0.0717 -0.6146 -0.6620
  731MPD2    C110801   4.223   2.205  11.356 -0.2849  0.2446  0.1640
  731MPD2    C210802   4.169   2.200  11.485  0.6082 -0.0229 -0.4616
  731MPD2    C310803   4.116   2.080  11.536  0.1283  0.1099  0.6095
  731MPD2    C410804   4.130   1.964  11.464 -0.4059  0.2315  0.3399
  731MPD2    C510805   4.186   1.969  11.343 -0.2703 -0.3272  0.1485
  731MPD2     H10806   4.178   2.284  11.553  0.8794  0.1804 -0.7478
  731MPD2    H110807   4.105   1.865  11.503  0.9129 -0.8253 -1.5058
  731MPD2    H210808   4.282   2.080  11.193  2.5652  2.6899  0.3615
  731MPD2    H310809   4.195   1.876  11.288 -1.9956  0.0162 -0.7234
  731MPD2     N10810   4.047   2.054  11.660 -0.5676  0.1256  0.7873
  731MPD2    H510811   4.012   1.961  11.680  0.2672  0.0817  2.0274
  731MPD2    N110812   4.275   2.326  11.295 -0.1616 -0.6705 -0.0316
  731MPD2    H710813   4.336   2.314  11.215  0.4216 -3.6324  0.8519
  732TMC3    C110814   4.115   2.487  11.387  0.2175 -0.3501  0.5755
  732TMC3    C210815   4.004   2.423  11.331  0.3913  0.4299  0.1379
  732TMC3    C310816   3.901   2.415  11.417  0.6061  0.5966  0.0956
  732TMC3    C410817   4.114   2.578  11.487  0.0967  0.1918  0.0749
  732TMC3    C510818   4.001   2.579  11.559  0.7437 -0.1981  0.3173
  732TMC3    C610819   3.900   2.497  11.534 -0.2163  0.1644 -0.7911
  732TMC3     C10820   4.248   2.457  11.329  0.2888  0.4877  0.4436
  732TMC3     O10821   4.310   2.553  11.288  0.6814 -0.0145 -0.9501
  732TMC3     H10822   4.015   2.361  11.243  1.3066  0.6758  0.0718
  732TMC3    H110823   4.203   2.634  11.513  0.2011  1.1325 -2.3016
  732TMC3    H210824   3.824   2.484  11.611  0.2617  2.1168  0.0012
  732TMC3    C710825   4.000   2.646  11.687  0.2486  0.4912  0.0314
  732TMC3    C810826   3.834   2.287  11.397 -1.2655 -0.2527  0.1828
  732TMC3    O110827   4.034   2.763  11.684 -0.5608  0.6386 -0.0267
  732TMC3    O210828   3.856   2.212  11.308  0.2969 -0.5385 -0.4819
  733TMC3    C110829   0.130   1.181  12.469  0.0840 -0.3584 -0.3372
  733TMC3    C210830   0.249   1.114  12.480 -0.0888 -0.9280 -0.5158
  733TMC3    C310831   0.331   1.110  12.374  0.5099 -0.3400 -0.0967
  733TMC3    C410832   0.098   1.252  12.357 -0.1250  0.1654 -0.0608
  733TMC3    C510833   0.192   1.258  12.260  0.6574 -0.2144 -0.5354
  733TMC3    C610834   0.306   1.184  12.258 -0.4305 -0.7222  0.1659
  733TMC3     C10835   0.027   1.169  12.573 -0.0189  0.8135 -0.4931
  733TMC3     O10836   4.665   1.256  12.567 -0.4070  0.1172 -0.7483
  733TMC3     H10837   0.287   1.069  12.571 -1.6713 -0.3074  0.4595
  733TMC3    H110838   0.011   1.315  12.349 -1.4038 -1.6647 -0.6044
  733TMC3    H210839   0.380   1.187  12.179  1.6927 -2.4184  2.1007
  733TMC3    C710840   0.189   1.380  12.187 -0.2654  1.2840  0.0313
  733TMC3    C810841   0.473   1.078  12.407  0.1722  0.0736  0.5202
  733TMC3    O110842   0.079   1.423  12.153 -0.0957  0.1736 -0.1619
  733TMC3    O210843   0.488   1.021  12.513 -0.4634  0.0225  0.1055
  734MPD2     C10844   2.313   3.455  12.599  0.2854 -0.5248  0.1980
  734MPD2    C110845   2.224   3.381  12.533 -0.1064 -0.7507 -0.4145
  734MPD2    C210846   2.232   3.382  12.392  0.3781  0.4667  0.0396
  734MPD2    C310847   2.319   3.461  12.324 -0.1296  0.5519  0.2994
  734MPD2    C410848   2.396   3.541  12.395 -0.0932  0.4535 -0.1152
  734MPD2    C510849   2.384   3.538  12.525  0.0920  0.4084 -0.1962
  734MPD2     H10850   2.169   3.308  12.343 -1.1035  0.8483  1.3623
  734MPD2    H110851   2.463   3.604  12.339  0.1713 -0.1094 -0.4297
  734MPD2    H210852   2.317   3.483  12.704 -1.7679 -1.1621  0.4511
  734MPD2    H310853   2.433   3.619  12.577  1.0392  0.5935 -1.3675
  734MPD2     N10854   2.308   3.450  12.181  0.0681  0.1906  0.1709
  734MPD2    H510855   2.236   3.385  12.152 -0.6634  1.4754 -0.9033
  734MPD2    N110856   2.114   3.316  12.603  0.1616  0.4074 -0.9416
  734MPD2    H710857   2.116   3.316  12.704 -1.6807 -1.1124 -0.8994
  735TMC3    C110858   1.934   3.166  12.633 -0.9951 -0.1625  0.4293
  735TMC3    C210859   1.841   3.109  12.546 -0.2071 -0.6890 -0.7626
  735TMC3    C310860   1.837   2.977  12.521  0.4126  0.2528  0.7948
  735TMC3    C410861   2.015   3.085  12.709  0.2000 -0.3045 -0.5137
  735TMC3    C510862   2.013   2.952  12.678 -0.2844 -0.0663 -0.6570
  735TMC3    C610863   1.914   2.898  12.595  0.3277  0.2318  0.4660
  735TMC3     C10864   2.008   3.248  12.547 -0.6427 -0.4124  0.6128
  735TMC3     O10865   1.984   3.218  12.432  0.3339 -0.1379 -0.4659
  735TMC3     H10866   1.772   3.167  12.485 -2.7661 -0.9991  1.7834
  735TMC3    H110867   2.099   3.125  12.766  1.5283 -2.3559 -1.0238
  735TMC3    H210868   1.923   2.793  12.572  0.2233 -0.4371  3.5038
  735TMC3    C710869   2.136   2.890  12.653  0.3058  0.1723 -0.4468
  735TMC3    C810870   1.801   2.937  12.382  0.1977 -0.0294 -0.8076
  735TMC3    O110871   2.205   2.944  12.571  0.0259 -0.0287 -0.1904
  735TMC3    O210872   1.786   2.822  12.351  0.1756  0.5730  0.0149
  736MPD2     C10873   2.235   2.545  12.718  0.2430  0.4071  0.1166
  736MPD2    C110874   2.231   2.664  12.655 -0.0427  0.4271 -0.4714
  736MPD2    C210875   2.303   2.681  12.535  0.5734  0.6752  0.4794
  736MPD2    C310876   2.377   2.568  12.493  0.4703  0.3181 -0.0488
  736MPD2    C410877   2.375   2.447  12.558 -0.5441  0.5159 -0.4179
  736MPD2    C510878   2.296   2.440  12.666 -0.8837  0.0726  0.7503
  736MPD2     H10879   2.314   2.774  12.481 -3.5677  1.3772  0.8695
  736MPD2    H110880   2.432   2.358  12.535 -0.5922 -0.2154  2.2748
  736MPD2    H210881   2.180   2.522  12.809 -1.6960  0.0447 -1.1530
  736MPD2    H310882   2.297   2.352  12.729  1.1038  0.8275  1.7762
  736MPD2     N10883   2.456   2.569  12.379 -0.1580 -0.7964  0.1716
  736MPD2    H510884   2.500   2.481  12.356  1.5059  0.5258 -1.6748
  736MPD2    N110885   2.148   2.763  12.706 -0.4336 -0.0618  0.1546
  736MPD2    H710886   2.079   2.738  12.776 -2.2667  3.5635 -0.3415
  737TMC3    C110887   2.570   2.649  12.193 -0.0169 -0.0062  0.0504
  737TMC3    C210888   2.636   2.756  12.137  0.0021 -0.4654 -0.6334
  737TMC3    C310889   2.758   2.727  12.079 -0.0332 -0.2067 -0.2269
  737TMC3    C410890   2.627   2.522  12.196 -0.1769 -0.1773  0.0284
  737TMC3    C510891   2.745   2.500  12.139  0.0018  0.1158 -0.5768
  737TMC3    C610892   2.815   2.599  12.075 -0.0723  0.0866  0.2974
  737TMC3     C10893   2.466   2.679  12.288 -0.0172 -0.4194 -0.3603
  737TMC3     O10894   2.412   2.791  12.293  0.0427 -0.1420 -0.0658
  737TMC3     H10895   2.595   2.855  12.155 -1.1643 -0.6361 -2.3067
  737TMC3    H110896   2.569   2.433  12.217 -0.9357  0.5874  1.1885
  737TMC3    H210897   2.912   2.578  12.032 -1.1257 -2.2368 -0.9460
  737TMC3    C710898   2.795   2.355  12.139  0.3123 -0.3636 -0.2584
  737TMC3    C810899   2.825   2.811  11.975  0.4532  0.9401 -0.1792
  737TMC3    O110900   2.764   2.296  12.246 -0.6414 -0.0210  0.4811
  737TMC3    O210901   2.943   2.790  11.954 -0.2531  0.4640  0.3777
  738MPD2     C10902   2.534   1.524  15.303  0.0889 -0.7130 -0.4697
  738MPD2    C110903   2.518   1.444  15.189  0.1457 -0.1340  0.5321
  738MPD2    C210904   2.596   1.468  15.074 -0.0792 -0.5659 -0.1325
  738MPD2    C310905   2.683   1.569  15.079  0.1968  0.0263 -0.3421
  738MPD2    C410906   2.691   1.651  15.189 -0.2102  0.5128  0.1168
  738MPD2    C510907   2.616   1.631  15.302 -0.5888  0.2857 -0.2252
  738MPD2     H10908   2.599   1.391  14.998 -2.2021 -0.0950 -0.7051
  738MPD2    H110909   2.770   1.725  15.200  0.2172  0.3633 -1.9082
  738MPD2    H210910   2.493   1.503  15.401  1.7512 -0.7224  0.2271
  738MPD2    H310911   2.642   1.687  15.391 -0.1568  0.9370 -0.7602
  738MPD2     N10912   2.790   1.593  14.990  0.8097  0.6885  0.4210
  738MPD2    H510913   2.859   1.663  15.014  0.0391  1.9876 -1.1231
  738MPD2    N110914   2.442   1.323  15.187  0.2922 -0.0889 -0.2688
  738MPD2    H710915   2.421   1.289  15.094  1.1423 -1.2623 -0.0379
  739TMC3    C110916   2.931   1.504  14.823 -0.1157  0.4290  0.5615
  739TMC3    C210917   2.932   1.442  14.702  0.4009  0.1295  0.0581
  739TMC3    C310918   3.054   1.400  14.657  0.3388 -0.0161 -0.2107
  739TMC3    C410919   3.044   1.512  14.908  0.4953  0.3759  0.4790
  739TMC3    C510920   3.162   1.476  14.856  0.0515  0.5674  0.0875
  739TMC3    C610921   3.171   1.426  14.732  0.6209 -0.7821  0.7381
  739TMC3     C10922   2.801   1.517  14.876  0.0704  0.2249  0.0999
  739TMC3     O10923   2.709   1.464  14.819 -0.6055  0.1393  0.5320
  739TMC3     H10924   2.843   1.424  14.642 -0.9141 -0.2188  2.0899
  739TMC3    H110925   3.047   1.557  15.007  0.9954 -0.7173  0.9592
  739TMC3    H210926   3.258   1.368  14.707 -0.2139 -1.9977  0.6912
  739TMC3    C710927   3.278   1.475  14.942  0.7515 -0.5383 -0.4453
  739TMC3    C810928   3.062   1.362  14.517  0.2287  0.2353  0.2497
  739TMC3    O110929   3.279   1.480  15.064  0.0416  0.2381 -0.3021
  739TMC3    O210930   2.952   1.328  14.477  0.2638  0.2068 -0.2792
  740TMC3    C110931   3.782   2.840  14.143  0.8602 -0.2277  0.2194
  740TMC3    C210932   3.828   2.760  14.249  0.3500 -0.1099 -0.1575
  740TMC3    C310933   3.956   2.707  14.235 -0.2204 -0.0712  0.1739
  740TMC3    C410934   3.853   2.868  14.030 -1.0508 -0.7091  0.5443
  740TMC3    C510935   3.978   2.814  14.017  0.3330  0.1652  0.2939
  740TMC3    C610936   4.027   2.745  14.129 -0.7591 -0.7032 -0.0298
  740TMC3     C10937   3.644   2.850  14.126  0.2349 -1.1101 -0.1944
  740TMC3     O10938   3.612   2.897  14.021 -0.9843  0.8111 -0.0401
  740TMC3     H10939   3.773   2.752  14.343  0.8802 -0.1692  0.1482
  740TMC3    H110940   3.819   2.934  13.951  0.8956 -0.7073 -0.2782
  740TMC3    H210941   4.126   2.704  14.111  0.8151  3.6236 -1.4477
  740TMC3    C710942   4.032   2.773  13.886 -0.8394 -0.3044  0.2762
  740TMC3    C810943   4.015   2.614  14.330  0.1209  0.2132 -0.0874
  740TMC3    O110944   4.092   2.669  13.873  0.4264  0.0918  0.1029
  740TMC3    O210945   4.125   2.567  14.307  0.2021  0.2014 -0.5726
  741TMC3    C110946   3.008   2.146  13.775  0.6788  0.5287 -0.3981
  741TMC3    C210947   2.900   2.092  13.841  0.6463 -0.3406 -0.0135
  741TMC3    C310948   2.912   1.973  13.901 -0.2228 -0.4745  0.2481
  741TMC3    C410949   3.131   2.079  13.781  0.0218  0.6524 -0.0925
  741TMC3    C510950   3.134   1.948  13.827 -0.1362 -0.0931 -0.2636
  741TMC3    C610951   3.022   1.888  13.880  0.0198 -0.4988 -0.1833
  741TMC3     C10952   2.998   2.248  13.666  0.0529 -0.0414  0.0932
  741TMC3     O10953   3.094   2.255  13.590 -0.3970 -0.0733 -0.3189
  741TMC3     H10954   2.799   2.123  13.817  0.9212 -0.0508 -0.8004
  741TMC3    H110955   3.211   2.131  13.730 -1.1389  0.3284 -2.2553
  741TMC3    H210956   3.022   1.784  13.913 -1.1564 -0.4761 -0.1172
  741TMC3    C710957   3.260   1.889  13.875 -0.1598  0.4737  0.1048
  741TMC3    C810958   2.798   1.926  13.976 -0.2775 -0.3020  0.2458
  741TMC3    O110959   3.268   1.768  13.883 -0.4823 -0.9616  0.0256
  741TMC3    O210960   2.697   1.995  13.971  0.4906 -0.1114  0.4643
  742TMC3    C110961   3.175   0.391  15.614 -0.5928 -1.3578 -0.1069
  742TMC3    C210962   3.070   0.342  15.545  0.5144 -0.7387 -0.6179
  742TMC3    C310963   3.084   0.220  15.473  0.0410 -0.3020 -0.4084
  742TMC3    C410964   3.303   0.348  15.590  0.2646 -0.4326 -0.1679
  742TMC3    C510965   3.316   0.224  15.533 -0.4089 -0.4559  0.3111
  742TMC3    C610966   3.210   0.161  15.477 -0.2575 -0.0853  0.2478
  742TMC3     C10967   3.140   0.466  15.730  0.0465 -0.7555 -0.1355
  742TMC3     O10968   3.022   0.491  15.746 -0.7596 -0.0812 -0.1865
  742TMC3     H10969   2.968   0.374  15.564  0.4691 -0.1613 -1.8280
  742TMC3    H110970   3.385   0.397  15.641 -0.3339 -1.7446  2.0469
  742TMC3    H210971   3.228   0.071  15.419 -2.2561 -0.1668 -0.2481
  742TMC3    C710972   3.436   0.223  15.452  0.0135 -0.0127  0.6905
  742TMC3    C810973   3.007   0.183  15.360  0.6487  0.5309  0.1101
  742TMC3    O110974   3.465   0.125  15.390 -0.0773 -0.1499  0.4749
  742TMC3    O210975   3.056   0.098  15.288  0.0723  0.4826  0.3333
  743MPD2     C10976   1.702   1.695   1.746 -0.1657 -0.3305  0.0130
  743MPD2    C110977   1.690   1.625   1.629  0.2052  0.1197 -0.2204
  743MPD2    C210978   1.810   1.589   1.563  0.0222 -0.2921  0.3619
  743MPD2    C310979   1.928   1.630   1.623  0.2459  0.2313 -0.8072
  743MPD2    C410980   1.936   1.701   1.737 -0.4785  0.4281 -0.0487
  743MPD2    C510981   1.818   1.738   1.798 -0.2762  0.1271  0.5231
  743MPD2     H10982   1.811   1.554   1.460  0.6056  2.0420 -0.4151
  743MPD2    H110983   2.026   1.725   1.794  0.4010  0.8358 -1.6105
  743MPD2    H210984   1.614   1.734   1.795  0.4751  0.9178  0.1521
  743MPD2    H310985   1.810   1.797   1.889 -0.3422 -0.9838  1.2323
  743MPD2     N10986   2.037   1.576   1.561 -0.1867  0.1113 -0.1296
  743MPD2    H510987   2.007   1.497   1.504  1.6804 -1.0055  0.4205
  743MPD2    N110988   1.560   1.605   1.581  0.5137 -0.1135  0.8907
  743MPD2    H710989   1.489   1.651   1.636  0.6955  0.3447  0.7512
  744TMC3    C110990   1.396   1.556   1.414  0.3821 -0.1901 -0.0754
  744TMC3    C210991   1.328   1.675   1.426 -0.5289  0.2839 -0.2116
  744TMC3    C310992   1.188   1.674   1.406 -0.9940 -0.4809 -0.0897
  744TMC3    C410993   1.334   1.446   1.375  0.0368 -0.1598 -0.0856
  744TMC3    C510994   1.199   1.446   1.350 -0.1761 -0.3853  0.5588
  744TMC3    C610995   1.129   1.557   1.360 -0.1563  0.0138 -0.2755
  744TMC3     C10996   1.526   1.527   1.474 -0.9586  0.3141 -0.2372
  744TMC3     O10997   1.598   1.444   1.420  0.1128 -0.3217  0.7188
  744TMC3     H10998   1.381   1.766   1.449  0.0573  0.3722 -1.9821
  744TMC3    H110999   1.386   1.353   1.357 -2.5571 -1.0923 -2.7254
  744TMC3    H211000   1.027   1.555   1.323 -0.2312 -0.6924 -0.0206
  744TMC3    C711001   1.137   1.348   1.266  0.3110 -0.8597  0.6304
  744TMC3    C811002   1.118   1.800   1.407 -0.4253  0.1560 -0.3779
  744TMC3    O111003   1.013   1.335   1.272 -0.3451 -0.4118  0.1489
  744TMC3    O211004   1.188   1.901   1.411  0.5891  0.0420 -0.4075
  745TMC3    C111005   3.797   0.259  13.221  0.1284 -0.1373 -0.1774
  745TMC3    C211006   3.701   0.228  13.315  0.6875  0.1062  0.1737
  745TMC3    C311007   3.571   0.219  13.273  0.0295 -0.2730  0.2361
  745TMC3    C411008   3.753   0.312  13.102 -0.0704  0.1323  0.0785
  745TMC3    C511009   3.619   0.301  13.071  0.4748  0.2386  0.1353
  745TMC3    C611010   3.528   0.244  13.152 -1.1174  0.4184 -0.8002
  745TMC3     C11011   3.928   0.303  13.269  0.0910  0.4251  0.2423
  745TMC3     O11012   4.031   0.240  13.231  0.0210  0.3596 -0.3924
  745TMC3     H11013   3.741   0.195  13.410  0.0339 -2.7373 -0.5569
  745TMC3    H111014   3.825   0.344  13.028 -0.3094 -1.2154 -0.7325
  745TMC3    H211015   3.423   0.238  13.130 -1.7464  1.2417  1.9505
  745TMC3    C711016   3.558   0.388  12.970 -0.1990 -1.0942  1.2778
  745TMC3    C811017   3.479   0.177  13.375 -0.5784 -0.2576 -0.0562
  745TMC3    O111018   3.441   0.362  12.942 -0.1107 -0.0661 -0.3879
  745TMC3    O211019   3.376   0.126  13.335 -0.6878 -0.3436 -0.2114
  746TMC3    C111020   1.164   2.218  11.205  0.0191  0.0709  0.6331
  746TMC3    C211021   1.235   2.169  11.099 -0.0283 -0.1124 -0.2615
  746TMC3    C311022   1.193   2.053  11.048  0.2630  0.0373 -0.9797
  746TMC3    C411023   1.061   2.143  11.259  0.6235 -0.2243 -0.0668
  746TMC3    C511024   1.049   2.015  11.222  0.2184 -0.3379 -0.6020
  746TMC3    C611025   1.105   1.971  11.106 -0.1867 -0.1579  0.3920
  746TMC3     C11026   1.170   2.358  11.249  0.1076 -0.1377  0.1662
  746TMC3     O11027   1.081   2.407  11.316 -0.1428 -1.0629  0.1478
  746TMC3     H11028   1.315   2.222  11.049  0.3595 -1.0494 -0.6178
  746TMC3    H111029   0.994   2.179  11.336 -1.8672  1.2519 -2.9178
  746TMC3    H211030   1.075   1.880  11.057  1.2600  0.1164 -1.0229
  746TMC3    C711031   0.956   1.928  11.285  0.4337 -0.1790  0.0810
  746TMC3    C811032   1.235   2.018  10.914 -0.2846  0.0012 -0.2237
  746TMC3    O111033   0.897   1.855  11.205 -0.0271  0.0885  0.1052
  746TMC3    O211034   1.233   1.900  10.878 -0.1014 -0.1729 -0.0006
  747TMC3    C111035   3.334   1.848  11.403 -0.9175 -0.3151  0.3890
  747TMC3    C211036   3.241   1.823  11.501 -0.1633 -0.0981 -0.3568
  747TMC3    C311037   3.147   1.920  11.524  0.1409 -0.2315  0.0920
  747TMC3    C411038   3.318   1.958  11.326 -0.8059  0.7759 -0.2221
  747TMC3    C511039   3.213   2.050  11.350 -0.3966  0.0874 -0.7611
  747TMC3    C611040   3.128   2.036  11.453  0.4358  0.0294 -0.3155
  747TMC3     C11041   3.437   1.741  11.372 -0.2806 -0.6270 -0.7113
  747TMC3     O11042   3.437   1.639  11.437  0.0001 -0.6228 -0.1058
  747TMC3     H11043   3.262   1.750  11.579 -1.0111 -0.1144 -0.1504
  747TMC3    H111044   3.397   1.987  11.258  0.4101 -0.6108  0.5757
  747TMC3    H211045   3.061   2.117  11.479  0.3619 -0.2438  0.3420
  747TMC3    C711046   3.220   2.186  11.289 -0.7627  0.3644  0.0518
  747TMC3    C811047   3.069   1.899  11.642  0.1312 -0.0593 -0.5852
  747TMC3    O111048   3.165   2.275  11.351 -0.0727  0.7773  0.1580
  747TMC3    O211049   3.027   1.789  11.671 -0.1377 -0.4610 -0.1960
  748MPD2     C11050   0.835   3.236   1.746  0.7961 -0.3671  0.2642
  748MPD2    C111051   0.776   3.147   1.665 -0.4860  0.7541  0.2302
  748MPD2    C211052   0.850   3.046   1.602  0.2959  0.1201  0.8128
  748MPD2    C311053   0.981   3.030   1.629 -1.1711  0.6749  0.3532
  748MPD2    C411054   1.048   3.119   1.716 -0.0010 -0.5769  0.2687
  748MPD2    C511055   0.965   3.218   1.777  0.2268  0.2292 -0.9724
  748MPD2     H11056   0.803   2.972   1.538  1.8289 -0.2450  0.1009
  748MPD2    H111057   1.150   3.102   1.748  0.6246 -0.4308 -1.6117
  748MPD2    H211058   0.780   3.323   1.781 -0.5099 -0.8780 -0.5253
  748MPD2    H311059   1.002   3.286   1.853  0.6222 -0.2437 -0.7420
  748MPD2     N11060   1.044   2.913   1.578 -0.1044  0.7906 -0.0520
  748MPD2    H511061   0.987   2.862   1.511  0.3560 -0.4073  0.4659
  748MPD2    N111062   0.636   3.160   1.651 -0.1019 -0.5409  0.6756
  748MPD2    H711063   0.593   3.238   1.700 -1.9033 -1.5924  0.7463
  749TMC3    C111064   1.200   2.729   1.565 -0.5897  0.7643  0.1709
  749TMC3    C211065   1.301   2.666   1.631 -0.3493  0.0216 -0.7552
  749TMC3    C311066   1.372   2.573   1.560 -0.2837  0.0495  0.2465
  749TMC3    C411067   1.176   2.717   1.426  0.4119  0.0110  0.0569
  749TMC3    C511068   1.252   2.626   1.364 -0.6422 -0.5770  0.0127
  749TMC3    C611069   1.345   2.557   1.428  0.7195 -0.0278  0.3611
  749TMC3     C11070   1.165   2.863   1.623  0.3096  0.2566 -0.5814
  749TMC3     O11071   1.243   2.902   1.710 -0.0089 -0.8028 -0.0437
  749TMC3     H11072   1.325   2.700   1.731  1.8754 -0.4884 -1.1239
  749TMC3    H111073   1.108   2.790   1.385 -0.0244  0.7116  2.0285
  749TMC3    H211074   1.428   2.513   1.375  2.1310  0.2344  2.3430
  749TMC3    C711075   1.269   2.641   1.219 -0.5797  0.7840  0.1840
  749TMC3    C811076   1.474   2.501   1.631  0.1471 -0.0215 -0.1428
  749TMC3    O111077   1.216   2.731   1.160  0.2094  0.0819  0.0465
  749TMC3    O211078   1.488   2.528   1.751 -0.3070  0.1312 -0.1034
  750MPD2     C11079   1.544   4.304  11.801 -0.2643 -0.9106  0.7905
  750MPD2    C111080   1.410   4.268  11.826 -0.3504  0.0373  0.2362
  750MPD2    C211081   1.357   4.162  11.754  0.4492 -0.1463  0.5220
  750MPD2    C311082   1.432   4.084  11.666 -0.1605  1.2513  0.0515
  750MPD2    C411083   1.561   4.115  11.639 -0.1757 -0.2102 -0.6231
  750MPD2    C511084   1.612   4.232  11.697  0.5804 -0.1655  0.5751
  750MPD2     H11085   1.251   4.146  11.739  0.5804 -2.8462  2.5561
  750MPD2    H111086   1.622   4.056  11.572  1.1124 -1.4498  1.6448
  750MPD2    H211087   1.587   4.398  11.834  2.1812 -1.4547 -0.8623
  750MPD2    H311088   1.713   4.264  11.674 -0.4263  2.2128 -0.5010
  750MPD2     N11089   1.382   3.981  11.577 -0.9924 -0.7064  0.0207
  750MPD2    H511090   1.443   3.939  11.508  0.9014  0.7684  0.8112
  750MPD2    N111091   1.319   4.357  11.893  0.4894 -0.1464 -0.7065
  750MPD2    H711092   1.366   4.439  11.931 -0.2004  0.1358 -0.4605
  751TMC3    C111093   1.245   3.815  11.494  0.0646  0.2487 -0.0194
  751TMC3    C211094   1.197   3.695  11.528 -0.6522  0.0355 -0.7071
  751TMC3    C311095   1.173   3.608  11.419  0.0534  0.3374 -0.0821
  751TMC3    C411096   1.283   3.858  11.374 -0.1248  0.3649 -0.1950
  751TMC3    C511097   1.258   3.772  11.273 -0.5148 -0.0264  0.4385
  751TMC3    C611098   1.209   3.649  11.297 -0.6702  0.1485 -0.6215
  751TMC3     C11099   1.268   3.908  11.599 -0.1030  0.8802 -0.4130
  751TMC3     O11100   1.195   3.904  11.698 -0.5928  0.2938 -0.1119
  751TMC3     H11101   1.171   3.661  11.627 -1.8961  4.1277  0.3718
  751TMC3    H111102   1.312   3.960  11.352  1.8017 -0.0908  0.2341
  751TMC3    H211103   1.164   3.591  11.218  0.3560 -0.9061 -0.4330
  751TMC3    C711104   1.265   3.815  11.139  0.2134  0.4806  0.0748
  751TMC3    C811105   1.076   3.502  11.432  0.2763 -0.9418  0.0119
  751TMC3    O111106   1.233   3.934  11.120 -0.5397  0.0474  0.2154
  751TMC3    O211107   1.085   3.418  11.343 -0.2883  0.2625  1.2840
  752TMC3    C111108   4.243   3.371  17.560 -0.2994  0.8607 -0.4751
  752TMC3    C211109   4.325   3.291  17.643 -0.2024  0.5571  0.6151
  752TMC3    C311110   4.320   3.300   0.074  0.1949  0.5435  0.4989
  752TMC3    C411111   4.156   3.469  17.607  0.5498 -0.9833 -0.1399
  752TMC3    C511112   4.151   3.472   0.040  0.3527 -0.5182  0.0807
  752TMC3    C611113   4.226   3.387   0.122  0.0927 -0.4472  0.0894
  752TMC3     C11114   4.264   3.365  17.417  0.1980  0.3377  0.3260
  752TMC3     O11115   4.337   3.275  17.377  0.4737  0.3255 -0.0195
  752TMC3     H11116   4.381   3.214  17.592  1.4878  1.7044  0.7391
  752TMC3    H111117   4.083   3.529  17.553  3.6012  0.4096 -2.7606
  752TMC3    H211118   4.188   3.374   0.222  1.1078 -0.0933  0.5232
  752TMC3    C711119   4.062   3.563   0.102  0.0758  0.0401 -0.0788
  752TMC3    C811120   4.338   3.172   0.143 -0.3007  0.2487 -0.9887
  752TMC3    O111121   3.955   3.583   0.047 -0.3199 -0.0319  0.2189
  752TMC3    O211122   4.353   3.074   0.071 -0.6494  0.1675 -0.3048
  753TMC3    C111123   1.871   0.410  13.382 -0.5926 -0.1032  0.3640
  753TMC3    C211124   1.953   0.357  13.480 -0.6777 -0.3261 -0.3275
  753TMC3    C311125   1.989   0.226  13.472 -0.3166  0.4899  0.3670
  753TMC3    C411126   1.832   0.335  13.270  0.1203 -0.0763 -0.5195
  753TMC3    C511127   1.878   0.209  13.263 -1.0968  0.5208 -0.6342
  753TMC3    C611128   1.954   0.150  13.363  0.1564  0.3588 -0.1721
  753TMC3     C11129   1.832   0.545  13.386  0.3274  0.0419 -0.5880
  753TMC3     O11130   1.787   0.600  13.290  0.0671 -0.1581 -0.1860
  753TMC3     H11131   1.986   0.426  13.557  0.5195 -1.1823 -0.0731
  753TMC3    H111132   1.764   0.376  13.197  0.0979 -0.0974 -0.5107
  753TMC3    H211133   1.996   0.050  13.354 -3.4713 -1.1730  0.1629
  753TMC3    C711134   1.815   0.131  13.155 -0.3359 -0.1122 -0.1996
  753TMC3    C811135   2.078   0.169  13.573 -0.0209 -0.2682  0.0390
  753TMC3    O111136   1.789   0.188  13.049  0.2636  0.4707  0.2434
  753TMC3    O211137   2.127   0.060  13.548 -0.8790  0.2037 -0.0032
  754MPD2     C11138   0.832   3.487  13.644 -0.4609  0.3617 -0.0383
  754MPD2    C111139   0.801   3.384  13.558 -0.5572 -0.3213 -0.7774
  754MPD2    C211140   0.742   3.410  13.439 -0.0793  0.1119  0.3193
  754MPD2    C311141   0.705   3.540  13.403 -0.1039 -0.7955 -0.3103
  754MPD2    C411142   0.733   3.647  13.486 -0.6601  0.4022 -0.6657
  754MPD2    C511143   0.794   3.615  13.608 -0.0128  0.4663  0.0479
  754MPD2     H11144   0.745   3.331  13.365 -1.2281 -1.0054  1.4643
  754MPD2    H111145   0.692   3.746  13.470  2.3828  1.4237 -2.1372
  754MPD2    H211146   0.874   3.468  13.743  2.3885 -1.5996 -1.6196
  754MPD2    H311147   0.826   3.686  13.683  0.1184  2.3414 -1.7824
  754MPD2     N11148   0.634   3.578  13.291  0.6133  0.6229 -1.1148
  754MPD2    H511149   0.629   3.676  13.264  0.1019  0.8009 -0.3719
  754MPD2    N111150   0.824   3.254  13.601 -0.4654  0.2354 -0.3646
  754MPD2    H711151   0.898   3.239  13.670 -1.8712  1.8078  1.4683
  755MPD2     C11152   0.175   4.294  13.235 -0.5245  0.7686 -1.1148
  755MPD2    C111153   0.090   4.196  13.274  0.1998 -0.1474  0.9183
  755MPD2    C211154   0.138   4.067  13.242  0.3213  0.5536  0.3814
  755MPD2    C311155   0.268   4.039  13.198  0.7042 -0.1642  0.2222
  755MPD2    C411156   0.352   4.144  13.187  0.8628  0.9887 -0.1209
  755MPD2    C511157   0.305   4.274  13.198 -0.3819  0.0754  0.0311
  755MPD2     H11158   0.069   3.985  13.255 -1.4894  1.8639 -0.9495
  755MPD2    H111159   0.457   4.133  13.159  0.7618  0.0087 -0.0998
  755MPD2    H211160   0.151   4.399  13.250 -1.8377  0.0178  1.9817
  755MPD2    H311161   0.382   4.351  13.197 -1.8852  1.5675  0.7390
  755MPD2     N11162   0.313   3.914  13.161 -0.1478  0.3430  0.0614
  755MPD2    H511163   0.410   3.898  13.136 -0.6119 -0.1645 -1.4536
  755MPD2    N111164   4.692   4.221  13.335  0.2868  1.2521  0.0887
  755MPD2    H711165   4.643   4.135  13.357  2.7767 -0.2307 -0.1970
  756MPD2     C11166   1.228   4.615   9.779  0.2957  1.0222 -0.0968
  756MPD2    C111167   1.316   4.622   9.884 -1.0265 -0.2769  0.8008
  756MPD2    C211168   1.445   4.568   9.872  0.1065  0.3034  0.1762
  756MPD2    C311169   1.471   4.480   9.770  0.7789 -0.0384  1.2851
  756MPD2    C411170   1.380   4.458   9.670  0.1098 -0.1557  0.4572
  756MPD2    C511171   1.261   4.535   9.671  0.5163 -0.0774  0.3619
  756MPD2     H11172   1.509   4.573   9.959  0.1057  0.7726  0.1490
  756MPD2    H111173   1.399   4.394   9.584 -1.9120 -1.3837  0.9124
  756MPD2    H211174   1.132   4.664   9.780 -0.1181  0.1867  3.8436
  756MPD2    H311175   1.193   4.525   9.588  0.9116 -0.5633  0.0953
  756MPD2     N11176   1.595   4.409   9.759  0.0823 -0.0527 -0.4880
  756MPD2    H511177   1.603   4.348   9.678 -1.7139  0.6937 -1.2352
  756MPD2    N111178   1.283   4.691  10.002 -0.7931  0.0288  1.0342
  756MPD2    H711179   1.357   4.716  10.067  0.9226  1.6468 -1.5562
  757MPD2     C11180   1.565   3.589   9.772  0.7492  0.3646 -0.2548
  757MPD2    C111181   1.498   3.705   9.793  0.3527  0.0472 -0.3159
  757MPD2    C211182   1.570   3.822   9.787 -0.1085 -0.4834  0.7728
  757MPD2    C311183   1.699   3.831   9.749 -0.3218  0.3911  0.3194
  757MPD2    C411184   1.767   3.713   9.724  0.0992  0.6792  0.0160
  757MPD2    C511185   1.701   3.589   9.728  0.2500  0.2110 -0.7510
  757MPD2     H11186   1.529   3.916   9.823 -1.5355 -0.4475 -0.9948
  757MPD2    H111187   1.872   3.698   9.700  0.5412 -0.8613  2.8589
  757MPD2    H211188   1.515   3.493   9.765 -2.4568  2.0235  0.0864
  757MPD2    H311189   1.754   3.497   9.704  2.7219  1.4576  0.0308
  757MPD2     N11190   1.750   3.960   9.746 -0.3985  0.2708  0.6071
  757MPD2    H511191   1.683   4.032   9.768 -2.7790 -1.5603 -0.6425
  757MPD2    N111192   1.358   3.698   9.820  0.2797 -0.3908 -0.2540
  757MPD2    H711193   1.328   3.608   9.858  0.5017  0.0362  0.9255
  758MPD2     C11194   0.315   3.267  16.027 -0.4861 -0.5223 -0.6042
  758MPD2    C111195   0.376   3.228  16.140  0.3041  0.1642  0.2657
  758MPD2    C211196   0.357   3.301  16.256  0.0351  0.1603 -0.0307
  758MPD2    C311197   0.293   3.426  16.258 -0.4722  0.3098  0.4331
  758MPD2    C411198   0.222   3.464  16.144  0.4387 -0.1427 -0.0789
  758MPD2    C511199   0.245   3.388  16.030  0.5087 -0.1363  0.2921
  758MPD2     H11200   0.422   3.262  16.333  0.9198  0.9702 -0.3695
  758MPD2    H111201   0.174   3.559  16.126 -2.9073 -1.1367  3.5132
  758MPD2    H211202   0.330   3.212  15.934 -1.8299 -0.8179 -0.6411
  758MPD2    H311203   0.201   3.419  15.936 -0.2911  1.4320  1.2020
  758MPD2     N11204   0.294   3.518  16.363  0.6957 -0.2215  0.6129
  758MPD2    H511205   0.231   3.598  16.362 -0.8896 -1.4829  0.0589
  758MPD2    N111206   0.468   3.118  16.137 -0.0653  0.3159  0.3362
  758MPD2    H711207   0.505   3.087  16.048  0.4971  0.1481  0.6251
  759MPD2     C11208   0.645   1.446  10.078 -0.4588 -0.4416 -0.7543
  759MPD2    C111209   0.661   1.340   9.996 -0.3653 -0.2099  0.2267
  759MPD2    C211210   0.755   1.344   9.897 -0.1473 -0.3236  0.1166
  759MPD2    C311211   0.825   1.455   9.878 -0.5599  0.2545 -0.7725
  759MPD2    C411212   0.817   1.564   9.959 -0.0233 -0.2807 -0.2803
  759MPD2    C511213   0.715   1.559  10.057 -0.0911  0.0189 -0.8090
  759MPD2     H11214   0.753   1.263   9.825  0.4231 -1.8075  1.7662
  759MPD2    H111215   0.865   1.660   9.947  0.8703 -0.1742  4.1848
  759MPD2    H211216   0.572   1.461  10.157  0.0288 -0.2141 -0.3493
  759MPD2    H311217   0.696   1.646  10.119  1.5510 -0.4439  0.3262
  759MPD2     N11218   0.904   1.472   9.762 -0.6008 -0.8388  0.1916
  759MPD2    H511219   0.904   1.404   9.686  0.0092 -0.3749 -0.2219
  759MPD2    N111220   0.577   1.230  10.005 -0.8896 -0.6032 -0.4598
  759MPD2    H711221   0.592   1.156   9.938  1.0543 -0.4757 -0.1549
  760MPD2     C11222   4.242   4.280  11.985 -0.0462  0.5956  0.5627
  760MPD2    C111223   4.375   4.274  11.990  1.0037 -0.1593  0.0358
  760MPD2    C211224   4.440   4.156  12.019  0.1687 -0.4477 -0.7761
  760MPD2    C311225   4.371   4.041  12.053 -0.0089  0.4010 -0.0012
  760MPD2    C411226   4.236   4.048  12.052 -0.3079 -0.0218 -0.2439
  760MPD2    C511227   4.170   4.168  12.016 -0.2684  0.3145 -0.1100
  760MPD2     H11228   4.548   4.154  12.014  0.1486 -1.2796 -0.9735
  760MPD2    H111229   4.188   3.954  12.076 -0.0073  0.3481  1.8312
  760MPD2    H211230   4.200   4.372  11.944 -0.4963  0.8922  1.6945
  760MPD2    H311231   4.062   4.172  12.005 -0.0321  1.3481 -2.1649
  760MPD2     N11232   4.438   3.913  12.075  0.1054  0.3314 -0.2589
  760MPD2    H511233   4.389   3.832  12.110  0.5401  0.2362  0.1369
  760MPD2    N111234   4.458   4.384  11.968  0.6976 -0.3941  0.2316
  760MPD2    H711235   4.558   4.377  11.984  0.3836 -0.7958  1.9928
  761MPD2     C11236   0.669   3.275  11.625 -0.7157  0.7309  0.1127
  761MPD2    C111237   0.741   3.251  11.513  0.5811  0.0823  0.6277
  761MPD2    C211238   0.842   3.341  11.489  0.6139  0.3501  0.0212
  761MPD2    C311239   0.881   3.443  11.567  0.1148  0.8845 -0.7348
  761MPD2    C411240   0.809   3.467  11.676  0.0057  0.3542  0.0216
  761MPD2    C511241   0.702   3.383  11.704  0.0062 -0.6890 -0.4756
  761MPD2     H11242   0.907   3.307  11.409  1.5369 -4.6438  2.9053
  761MPD2    H111243   0.831   3.547  11.744 -0.5616  0.9370 -0.4770
  761MPD2    H211244   0.600   3.200  11.661  0.2027 -1.2824 -2.3530
  761MPD2    H311245   0.651   3.398  11.799  2.0789 -0.0626  0.5449
  761MPD2     N11246   0.985   3.525  11.540  0.3526 -0.0316 -0.3591
  761MPD2    H511247   0.994   3.604  11.603 -0.4728  0.0486 -0.3404
  761MPD2    N111248   0.712   3.136  11.430 -0.2720 -0.3812  0.3228
  761MPD2    H711249   0.634   3.074  11.452 -0.0119 -1.2195 -1.1002
  762MPD2     C11250   0.657   2.832  10.605 -0.1502  0.8057 -0.3264
  762MPD2    C111251   0.759   2.798  10.694 -0.0864  0.3815 -0.0950
  762MPD2    C211252   0.887   2.775  10.646 -0.9625 -0.0973 -0.2763
  762MPD2    C311253   0.914   2.787  10.511 -0.3077 -0.1849 -0.5868
  762MPD2    C411254   0.808   2.819  10.424 -0.4063  0.1723 -0.5134
  762MPD2    C511255   0.680   2.838  10.471 -0.3611 -0.0392  0.2591
  762MPD2     H11256   0.968   2.748  10.713 -1.1853  0.1438  0.0936
  762MPD2    H111257   0.819   2.816  10.316 -2.4534  2.5477 -0.7920
  762MPD2    H211258   0.555   2.854  10.636 -1.0163 -0.9078 -1.9835
  762MPD2    H311259   0.599   2.862  10.403  0.6055 -1.4161 -1.3533
  762MPD2     N11260   1.039   2.748  10.464  0.3731 -0.5757  0.2776
  762MPD2    H511261   1.099   2.698  10.528  1.3004 -3.3566 -2.7610
  762MPD2    N111262   0.716   2.809  10.825  0.3143  0.1249 -0.2428
  762MPD2    H711263   0.615   2.816  10.836  0.1806 -1.3139 -0.6604
  763MPD2     C11264   2.605   3.049  15.927  0.0657 -0.0716 -0.6077
  763MPD2    C111265   2.497   3.131  15.924 -0.6496  0.2525  0.5080
  763MPD2    C211266   2.471   3.224  16.026  0.2325  1.2601  0.3483
  763MPD2    C311267   2.561   3.229  16.134  0.5014 -0.1393 -0.3974
  763MPD2    C411268   2.656   3.133  16.135 -0.2660 -0.3925 -0.6594
  763MPD2    C511269   2.686   3.048  16.026 -0.1773 -0.1077 -0.5617
  763MPD2     H11270   2.394   3.300  16.019  0.2151  1.2890  0.8395
  763MPD2    H111271   2.735   3.135  16.209 -0.2368  1.8963 -0.7569
  763MPD2    H211272   2.623   2.986  15.841  2.7304  0.2692 -0.2890
  763MPD2    H311273   2.784   3.006  16.012 -0.1835 -0.8481  1.5476
  763MPD2     N11274   2.562   3.324  16.248  0.0842 -0.6048  0.0537
  763MPD2    H511275   2.627   3.302  16.323  1.8693  2.2761 -0.6717
  763MPD2    N111276   2.407   3.134  15.812 -0.1439 -0.1367  0.1532
  763MPD2    H711277   2.351   3.218  15.800 -1.6731 -1.4685 -1.9563
  764MPD2     C11278   0.916   0.445   0.012  0.1864  0.7637  0.0225
  764MPD2    C111279   0.873   0.381  17.604  0.1491 -0.1871  0.1438
  764MPD2    C211280   0.812   0.254  17.622 -0.7815  0.0060 -0.4146
  764MPD2    C311281   0.800   0.200   0.040 -1.0086  0.4336  0.1051
  764MPD2    C411282   0.838   0.272   0.153  0.9706  0.0992  0.7609
  764MPD2    C511283   0.887   0.395   0.134  0.0945  0.7319  0.0808
  764MPD2     H11284   0.780   0.192  17.538  2.3183 -0.9295 -0.9165
  764MPD2    H111285   0.816   0.253   0.257 -0.1907 -0.3492  0.4338
  764MPD2    H211286   0.962   0.543   0.007  0.5933  0.6294  1.2722
  764MPD2    H311287   0.926   0.453   0.217  0.8531  1.4685 -0.7827
  764MPD2     N11288   0.752   0.064   0.041  0.3880 -0.6595  0.6124
  764MPD2    H511289   0.743   0.025  17.652  1.4134  0.2596  0.1209
  764MPD2    N111290   0.880   0.419  17.469 -0.3467  0.1264  0.6516
  764MPD2    H711291   0.865   0.350  17.397  0.8331  1.0235 -0.4460
  765MPD2     C11292   4.709   2.397  16.036 -0.4741  0.3315 -0.2644
  765MPD2    C111293   0.063   2.493  15.983 -0.3186 -0.3582 -0.2436
  765MPD2    C211294   0.188   2.456  15.940 -0.1666 -0.0366 -0.1139
  765MPD2    C311295   0.231   2.330  15.960  1.0764 -0.9319 -0.3872
  765MPD2    C411296   0.151   2.233  16.025 -0.5854 -0.1979  0.1792
  765MPD2    C511297   0.023   2.265  16.063 -0.4173 -0.4371 -0.1029
  765MPD2     H11298   0.251   2.525  15.885  0.0241  0.6578  0.9711
  765MPD2    H111299   0.192   2.137  16.053  0.6733  0.5117  0.7345
  765MPD2    H211300   4.604   2.413  16.059  0.2081  2.2344  1.4338
  765MPD2    H311301   4.679   2.200  16.114  0.7396 -1.5228  0.0997
  765MPD2     N11302   0.356   2.296  15.911  0.5657 -0.2918  0.1116
  765MPD2    H511303   0.407   2.367  15.860  0.1739  1.6464  2.4388
  765MPD2    N111304   0.006   2.621  15.954 -0.3508  0.0591  0.0891
  765MPD2    H711305   4.635   2.635  15.979 -1.0200 -1.0908 -1.8016
  766MPD2     C11306   4.239   2.914  15.447  0.4862  0.1232  0.6729
  766MPD2    C111307   4.374   2.917  15.442  0.4704  0.8274 -0.1449
  766MPD2    C211308   4.442   2.922  15.324 -0.6247  0.0095 -0.1670
  766MPD2    C311309   4.374   2.920  15.210  0.2874 -0.2730  0.5800
  766MPD2    C411310   4.237   2.905  15.211 -0.1064 -0.1383 -0.0448
  766MPD2    C511311   4.164   2.903  15.331 -0.2077  0.4860 -0.4582
  766MPD2     H11312   4.550   2.921  15.337 -0.4567  0.0281 -1.6363
  766MPD2    H111313   4.189   2.901  15.115 -2.3810 -0.7707  1.1309
  766MPD2    H211314   4.177   2.914  15.536  0.5313 -0.0041  0.7039
  766MPD2    H311315   4.056   2.896  15.329 -0.0390 -2.0450  0.3360
  766MPD2     N11316   4.439   2.904  15.087 -0.0967  0.8075 -0.2515
  766MPD2    H511317   4.382   2.880  15.006  0.1647 -0.8633  0.0737
  766MPD2    N111318   4.451   2.931  15.561 -0.2447 -0.7737 -0.0159
  766MPD2    H711319   4.548   2.958  15.547 -0.2235 -1.1728 -0.6347
  767MPD2     C11320   4.277   3.269  15.102 -0.2038  0.0736  0.7910
  767MPD2    C111321   4.382   3.266  15.012 -0.2358  0.2887  0.5740
  767MPD2    C211322   4.367   3.208  14.889  0.0649  0.1335  0.6237
  767MPD2    C311323   4.244   3.154  14.850  0.0253 -0.5174  0.7903
  767MPD2    C411324   4.135   3.163  14.933  0.0220 -0.5715 -0.3670
  767MPD2    C511325   4.154   3.222  15.056  0.6488  0.5697 -0.5029
  767MPD2     H11326   4.444   3.191  14.814 -2.9386 -0.1992 -2.3859
  767MPD2    H111327   4.034   3.127  14.917  0.1475 -0.7679 -0.7032
  767MPD2    H211328   4.275   3.318  15.198  0.0507  1.0436  0.2958
  767MPD2    H311329   4.068   3.247  15.117  0.9576  0.4950 -0.0321
  767MPD2     N11330   4.236   3.090  14.728  0.2945 -0.3284 -0.4472
  767MPD2    H511331   4.322   3.057  14.686 -0.1207 -1.2307 -0.6020
  767MPD2    N111332   4.506   3.328  15.053  0.0183  0.1238  0.6823
  767MPD2    H711333   4.525   3.355  15.149 -0.8573 -0.9617  1.1670
  768MPD2     C11334   1.080   1.532  11.177  0.5135  0.2542 -0.7840
  768MPD2    C111335   1.000   1.529  11.288 -0.1711 -0.0868 -0.1718
  768MPD2    C211336   1.049   1.578  11.408 -0.7019 -0.5261  0.3583
  768MPD2    C311337   1.166   1.641  11.420 -0.1800  0.3140  0.0475
  768MPD2    C411338   1.249   1.646  11.305 -0.4987 -0.4249 -0.1833
  768MPD2    C511339   1.207   1.587  11.189 -0.5945 -0.0114 -0.6013
  768MPD2     H11340   0.985   1.569  11.495 -1.4928 -0.0131 -0.1723
  768MPD2    H111341   1.350   1.684  11.308 -1.2191  1.5346 -0.9192
  768MPD2    H211342   1.047   1.482  11.087 -2.5851 -0.5846  0.8136
  768MPD2    H311343   1.276   1.588  11.106  1.1880  1.4786  0.9118
  768MPD2     N11344   1.213   1.707  11.535 -0.2953 -0.2536  0.1202
  768MPD2    H511345   1.311   1.734  11.532  0.1372 -1.9250 -0.8380
  768MPD2    N111346   0.877   1.468  11.292  0.4060 -0.2871 -0.0582
  768MPD2    H711347   0.844   1.464  11.388  3.0377 -0.9350  0.8051
  769MPD2     C11348   1.716   4.280  14.608 -0.9815 -0.6767 -0.7230
  769MPD2    C111349   1.654   4.174  14.673  0.0279 -0.0782 -0.1127
  769MPD2    C211350   1.695   4.145  14.804 -0.2565 -0.9278 -0.4741
  769MPD2    C311351   1.797   4.222  14.869 -0.1673 -0.1054  0.6100
  769MPD2    C411352   1.849   4.329  14.801  1.0333  0.6051 -0.1470
  769MPD2    C511353   1.805   4.360  14.670 -0.0320  0.5873 -0.0330
  769MPD2     H11354   1.663   4.060  14.864 -1.8620 -1.7922 -2.5724
  769MPD2    H111355   1.913   4.404  14.846  3.3926 -0.6534 -1.4458
  769MPD2    H211356   1.691   4.296  14.504 -1.7904 -2.2729 -0.7816
  769MPD2    H311357   1.837   4.443  14.608 -2.2561  1.3021 -0.2251
  769MPD2     N11358   1.814   4.204  15.003  0.7077 -0.0946  0.3722
  769MPD2    H511359   1.755   4.130  15.041 -2.4712  1.9954 -0.5299
  769MPD2    N111360   1.555   4.098  14.604 -0.0940  0.3832  0.2890
  769MPD2    H711361   1.543   4.120  14.506  0.3019  1.5202  0.4980
  770MPD2     C11362   1.264   3.140  14.721  0.4455 -0.2959 -0.6894
  770MPD2    C111363   1.242   3.230  14.820  0.0374 -0.3453  0.3730
  770MPD2    C211364   1.250   3.365  14.785  0.2411 -0.2996  0.4047
  770MPD2    C311365   1.275   3.406  14.653 -0.4575  0.1945  0.0094
  770MPD2    C411366   1.304   3.311  14.555  0.3425 -0.5002 -0.4473
  770MPD2    C511367   1.297   3.176  14.593  0.2992  0.3731 -0.0797
  770MPD2     H11368   1.233   3.440  14.861  1.9884 -0.7021  1.1706
  770MPD2    H111369   1.333   3.328  14.452  2.0853 -0.0706  0.1212
  770MPD2    H211370   1.265   3.033  14.739  2.1404 -0.2234 -0.3787
  770MPD2    H311371   1.324   3.101  14.520 -0.9421 -1.4928  1.3885
  770MPD2     N11372   1.275   3.542  14.611  0.5906 -0.3445  0.0076
  770MPD2    H511373   1.261   3.612  14.683  1.9888  2.4257 -2.4062
  770MPD2    N111374   1.211   3.177  14.940 -0.0910 -0.2269  0.1482
  770MPD2    H711375   1.195   3.077  14.940 -0.4521 -0.1640  0.6370
  771MPD2     C11376   1.997   2.105  13.738 -0.9816 -0.2023 -0.1570
  771MPD2    C111377   2.002   2.242  13.714 -0.0622  0.4743 -1.0495
  771MPD2    C211378   1.931   2.300  13.607 -0.0801  0.0526 -0.3848
  771MPD2    C311379   1.849   2.220  13.527  0.2546  0.9368 -0.9973
  771MPD2    C411380   1.836   2.090  13.569  0.1939 -0.0917 -0.5683
  771MPD2    C511381   1.913   2.028  13.663 -0.1040 -0.0179 -0.2542
  771MPD2     H11382   1.937   2.407  13.593 -2.2600  0.3263  0.7428
  771MPD2    H111383   1.774   2.019  13.516  1.9424 -2.0782  0.0261
  771MPD2    H211384   2.047   2.051  13.817 -1.8924 -0.9251 -0.0687
  771MPD2    H311385   1.901   1.920  13.669 -0.6225  0.0656  0.2703
  771MPD2     N11386   1.790   2.274  13.412  0.0912  0.4956 -0.7805
  771MPD2    H511387   1.827   2.366  13.389  0.7389  0.2433 -0.7186
  771MPD2    N111388   2.101   2.319  13.788  0.5378 -0.4328  1.0523
  771MPD2    H711389   2.095   2.416  13.762  1.0870 -1.2305 -2.0039
  772MPD2     C11390   2.061   2.863  14.238  0.5348 -0.0877 -0.4554
  772MPD2    C111391   2.030   2.806  14.120  0.2971 -0.0055  0.4125
  772MPD2    C211392   1.902   2.824  14.074 -0.5232 -0.3478  0.1553
  772MPD2    C311393   1.798   2.879  14.150 -0.6314 -0.1815  0.1862
  772MPD2    C411394   1.836   2.933  14.276  0.5523 -0.1918  0.0752
  772MPD2    C511395   1.965   2.930  14.319  0.6595  0.4066 -0.5411
  772MPD2     H11396   1.886   2.766  13.984 -0.6443  0.8323 -0.5881
  772MPD2    H111397   1.754   2.970  14.336 -1.0012 -1.1995 -1.4341
  772MPD2    H211398   2.165   2.863  14.266  0.5120 -0.6557 -0.3726
  772MPD2    H311399   1.997   2.984  14.407  2.6388  0.8913 -1.5668
  772MPD2     N11400   1.659   2.865  14.122  0.3266  0.1562  0.0792
  772MPD2    H511401   1.596   2.904  14.191  1.0679  1.1805  0.1698
  772MPD2    N111402   2.121   2.729  14.040 -0.7992  0.2913 -0.2117
  772MPD2    H711403   2.074   2.687  13.960  0.1665 -1.4254  0.1397
  773MPD2     C11404   1.896   3.864  17.475 -0.2151 -0.3006 -0.2625
  773MPD2    C111405   1.784   3.795  17.530 -0.0344 -0.2056  0.7594
  773MPD2    C211406   1.818   3.687  17.612 -0.4239 -0.5819  0.1487
  773MPD2    C311407   1.943   3.647  17.644  0.3612  0.0608 -0.1616
  773MPD2    C411408   2.046   3.715  17.584 -0.2687  0.8720  0.1013
  773MPD2    C511409   2.022   3.827  17.508 -0.9159 -0.5604 -0.2553
  773MPD2     H11410   1.739   3.626  17.654  0.8372 -1.3424  1.4156
  773MPD2    H111411   2.147   3.676  17.583 -0.2222  0.9704  0.8602
  773MPD2    H211412   1.873   3.951  17.413 -1.4859  1.5118  2.7635
  773MPD2    H311413   2.110   3.878  17.472 -0.2884 -1.4497  0.0272
  773MPD2     N11414   1.962   3.528   0.013  0.4987  0.4118 -0.1217
  773MPD2    H511415   1.883   3.473   0.044  2.0520 -1.2783  0.8528
  773MPD2    N111416   1.646   3.817  17.492  0.1564  0.3631  0.1755
  773MPD2    H711417   1.581   3.750  17.533 -1.0766  0.9746 -0.7574
  774MPD2     C11418   0.528   2.410  13.121 -0.8296  0.1385  0.2290
  774MPD2    C111419   0.445   2.430  13.228  0.0619 -0.7838  0.3478
  774MPD2    C211420   0.418   2.558  13.270 -0.2716 -0.4203 -0.0347
  774MPD2    C311421   0.474   2.664  13.204  0.0144  0.8129  0.3528
  774MPD2    C411422   0.553   2.646  13.090 -0.5514 -0.2355 -0.6769
  774MPD2    C511423   0.574   2.514  13.050 -0.1621  0.8833 -0.7858
  774MPD2     H11424   0.357   2.573  13.358 -1.0876  1.2240 -0.8909
  774MPD2    H111425   0.590   2.729  13.031  0.2591 -1.0240 -1.2770
  774MPD2    H211426   0.548   2.312  13.079 -1.0790  0.0119  0.4044
  774MPD2    H311427   0.626   2.496  12.957 -1.8082 -1.2972 -1.2809
  774MPD2     N11428   0.462   2.789  13.269 -0.4673 -0.9960 -0.4345
  774MPD2    H511429   0.425   2.797  13.364 -3.5230 -2.1055 -1.5213
  774MPD2    N111430   0.372   2.314  13.283 -0.7102 -0.8607  1.0820
  774MPD2    H711431   0.386   2.228  13.230  2.2080  0.7283 -0.7400
  775MPD2     C11432   1.942   3.995  15.804  0.2896 -0.1782 -0.1256
  775MPD2    C111433   1.910   4.125  15.843  0.0219  0.3337  0.2955
  775MPD2    C211434   1.998   4.221  15.806 -0.5162 -0.6582 -0.0252
  775MPD2    C311435   2.122   4.193  15.747 -0.3526 -0.7432 -0.5194
  775MPD2    C411436   2.151   4.064  15.714 -0.0413  0.3322  0.8538
  775MPD2    C511437   2.059   3.970  15.738  0.1710  0.2959 -0.6159
  775MPD2     H11438   1.982   4.327  15.816  0.7728 -0.4015 -0.6705
  775MPD2    H111439   2.242   4.041  15.660  0.0266 -0.1463  1.1740
  775MPD2    H211440   1.882   3.905  15.815 -1.3897  0.8774 -0.6040
  775MPD2    H311441   2.078   3.867  15.712  0.8722  0.0328  0.9973
  775MPD2     N11442   2.217   4.294  15.713  0.5968 -0.3150  0.0733
  775MPD2    H511443   2.292   4.279  15.646  0.4565 -0.3811 -0.0674
  775MPD2    N111444   1.780   4.162  15.892  0.4946  0.0835  0.3678
  775MPD2    H711445   1.712   4.089  15.910  2.7271 -2.5912 -1.9720
  776MPD2     C11446   0.916   0.302  11.575 -0.2447  0.5163 -0.8669
  776MPD2    C111447   1.029   0.246  11.643 -1.2414  0.2215  0.3187
  776MPD2    C211448   1.148   0.317  11.623 -0.1232  0.3133  0.1648
  776MPD2    C311449   1.154   0.442  11.564  0.4953 -0.2172  0.0151
  776MPD2    C411450   1.047   0.489  11.487  0.3668 -0.0304 -0.1390
  776MPD2    C511451   0.926   0.413  11.494 -0.6305  0.2613  0.0857
  776MPD2     H11452   1.231   0.276  11.679 -1.4165  1.1540  2.6906
  776MPD2    H111453   1.048   0.574  11.420 -0.0829  0.1157  0.0410
  776MPD2    H211454   0.820   0.258  11.602 -0.1440  0.0044 -1.3612
  776MPD2    H311455   0.837   0.452  11.446  0.0972 -0.7132 -2.0528
  776MPD2     N11456   1.274   0.517  11.552  0.1370 -0.6422 -0.0667
  776MPD2    H511457   1.267   0.604  11.501  0.1269  0.3208  1.5708
  776MPD2    N111458   1.018   0.125  11.718 -0.4930 -0.2427  0.2683
  776MPD2    H711459   0.923   0.089  11.720 -0.5037 -0.0747  2.7371
  777MPD2     C11460   1.849   2.026   0.663 -0.5535  0.0417 -0.7674
  777MPD2    C111461   1.881   1.920   0.742  0.5212 -0.8556  0.4850
  777MPD2    C211462   1.854   1.797   0.695  0.8603  0.1268  0.0380
  777MPD2    C311463   1.789   1.779   0.570 -0.3021 -0.0539  0.8897
  777MPD2    C411464   1.751   1.886   0.498 -0.3460 -0.2446 -0.4914
  777MPD2    C511465   1.781   2.014   0.547  0.7587 -0.0157 -0.6652
  777MPD2     H11466   1.874   1.713   0.761 -1.3758 -1.3188 -1.1184
  777MPD2    H111467   1.710   1.880   0.398 -1.2903  2.0507 -0.2460
  777MPD2    H211468   1.879   2.126   0.691 -2.8152  0.2384  0.9053
  777MPD2    H311469   1.757   2.102   0.488 -0.6465  0.4718  0.6502
  777MPD2     N11470   1.750   1.644   0.533  0.1808  0.1527  0.0139
  777MPD2    H511471   1.768   1.571   0.602 -0.2047  1.6241  1.6514
  777MPD2    N111472   1.946   1.944   0.864  0.6816  0.1744 -0.1246
  777MPD2    H711473   1.947   2.042   0.892 -1.5746  0.1362  0.0635
  778MPD2     C11474   2.230   2.176  14.905  0.8245 -0.7068 -0.3820
  778MPD2    C111475   2.217   2.081  14.800  0.0717 -0.2226  0.5683
  778MPD2    C211476   2.288   2.110  14.679  0.7530  0.1012 -0.3040
  778MPD2    C311477   2.372   2.228  14.669 -0.3749 -0.0519  0.3844
  778MPD2    C411478   2.380   2.311  14.780  0.3848  0.1899 -0.3498
  778MPD2    C511479   2.307   2.287  14.892 -0.1909 -0.1164 -0.0149
  778MPD2     H11480   2.282   2.035  14.602 -0.3373  0.9696 -1.0653
  778MPD2    H111481   2.439   2.402  14.781  0.7758 -0.0515 -0.9421
  778MPD2    H211482   2.172   2.166  14.996  0.7642  3.1889  0.0017
  778MPD2    H311483   2.308   2.354  14.977 -1.1055  0.2328 -0.2832
  778MPD2     N11484   2.447   2.251  14.554 -0.4052  0.5742 -0.2986
  778MPD2    H511485   2.444   2.190  14.473 -0.5095 -1.5013  1.2701
  778MPD2    N111486   2.142   1.964  14.807  0.3600  0.0249  0.6143
  778MPD2    H711487   2.133   1.903  14.727  0.0547  0.0041  0.6641
  779MPD2     C11488   1.844   1.048  14.126 -0.2114  0.3118 -0.2547
  779MPD2    C111489   1.944   1.082  14.216 -0.6847 -0.1497  0.2836
  779MPD2    C211490   1.977   1.215  14.232  0.0415 -0.1250 -0.1487
  779MPD2    C311491   1.901   1.309  14.169 -0.0261 -0.3705  1.0078
  779MPD2    C411492   1.812   1.275  14.073  0.0154 -0.2092  0.1976
  779MPD2    C511493   1.788   1.144  14.056 -0.7785 -0.2802 -0.0340
  779MPD2     H11494   2.052   1.249  14.302  0.2302 -2.1827  0.6513
  779MPD2    H111495   1.748   1.350  14.028  1.3697  2.5134  2.8010
  779MPD2    H211496   1.826   0.944  14.102 -1.6431  0.2292  1.1375
  779MPD2    H311497   1.731   1.103  13.974 -2.3773  2.8005 -0.4484
  779MPD2     N11498   1.920   1.448  14.197 -0.2337 -0.4700 -0.0385
  779MPD2    H511499   1.992   1.472  14.265 -1.2749  0.6961  0.6503
  779MPD2    N111500   2.035   0.992  14.276 -0.7498  0.2052 -0.3699
  779MPD2    H711501   2.116   1.032  14.323 -1.2360  0.3679  0.3312
  780MPD2     C11502   1.192   0.708   0.915  0.7028 -1.0334 -0.0134
  780MPD2    C111503   1.225   0.628   0.811  0.1626 -0.2069  0.0005
  780MPD2    C211504   1.319   0.671   0.719 -0.2881  0.4445 -0.2562
  780MPD2    C311505   1.388   0.790   0.734 -0.4626  0.3219  0.1622
  780MPD2    C411506   1.350   0.871   0.836 -0.6136 -0.2482  0.2431
  780MPD2    C511507   1.250   0.834   0.921 -0.9126 -0.3290  0.2399
  780MPD2     H11508   1.355   0.605   0.640 -1.7274 -0.1909 -0.3784
  780MPD2    H111509   1.406   0.963   0.850 -1.9572  0.2909  2.0137
  780MPD2    H211510   1.114   0.670   0.980 -0.9787  0.9608 -0.8721
  780MPD2    H311511   1.225   0.907   0.998 -2.0098 -1.8881  1.3484
  780MPD2     N11512   1.480   0.826   0.634 -0.0047 -0.6815  0.9962
  780MPD2    H511513   1.483   0.759   0.557  0.5820  0.3919  0.0856
  780MPD2    N111514   1.151   0.503   0.806 -0.1640 -0.0362 -0.7221
  780MPD2    H711515   1.088   0.482   0.883 -0.6108 -1.1600 -1.3901
  781MPD2     C11516   3.594   3.093  11.631  0.2435  0.0796 -0.6626
  781MPD2    C111517   3.457   3.092  11.681 -0.0108  0.7470 -0.8359
  781MPD2    C211518   3.351   3.077  11.592 -0.1172 -0.5035  0.1995
  781MPD2    C311519   3.370   3.060  11.452  0.1979  0.2463 -0.5411
  781MPD2    C411520   3.505   3.063  11.409  0.2009  0.4047 -0.5553
  781MPD2    C511521   3.611   3.087  11.495  0.2375  0.0983  0.0221
  781MPD2     H11522   3.250   3.075  11.632 -0.0345 -0.3221  0.4160
  781MPD2    H111523   3.527   3.044  11.304 -1.0042  0.8094 -0.8779
  781MPD2    H211524   3.681   3.113  11.691  0.0067 -2.0769  0.4312
  781MPD2    H311525   3.713   3.084  11.457 -0.0982 -2.6724 -0.6738
  781MPD2     N11526   3.278   3.032  11.350 -0.2403  0.3803  0.3065
  781MPD2    H511527   3.305   3.025  11.252  0.9436  0.2193  0.6359
  781MPD2    N111528   3.439   3.096  11.823  0.3221  0.0997  0.4244
  781MPD2    H711529   3.345   3.105  11.861 -0.8983 -0.8253 -2.3978
  782MPD2     C11530   1.375   4.487  10.994 -0.0909  0.3581 -0.1142
  782MPD2    C111531   1.488   4.481  10.923  0.5041  0.1239 -0.0438
  782MPD2    C211532   1.608   4.519  10.975  0.1513  0.7432 -0.4241
  782MPD2    C311533   1.607   4.566  11.106 -0.0513  0.0778  0.6617
  782MPD2    C411534   1.493   4.562  11.185 -0.0577 -0.8620 -0.4521
  782MPD2    C511535   1.374   4.519  11.127  0.0188  0.6006  0.4076
  782MPD2     H11536   1.696   4.519  10.913 -0.4439 -0.6711 -1.2753
  782MPD2    H111537   1.497   4.588  11.290 -1.0863 -2.8533  0.0890
  782MPD2    H211538   1.278   4.461  10.954  1.0680  0.8151 -3.2444
  782MPD2    H311539   1.287   4.514  11.192 -0.4885  1.1195 -0.2438
  782MPD2     N11540   1.726   4.594  11.181 -0.1759 -0.1477  0.0682
  782MPD2    H511541   1.722   4.611  11.281 -0.6090 -0.4551  0.1047
  782MPD2    N111542   1.489   4.437  10.791 -0.0084 -0.1718 -0.0116
  782MPD2    H711543   1.582   4.434  10.750 -0.4547  1.9713 -1.1629
  783MPD2     C11544   1.248   3.595  10.841  0.5387 -0.2809  0.6715
  783MPD2    C111545   1.262   3.713  10.912 -0.4718  0.8926 -0.5972
  783MPD2    C211546   1.271   3.826  10.840  0.0388  0.1556  0.2800
  783MPD2    C311547   1.289   3.827  10.702 -0.3810  0.0927 -0.3878
  783MPD2    C411548   1.262   3.710  10.630  0.1739 -0.0448 -0.2098
  783MPD2    C511549   1.244   3.596  10.701  0.2693  0.1400 -0.7422
  783MPD2     H11550   1.276   3.922  10.890 -0.3984  1.2667 -1.8353
  783MPD2    H111551   1.250   3.708  10.522  3.1281  0.5685 -0.5653
  783MPD2    H211552   1.235   3.502  10.894  1.1629 -0.9691 -0.3903
  783MPD2    H311553   1.220   3.509  10.640  1.1320 -0.1221 -0.7002
  783MPD2     N11554   1.317   3.949  10.635  0.5202  0.3109  0.5268
  783MPD2    H511555   1.324   4.029  10.698 -0.6907  0.0436  1.0168
  783MPD2    N111556   1.262   3.709  11.050  0.3535 -0.2838 -0.0141
  783MPD2    H711557   1.287   3.618  11.087  2.2772  0.8209  1.4014
  784MPD2     C11558   3.622   3.747   1.361 -0.1294 -0.1709  0.2660
  784MPD2    C111559   3.693   3.859   1.361  0.0217  0.7241 -0.2551
  784MPD2    C211560   3.646   3.962   1.276 -0.1596 -0.1710  0.0596
  784MPD2    C311561   3.528   3.940   1.200  0.8745  0.3414  0.1482
  784MPD2    C411562   3.463   3.814   1.208  0.5183 -0.4411  0.2753
  784MPD2    C511563   3.510   3.718   1.289 -0.4916 -0.8273  0.1414
  784MPD2     H11564   3.705   4.052   1.263 -1.2197  0.4410 -0.4850
  784MPD2    H111565   3.379   3.786   1.145  0.5516 -1.7476  0.8120
  784MPD2    H211566   3.648   3.661   1.423  1.1673  1.1461  1.5422
  784MPD2    H311567   3.470   3.617   1.294 -2.8684  0.0587 -0.7648
  784MPD2     N11568   3.466   4.041   1.124  0.0460 -0.2138  0.2091
  784MPD2    H511569   3.379   4.021   1.076  0.4057 -0.1868 -0.4538
  784MPD2    N111570   3.804   3.885   1.443  0.9252  0.3110  0.0718
  784MPD2    H711571   3.839   3.979   1.428  0.3774  0.3783 -0.7760
  785MPD2     C11572   4.293   2.758   9.996 -0.0358  0.1135  0.0156
  785MPD2    C111573   4.251   2.815  10.116  0.2000 -0.3189 -0.1218
  785MPD2    C211574   4.130   2.891  10.123  0.0508  0.3345  0.3596
  785MPD2    C311575   4.057   2.910  10.013 -0.1074  0.0128 -0.0839
  785MPD2    C411576   4.093   2.850   9.895  0.7533 -0.2551 -0.3517
  785MPD2    C511577   4.207   2.770   9.890  0.9161  0.2548  0.0253
  785MPD2     H11578   4.089   2.941  10.210 -1.5499 -1.1731  0.4800
  785MPD2    H111579   4.034   2.863   9.806  0.3950  1.8285  0.2012
  785MPD2    H211580   4.379   2.693   9.986 -0.8852 -1.2784  1.7303
  785MPD2    H311581   4.235   2.719   9.799  2.5605  1.9025 -0.4096
  785MPD2     N11582   3.943   3.000  10.024  0.2909 -0.4708  0.1676
  785MPD2    H511583   3.919   3.032  10.117 -3.3013  1.3401 -1.3977
  785MPD2    N111584   4.338   2.815  10.229  0.2361 -0.0419 -0.5520
  785MPD2    H711585   4.426   2.765  10.216  0.0708 -0.9177  1.5588
  786MPD2     C11586   2.585   0.253  15.074 -0.2483 -0.2232  0.1161
  786MPD2    C111587   2.700   0.184  15.044 -0.7543  0.3077  0.7870
  786MPD2    C211588   2.798   0.169  15.140 -0.0036 -0.3619  0.2007
  786MPD2    C311589   2.781   0.230  15.268  0.3492  0.1197  0.4249
  786MPD2    C411590   2.662   0.297  15.295  0.4167  0.2478  0.1275
  786MPD2    C511591   2.567   0.313  15.198  0.2460  0.0447 -0.0696
  786MPD2     H11592   2.896   0.132  15.112  1.1699  2.9447 -0.1507
  786MPD2    H111593   2.650   0.351  15.388  0.6172 -2.1570  1.5553
  786MPD2    H211594   2.510   0.271  14.997 -0.0193  2.2376  0.4521
  786MPD2    H311595   2.479   0.373  15.219 -0.1307 -0.9398  1.1657
  786MPD2     N11596   2.887   0.239  15.360  0.2481 -0.0998 -0.1379
  786MPD2    H511597   2.867   0.293  15.443 -1.7280 -0.9254 -0.0591
  786MPD2    N111598   2.735   0.149  14.914  0.6977  0.5018 -0.0296
  786MPD2    H711599   2.826   0.106  14.901 -0.6659 -2.5306  0.5065
  787MPD2     C11600   3.157   4.477  14.873 -1.3253 -0.6323  0.7308
  787MPD2    C111601   3.109   4.461  14.752  0.6417 -0.1168 -0.4368
  787MPD2    C211602   3.128   4.335  14.683 -0.2428 -0.7992 -0.0166
  787MPD2    C311603   3.206   4.234  14.738 -0.6937  0.2593 -0.6403
  787MPD2    C411604   3.263   4.251  14.863 -0.2741 -0.1156  0.3522
  787MPD2    C511605   3.225   4.368  14.937  0.5281  0.0724  0.5780
  787MPD2     H11606   3.092   4.332  14.580  0.9393  0.4135 -0.4755
  787MPD2    H111607   3.325   4.178  14.913  0.7187 -1.4646 -2.8437
  787MPD2    H211608   3.136   4.574  14.918 -1.9399 -0.4957  0.1570
  787MPD2    H311609   3.266   4.382  15.036  0.0481  0.9181  0.6597
  787MPD2     N11610   3.239   4.126  14.652  0.0663 -0.1164  0.1667
  787MPD2    H511611   3.190   4.135  14.564  3.1176 -1.8399 -1.7305
  787MPD2    N111612   3.024   4.566  14.704  0.1804  0.0805  0.3140
  787MPD2    H711613   3.026   4.654  14.753 -1.8957 -0.0889  0.7002
  788MPD2     C11614   4.105   2.444   1.273  0.2741  0.0657 -0.9361
  788MPD2    C111615   4.172   2.477   1.159  0.7245  0.3937 -0.5099
  788MPD2    C211616   4.208   2.601   1.134 -0.4189  0.4131 -0.2887
  788MPD2    C311617   4.196   2.706   1.226  0.4977  0.0498  0.0648
  788MPD2    C411618   4.140   2.672   1.343 -0.1909 -0.5520 -0.5147
  788MPD2    C511619   4.099   2.545   1.367 -0.1166 -0.3738 -0.0145
  788MPD2     H11620   4.240   2.623   1.033 -1.1930 -0.4015 -0.7110
  788MPD2    H111621   4.114   2.754   1.409  1.9506  0.0900 -0.4900
  788MPD2    H211622   4.075   2.343   1.299  0.7505  0.7857  2.4223
  788MPD2    H311623   4.053   2.529   1.464 -1.7767 -2.2512 -1.0953
  788MPD2     N11624   4.231   2.839   1.198 -0.1111  0.5754 -0.2609
  788MPD2    H511625   4.238   2.897   1.281  0.2374 -1.0586  0.8523
  788MPD2    N111626   4.194   2.376   1.069  0.9516  0.1222  0.3968
  788MPD2    H711627   4.136   2.295   1.083  1.3907 -0.2959 -0.1888
  789MPD2     C11628   0.015   3.205  16.310  0.3727  0.8510  0.4728
  789MPD2    C111629   4.719   3.095  16.386  1.2243 -0.4058 -0.4614
  789MPD2    C211630   4.634   3.096  16.493  0.3015  0.1321 -0.7368
  789MPD2    C311631   4.569   3.218  16.525 -0.5094 -0.5274 -0.5093
  789MPD2    C411632   4.593   3.326  16.447 -0.1133 -0.5845 -0.0854
  789MPD2    C511633   4.681   3.323  16.340  0.1550  0.0576 -0.1759
  789MPD2     H11634   4.626   3.002  16.546  1.3183 -0.0372 -0.8833
  789MPD2    H111635   4.527   3.412  16.453 -1.1216 -1.4146  0.9104
  789MPD2    H211636   0.094   3.203  16.236  1.3619 -0.2822  1.5405
  789MPD2    H311637   4.709   3.408  16.279  0.4486 -0.4061 -0.6889
  789MPD2     N11638   4.458   3.229  16.618  0.1166 -0.1352  0.4748
  789MPD2    H511639   4.408   3.317  16.620  1.8414  0.8555  0.0880
  789MPD2    N111640   0.054   2.969  16.363  0.1922  0.5287  0.3938
  789MPD2    H711641   0.058   2.909  16.445  0.1409  1.2700  0.9400
  790MPD2     C11642   1.486   0.414  13.730  0.7296  0.3515 -0.3552
  790MPD2    C111643   1.429   0.288  13.717  0.1055  0.1941  0.0237
  790MPD2    C211644   1.408   0.229  13.594 -0.7185  0.0936  0.0633
  790MPD2    C311645   1.441   0.296  13.480  0.4478 -0.2814 -0.8096
  790MPD2    C411646   1.512   0.416  13.489 -0.0844 -0.0100  0.1685
  790MPD2    C511647   1.534   0.473  13.613 -0.1421 -0.8719 -0.5894
  790MPD2     H11648   1.369   0.129  13.579  0.7294 -0.3548 -0.7375
  790MPD2    H111649   1.533   0.475  13.401 -2.3907  0.3619 -0.1245
  790MPD2    H211650   1.496   0.458  13.829 -2.7334  0.1265  0.1003
  790MPD2    H311651   1.588   0.568  13.617 -2.1867  0.1954  1.3516
  790MPD2     N11652   1.404   0.232  13.363  0.4606  0.5435  0.0472
  790MPD2    H511653   1.360   0.141  13.367  0.4003  0.4591 -2.2575
  790MPD2    N111654   1.397   0.218  13.834 -0.6754 -0.2011 -1.4076
  790MPD2    H711655   1.435   0.248  13.923  3.0399  0.4002 -3.2013
  791MPD2     C11656   0.806   0.187  13.015 -0.9403 -0.0996 -0.3972
  791MPD2    C111657   0.878   0.071  13.025 -0.1461 -0.0255 -0.1293
  791MPD2    C211658   0.813   4.677  13.001 -0.8945  0.2358  0.1504
  791MPD2    C311659   0.682   4.664  12.957  0.4382  0.1661 -0.6438
  791MPD2    C411660   0.612   0.058  12.931  0.3879 -0.0657 -0.5010
  791MPD2    C511661   0.678   0.178  12.960  0.6520 -0.1822  0.1605
  791MPD2     H11662   0.872   4.586  12.999  0.2772  0.9280  2.4566
  791MPD2    H111663   0.507   0.061  12.908 -0.0921  0.8481  1.7694
  791MPD2    H211664   0.852   0.285  13.014 -0.7453 -0.2040 -1.6979
  791MPD2    H311665   0.624   0.270  12.938  1.4228 -0.2715 -1.9983
  791MPD2     N11666   0.632   4.535  12.918  0.1697 -0.3851 -1.0494
  791MPD2    H511667   0.688   4.451  12.928 -1.8281 -1.2521  3.0079
  791MPD2    N111668   1.016   0.081  13.039 -0.3868 -0.3990 -0.5990
  791MPD2    H711669   1.051   0.176  13.039 -0.4118 -0.3971  1.6429
  792MPD2     C11670   1.820   0.202  11.388  0.0659 -0.1435  0.3050
  792MPD2    C111671   1.740   0.233  11.277 -1.2143 -0.6066  0.5217
  792MPD2    C211672   1.604   0.198  11.284 -0.0014  0.4825 -0.5574
  792MPD2    C311673   1.548   0.162  11.399  0.3370  0.4365 -0.6726
  792MPD2    C411674   1.629   0.146  11.512 -0.4859  0.1064  0.3556
  792MPD2    C511675   1.762   0.160  11.503 -0.4912 -0.8215 -0.4218
  792MPD2     H11676   1.539   0.224  11.201 -0.8304 -1.4562 -0.5082
  792MPD2    H111677   1.578   0.127  11.605  1.6179 -0.4823  1.3896
  792MPD2    H211678   1.925   0.228  11.384  0.5924 -2.5582 -1.4815
  792MPD2    H311679   1.826   0.141  11.589 -1.3660 -0.6671  0.2587
  792MPD2     N11680   1.412   0.147  11.413 -0.2787 -0.2930  0.3041
  792MPD2    H511681   1.380   0.091  11.492 -1.0444  1.0869  0.9722
  792MPD2    N111682   1.795   0.299  11.162  0.5396  0.2632 -0.3645
  792MPD2    H711683   1.896   0.305  11.169  0.7249 -2.4037 -0.7925
  793MPD2     C11684   0.736   0.144  10.678 -0.0935 -0.2022 -1.1130
  793MPD2    C111685   0.871   0.132  10.695  0.1351  0.4072 -0.4406
  793MPD2    C211686   0.924   0.131  10.821  0.6339 -0.6990 -0.9787
  793MPD2    C311687   0.847   0.144  10.932  0.1386  0.7345  0.0761
  793MPD2    C411688   0.707   0.157  10.920 -0.8245  0.4189 -0.2932
  793MPD2    C511689   0.657   0.164  10.790  0.0188 -0.2624  0.2896
  793MPD2     H11690   1.031   0.122  10.836  0.4519  0.2628  0.9729
  793MPD2    H111691   0.643   0.168  11.006 -0.9451 -1.0546 -0.1935
  793MPD2    H211692   0.690   0.142  10.581 -1.7521 -1.0600 -0.2977
  793MPD2    H311693   0.549   0.171  10.779 -0.0178 -0.2152  0.6932
  793MPD2     N11694   0.910   0.146  11.058  0.3668 -0.0062 -0.3870
  793MPD2    H511695   1.004   0.185  11.057  0.5812 -0.4559  1.0473
  793MPD2    N111696   0.963   0.107  10.588  0.3854  0.1608 -0.1484
  793MPD2    H711697   1.061   0.091  10.607  0.1680 -0.3877  0.5107
  794MPD2     C11698   1.026   4.441  17.442  0.0183  0.6219  0.2222
  794MPD2    C111699   1.007   4.331  17.361  0.2147 -0.6229  0.2453
  794MPD2    C211700   0.903   4.322  17.279 -0.6939  0.0749 -0.0840
  794MPD2    C311701   0.821   4.437  17.268 -0.8461  0.9490 -0.0392
  794MPD2    C411702   0.850   4.550  17.350  0.3531 -0.2164  0.1892
  794MPD2    C511703   0.952   4.551  17.436 -0.0194 -0.4386  0.5485
  794MPD2     H11704   0.900   4.242  17.207 -2.4587 -0.1970  0.3018
  794MPD2    H111705   0.775   4.628  17.348  0.6508 -0.0219 -3.3422
  794MPD2    H211706   1.103   4.446  17.518  0.4948  1.8856 -0.3367
  794MPD2    H311707   0.967   4.638  17.499 -3.0006 -1.0929  2.1323
  794MPD2     N11708   0.717   4.448  17.181  0.3127 -0.6371 -0.5442
  794MPD2    H511709   0.673   4.540  17.179  0.3828 -0.5671  0.8681
  794MPD2    N111710   1.091   4.220  17.351  0.3908 -0.0917 -0.5198
  794MPD2    H711711   1.060   4.152  17.283 -0.6277 -0.6688  0.5267
  795MPD2     C11712   2.964   1.105  13.545  0.6268 -0.1332  0.3380
  795MPD2    C111713   3.029   1.223  13.521  0.5346 -0.5291  1.1859
  795MPD2    C211714   3.167   1.229  13.526  0.0543 -0.6108 -0.1750
  795MPD2    C311715   3.242   1.122  13.566  0.0070 -0.2083  0.1111
  795MPD2    C411716   3.177   1.003  13.598 -0.2978 -0.0829  0.3158
  795MPD2    C511717   3.046   0.996  13.578  0.3301  0.6187 -0.0313
  795MPD2     H11718   3.221   1.322  13.513  1.0653 -1.0806  0.6054
  795MPD2    H111719   3.230   0.916  13.634 -0.2219 -0.0947  0.1773
  795MPD2    H211720   2.857   1.091  13.538  1.1194 -2.0585 -3.6851
  795MPD2    H311721   3.003   0.898  13.599  2.0605 -0.0625  0.3194
  795MPD2     N11722   3.386   1.137  13.573  0.2799  0.1019  0.0201
  795MPD2    H511723   3.423   1.231  13.565 -0.4652  0.6142  2.5080
  795MPD2    N111724   2.944   1.326  13.484  0.3002 -0.1768 -0.0164
  795MPD2    H711725   2.846   1.298  13.480  0.4971 -0.3128 -4.2514
  796MPD2     C11726   2.817   2.786  15.561 -0.4623  0.6329 -0.0839
  796MPD2    C111727   2.911   2.804  15.663 -0.0688 -0.2678  0.3923
  796MPD2    C211728   2.923   2.929  15.723 -0.0947  0.6047  0.4004
  796MPD2    C311729   2.843   3.036  15.683  0.0397 -0.7073 -0.7563
  796MPD2    C411730   2.769   3.017  15.573  0.0991 -0.5499  0.0260
  796MPD2    C511731   2.747   2.894  15.514  0.2938  0.3361 -0.4008
  796MPD2     H11732   2.992   2.939  15.806 -2.1180 -1.2546  2.3155
  796MPD2    H111733   2.716   3.096  15.522  0.8494  0.1634  0.3543
  796MPD2    H211734   2.803   2.689  15.515 -0.3480  1.1508 -1.1981
  796MPD2    H311735   2.675   2.882  15.434  1.9368  0.1739 -1.8539
  796MPD2     N11736   2.855   3.165  15.745  0.2168 -0.5082 -0.0240
  796MPD2    H511737   2.902   3.160  15.835 -1.8322  0.3281  1.0806
  796MPD2    N111738   2.993   2.703  15.715  0.1795 -0.0342  0.5629
  796MPD2    H711739   3.057   2.721  15.792  0.4913 -0.7037  0.4616
  797MPD2     C11740   3.483   2.282  17.149 -0.2232 -0.0403 -0.4002
  797MPD2    C111741   3.435   2.405  17.198 -0.6844 -0.7143 -0.1068
  797MPD2    C211742   3.313   2.452  17.150  0.3660 -0.7471  0.8336
  797MPD2    C311743   3.256   2.400  17.037 -0.1408  0.1499 -0.0104
  797MPD2    C411744   3.301   2.277  16.995 -0.4138  0.5543 -0.6928
  797MPD2    C511745   3.412   2.222  17.050  0.8672  0.2351  0.2852
  797MPD2     H11746   3.277   2.544  17.195  0.9150  0.5707 -1.4096
  797MPD2    H111747   3.262   2.244  16.900  0.5780 -0.3616 -0.7824
  797MPD2    H211748   3.560   2.228  17.203  0.3337  1.4764  0.3111
  797MPD2    H311749   3.459   2.133  17.011  0.0365 -0.2897  0.4855
  797MPD2     N11750   3.179   2.491  16.966 -0.4847  0.3601  0.5356
  797MPD2    H511751   3.165   2.578  17.016 -0.2197  0.1147  1.0390
  797MPD2    N111752   3.497   2.475  17.300 -0.1269 -0.2970 -0.2887
  797MPD2    H711753   3.460   2.566  17.324 -1.6189 -0.5239 -1.7238
  798MPD2     C11754   3.325   3.177  17.074 -0.0136  0.2856  0.4620
  798MPD2    C111755   3.303   3.042  17.079  0.4939  0.2708  0.4565
  798MPD2    C211756   3.380   2.955  17.151  0.5965 -0.4775 -0.4221
  798MPD2    C311757   3.480   2.998  17.236  0.7939 -0.1195 -1.0332
  798MPD2    C411758   3.502   3.137  17.244  0.1566  0.1434 -0.2620
  798MPD2    C511759   3.428   3.219  17.168 -0.0896  0.0798  0.3357
  798MPD2     H11760   3.358   2.850  17.163 -0.9506 -0.4389 -2.9003
  798MPD2    H111761   3.572   3.185  17.312  1.4481 -1.3936 -0.5065
  798MPD2    H211762   3.265   3.246  17.016  0.2198 -0.2880 -0.4454
  798MPD2    H311763   3.441   3.326  17.183 -1.3436  0.1564  0.9282
  798MPD2     N11764   3.559   2.900  17.300 -0.1946 -0.0030  0.5445
  798MPD2    H511765   3.553   2.807  17.258  2.7242  2.2599 -4.8423
  798MPD2    N111766   3.194   2.990  17.010  0.1767 -0.1342 -0.2421
  798MPD2    H711767   3.135   3.053  16.956 -1.5748 -3.1341 -1.8430
  799MPD2     C11768   2.901   3.963  14.706 -0.2438 -0.0941 -0.0661
  799MPD2    C111769   2.851   3.917  14.589  0.2305  0.8699  0.5188
  799MPD2    C211770   2.778   4.007  14.505  0.9056  0.1086  0.5967
  799MPD2    C311771   2.775   4.142  14.544 -0.0281  0.5753 -1.2981
  799MPD2    C411772   2.816   4.183  14.666  0.2430  0.1031  0.3970
  799MPD2    C511773   2.879   4.091  14.746  0.5112  0.1170  0.0021
  799MPD2     H11774   2.747   3.963  14.411  1.2893  1.3676 -0.1248
  799MPD2    H111775   2.821   4.288  14.693 -2.8894 -0.2430  2.4079
  799MPD2    H211776   2.970   3.904  14.766 -2.1140 -0.1592  2.0149
  799MPD2    H311777   2.914   4.136  14.839 -0.4079  0.9328 -0.0350
  799MPD2     N11778   2.728   4.246  14.456 -0.2770 -0.0922 -1.1532
  799MPD2    H511779   2.752   4.342  14.479 -0.2927 -0.7789  1.7152
  799MPD2    N111780   2.870   3.788  14.533  0.1702 -0.2081  0.1318
  799MPD2    H711781   2.822   3.760  14.448  1.2666  0.1490 -0.6128
  800MPD2     C11782   3.276   0.271  13.837 -0.4359  1.4786 -0.5255
  800MPD2    C111783   3.400   0.331  13.828  0.6147 -0.1340 -0.1806
  800MPD2    C211784   3.477   0.317  13.715  0.2916 -0.0339  0.6146
  800MPD2    C311785   3.431   0.234  13.611  0.3024 -0.3132  0.7567
  800MPD2    C411786   3.305   0.178  13.616 -0.1080  0.2088 -0.1979
  800MPD2    C511787   3.234   0.198  13.729  0.4154  0.1680  0.3960
  800MPD2     H11788   3.564   0.377  13.695  0.7852 -0.9389  0.0218
  800MPD2    H111789   3.268   0.111  13.540 -1.7508  0.7553  0.1278
  800MPD2    H211790   3.218   0.275  13.928  0.1750 -2.0166  0.0082
  800MPD2    H311791   3.158   0.121  13.739  0.6317 -0.1450 -0.3103
  800MPD2     N11792   3.523   0.224  13.496 -0.3885 -0.1638  0.4660
  800MPD2    H511793   3.609   0.277  13.500  0.9754 -2.4243  1.1972
  800MPD2    N111794   3.456   0.392  13.938  0.1848 -0.1459 -0.6046
  800MPD2    H711795   3.393   0.407  14.015 -1.1444 -2.1151 -1.3186
  801MPD2     C11796   3.332   1.062  13.946 -1.0558 -0.8411  0.4370
  801MPD2    C111797   3.314   0.961  14.037  0.1849  0.1263  0.2595
  801MPD2    C211798   3.186   0.942  14.091 -1.4054 -0.9292 -1.0620
  801MPD2    C311799   3.090   1.042  14.070  0.4027  0.0399 -0.1463
  801MPD2    C411800   3.112   1.151  13.989  0.0767 -0.4496  0.2047
  801MPD2    C511801   3.231   1.153  13.915 -0.1047 -0.0548  0.4400
  801MPD2     H11802   3.160   0.854  14.148  0.2020 -0.4276  0.4369
  801MPD2    H111803   3.030   1.215  13.958  1.1315  0.1903 -1.2518
  801MPD2    H211804   3.422   1.071  13.885 -0.1784  1.7911  2.0851
  801MPD2    H311805   3.249   1.231  13.842 -0.0858 -1.2528 -0.8355
  801MPD2     N11806   2.964   1.043  14.134 -0.2807  0.9762 -0.2933
  801MPD2    H511807   2.892   1.111  14.109 -0.2627  0.5531 -1.4691
  801MPD2    N111808   3.409   0.858  14.072  0.3512 -0.4870  0.0613
  801MPD2    H711809   3.374   0.779  14.125  0.0932 -2.7208 -3.4124
  802MPD2     C11810   1.870   0.925  16.935 -0.0597  0.5775 -0.1863
  802MPD2    C111811   1.983   0.978  16.994  0.6856 -0.3137  0.0958
  802MPD2    C211812   2.098   0.905  16.999 -0.2580  0.2099 -0.6390
  802MPD2    C311813   2.092   0.772  16.972  0.5150  0.4076  0.0252
  802MPD2    C411814   1.983   0.714  16.915 -0.1058  0.2170 -0.3749
  802MPD2    C511815   1.871   0.792  16.897  0.3086  0.9828 -0.2268
  802MPD2     H11816   2.188   0.951  17.037 -0.5683 -0.2773  0.6857
  802MPD2    H111817   1.976   0.609  16.891 -0.0437  0.1783 -0.2264
  802MPD2    H211818   1.789   0.991  16.907 -1.0287 -2.2218 -3.9203
  802MPD2    H311819   1.785   0.742  16.853  2.4362 -0.3319 -2.9063
  802MPD2     N11820   2.214   0.705  16.992 -0.3184 -0.5629  0.1759
  802MPD2    H511821   2.297   0.761  17.010 -0.6443 -0.2079  0.5912
  802MPD2    N111822   1.985   1.104  17.058 -0.0139 -0.1598 -0.0035
  802MPD2    H711823   2.076   1.147  17.071 -0.8911  1.4979  0.6267
  803MPD2     C11824   4.444   0.101  12.194 -0.5966  0.1428 -0.0439
  803MPD2    C111825   4.492   0.082  12.322  0.0822  1.2460 -0.1257
  803MPD2    C211826   4.424   4.725  12.404  0.8119  0.2706 -0.1122
  803MPD2    C311827   4.322   4.641  12.353 -0.1120  0.2868 -0.0859
  803MPD2    C411828   4.283   4.659  12.221  0.4599 -0.7020 -0.8373
  803MPD2    C511829   4.351   0.019  12.142  0.0515  0.2240  0.4207
  803MPD2     H11830   4.450   4.721  12.509  0.2815 -1.2827 -0.0581
  803MPD2    H111831   4.209   4.597  12.171  0.0989  1.5627 -3.1516
  803MPD2    H211832   4.469   0.172  12.117 -0.2495 -0.3700 -0.4042
  803MPD2    H311833   4.315   0.022  12.040  3.7253 -0.8751 -0.9122
  803MPD2     N11834   4.264   4.537  12.421  0.0515 -0.6580  0.5244
  803MPD2    H511835   4.179   4.505  12.376  2.1979 -3.8432 -1.2898
  803MPD2    N111836   4.589   0.164  12.384 -0.0335  0.1246  0.3024
  803MPD2    H711837   4.620   0.136  12.476 -1.7742 -0.5350  0.7002
  804MPD2     C11838   3.463   1.124  17.024 -0.4266 -0.1409 -0.1727
  804MPD2    C111839   3.493   1.116  17.157 -0.4114  0.5201 -0.5087
  804MPD2    C211840   3.542   1.224  17.228  0.7086 -0.4711  0.5556
  804MPD2    C311841   3.568   1.342  17.158  0.5803  0.2800 -0.4107
  804MPD2    C411842   3.575   1.339  17.021 -0.0830 -0.0589  0.4138
  804MPD2    C511843   3.517   1.235  16.961  0.3697 -0.0234 -0.9786
  804MPD2     H11844   3.568   1.215  17.333 -1.4529  1.0150  1.2185
  804MPD2    H111845   3.616   1.418  16.959  1.4676 -1.4658 -0.3683
  804MPD2    H211846   3.407   1.049  16.969  2.3187 -2.6828  0.4692
  804MPD2    H311847   3.524   1.238  16.853  0.8990 -0.1719 -0.9475
  804MPD2     N11848   3.616   1.457  17.220  0.0231 -0.0935 -0.3656
  804MPD2    H511849   3.636   1.530  17.152 -1.4392  1.7798  1.1975
  804MPD2    N111850   3.462   0.998  17.230  0.2763 -0.2151  0.1346
  804MPD2    H711851   3.481   1.007  17.329 -2.6196  1.0931  0.5859
  805MPD2     C11852   2.527   4.081  15.651 -0.1921 -0.5536  0.6668
  805MPD2    C111853   2.625   4.157  15.581 -0.5978 -0.3520  0.5417
  805MPD2    C211854   2.751   4.168  15.632  0.1724 -0.9061  0.8826
  805MPD2    C311855   2.790   4.104  15.748  0.0924 -1.0241 -0.3546
  805MPD2    C411856   2.692   4.034  15.820 -0.6316  0.2650 -0.2399
  805MPD2    C511857   2.567   4.016  15.766  0.6286  0.3214 -0.9828
  805MPD2     H11858   2.833   4.214  15.578  0.1482 -3.1847 -1.1339
  805MPD2    H111859   2.709   3.985  15.915 -0.2000  1.1487  0.1436
  805MPD2    H211860   2.427   4.073  15.611  0.4364 -0.2197 -0.9662
  805MPD2    H311861   2.489   3.959  15.817 -0.1849  3.2164  1.0440
  805MPD2     N11862   2.918   4.133  15.797 -0.1621 -0.1318  0.9547
  805MPD2    H511863   2.976   4.198  15.746  0.3950 -0.2273  1.4683
  805MPD2    N111864   2.611   4.215  15.456 -0.2587 -0.1464 -0.2207
  805MPD2    H711865   2.691   4.264  15.417 -0.8037 -0.8447 -2.1789
  806MPD2     C11866   3.393   2.834   1.039 -0.1554 -0.3827  0.0081
  806MPD2    C111867   3.419   2.886   1.163 -0.9803 -0.1071 -0.3535
  806MPD2    C211868   3.455   3.022   1.174 -0.1226  0.5391 -0.0668
  806MPD2    C311869   3.446   3.105   1.062 -0.2399 -0.9057  0.4628
  806MPD2    C411870   3.422   3.041   0.937 -0.7022  0.7443  0.2727
  806MPD2    C511871   3.396   2.910   0.928  0.2448 -0.1233  0.4037
  806MPD2     H11872   3.491   3.070   1.264  0.2806 -0.7175  0.4433
  806MPD2    H111873   3.429   3.089   0.840 -1.3387  0.4432  0.0705
  806MPD2    H211874   3.358   2.732   1.022 -0.9282 -0.3576  1.4977
  806MPD2    H311875   3.383   2.852   0.838  2.5271  0.4817 -0.3327
  806MPD2     N11876   3.508   3.225   1.082 -0.3263 -0.1866 -0.3426
  806MPD2    H511877   3.537   3.249   1.177  2.3103 -2.2306 -0.6342
  806MPD2    N111878   3.413   2.808   1.274 -0.2521 -0.3823 -0.1401
  806MPD2    H711879   3.395   2.709   1.261  1.7618 -1.0713  2.2036
  807MPD2     C11880   3.452   2.672   2.144  0.0258 -0.5005  0.3479
  807MPD2    C111881   3.521   2.591   2.060 -0.2628  0.2756  0.1510
  807MPD2    C211882   3.578   2.478   2.118  0.2147 -0.4797  0.5080
  807MPD2    C311883   3.574   2.453   2.251 -0.0586 -0.0014  0.0863
  807MPD2    C411884   3.501   2.531   2.333  0.0734 -0.3369 -0.5289
  807MPD2    C511885   3.435   2.637   2.277  0.0798  0.2086  0.5170
  807MPD2     H11886   3.647   2.422   2.056  0.6792 -0.6884  1.2194
  807MPD2    H111887   3.500   2.515   2.440  0.1828 -0.4142 -0.5397
  807MPD2    H211888   3.411   2.763   2.104  2.6645  0.5555  0.0117
  807MPD2    H311889   3.384   2.714   2.332 -0.9293 -0.5613  0.6538
  807MPD2     N11890   3.652   2.342   2.295 -0.3480 -0.3264  0.6811
  807MPD2    H511891   3.689   2.292   2.215 -3.1482 -2.9902  1.0359
  807MPD2    N111892   3.543   2.611   1.923 -0.0599  0.3793 -0.3997
  807MPD2    H711893   3.581   2.528   1.880 -0.8697 -1.1435  1.8207
  808MPD2     C11894   3.721   0.471   9.276  0.0233  0.1092 -0.6007
  808MPD2    C111895   3.758   0.547   9.387 -0.0279  0.1953  0.9804
  808MPD2    C211896   3.871   0.627   9.384  0.7144  0.8016 -0.3893
  808MPD2    C311897   3.940   0.650   9.268 -0.2179  0.2261  0.7058
  808MPD2    C411898   3.913   0.562   9.162  0.1322  0.5707  0.9300
  808MPD2    C511899   3.808   0.471   9.166  0.6008  0.6055 -0.5204
  808MPD2     H11900   3.910   0.686   9.467  0.7572 -0.1014  0.2345
  808MPD2    H111901   3.976   0.568   9.073 -0.1664  0.8994  0.7411
  808MPD2    H211902   3.633   0.407   9.278 -0.8474  1.3208  0.2634
  808MPD2    H311903   3.788   0.418   9.073 -0.9158 -0.9997  0.7148
  808MPD2     N11904   4.058   0.736   9.255 -0.4277 -0.4215  0.1309
  808MPD2    H511905   4.116   0.718   9.173  0.5491 -0.9787  0.9316
  808MPD2    N111906   3.687   0.540   9.512 -0.0024  0.5637  0.4872
  808MPD2    H711907   3.740   0.579   9.590  0.5116  0.8345  0.0100
  809MPD2     C11908   4.572   0.719   8.588  0.9116 -0.1974 -0.0923
  809MPD2    C111909   4.643   0.813   8.661  0.6149 -0.4814 -0.2037
  809MPD2    C211910   4.609   0.852   8.789  0.5545  0.0892 -0.6354
  809MPD2    C311911   4.491   0.805   8.845 -0.0472  0.4478  0.6895
  809MPD2    C411912   4.421   0.710   8.765  0.9338  0.6419 -0.0712
  809MPD2    C511913   4.459   0.662   8.641 -0.3131  0.3627 -0.8662
  809MPD2     H11914   4.658   0.940   8.828  1.3430 -1.1891  1.2802
  809MPD2    H111915   4.320   0.678   8.787  0.5939 -0.4537 -3.1234
  809MPD2    H211916   4.588   0.692   8.484  2.0898  0.1657  0.0036
  809MPD2    H311917   4.384   0.597   8.596  0.2571 -1.2327  0.4761
  809MPD2     N11918   4.432   0.852   8.966 -0.4358 -0.5340  0.1752
  809MPD2    H511919   4.335   0.827   8.985 -0.8390  0.1968 -0.8916
  809MPD2    N111920   0.015   0.898   8.598  0.6884 -0.0173  0.5668
  809MPD2    H711921   0.053   0.980   8.645 -0.1178  0.4736  0.3759
  810MPD2     C11922   3.626   0.135  10.214 -0.1187  0.4142  1.1692
  810MPD2    C111923   3.536   0.055  10.280  0.3639 -0.4850 -0.4302
  810MPD2    C211924   3.574   4.724  10.401  0.1016  0.6535  0.2476
  810MPD2    C311925   3.696   0.026  10.455  0.2956 -0.9259 -0.0505
  810MPD2    C411926   3.776   0.118  10.389  0.0373  0.0140 -0.2238
  810MPD2    C511927   3.747   0.167  10.266 -0.6765 -0.6701 -0.4184
  810MPD2     H11928   3.519   4.646  10.453  2.9805 -2.1080 -0.9162
  810MPD2    H111929   3.872   0.149  10.429 -0.1914 -1.4852  1.4655
  810MPD2    H211930   3.615   0.151  10.107  0.3288 -3.2551  0.5615
  810MPD2    H311931   3.811   0.234  10.211  0.1136 -0.9946  0.0918
  810MPD2     N11932   3.731   4.694  10.577 -0.2025 -0.0400 -0.6435
  810MPD2    H511933   3.659   4.638  10.621  0.3935 -0.3223 -0.0232
  810MPD2    N111934   3.413   0.030  10.220 -0.1309 -0.1354  0.5449
  810MPD2    H711935   3.398   0.074  10.130 -0.3909  1.0917  1.1871
  811MPD2     C11936   2.623   0.230   9.914 -0.1914  0.0839  0.4527
  811MPD2    C111937   2.739   0.281   9.975  0.9191  0.5035  0.9525
  811MPD2    C211938   2.780   0.411   9.953  0.1635 -0.5573 -0.5467
  811MPD2    C311939   2.715   0.486   9.859  0.0174  0.9637  0.7751
  811MPD2    C411940   2.615   0.425   9.788  0.6552 -0.0532  0.8086
  811MPD2    C511941   2.562   0.306   9.817  0.4061 -0.6955  0.0126
  811MPD2     H11942   2.862   0.455  10.010  0.1980  2.0790 -2.6334
  811MPD2    H111943   2.577   0.472   9.698  0.6562 -2.8438 -0.6496
  811MPD2    H211944   2.589   0.128   9.926  0.8043 -0.5136 -1.8041
  811MPD2    H311945   2.490   0.258   9.752 -0.1646  0.7695 -0.4407
  811MPD2     N11946   2.765   0.619   9.839  0.2405  0.4125  0.3023
  811MPD2    H511947   2.841   0.645   9.901  0.1258  0.5199  0.3996
  811MPD2    N111948   2.810   0.194  10.049 -0.0801 -0.3217  0.4942
  811MPD2    H711949   2.775   0.099  10.053 -0.4686 -0.1515  1.1959
  812MPD2     C11950   2.432   4.487  12.186 -0.1312 -0.3220 -0.0859
  812MPD2    C111951   2.375   4.607  12.227  0.2946  1.0578  0.3548
  812MPD2    C211952   2.305   4.608  12.347 -0.4619  0.5964 -0.6903
  812MPD2    C311953   2.283   4.488  12.423 -0.5534 -0.6427 -0.4556
  812MPD2    C411954   2.350   4.375  12.379  0.1940 -0.1941 -0.5653
  812MPD2    C511955   2.418   4.372  12.262 -0.0178  0.5346 -0.1649
  812MPD2     H11956   2.262   4.700  12.386 -0.7081  0.3932 -0.4810
  812MPD2    H111957   2.342   4.278  12.428 -3.5313  0.8685  0.9201
  812MPD2    H211958   2.485   4.479  12.092 -0.5651 -1.5601 -0.2385
  812MPD2    H311959   2.472   4.280  12.241  0.9060  1.0341  0.0282
  812MPD2     N11960   2.203   4.507  12.544  0.1510  0.0079  0.1088
  812MPD2    H511961   2.162   4.599  12.557  0.0283 -0.2560  1.5499
  812MPD2    N111962   2.390   4.719  12.142  0.1747 -0.4011 -0.0518
  812MPD2    H711963   2.451   4.698  12.063  0.4719 -0.0206  0.0771
  813MPD2     C11964   0.679   1.668  12.800  0.6092 -0.2388 -0.1155
  813MPD2    C111965   0.681   1.804  12.814  0.1543 -0.1946 -0.1763
  813MPD2    C211966   0.590   1.856  12.903 -0.3387 -0.1445 -0.0617
  813MPD2    C311967   0.506   1.781  12.985 -0.1413 -0.5105  0.4688
  813MPD2    C411968   0.519   1.641  12.969  0.6051 -0.0087  0.4586
  813MPD2    C511969   0.600   1.593  12.873  0.0615  0.0295  0.4809
  813MPD2     H11970   0.588   1.962  12.925 -0.5398 -0.3401  0.8642
  813MPD2    H111971   0.468   1.572  13.036 -1.2987  2.2472  1.3123
  813MPD2    H211972   0.739   1.610  12.732 -0.9231 -2.5938  0.5453
  813MPD2    H311973   0.597   1.487  12.851  0.0283  0.4194 -1.3576
  813MPD2     N11974   0.421   1.840  13.072  0.1413 -0.5440 -0.5737
  813MPD2    H511975   0.396   1.937  13.055 -0.2262 -0.5297  0.0587
  813MPD2    N111976   0.774   1.877  12.736 -0.4003  0.4745 -0.2701
  813MPD2    H711977   0.831   1.825  12.670  0.1070 -0.5425  0.9673
  814MPD2     C11978   1.588   3.343  12.560 -0.3158  0.1058  0.7195
  814MPD2    C111979   1.644   3.368  12.439  0.3397  0.3236  0.2957
  814MPD2    C211980   1.751   3.460  12.430 -0.1796  0.1483  0.4090
  814MPD2    C311981   1.808   3.522  12.534  0.7743 -0.0097 -0.6539
  814MPD2    C411982   1.747   3.494  12.657 -0.2525  0.0010 -0.6308
  814MPD2    C511983   1.643   3.402  12.674  0.5750 -0.6828 -0.0084
  814MPD2     H11984   1.793   3.466  12.330  1.5235 -1.3015  1.0455
  814MPD2    H111985   1.783   3.544  12.746  3.3639 -0.1379 -2.0142
  814MPD2    H211986   1.509   3.273  12.585 -1.2117 -0.3005 -3.2273
  814MPD2    H311987   1.611   3.383  12.775 -0.5944 -0.8947 -0.4257
  814MPD2     N11988   1.916   3.608  12.524 -0.2508  0.3321 -0.0794
  814MPD2    H511989   1.962   3.633  12.611  0.6690 -0.8338 -0.2175
  814MPD2    N111990   1.601   3.317  12.314  0.1767  0.1154  0.1713
  814MPD2    H711991   1.639   3.359  12.230  0.5798  0.3036  0.4451
  815MPD2     C11992   2.215   2.301  11.354  0.2033 -0.5757  0.6515
  815MPD2    C111993   2.194   2.167  11.392  0.5478  0.3922 -0.2792
  815MPD2    C211994   2.149   2.140  11.521 -0.1973 -0.2571 -0.8755
  815MPD2    C311995   2.114   2.236  11.603 -0.6417  0.1628 -0.2558
  815MPD2    C411996   2.117   2.369  11.559  0.1386 -1.1228 -0.2975
  815MPD2    C511997   2.183   2.397  11.445  0.2139 -0.2379 -0.0393
  815MPD2     H11998   2.146   2.036  11.551 -0.7587  0.1844  0.5643
  815MPD2    H111999   2.094   2.451  11.625 -1.8802 -0.4859 -1.8176
  815MPD2    H212000   2.254   2.336  11.259  0.6908 -1.3061  0.5875
  815MPD2    H312001   2.214   2.500  11.432 -1.3304  0.1167 -0.8909
  815MPD2     N12002   2.066   2.193  11.727 -0.4409 -0.1494  0.1789
  815MPD2    H512003   2.057   2.092  11.736  2.4335 -0.7290 -3.5357
  815MPD2    N112004   2.247   2.057  11.309 -0.3147  0.3933 -0.1497
  815MPD2    H712005   2.264   2.083  11.212 -1.2440  1.6530  0.0177
  816MPD2     C12006   1.529   0.444  16.956  0.6200  0.2924  0.2312
  816MPD2    C112007   1.624   0.508  17.022 -1.0937  0.1344 -0.3356
  816MPD2    C212008   1.760   0.477  17.013 -0.7660  0.6779 -0.2300
  816MPD2    C312009   1.796   0.366  16.937 -0.8262 -0.0484  0.3631
  816MPD2    C412010   1.697   0.308  16.856  0.6817 -0.4102 -0.3065
  816MPD2    C512011   1.562   0.342  16.870 -0.0938  0.1283 -0.0602
  816MPD2     H12012   1.838   0.536  17.060 -0.9565  1.0132 -0.3337
  816MPD2    H112013   1.720   0.232  16.783  2.1810  1.3716 -1.6658
  816MPD2    H212014   1.426   0.472  16.973  0.2013 -1.2300  0.1875
  816MPD2    H312015   1.489   0.296  16.804 -0.2560  1.0289 -0.5127
  816MPD2     N12016   1.934   0.328  16.913  0.4633 -0.1876  0.3765
  816MPD2    H512017   1.999   0.393  16.956  1.3492 -1.0650  0.3671
  816MPD2    N112018   1.594   0.629  17.084 -0.6838 -0.3100 -0.3858
  816MPD2    H712019   1.496   0.652  17.068 -0.7435 -0.7386 -0.6473
  817MPD2     C12020   2.052   2.922   9.747  0.2070  0.5711 -0.7193
  817MPD2    C112021   1.961   2.829   9.726 -0.4978  0.1771 -0.2520
  817MPD2    C212022   1.832   2.873   9.673  0.0974 -0.3565  0.7276
  817MPD2    C312023   1.806   3.001   9.642 -0.6737  0.0216 -0.4759
  817MPD2    C412024   1.902   3.098   9.675  0.2323  0.0652  0.1852
  817MPD2    C512025   2.029   3.048   9.708 -0.5502  0.3739  0.2196
  817MPD2     H12026   1.767   2.794   9.638 -0.3719  0.6647 -0.6709
  817MPD2    H112027   1.892   3.204   9.660 -1.3692 -0.1392 -0.2128
  817MPD2    H212028   2.154   2.903   9.779  0.5390  2.2064 -0.7810
  817MPD2    H312029   2.110   3.118   9.725  2.7142 -2.9994 -1.3564
  817MPD2     N12030   1.674   3.033   9.610 -0.0206 -0.6505 -0.0773
  817MPD2    H512031   1.601   2.962   9.610 -1.8348  1.2082 -0.9010
  817MPD2    N112032   1.986   2.694   9.746  0.0608 -0.6185  0.4421
  817MPD2    H712033   1.907   2.636   9.718  0.5774 -0.3534 -1.5764
  818MPD2     C12034   0.839   2.013  10.167  0.2987 -0.7439  0.9948
  818MPD2    C112035   0.771   1.915  10.236  0.4205 -0.4208 -0.4493
  818MPD2    C212036   0.834   1.794  10.252  0.7112 -0.0043  0.4472
  818MPD2    C312037   0.954   1.761  10.195 -0.6484 -0.1721 -0.0705
  818MPD2    C412038   1.011   1.855  10.111  0.2559  0.4465  0.3762
  818MPD2    C512039   0.958   1.977  10.109 -0.0685  0.4873  0.2879
  818MPD2     H12040   0.781   1.724  10.317 -2.0248  0.2636 -1.4852
  818MPD2    H112041   1.096   1.835  10.046  1.3278  2.7832  1.0471
  818MPD2    H212042   0.789   2.108  10.157 -1.7942 -1.7516  2.0271
  818MPD2    H312043   0.997   2.044  10.033 -2.7411 -0.5456 -1.9921
  818MPD2     N12044   1.015   1.632  10.210  0.1691 -0.0658  0.3048
  818MPD2    H512045   1.104   1.621  10.161 -0.0261 -0.1162 -0.0335
  818MPD2    N112046   0.655   1.939  10.314 -1.0166 -0.5383  0.2061
  818MPD2    H712047   0.601   1.863  10.353 -0.1422 -1.8363 -1.1269
  819MPD2     C12048   3.035   3.774  15.593  0.9448  0.5112 -0.2400
  819MPD2    C112049   3.060   3.636  15.578 -0.5786 -0.6649 -0.4813
  819MPD2    C212050   3.175   3.595  15.647 -0.0887 -0.1723  0.3011
  819MPD2    C312051   3.257   3.690  15.712 -0.3798  0.3026 -1.3154
  819MPD2    C412052   3.219   3.825  15.726  0.1211  0.1867  0.1986
  819MPD2    C512053   3.109   3.866  15.660  0.1660 -0.1450  0.4836
  819MPD2     H12054   3.182   3.487  15.660 -2.1353 -0.4186 -0.6401
  819MPD2    H112055   3.275   3.893  15.790  2.7758 -1.1858 -0.6822
  819MPD2    H212056   2.941   3.815  15.559  0.1880 -0.7973  0.2911
  819MPD2    H312057   3.068   3.966  15.650 -1.9382 -1.1316 -0.5900
  819MPD2     N12058   3.372   3.640  15.771  0.0018 -0.7977  0.2570
  819MPD2    H512059   3.403   3.548  15.743 -0.0833 -0.4279 -1.0122
  819MPD2    N112060   2.974   3.554  15.503 -0.6290  0.1324  0.1872
  819MPD2    H712061   2.905   3.587  15.436  0.3753  0.0255 -0.8863
  820MPD2     C12062   2.402   3.790  14.804  0.2346  0.0196 -0.4278
  820MPD2    C112063   2.504   3.844  14.883  0.1042 -0.5856  0.4552
  820MPD2    C212064   2.580   3.746  14.950  0.7048  1.3583  0.1266
  820MPD2    C312065   2.566   3.611  14.932 -0.2810  0.1325 -0.6696
  820MPD2    C412066   2.454   3.568  14.871  0.2177  0.5030  0.0080
  820MPD2    C512067   2.377   3.651  14.802 -0.2004  0.1512 -1.0782
  820MPD2     H12068   2.660   3.777  15.016 -0.1685 -0.5977  2.1138
  820MPD2    H112069   2.437   3.464  14.850 -0.3386  0.7732 -0.8509
  820MPD2    H212070   2.340   3.856  14.744 -1.4413 -0.7324  0.4616
  820MPD2    H312071   2.289   3.614  14.750 -0.9359 -0.4510  0.5915
  820MPD2     N12072   2.644   3.511  14.999  0.0230  0.0992  0.8824
  820MPD2    H512073   2.606   3.417  15.001 -0.9263  0.4068 -2.2608
  820MPD2    N112074   2.525   3.985  14.901 -0.1667 -0.1136  1.0944
  820MPD2    H712075   2.469   4.049  14.846  1.6833 -0.2494 -0.9149
  821MPD2     C12076   3.487   0.602  12.779  0.0417  0.7430 -0.4759
  821MPD2    C112077   3.609   0.596  12.836 -0.0250  0.3362  0.3208
  821MPD2    C212078   3.707   0.696  12.820  0.7582 -0.6088 -0.7620
  821MPD2    C312079   3.678   0.800  12.734 -0.3100  0.3523 -0.1294
  821MPD2    C412080   3.552   0.798  12.666  0.4704  0.0011  0.3469
  821MPD2    C512081   3.457   0.707  12.692 -0.1285  0.5007 -0.1590
  821MPD2     H12082   3.792   0.696  12.887  0.8068 -0.0348 -0.8223
  821MPD2    H112083   3.518   0.874  12.596 -0.6055 -1.3100 -0.5356
  821MPD2    H212084   3.407   0.531  12.794  0.6072  0.1210 -0.4554
  821MPD2    H312085   3.364   0.722  12.638 -0.0586  2.6965  0.3490
  821MPD2     N12086   3.765   0.911  12.700  0.0579 -0.2657  0.6655
  821MPD2    H512087   3.735   0.981  12.632  0.7502  0.8017  1.4592
  821MPD2    N112088   3.645   0.495  12.933  0.0745  0.1148 -0.1059
  821MPD2    H712089   3.737   0.498  12.977 -0.1613 -0.8741  0.4471
  822MPD2     C12090   3.811   0.233  15.834 -0.2157  0.4304 -0.2473
  822MPD2    C112091   3.858   0.226  15.966 -0.3216 -0.0548  0.1974
  822MPD2    C212092   3.819   0.326  16.054  0.1912 -0.3079 -0.7536
  822MPD2    C312093   3.758   0.442  16.011 -0.0509  0.0136  0.1324
  822MPD2    C412094   3.714   0.449  15.880  0.0672 -0.2024 -0.1928
  822MPD2    C512095   3.735   0.339  15.800 -0.0227 -0.0188  0.5959
  822MPD2     H12096   3.853   0.314  16.157 -2.0706 -1.5334 -0.1584
  822MPD2    H112097   3.652   0.530  15.843 -0.7739 -0.5655  0.4284
  822MPD2    H212098   3.827   0.156  15.760 -0.3129  0.7768 -0.6332
  822MPD2    H312099   3.692   0.338  15.700 -0.9930  0.7513  0.9934
  822MPD2     N12100   3.735   0.538  16.109 -0.2011  0.7646 -0.4822
  822MPD2    H512101   3.778   0.517  16.199 -0.1547 -2.0772 -1.1650
  822MPD2    N112102   3.945   0.126  16.016  0.0248 -0.1417  0.4105
  822MPD2    H712103   3.993   0.140  16.105 -1.4556 -0.9023  1.3353
  823MPD2     C12104   3.655   0.839  16.919 -0.2248 -0.1710  0.3780
  823MPD2    C112105   3.683   0.752  16.818 -0.5237  0.4005  0.0140
  823MPD2    C212106   3.723   0.621  16.850 -0.2345  0.0319 -0.2192
  823MPD2    C312107   3.738   0.574  16.977  0.6861  0.2099 -0.1513
  823MPD2    C412108   3.723   0.670  17.074  0.0551  0.3944  0.3994
  823MPD2    C512109   3.670   0.795  17.043  0.3316  0.2048 -0.4189
  823MPD2     H12110   3.726   0.551  16.767 -2.0638 -1.0656  0.6310
  823MPD2    H112111   3.732   0.651  17.180  1.3703  2.3279  0.6281
  823MPD2    H212112   3.616   0.940  16.906 -0.0458 -0.2846 -1.1374
  823MPD2    H312113   3.644   0.865  17.121  0.9033 -0.5203  0.4257
  823MPD2     N12114   3.773   0.443  17.018 -0.0141  0.5675 -0.1181
  823MPD2    H512115   3.783   0.425  17.117 -2.3914 -2.2317 -0.3621
  823MPD2    N112116   3.675   0.787  16.682  0.7678  0.0791 -0.2320
  823MPD2    H712117   3.673   0.888  16.673 -2.1963  0.0099 -0.4866
  824MPD2     C12118   4.209   4.148  15.686 -0.4765 -0.3211  0.9319
  824MPD2    C112119   4.304   4.234  15.742  0.2566  0.0271  0.1935
  824MPD2    C212120   4.438   4.214  15.723  0.6108 -0.4184 -0.1364
  824MPD2    C312121   4.471   4.104  15.647 -0.1164  1.0790 -0.1836
  824MPD2    C412122   4.380   4.011  15.609 -0.5728  0.3799 -0.1070
  824MPD2    C512123   4.248   4.036  15.623  0.2958 -0.8875 -0.3846
  824MPD2     H12124   4.522   4.273  15.758 -0.0296  0.6406 -0.3842
  824MPD2    H112125   4.411   3.925  15.551 -2.3351 -0.6886  0.5342
  824MPD2    H212126   4.102   4.166  15.699 -0.2635 -0.0154  2.3276
  824MPD2    H312127   4.163   3.973  15.599  0.8148 -0.9151 -2.1626
  824MPD2     N12128   4.609   4.094  15.621  0.3925  0.3241 -0.2944
  824MPD2    H512129   4.674   4.167  15.648 -2.1289  1.1210  3.6015
  824MPD2    N112130   4.253   4.327  15.827 -0.1394  0.1894 -0.2071
  824MPD2    H712131   4.152   4.322  15.833 -0.1603  1.5699  0.4557
  825MPD2     C12132   0.658   4.152  15.165  0.2008  0.3663  0.3497
  825MPD2    C112133   0.537   4.205  15.210 -0.8518  0.4301  0.8945
  825MPD2    C212134   0.510   4.341  15.183  0.5986 -0.5617  0.3053
  825MPD2    C312135   0.599   4.418  15.106  0.4522 -0.3956 -0.4149
  825MPD2    C412136   0.717   4.361  15.063  0.1422 -0.0335  0.3218
  825MPD2    C512137   0.740   4.230  15.093 -0.3948  0.2877 -0.2791
  825MPD2     H12138   0.415   4.387  15.204  1.5006  2.2471 -1.8299
  825MPD2    H112139   0.787   4.422  15.005 -0.4319  1.0219  0.7423
  825MPD2    H212140   0.674   4.045  15.170 -1.9496  0.0435  0.2924
  825MPD2    H312141   0.838   4.194  15.061 -0.4625 -0.2109  0.0734
  825MPD2     N12142   0.564   4.546  15.061 -0.7772 -0.0956  0.6793
  825MPD2    H512143   0.633   4.580  14.995 -2.2226  1.7974  0.1285
  825MPD2    N112144   0.458   4.129  15.295  0.0673  0.3100 -0.0848
  825MPD2    H712145   0.496   4.043  15.332  0.0586 -0.2572 -1.4234
  826MPD2     C12146   0.651   4.664  13.677  0.5660  0.2746 -0.5201
  826MPD2    C112147   0.567   4.577  13.618 -0.0545  0.0522  0.2529
  826MPD2    C212148   0.437   4.618  13.578 -0.2899 -0.2582  0.4993
  826MPD2    C312149   0.398   0.016  13.602 -0.2970 -0.2316  0.2322
  826MPD2    C412150   0.485   0.111  13.651  0.7803 -0.2115  0.2266
  826MPD2    C512151   0.615   0.072  13.683  0.5158 -0.1514  0.0063
  826MPD2     H12152   0.371   4.541  13.541 -1.5647  0.6000  1.0059
  826MPD2    H112153   0.463   0.214  13.674  0.9081  0.1121 -1.1432
  826MPD2    H212154   0.744   4.613  13.698  0.0287  0.0374  1.2847
  826MPD2    H312155   0.686   0.145  13.721 -0.7740  0.7173  0.7355
  826MPD2     N12156   0.268   0.072  13.570  0.6732 -0.1580 -0.3755
  826MPD2    H512157   0.243   0.161  13.612  0.6761  1.0692 -2.9675
  826MPD2    N112158   0.616   4.449  13.603  0.9832  0.7472  0.0224
  826MPD2    H712159   0.699   4.420  13.654 -0.3386  0.1294  1.8249
  827MPD2     C12160   1.481   1.003   9.826 -0.9913 -0.0314  0.4286
  827MPD2    C112161   1.444   0.948   9.939  0.9269 -0.2798  0.1644
  827MPD2    C212162   1.338   0.861   9.930  0.4222  0.1624  0.5269
  827MPD2    C312163   1.266   0.836   9.813  0.1428  0.4960 -0.3689
  827MPD2    C412164   1.316   0.885   9.690 -0.1102 -0.1818 -0.4941
  827MPD2    C512165   1.430   0.974   9.701  0.5505  0.4113 -0.5941
  827MPD2     H12166   1.305   0.812  10.021 -1.7138  0.9979  0.2124
  827MPD2    H112167   1.284   0.861   9.589 -0.4683  0.0271 -0.4281
  827MPD2    H212168   1.571   1.064   9.822 -1.2104  0.2119 -0.7438
  827MPD2    H312169   1.465   1.020   9.609  0.3650 -2.1167 -1.9131
  827MPD2     N12170   1.152   0.755   9.818  0.1201  1.1171  0.7375
  827MPD2    H512171   1.134   0.714   9.908 -1.3309 -0.1128 -0.1166
  827MPD2    N112172   1.513   0.975  10.062 -0.0012 -0.0521 -0.6169
  827MPD2    H712173   1.600   1.026  10.070  0.8090 -1.5339 -0.0734
  828MPD2     C12174   4.224   0.882  12.427  0.5247 -0.5552  0.6032
  828MPD2    C112175   4.215   0.848  12.300 -0.2860  0.3553 -0.9227
  828MPD2    C212176   4.328   0.804  12.233 -0.3725 -0.2200  0.3135
  828MPD2    C312177   4.452   0.790  12.303  0.2445  0.3255 -0.2865
  828MPD2    C412178   4.458   0.844  12.431  0.7490 -0.0664  1.1103
  828MPD2    C512179   4.345   0.883  12.491 -1.2821  0.5599  0.2422
  828MPD2     H12180   4.305   0.780  12.129  1.2705  0.8380 -0.2796
  828MPD2    H112181   4.551   0.848  12.486  1.7751  1.4551 -0.7424
  828MPD2    H212182   4.140   0.919  12.485 -2.1733 -2.8337 -1.8861
  828MPD2    H312183   4.358   0.909  12.596 -2.1633  1.5728  0.0954
  828MPD2     N12184   4.568   0.732  12.242 -0.1567  0.1454  0.2679
  828MPD2    H512185   4.658   0.766  12.275 -0.4486  2.6880 -1.4965
  828MPD2    N112186   4.097   0.842  12.222  0.6082  0.0515 -0.1104
  828MPD2    H712187   4.112   0.830  12.123  1.3563 -1.5627  0.2069
  829MPD2     C12188   4.043   1.051  11.367 -0.1748  0.4177 -0.2509
  829MPD2    C112189   3.909   1.070  11.412 -0.2810 -0.1539  0.0806
  829MPD2    C212190   3.878   1.037  11.545  0.7579  0.1466 -0.8501
  829MPD2    C312191   3.973   1.003  11.640 -0.2638 -0.0980 -0.0628
  829MPD2    C412192   4.105   0.980  11.592  0.2267  0.2275 -0.3140
  829MPD2    C512193   4.137   1.001  11.461 -0.2058  0.5318  0.9535
  829MPD2     H12194   3.773   1.041  11.572  0.8943 -1.2108 -0.1303
  829MPD2    H112195   4.178   0.942  11.662 -0.6925  1.6716  1.4356
  829MPD2    H212196   4.079   1.095  11.275 -0.0264 -1.6914 -1.1994
  829MPD2    H312197   4.242   0.995  11.435 -0.9388  0.5566 -1.9762
  829MPD2     N12198   3.940   0.972  11.775  0.6355 -0.1637 -0.6117
  829MPD2    H512199   4.015   0.958  11.842 -1.0246  0.2045  1.3233
  829MPD2    N112200   3.814   1.122  11.317 -0.4771 -0.0321  0.2798
  829MPD2    H712201   3.852   1.140  11.225 -0.6207 -0.1411  0.2003
  830MPD2     C12202   4.156   3.308  15.687  0.1936 -0.1765  0.2376
  830MPD2    C112203   4.068   3.413  15.656  0.2201  0.3452  1.0644
  830MPD2    C212204   4.101   3.503  15.551  0.4271  0.2515  0.2248
  830MPD2    C312205   4.215   3.482  15.473  0.7698 -0.0805 -0.4546
  830MPD2    C412206   4.301   3.374  15.515 -0.3471 -0.2323  0.4815
  830MPD2    C512207   4.271   3.287  15.616  0.4298  0.1839 -0.4594
  830MPD2     H12208   4.042   3.590  15.524 -1.3440 -1.9317 -2.8934
  830MPD2    H112209   4.396   3.357  15.465  0.3203  1.2131  1.2683
  830MPD2    H212210   4.133   3.232  15.760  1.0315 -1.9439 -1.3381
  830MPD2    H312211   4.339   3.207  15.643 -1.6517 -0.7380  2.1149
  830MPD2     N12212   4.252   3.545  15.355 -0.6005 -0.7056 -0.3672
  830MPD2    H512213   4.352   3.552  15.340 -0.6990  1.9524  0.2136
  830MPD2    N112214   3.942   3.418  15.719 -0.2704  0.1767  0.2931
  830MPD2    H712215   3.924   3.346  15.789 -1.7551  0.7418  0.4967
  831MPD2     C12216   4.102   0.564  16.407  0.1196 -0.4925 -0.1921
  831MPD2    C112217   4.102   0.447  16.333  0.2501 -0.1635  0.8161
  831MPD2    C212218   4.021   0.343  16.372  0.7534  0.4057 -0.5155
  831MPD2    C312219   3.929   0.359  16.476 -0.5446 -0.3266 -0.1138
  831MPD2    C412220   3.928   0.473  16.547  0.0476  0.2980 -0.0728
  831MPD2    C512221   4.022   0.568  16.515  0.6363 -0.3862  0.4092
  831MPD2     H12222   4.010   0.254  16.312 -0.8441  0.6001 -0.5153
  831MPD2    H112223   3.847   0.504  16.612 -0.2319  0.6380 -0.5763
  831MPD2    H212224   4.159   0.652  16.380 -0.6551  0.1187  0.1898
  831MPD2    H312225   4.021   0.660  16.571 -1.6983 -1.8560  2.7218
  831MPD2     N12226   3.822   0.271  16.505 -0.1813  0.1310 -0.1091
  831MPD2    H512227   3.772   0.285  16.593 -0.4849 -1.4680 -0.0206
  831MPD2    N112228   4.185   0.439  16.219  0.5064  0.6329  0.1698
  831MPD2    H712229   4.235   0.525  16.199 -1.2988  1.7265  0.3954
  832MPD2     C12230   2.379   1.674  17.254  0.4203 -0.1007 -0.1409
  832MPD2    C112231   2.359   1.806  17.215 -0.2653  0.7285 -0.0312
  832MPD2    C212232   2.285   1.826  17.097  0.5287 -0.7056 -0.1254
  832MPD2    C312233   2.218   1.720  17.043 -0.0655 -0.2224  0.5984
  832MPD2    C412234   2.226   1.594  17.090  0.0493 -0.3157 -0.4471
  832MPD2    C512235   2.317   1.566  17.189  0.8216 -0.2632 -0.5101
  832MPD2     H12236   2.245   1.921  17.066  1.4019 -0.2604  0.1003
  832MPD2    H112237   2.168   1.513  17.047  1.2908 -2.3835  1.8196
  832MPD2    H212238   2.445   1.645  17.335  1.0043 -1.4694 -1.0901
  832MPD2    H312239   2.336   1.463  17.218  0.7711 -0.6743 -1.9122
  832MPD2     N12240   2.124   1.725  16.943  0.1364 -0.2566  0.5818
  832MPD2    H512241   2.070   1.639  16.935 -0.1114 -0.1262  0.8464
  832MPD2    N112242   2.416   1.908  17.292 -0.2190 -0.2085  0.2276
  832MPD2    H712243   2.460   1.875  17.377 -1.7061 -2.1224  0.2294
  833MPD2     C12244   4.565   3.518  12.505  0.2097 -0.0200 -0.2772
  833MPD2    C112245   4.628   3.635  12.453 -0.2622 -0.2403 -0.5561
  833MPD2    C212246   0.008   3.623  12.362  1.3033 -0.7560 -0.1071
  833MPD2    C312247   0.038   3.498  12.322 -0.4044  0.2234 -0.4463
  833MPD2    C412248   4.710   3.385  12.380 -0.3210  0.5179  0.2849
  833MPD2    C512249   4.610   3.396  12.469 -0.1555 -0.0520 -0.6026
  833MPD2     H12250   0.066   3.707  12.326  0.2965 -0.5551 -1.2730
  833MPD2    H112251   0.015   3.287  12.348 -2.5311 -0.5290  1.3601
  833MPD2    H212252   4.492   3.519  12.584  0.7384 -2.9758  0.2573
  833MPD2    H312253   4.560   3.306  12.503  1.3172 -0.6958 -0.1547
  833MPD2     N12254   0.145   3.502  12.227 -0.8973 -0.0452 -0.1643
  833MPD2    H512255   0.191   3.591  12.210  0.9351 -1.4448 -2.4266
  833MPD2    N112256   4.579   3.759  12.510  0.2770  0.1371 -1.3523
  833MPD2    H712257   4.503   3.756  12.577  0.9331  0.5094 -0.5951
  834MPD2     C12258   0.315   3.205  11.302 -0.1088 -0.7150  0.2603
  834MPD2    C112259   0.238   3.151  11.399  0.0265  0.3353 -0.0432
  834MPD2    C212260   0.237   3.205  11.526  0.0489  0.1868 -0.1491
  834MPD2    C312261   0.307   3.327  11.552 -0.0748 -0.9377  0.3085
  834MPD2    C412262   0.386   3.377  11.447 -0.5145 -0.3716  0.3311
  834MPD2    C512263   0.396   3.309  11.330 -0.4205 -0.2904 -0.0720
  834MPD2     H12264   0.175   3.156  11.601  0.7109  2.1690  1.6900
  834MPD2    H112265   0.460   3.454  11.467  0.1804 -0.3709 -2.2330
  834MPD2    H212266   0.316   3.165  11.201 -3.2705  2.5324 -1.0482
  834MPD2    H312267   0.458   3.336  11.246  0.5980  0.2462  0.8505
  834MPD2     N12268   0.307   3.372  11.687 -0.6450 -0.5257  0.0017
  834MPD2    H512269   0.249   3.311  11.745  0.5056 -3.0462 -1.4663
  834MPD2    N112270   0.168   3.028  11.379 -0.2281  0.1084  0.1927
  834MPD2    H712271   0.127   2.986  11.462 -2.6545  1.1783 -0.4536
  835MPD2     C12272   0.791   1.181  10.842 -0.0340 -0.2860  0.1628
  835MPD2    C112273   0.653   1.179  10.819 -0.3575  0.1458 -0.3155
  835MPD2    C212274   0.571   1.081  10.871 -0.8415  0.1470  0.4118
  835MPD2    C312275   0.625   1.003  10.974  0.0150  0.4144  0.4686
  835MPD2    C412276   0.761   1.012  11.007 -0.5667  1.1102  0.5854
  835MPD2    C512277   0.840   1.096  10.939  0.2666  0.4134 -0.7259
  835MPD2     H12278   0.464   1.071  10.857 -0.3261 -2.6447 -1.6545
  835MPD2    H112279   0.812   0.953  11.082 -0.7035 -0.0870 -0.2578
  835MPD2    H212280   0.860   1.251  10.796 -1.0723 -0.3592 -1.5331
  835MPD2    H312281   0.945   1.098  10.964 -0.3134  0.7803  1.7035
  835MPD2     N12282   0.546   0.912  11.042  0.2544 -0.5638 -0.7085
  835MPD2    H512283   0.587   0.883  11.130  0.2806  3.7444  0.7210
  835MPD2    N112284   0.578   1.270  10.732  0.4042  0.0937 -0.3336
  835MPD2    H712285   0.481   1.248  10.712  0.2924 -0.2833  0.5961
  836MPD2     C12286   4.643   1.221  11.011  0.0137  0.7648  0.3432
  836MPD2    C112287   4.665   1.175  11.139 -0.0626  0.6015  0.1799
  836MPD2    C212288   4.567   1.201  11.234  0.4621 -0.2876  0.2100
  836MPD2    C312289   4.451   1.272  11.208 -0.2349  0.4724  0.1072
  836MPD2    C412290   4.431   1.319  11.080  0.7122  0.2047  0.1394
  836MPD2    C512291   4.526   1.292  10.992 -0.5253 -0.1509 -0.4447
  836MPD2     H12292   4.576   1.183  11.341 -1.2664 -0.6415  0.3131
  836MPD2    H112293   4.341   1.371  11.049  0.3313  0.5133  1.7779
  836MPD2    H212294   4.699   1.188  10.924 -1.9613 -1.8283  0.0325
  836MPD2    H312295   4.508   1.320  10.888  0.1047 -2.3044 -1.1424
  836MPD2     N12296   4.356   1.311  11.304  0.4441 -0.0242 -0.3743
  836MPD2    H512297   4.276   1.364  11.272  1.4425  1.1929 -0.8904
  836MPD2    N112298   0.058   1.100  11.161 -0.4587  0.6645 -0.0783
  836MPD2    H712299   0.106   1.081  11.074 -2.0166  1.9422 -1.2186
  837MPD2     C12300   3.365   1.116   9.946  0.1204  0.2792  0.1356
  837MPD2    C112301   3.293   1.154   9.841  0.4820 -0.1282  0.1049
  837MPD2    C212302   3.316   1.286   9.797  0.2941 -0.0856 -0.0591
  837MPD2    C312303   3.408   1.373   9.863  0.9951 -0.1660  0.5438
  837MPD2    C412304   3.476   1.328   9.972 -0.1457 -0.1128  0.2154
  837MPD2    C512305   3.457   1.195  10.008 -0.1425 -0.1976 -0.6219
  837MPD2     H12306   3.250   1.319   9.718  2.1327 -0.1677 -1.6153
  837MPD2    H112307   3.563   1.384  10.002 -0.6477  0.0673  1.3295
  837MPD2    H212308   3.355   1.014   9.981 -2.3937  0.4973  0.0471
  837MPD2    H312309   3.532   1.151  10.074 -0.9196  2.0315  1.7967
  837MPD2     N12310   3.405   1.509   9.813 -0.2429 -0.2791 -0.5983
  837MPD2    H512311   3.333   1.520   9.742  0.2205  0.5037 -0.9466
  837MPD2    N112312   3.173   1.092   9.792 -0.4365 -0.6193  0.0797
  837MPD2    H712313   3.140   1.136   9.707  1.1981 -0.2963 -0.4001
  838MPD2     C12314   1.289   4.334  12.275 -0.2001 -0.9049  0.1085
  838MPD2    C112315   1.301   4.194  12.277 -0.5210 -0.4014 -0.1251
  838MPD2    C212316   1.195   4.119  12.316  0.0501 -0.7734  0.7444
  838MPD2    C312317   1.075   4.177  12.356  1.2922  0.3875  0.0400
  838MPD2    C412318   1.061   4.318  12.352  0.3807  0.1140 -0.0074
  838MPD2    C512319   1.169   4.391  12.297  0.3328 -0.0814  0.3933
  838MPD2     H12320   1.195   4.010  12.314 -1.0640 -0.7724  0.3394
  838MPD2    H112321   0.970   4.370  12.378  0.3630 -0.3627  0.8692
  838MPD2    H212322   1.360   4.397  12.222 -2.8564  0.1095 -2.3315
  838MPD2    H312323   1.164   4.498  12.281 -1.4958 -0.3533 -0.9275
  838MPD2     N12324   0.974   4.094  12.404  0.1039  0.2911  0.3630
  838MPD2    H512325   0.987   3.993  12.397  0.0446  0.1045  2.8626
  838MPD2    N112326   1.411   4.122  12.219  0.2334 -0.0277 -0.3197
  838MPD2    H712327   1.401   4.021  12.227  2.7077 -0.1149  1.7440
  839MPD2     C12328   1.202   3.368  12.052 -0.9138  0.5093 -0.7963
  839MPD2    C112329   1.236   3.405  11.925  0.9860 -0.2311  0.0009
  839MPD2    C212330   1.336   3.503  11.914 -0.1642 -0.3432  0.3242
  839MPD2    C312331   1.365   3.583  12.029  0.5770  1.0550  0.5359
  839MPD2    C412332   1.325   3.540  12.153  0.6110  0.0997  0.1254
  839MPD2    C512333   1.242   3.430  12.162  0.0310 -0.3201  0.5041
  839MPD2     H12334   1.370   3.525  11.813  0.8197  0.1999  0.7688
  839MPD2    H112335   1.362   3.584  12.245 -1.1617 -0.0094  0.8998
  839MPD2    H212336   1.151   3.273  12.065 -3.2303  1.6242 -1.8102
  839MPD2    H312337   1.213   3.388  12.257 -1.5277  1.2289  0.7165
  839MPD2     N12338   1.445   3.699  12.024  0.1075  0.3488  0.5013
  839MPD2    H512339   1.454   3.757  12.107  1.2781 -0.8368  1.2036
  839MPD2    N112340   1.198   3.338  11.811  0.0536 -0.0545 -0.0078
  839MPD2    H712341   1.260   3.332  11.732  1.7130  0.0872  1.2861
  840MPD2     C12342   1.760   1.498  10.107 -0.2822 -0.3582 -0.4757
  840MPD2    C112343   1.795   1.459  10.237 -0.4387  0.1495 -0.3968
  840MPD2    C212344   1.835   1.541  10.336 -0.6325 -0.4159  0.9597
  840MPD2    C312345   1.843   1.676  10.311  0.2321  0.1552 -0.3051
  840MPD2    C412346   1.821   1.718  10.183 -0.1050 -0.8445 -0.5218
  840MPD2    C512347   1.778   1.632  10.086  0.0699 -0.1051  0.3704
  840MPD2     H12348   1.876   1.498  10.426  1.9130  0.9256  0.4523
  840MPD2    H112349   1.830   1.823  10.155  2.8587 -1.4719 -1.8857
  840MPD2    H212350   1.734   1.430  10.026  1.2904 -1.5390  0.0175
  840MPD2    H312351   1.773   1.663   9.982 -0.6309 -2.2715 -0.2260
  840MPD2     N12352   1.862   1.781  10.409 -0.2364  0.1147  1.2172
  840MPD2    H512353   1.893   1.871  10.374  0.6665 -1.1133 -1.1223
  840MPD2    N112354   1.780   1.318  10.264 -0.0085 -0.0383 -0.1820
  840MPD2    H712355   1.741   1.274  10.182  0.6518 -0.6837 -0.1451
  841MPD2     C12356   0.631   1.013  15.220 -0.2688  0.0748 -0.5478
  841MPD2    C112357   0.627   0.939  15.102  0.4563  0.6264 -0.3800
  841MPD2    C212358   0.635   1.013  14.987 -0.2373  0.0607  0.4643
  841MPD2    C312359   0.672   1.148  14.995  0.6862 -0.0767  0.1786
  841MPD2    C412360   0.650   1.220  15.112 -0.3866 -0.3313  0.8745
  841MPD2    C512361   0.626   1.150  15.226  0.2326  0.4887  0.2500
  841MPD2     H12362   0.646   0.953  14.897 -0.9590 -0.0294  0.4383
  841MPD2    H112363   0.653   1.328  15.108  2.9535 -0.4114  1.0433
  841MPD2    H212364   0.630   0.966  15.318 -0.2005 -0.2071 -0.6836
  841MPD2    H312365   0.621   1.200  15.321  0.5092 -0.3524  0.7076
  841MPD2     N12366   0.722   1.216  14.879  0.1125  0.0448  0.4441
  841MPD2    H512367   0.731   1.163  14.793 -1.5632 -1.0190  0.9213
  841MPD2    N112368   0.649   0.795  15.099 -0.4442 -0.4553 -0.1296
  841MPD2    H712369   0.675   0.759  15.008  0.0065  4.4053 -1.9715
  842MPD2     C12370   1.534   1.895  16.434 -0.6570  0.6163 -0.1060
  842MPD2    C112371   1.409   1.845  16.426 -0.2663  0.3391 -0.0838
  842MPD2    C212372   1.351   1.814  16.547  0.3143  0.4537 -0.8879
  842MPD2    C312373   1.417   1.815  16.665 -0.0919  0.0588  0.4684
  842MPD2    C412374   1.540   1.877  16.667 -0.0618  0.5599  0.5746
  842MPD2    C512375   1.595   1.917  16.553  0.1324 -0.6715 -0.1628
  842MPD2     H12376   1.254   1.765  16.554  0.8924 -0.5426  0.1800
  842MPD2    H112377   1.591   1.893  16.762 -1.2607  2.8751  0.8363
  842MPD2    H212378   1.585   1.926  16.343  1.1676 -1.1963  0.3053
  842MPD2    H312379   1.685   1.976  16.556 -1.1086  1.2721 -1.1627
  842MPD2     N12380   1.367   1.764  16.785  0.0932 -0.3689  0.1732
  842MPD2    H512381   1.426   1.774  16.867 -0.3287 -1.2897  0.5888
  842MPD2    N112382   1.342   1.851  16.303  0.4272 -0.4491  0.2226
  842MPD2    H712383   1.387   1.876  16.216 -2.1718  1.3585 -0.5874
  843MPD2     C12384   3.160   2.753   0.113 -0.2066  0.4272  0.7477
  843MPD2    C112385   3.243   2.653   0.147  0.0548 -0.7068  0.8573
  843MPD2    C212386   3.383   2.677   0.136  0.0191  0.2123 -0.1810
  843MPD2    C312387   3.424   2.801   0.094 -0.6177 -0.2628  0.1007
  843MPD2    C412388   3.334   2.898   0.062 -0.2053  0.3888  0.6599
  843MPD2    C512389   3.203   2.869   0.061  0.2856 -0.0046  0.2899
  843MPD2     H12390   3.460   2.608   0.168  1.6493  1.0215 -2.3701
  843MPD2    H112391   3.370   2.994   0.026 -0.7015  0.1580 -0.4431
  843MPD2    H212392   3.054   2.732   0.122 -0.3987  0.1487 -1.9743
  843MPD2    H312393   3.144   2.951   0.021  1.0000 -0.2798 -1.3243
  843MPD2     N12394   3.558   2.839   0.073  0.7167 -0.2734 -0.2883
  843MPD2    H512395   3.571   2.938   0.056  1.0393 -0.2766 -0.0649
  843MPD2    N112396   3.177   2.539   0.193 -0.3896  0.8854 -0.5791
  843MPD2    H712397   3.079   2.550   0.218 -0.9558  0.5166 -2.6850
  844MPD2     C12398   2.116   1.573  16.292  0.3392  0.3099 -0.7147
  844MPD2    C112399   2.117   1.449  16.360 -0.3836  0.2506 -0.6569
  844MPD2    C212400   2.193   1.440  16.471  1.2225 -0.3210  0.0542
  844MPD2    C312401   2.263   1.552  16.520 -0.0457 -0.3937 -0.4311
  844MPD2    C412402   2.250   1.678  16.462  0.3691 -0.3223  0.0199
  844MPD2    C512403   2.178   1.679  16.349 -0.5573 -0.1134  0.1805
  844MPD2     H12404   2.202   1.344  16.522  0.2121 -0.3009  0.2663
  844MPD2    H112405   2.292   1.772  16.494  1.3184 -0.3396 -1.1774
  844MPD2    H212406   2.072   1.589  16.194 -0.0921  0.2161 -0.5380
  844MPD2    H312407   2.172   1.767  16.285 -1.4226 -0.1112  0.2655
  844MPD2     N12408   2.342   1.535  16.638 -0.3244 -0.4099 -0.3156
  844MPD2    H512409   2.352   1.441  16.677 -0.6006 -0.1937  0.2843
  844MPD2    N112410   2.069   1.328  16.308  0.3950  0.2682  0.6206
  844MPD2    H712411   2.099   1.246  16.360 -3.2051 -2.4744 -1.5961
  845MPD2     C12412   2.933   2.234  17.115  0.0925  0.5826  0.9255
  845MPD2    C112413   2.827   2.239  17.033  0.3979 -0.4401 -0.3281
  845MPD2    C212414   2.760   2.127  16.994 -0.0164 -0.3516  0.0511
  845MPD2    C312415   2.803   1.997  17.028  0.3783 -0.3751 -0.2263
  845MPD2    C412416   2.915   1.992  17.107 -0.1624  0.1512  0.2586
  845MPD2    C512417   2.980   2.109  17.154 -0.1463  0.4174 -0.3772
  845MPD2     H12418   2.664   2.136  16.945 -0.2261 -0.4328  0.4472
  845MPD2    H112419   2.943   1.895  17.148 -2.2054 -0.9605 -1.0311
  845MPD2    H212420   2.990   2.321  17.145 -2.2437  2.0385  1.1690
  845MPD2    H312421   3.064   2.123  17.222 -1.9046 -1.4575  2.2087
  845MPD2     N12422   2.730   1.888  16.988 -0.3418  0.2623  0.1547
  845MPD2    H512423   2.647   1.909  16.933 -1.1648 -1.6589  0.6627
  845MPD2    N112424   2.764   2.359  17.006 -0.3982 -0.7083  0.0560
  845MPD2    H712425   2.809   2.438  17.052 -3.7814  1.6902 -0.7434
  846MPD2     C12426   4.168   2.874  13.407 -0.4535  0.1813  0.1983
  846MPD2    C112427   4.070   2.961  13.445  0.7934 -0.3274  0.2699
  846MPD2    C212428   4.014   2.957  13.570 -0.5615 -0.3425 -0.3686
  846MPD2    C312429   4.052   2.853  13.657 -0.6163 -0.2395  0.5200
  846MPD2    C412430   4.147   2.761  13.611  0.4572 -0.1023 -0.3937
  846MPD2    C512431   4.197   2.772  13.484 -0.8443  0.2718  0.6209
  846MPD2     H12432   3.942   3.032  13.601  0.3873 -0.1944  1.4948
  846MPD2    H112433   4.181   2.674  13.667 -0.4157  0.4278  0.9585
  846MPD2    H212434   4.217   2.892  13.312  1.8491  0.7237  1.4694
  846MPD2    H312435   4.261   2.694  13.445 -0.3339  0.3243  1.3649
  846MPD2     N12436   3.998   2.859  13.789  0.9161  1.0090 -0.4679
  846MPD2    H512437   3.938   2.932  13.825 -1.8562 -0.9581 -1.1228
  846MPD2    N112438   4.034   3.065  13.354  0.0524  0.1638  0.1626
  846MPD2    H712439   3.956   3.124  13.381 -1.3796 -0.7758 -1.9513
  847MPD2     C12440   4.402   3.656  13.989  0.2025  0.3152 -0.1837
  847MPD2    C112441   4.466   3.730  14.086 -0.0704 -0.3797 -0.2617
  847MPD2    C212442   4.517   3.670  14.195  0.0111  0.3873  0.9312
  847MPD2    C312443   4.486   3.539  14.232  0.5866 -0.1450 -0.2496
  847MPD2    C412444   4.418   3.475  14.134 -0.3661  0.9252  0.3850
  847MPD2    C512445   4.382   3.524  14.013 -0.0741 -0.1332  0.2720
  847MPD2     H12446   4.571   3.742  14.256  2.5160 -0.4828 -0.2841
  847MPD2    H112447   4.419   3.367  14.144 -2.6079  0.8399 -0.1816
  847MPD2    H212448   4.368   3.694  13.893  3.0036 -1.6340 -1.9166
  847MPD2    H312449   4.343   3.465  13.930  1.6318 -0.8775  0.0177
  847MPD2     N12450   4.529   3.475  14.355 -0.0567  0.0721 -0.9601
  847MPD2    H512451   4.483   3.385  14.364  0.2485 -0.1740 -1.8166
  847MPD2    N112452   4.470   3.871  14.086 -0.0360 -0.0030  0.3820
  847MPD2    H712453   4.499   3.909  14.176 -2.0545 -0.2548  1.1218
  848MPD2     C12454   1.824   2.027  16.166  0.3485  0.1206  0.6165
  848MPD2    C112455   1.872   2.066  16.293  0.3002 -0.0871 -0.0598
  848MPD2    C212456   1.882   2.200  16.316 -0.5771 -0.2454 -0.7668
  848MPD2    C312457   1.833   2.295  16.227  0.3721  0.3228  0.5722
  848MPD2    C412458   1.808   2.252  16.100  0.2444 -0.0344 -0.4308
  848MPD2    C512459   1.801   2.120  16.071  0.0268  0.5186  0.6971
  848MPD2     H12460   1.911   2.241  16.412  1.2189 -1.2411 -0.8871
  848MPD2    H112461   1.760   2.324  16.034 -1.0731  0.2477  0.8167
  848MPD2    H212462   1.804   1.921  16.148 -0.3566 -0.1401  2.9154
  848MPD2    H312463   1.774   2.087  15.971  0.4050 -1.1075  1.1371
  848MPD2     N12464   1.822   2.431  16.249 -0.8034 -0.7392  0.1077
  848MPD2    H512465   1.777   2.485  16.176  2.0664  0.4945 -0.7445
  848MPD2    N112466   1.899   1.979  16.404 -0.5758 -0.1486 -0.4321
  848MPD2    H712467   1.927   2.022  16.492  3.4937 -2.2865 -0.6682
  849MPD2     C12468   0.756   1.873  13.982  0.1418 -0.6043 -0.1140
  849MPD2    C112469   0.875   1.834  13.926  0.8470  1.1170  0.8888
  849MPD2    C212470   0.982   1.801  14.003  1.1297  0.4040  0.4749
  849MPD2    C312471   0.968   1.769  14.133 -0.0739 -0.5097  0.1445
  849MPD2    C412472   0.845   1.786  14.189 -0.0162 -0.0132  0.4588
  849MPD2    C512473   0.741   1.836  14.115 -0.2281 -0.6215 -0.0638
  849MPD2     H12474   1.080   1.790  13.957  0.7932 -0.2629 -0.0801
  849MPD2    H112475   0.833   1.746  14.289 -1.8137  2.2451  1.1446
  849MPD2    H212476   0.667   1.894  13.924  1.3534 -0.2374 -1.8299
  849MPD2    H312477   0.648   1.864  14.164 -0.4357 -1.2959 -0.0761
  849MPD2     N12478   1.085   1.717  14.193 -0.0274  0.2983 -0.1151
  849MPD2    H512479   1.166   1.703  14.132  0.7484  1.9479  0.5459
  849MPD2    N112480   0.904   1.867  13.796 -1.1801  0.2805 -0.5266
  849MPD2    H712481   1.000   1.869  13.764 -0.5784 -0.4988  1.2868
  850MPD2     C12482   3.974   4.316  14.466 -0.1305 -0.2298 -0.7639
  850MPD2    C112483   3.979   4.450  14.511  0.7934 -0.4682 -0.2211
  850MPD2    C212484   4.095   4.504  14.567  0.0398  0.4691  0.8965
  850MPD2    C312485   4.199   4.420  14.602  0.5981 -0.5679  0.4496
  850MPD2    C412486   4.189   4.288  14.562 -0.3004  0.3337  0.3824
  850MPD2    C512487   4.080   4.241  14.494  0.7327  0.1158 -0.6234
  850MPD2     H12488   4.095   4.608  14.599 -2.5818 -0.1617  2.9256
  850MPD2    H112489   4.277   4.228  14.578  0.6883  1.1199 -2.1591
  850MPD2    H212490   3.886   4.271  14.422 -0.5586 -1.2074  1.1142
  850MPD2    H312491   4.072   4.138  14.459 -0.2361  0.2838 -0.9010
  850MPD2     N12492   4.307   4.468  14.676 -0.0215  0.1098  0.3812
  850MPD2    H512493   4.390   4.410  14.675 -0.7110 -0.8362 -1.9485
  850MPD2    N112494   3.867   4.538  14.505 -0.2036 -0.3436 -0.2917
  850MPD2    H712495   3.797   4.513  14.436 -0.0216 -1.4751 -0.0647
  851MPD2     C12496   4.213   4.467  15.272 -0.8232  0.1393  0.3482
  851MPD2    C112497   4.153   4.425  15.155  0.5801 -0.4606 -0.7763
  851MPD2    C212498   4.190   4.296  15.110 -0.0617 -0.4354  0.2879
  851MPD2    C312499   4.273   4.216  15.185  0.3192  0.1418 -0.7021
  851MPD2    C412500   4.327   4.267  15.301 -0.5995 -0.6216 -0.1787
  851MPD2    C512501   4.306   4.397  15.345 -0.6517 -0.0428  0.3209
  851MPD2     H12502   4.138   4.251  15.026 -1.0081 -1.3865  1.3780
  851MPD2    H112503   4.406   4.215  15.354 -1.0288 -0.0631  1.0310
  851MPD2    H212504   4.184   4.565  15.308  1.8695  1.8719 -2.1579
  851MPD2    H312505   4.362   4.447  15.423  0.1878  0.7205 -0.7567
  851MPD2     N12506   4.315   4.090  15.136  0.5473  1.2357  0.2241
  851MPD2    H512507   4.283   4.064  15.043  1.2428  0.1404  0.2807
  851MPD2    N112508   4.072   4.510  15.079 -0.4739 -0.1016 -0.7117
  851MPD2    H712509   4.078   4.609  15.102  0.9884 -0.2602 -0.4332
  852MPD2     C12510   3.928   3.768   9.868  0.1926 -0.3527 -0.6992
  852MPD2    C112511   3.973   3.691   9.969 -0.3937  1.1756  0.1711
  852MPD2    C212512   4.086   3.734  10.035  0.3292  0.1966  0.4329
  852MPD2    C312513   4.152   3.857  10.001 -0.2305 -0.5904  0.9317
  852MPD2    C412514   4.104   3.930   9.889 -0.5352  0.2957  0.7669
  852MPD2    C512515   3.989   3.884   9.826  0.3219  0.7639 -0.5462
  852MPD2     H12516   4.131   3.670  10.110 -2.8050 -1.3115  1.0289
  852MPD2    H112517   4.146   4.024   9.857  1.7041 -0.7559  0.6132
  852MPD2    H212518   3.841   3.748   9.806 -0.8644  0.0201  0.6598
  852MPD2    H312519   3.952   3.943   9.744 -0.6756  1.5608  0.4753
  852MPD2     N12520   4.271   3.889  10.068 -0.3180 -0.2727  0.5531
  852MPD2    H512521   4.304   3.822  10.137  2.2348  0.0934 -0.3216
  852MPD2    N112522   3.930   3.563  10.015  0.1458 -0.5463  0.5910
  852MPD2    H712523   3.967   3.528  10.102  0.0271 -1.2804  0.3432
  853MPD2     C12524   0.567   3.020  12.809 -0.3069 -0.7183 -0.7257
  853MPD2    C112525   0.651   2.913  12.798 -0.5333 -0.0860 -0.1463
  853MPD2    C212526   0.650   2.839  12.677  0.4477  0.4440 -0.0582
  853MPD2    C312527   0.563   2.869  12.572 -0.4817  0.5323 -0.4134
  853MPD2    C412528   0.467   2.973  12.597 -0.5712  0.0623  0.9283
  853MPD2    C512529   0.479   3.049  12.707 -0.4303  0.1742 -0.0386
  853MPD2     H12530   0.724   2.765  12.649 -0.0460 -0.3308  0.6825
  853MPD2    H112531   0.385   2.988  12.528  1.3197 -0.4816 -1.4119
  853MPD2    H212532   0.574   3.093  12.889 -0.8856  0.0016 -1.3233
  853MPD2    H312533   0.413   3.134  12.719  0.1242  0.4957  0.6820
  853MPD2     N12534   0.560   2.784  12.454  0.0070 -0.0037  0.4090
  853MPD2    H512535   0.629   2.710  12.446 -1.1264 -1.0066 -0.1326
  853MPD2    N112536   0.738   2.886  12.907 -0.4745  0.3683  0.3136
  853MPD2    H712537   0.721   2.940  12.991 -1.6090  1.1164 -0.4083
  854MPD2     C12538   2.454   2.395  13.119 -0.5062  0.1104 -0.1302
  854MPD2    C112539   2.563   2.463  13.062 -0.4511 -0.0895 -0.1568
  854MPD2    C212540   2.687   2.405  13.056  0.1691  0.0935  0.4727
  854MPD2    C312541   2.702   2.281  13.117 -0.8939  0.0900 -0.7051
  854MPD2    C412542   2.592   2.215  13.171  0.2292 -0.3671  0.0841
  854MPD2    C512543   2.472   2.274  13.179 -0.2091  0.6277 -0.0525
  854MPD2     H12544   2.780   2.438  13.013 -0.0688 -1.5535 -1.3091
  854MPD2    H112545   2.607   2.117  13.214  0.7991 -0.5783 -0.6035
  854MPD2    H212546   2.352   2.429  13.107 -1.2937 -1.6377  1.6307
  854MPD2    H312547   2.400   2.212  13.230  2.1095 -1.3273  0.8304
  854MPD2     N12548   2.824   2.203  13.119  0.5899 -0.1792  0.1927
  854MPD2    H512549   2.825   2.115  13.168  2.2316 -0.1701  0.1871
  854MPD2    N112550   2.531   2.590  13.004  0.2755 -0.3420  0.0798
  854MPD2    H712551   2.435   2.620  13.017  0.5089  0.5016 -0.0775
  855MPD2     C12552   2.562   1.954  13.668 -0.3862 -0.1414  0.7682
  855MPD2    C112553   2.672   1.859  13.663  0.4890 -0.5133 -0.1640
  855MPD2    C212554   2.793   1.883  13.600 -0.2529  0.2369 -0.0216
  855MPD2    C312555   2.791   1.997  13.523  0.3984  0.7091 -0.1755
  855MPD2    C412556   2.684   2.078  13.507 -0.7480  0.2746 -0.5093
  855MPD2    C512557   2.574   2.064  13.588  0.4763 -0.1242 -0.2918
  855MPD2     H12558   2.881   1.821  13.607  0.8753  1.7973 -0.3089
  855MPD2    H112559   2.692   2.164  13.441  0.2300  1.3816  1.0642
  855MPD2    H212560   2.471   1.938  13.726 -1.9658  2.6494 -0.9435
  855MPD2    H312561   2.498   2.142  13.584 -0.2065 -0.7218  1.0367
  855MPD2     N12562   2.904   2.034  13.440  0.0339 -0.5327 -0.0316
  855MPD2    H512563   2.904   2.124  13.393 -1.6358 -1.9325 -2.6698
  855MPD2    N112564   2.665   1.734  13.738 -0.2553  0.3656 -0.0327
  855MPD2    H712565   2.750   1.684  13.761 -0.7443 -0.7696 -0.6804
  856MPD2     C12566   0.213   3.085  13.694  0.5167  0.2017  0.2828
  856MPD2    C112567   0.273   3.167  13.792 -0.1363  0.5838 -0.0665
  856MPD2    C212568   0.208   3.285  13.822  0.7244 -0.3557  0.6884
  856MPD2    C312569   0.090   3.328  13.749  0.2795 -0.0016  0.7845
  856MPD2    C412570   0.044   3.254  13.639 -0.2506  0.8371 -0.0705
  856MPD2    C512571   0.108   3.135  13.616  0.6342 -0.8805 -0.0521
  856MPD2     H12572   0.253   3.334  13.907 -0.1117  2.3393 -0.4246
  856MPD2    H112573   4.695   3.287  13.567  0.6067  0.9497 -0.9208
  856MPD2    H212574   0.257   2.994  13.654  1.3477 -0.1478  1.9792
  856MPD2    H312575   0.066   3.078  13.533 -1.2783  3.9189 -2.3510
  856MPD2     N12576   0.024   3.447  13.786  0.2826  0.3647 -0.8424
  856MPD2    H512577   4.675   3.477  13.724 -0.4605  1.7053  0.6759
  856MPD2    N112578   0.396   3.142  13.857 -0.2505 -0.3196 -0.6573
  856MPD2    H712579   0.435   3.216  13.914 -1.7552  1.7569 -2.3343
  857MPD2     C12580   2.370   0.836  12.249  0.0853 -0.7474  0.0886
  857MPD2    C112581   2.339   0.807  12.375 -0.3611  0.1804  0.6625
  857MPD2    C212582   2.280   0.916  12.448 -0.1966  0.6493  0.0012
  857MPD2    C312583   2.249   1.034  12.384 -0.0439  0.4790 -0.5531
  857MPD2    C412584   2.290   1.057  12.260  0.6955  0.7310  0.7438
  857MPD2    C512585   2.348   0.956  12.188 -0.0426  0.6109 -0.3324
  857MPD2     H12586   2.265   0.899  12.554  0.5401 -1.3918 -0.2169
  857MPD2    H112587   2.290   1.150  12.205 -2.2616  0.2490 -0.0928
  857MPD2    H212588   2.417   0.754  12.194 -1.2581  0.0235 -2.1974
  857MPD2    H312589   2.379   0.956  12.084  1.8224  1.1138  0.2284
  857MPD2     N12590   2.205   1.142  12.469  0.5810  0.1459 -0.3227
  857MPD2    H512591   2.186   1.116  12.565 -0.7967 -0.3684 -0.7343
  857MPD2    N112592   2.349   0.677  12.429 -0.8451 -0.0791 -0.4006
  857MPD2    H712593   2.404   0.613  12.372 -1.0367  0.4996 -1.2437
  858MPD2     C12594   2.185   4.042  16.462  0.3121  0.1468  0.1464
  858MPD2    C112595   2.314   4.023  16.498  0.1717  0.0137  0.0260
  858MPD2    C212596   2.382   4.121  16.564  0.0934 -0.0689 -0.1143
  858MPD2    C312597   2.320   4.234  16.618 -0.1851 -0.0081  0.1332
  858MPD2    C412598   2.187   4.251  16.588  0.3416 -0.1081  0.0745
  858MPD2    C512599   2.120   4.157  16.517  0.6744 -0.3799  0.2193
  858MPD2     H12600   2.489   4.113  16.581 -0.0833 -0.1242  0.9298
  858MPD2    H112601   2.133   4.340  16.616  0.6804  0.6663 -1.6925
  858MPD2    H212602   2.133   3.968  16.403  1.5806 -0.6453  0.0313
  858MPD2    H312603   2.013   4.168  16.500  0.5748 -2.0700 -0.2422
  858MPD2     N12604   2.382   4.339  16.692  0.2102 -0.7252 -0.3426
  858MPD2    H512605   2.327   4.424  16.704  2.0067  0.5846 -1.4775
  858MPD2    N112606   2.370   3.890  16.477 -0.3117 -0.1294 -0.5836
  858MPD2    H712607   2.311   3.814  16.447  0.7180 -2.0472  2.1737
  859MPD2     C12608   1.060   1.558  15.486 -0.5595  0.2825  0.4019
  859MPD2    C112609   1.030   1.557  15.351 -0.3201 -0.3475  0.1356
  859MPD2    C212610   1.000   1.438  15.292  0.0595  0.1929  0.2973
  859MPD2    C312611   0.989   1.319  15.362  0.1792  0.1595  0.5650
  859MPD2    C412612   0.994   1.329  15.501  0.3303  0.4700 -0.2848
  859MPD2    C512613   1.023   1.445  15.559 -0.4337 -0.5738  0.3653
  859MPD2     H12614   1.000   1.431  15.184 -0.4732  2.7203  0.1339
  859MPD2    H112615   0.971   1.243  15.564 -0.2102 -0.0073 -1.1381
  859MPD2    H212616   1.088   1.651  15.534 -0.4288  0.1160  0.6418
  859MPD2    H312617   1.022   1.453  15.667  0.0861 -2.4414  0.5002
  859MPD2     N12618   0.972   1.192  15.303 -0.0446  0.0588  0.2014
  859MPD2    H512619   0.932   1.118  15.360  2.6831  0.0707  2.1516
  859MPD2    N112620   1.052   1.681  15.282 -0.8975  0.4378  0.8213
  859MPD2    H712621   1.094   1.755  15.337 -1.1519  1.2837 -0.1236
  860MPD2     C12622   3.735   2.031  11.497  0.0460  0.5675 -0.1056
  860MPD2    C112623   3.681   2.153  11.528 -0.1479  0.4597  0.6758
  860MPD2    C212624   3.569   2.155  11.606 -0.5817 -0.2161 -0.0474
  860MPD2    C312625   3.513   2.037  11.648 -0.8401 -0.1420  0.1689
  860MPD2    C412626   3.578   1.912  11.627  0.2514  0.0954  0.4563
  860MPD2    C512627   3.689   1.916  11.553 -0.2260 -0.0318 -0.1003
  860MPD2     H12628   3.525   2.248  11.642 -2.0954 -0.0085 -2.4138
  860MPD2    H112629   3.542   1.816  11.662  0.0967  0.9867  2.7017
  860MPD2    H212630   3.819   2.022  11.429 -1.2653  2.1258 -1.9122
  860MPD2    H312631   3.734   1.819  11.533  3.9608  1.8465  0.1110
  860MPD2     N12632   3.402   2.049  11.729  0.4608  0.1941  0.8470
  860MPD2    H512633   3.366   2.143  11.739 -0.8275 -0.4100  1.9060
  860MPD2    N112634   3.736   2.273  11.491 -0.0932  0.4540 -0.4869
  860MPD2    H712635   3.711   2.352  11.549 -2.4469 -0.1248 -0.7143
  861MPD2     C12636   3.064   0.780  10.773 -0.4402 -0.1082  0.8842
  861MPD2    C112637   2.947   0.826  10.832 -0.1434 -1.3411 -0.7498
  861MPD2    C212638   2.858   0.893  10.753 -0.7198  0.0034  0.3121
  861MPD2    C312639   2.876   0.897  10.620 -0.0801 -0.5527 -0.4004
  861MPD2    C412640   2.993   0.858  10.563  0.1094  0.4978 -0.0881
  861MPD2    C512641   3.083   0.797  10.638  0.3080  0.2619  0.1093
  861MPD2     H12642   2.771   0.945  10.792 -0.4960  0.5602  0.0616
  861MPD2    H112643   3.002   0.864  10.455  2.1214 -0.8497  0.0075
  861MPD2    H212644   3.147   0.736  10.827  0.3642  0.4415  0.1059
  861MPD2    H312645   3.172   0.761  10.588  1.4013 -0.4562  2.5386
  861MPD2     N12646   2.779   0.941  10.526  0.3094 -0.4997 -0.4742
  861MPD2    H512647   2.803   0.978  10.435  0.8559 -0.5274 -0.3458
  861MPD2    N112648   2.920   0.812  10.973 -0.3674 -0.3854  0.2299
  861MPD2    H712649   2.845   0.871  11.008  0.5826  0.3707  1.0000
  862MPD2     C12650   2.415   0.748   9.997  0.2986  0.1714  0.3491
  862MPD2    C112651   2.365   0.790  10.120 -1.0178  0.6270 -0.0304
  862MPD2    C212652   2.332   0.691  10.213  0.1409  0.0588 -0.4671
  862MPD2    C312653   2.338   0.558  10.187  0.0285  0.5799  0.9893
  862MPD2    C412654   2.366   0.519  10.059  0.4743  0.0642  0.4262
  862MPD2    C512655   2.399   0.614   9.965  0.0923 -0.4652 -0.1386
  862MPD2     H12656   2.315   0.713  10.317 -1.1206 -1.2411 -0.4040
  862MPD2    H112657   2.378   0.417  10.024 -0.7888  0.0072  0.1450
  862MPD2    H212658   2.466   0.812   9.927  1.4264 -1.1393 -0.0258
  862MPD2    H312659   2.425   0.575   9.867 -0.3362  0.3178 -0.5593
  862MPD2     N12660   2.310   0.465  10.281 -0.0594  0.0208 -0.1095
  862MPD2    H512661   2.349   0.374  10.262  3.2424  1.3668  0.1370
  862MPD2    N112662   2.383   0.921  10.175  0.3963  0.2795 -0.0079
  862MPD2    H712663   2.343   0.940  10.266 -0.5358  2.7799 -0.9536
  863MPD2     C12664   0.331   3.398  17.173 -0.0285  0.1738 -0.7893
  863MPD2    C112665   0.426   3.468  17.108 -0.3740 -0.9242  0.2471
  863MPD2    C212666   0.555   3.454  17.158  0.8807  0.9250  0.1734
  863MPD2    C312667   0.585   3.375  17.263 -0.0087 -0.3274 -0.0272
  863MPD2    C412668   0.483   3.326  17.341  0.5635  0.2485  0.5187
  863MPD2    C512669   0.352   3.336  17.294 -0.2495  0.4840 -0.8027
  863MPD2     H12670   0.629   3.512  17.105  1.2897 -0.9277 -1.2456
  863MPD2    H112671   0.502   3.284  17.439  0.6425  0.3066  0.5284
  863MPD2    H212672   0.229   3.418  17.141 -0.1862 -0.0463 -0.4255
  863MPD2    H312673   0.267   3.302  17.352  0.3507  0.5872  0.1514
  863MPD2     N12674   0.721   3.345  17.307 -0.0080  0.1485 -0.2260
  863MPD2    H512675   0.741   3.274  17.376  1.0591  0.0501 -0.6289
  863MPD2    N112676   0.390   3.545  16.991 -0.0356  0.6370  0.1712
  863MPD2    H712677   0.291   3.555  16.975 -0.1760  3.3372  2.7168
  864MPD2     C12678   1.050   4.357  16.614 -0.1013 -0.3080  0.0175
  864MPD2    C112679   1.077   4.472  16.683  0.5035 -0.9424 -0.0185
  864MPD2    C212680   1.140   4.584  16.626  0.6669 -0.1070  0.0067
  864MPD2    C312681   1.157   4.580  16.486 -0.3109  0.2946  0.0854
  864MPD2    C412682   1.136   4.465  16.418 -0.8640  0.4782  0.0171
  864MPD2    C512683   1.081   4.354  16.481  0.6540  0.0654 -0.3752
  864MPD2     H12684   1.185   4.663  16.684 -1.7226 -0.2836  2.0845
  864MPD2    H112685   1.147   4.469  16.310  1.3896 -2.9216  0.0994
  864MPD2    H212686   1.002   4.267  16.651  2.3370 -1.1650  1.0938
  864MPD2    H312687   1.058   4.270  16.416 -0.7951 -1.5127  2.1781
  864MPD2     N12688   1.221   4.685  16.409  0.5358 -0.0297  0.8328
  864MPD2    H512689   1.256   4.658  16.317 -0.8901 -1.4491  0.7060
  864MPD2    N112690   1.047   4.472  16.817 -0.0109 -0.6207 -0.4722
  864MPD2    H712691   1.002   4.392  16.861  0.8335 -2.0784 -2.3229
  865MPD2     C12692   1.332   0.042  15.720  0.3122 -0.0822  0.1931
  865MPD2    C112693   1.325   0.013  15.859 -0.3753 -0.5291  0.2809
  865MPD2    C212694   1.275   0.118  15.926 -0.2555 -0.1401  0.6713
  865MPD2    C312695   1.250   0.245  15.873  0.5325  0.1864  0.5036
  865MPD2    C412696   1.270   0.272  15.743  0.7737  0.6631  0.6130
  865MPD2    C512697   1.313   0.169  15.669  0.1693 -0.0367 -0.2044
  865MPD2     H12698   1.262   0.100  16.032  0.0146 -1.9755  0.3961
  865MPD2    H112699   1.256   0.363  15.686 -0.3689 -0.2939 -0.6227
  865MPD2    H212700   1.371   4.690  15.655 -1.7386 -0.7550 -0.2071
  865MPD2    H312701   1.326   0.181  15.562 -0.2275 -0.7727 -0.3307
  865MPD2     N12702   1.207   0.360  15.947  0.1161  0.2482 -0.1752
  865MPD2    H512703   1.179   0.441  15.893  2.1653  2.9117  2.7999
  865MPD2    N112704   1.380   4.620  15.912 -0.1541 -0.2573 -0.7982
  865MPD2    H712705   1.422   4.563  15.839  0.5388 -2.3561  1.2254
  866MPD2     C12706   3.303   0.915  11.278  0.7318  0.2947  0.2839
  866MPD2    C112707   3.303   0.936  11.144  0.5127 -0.5064 -0.1136
  866MPD2    C212708   3.204   1.018  11.098 -0.1070 -0.2198 -0.3641
  866MPD2    C312709   3.119   1.095  11.177  0.2888 -0.4596  0.3442
  866MPD2    C412710   3.134   1.084  11.310  0.8001 -0.3849  0.2123
  866MPD2    C512711   3.232   1.004  11.365 -0.0332 -0.4016  0.3216
  866MPD2     H12712   3.184   1.014  10.992  1.0774  0.9533 -0.6348
  866MPD2    H112713   3.069   1.143  11.373  1.4713  1.4042 -0.7944
  866MPD2    H212714   3.378   0.846  11.317  0.0134 -1.1788 -0.9320
  866MPD2    H312715   3.260   1.008  11.470 -0.6016 -2.1807  0.5276
  866MPD2     N12716   3.016   1.173  11.121 -0.4445 -0.4769  0.5334
  866MPD2    H512717   2.948   1.195  11.193 -1.3167 -1.7241  0.0863
  866MPD2    N112718   3.373   0.849  11.059 -0.0992 -0.2452 -0.4370
  866MPD2    H712719   3.415   0.770  11.107  0.1610 -0.1561 -0.5154
  867MPD2     C12720   0.152   0.230  16.861 -0.4688  0.4730  0.4230
  867MPD2    C112721   0.272   0.178  16.903  0.6387 -0.1430 -0.0237
  867MPD2    C212722   0.359   0.262  16.963  0.6367 -0.4202  0.5915
  867MPD2    C312723   0.339   0.394  16.992 -0.5776 -0.6584 -0.2530
  867MPD2    C412724   0.221   0.446  16.943  0.8587  0.3347 -0.1336
  867MPD2    C512725   0.129   0.367  16.888 -0.0773  0.5341 -1.0856
  867MPD2     H12726   0.457   0.221  16.983  0.9578 -0.8504 -1.8255
  867MPD2    H112727   0.206   0.553  16.947 -1.1479  0.0319  0.1504
  867MPD2    H212728   0.075   0.165  16.822  0.0101  0.7195 -0.9367
  867MPD2    H312729   0.034   0.411  16.858  0.1450  2.4217  0.9589
  867MPD2     N12730   0.437   0.472  17.056 -0.2937  0.0354  0.0003
  867MPD2    H512731   0.409   0.569  17.068 -1.4685 -0.2882 -0.1298
  867MPD2    N112732   0.297   0.040  16.894 -0.3529 -0.0056  0.0541
  867MPD2    H712733   0.249   4.707  16.827  0.8314  2.4705 -3.0077
  868MPD2     C12734   2.207   3.573  13.267 -0.2598 -0.0928  0.2609
  868MPD2    C112735   2.228   3.486  13.367  0.0720  0.7426  0.5941
  868MPD2    C212736   2.127   3.441  13.445 -0.2174  1.1405 -0.3250
  868MPD2    C312737   1.994   3.470  13.419 -0.2356  0.6948 -0.0551
  868MPD2    C412738   1.966   3.550  13.308  0.0777  0.8187 -0.0134
  868MPD2    C512739   2.072   3.603  13.239  0.3264  0.5215  0.2853
  868MPD2     H12740   2.147   3.375  13.528  0.4547 -0.5241 -1.7975
  868MPD2    H112741   1.865   3.568  13.274 -0.1220 -0.7367 -0.2448
  868MPD2    H212742   2.286   3.627  13.217  0.0952 -0.5181  0.3657
  868MPD2    H312743   2.043   3.665  13.155 -0.1561 -0.3837 -0.2151
  868MPD2     N12744   1.899   3.410  13.503  0.2724  0.2901  0.2102
  868MPD2    H512745   1.928   3.367  13.590  0.8606 -0.0413 -0.1426
  868MPD2    N112746   2.368   3.456  13.383  0.5129  0.6327  0.1213
  868MPD2    H712747   2.433   3.490  13.314  1.3579 -0.9380  0.1486
  869MPD2     C12748   4.247   1.628   1.452 -0.0217 -0.1712  0.4707
  869MPD2    C112749   4.135   1.574   1.513  0.3893  0.0117 -0.2010
  869MPD2    C212750   4.004   1.619   1.495  0.3274  0.0634  0.5330
  869MPD2    C312751   3.988   1.723   1.398 -0.0802 -0.8421 -0.0732
  869MPD2    C412752   4.101   1.784   1.343  0.2562  0.5997  0.7734
  869MPD2    C512753   4.223   1.727   1.360 -0.2563 -0.2156 -0.9012
  869MPD2     H12754   3.911   1.578   1.532 -2.0008  2.6125 -2.4688
  869MPD2    H112755   4.080   1.872   1.283 -1.6659 -0.5413 -0.2109
  869MPD2    H212756   4.345   1.582   1.459 -0.2942 -0.9094 -0.4592
  869MPD2    H312757   4.306   1.774   1.308 -0.4970  2.5311  1.2165
  869MPD2     N12758   3.863   1.777   1.367  0.3563  0.4628 -0.5782
  869MPD2    H512759   3.860   1.857   1.305  1.9127  1.1032  0.1689
  869MPD2    N112760   4.166   1.449   1.582 -0.0148  0.0535 -0.1288
  869MPD2    H712761   4.259   1.409   1.574 -1.3000 -2.6087 -1.6990
  870MPD2     C12762   3.239   0.820   2.214  0.1940  1.0072  0.1379
  870MPD2    C112763   3.203   0.738   2.112  0.7460  0.4178  0.0619
  870MPD2    C212764   3.116   0.773   2.019 -0.4144 -0.0632  0.3017
  870MPD2    C312765   3.065   0.901   2.009  0.0709  0.2190  0.4149
  870MPD2    C412766   3.107   0.993   2.106  0.3285 -0.4976  0.0414
  870MPD2    C512767   3.185   0.944   2.208  0.2793  0.3801 -0.1060
  870MPD2     H12768   3.079   0.705   1.943 -1.8754  1.5025 -0.3882
  870MPD2    H112769   3.070   1.095   2.113  0.0922 -0.5597 -0.2699
  870MPD2    H212770   3.304   0.801   2.299 -0.1765  1.9050  0.6252
  870MPD2    H312771   3.207   1.015   2.286 -0.0373 -0.3190  0.6154
  870MPD2     N12772   2.981   0.938   1.899 -0.0476 -0.6230 -0.0617
  870MPD2    H512773   2.964   0.866   1.830  1.1095 -1.0077  0.0503
  870MPD2    N112774   3.262   0.609   2.103 -0.0322 -0.1309  0.4658
  870MPD2    H712775   3.335   0.596   2.172  0.4501 -0.5469 -0.1274
  871MPD2     C12776   3.918   4.525  16.514 -0.4299 -0.1514  0.7052
  871MPD2    C112777   3.879   4.510  16.644 -0.9678  0.7299  0.0784
  871MPD2    C212778   3.814   4.389  16.680 -0.2106  0.0633 -0.2456
  871MPD2    C312779   3.804   4.285  16.591 -0.1479 -0.6547  0.2118
  871MPD2    C412780   3.852   4.295  16.465 -0.2174  0.8192 -0.3092
  871MPD2    C512781   3.907   4.416  16.429 -0.1662  0.7230  0.4090
  871MPD2     H12782   3.757   4.390  16.772 -0.9876  1.5281 -0.7428
  871MPD2    H112783   3.844   4.223  16.384 -0.6451  0.8980 -0.3392
  871MPD2    H212784   3.977   4.609  16.478  1.4437 -0.7553  2.3538
  871MPD2    H312785   3.949   4.441  16.332 -0.0738  1.0003  0.5200
  871MPD2     N12786   3.749   4.166  16.647  0.3495 -0.2544 -0.6288
  871MPD2    H512787   3.719   4.173  16.743  0.3435 -1.9778 -0.5018
  871MPD2    N112788   3.900   4.613  16.736 -0.4145  0.6874 -0.6222
  871MPD2    H712789   3.931   4.703  16.702  1.1646  0.4896  0.3008
  872MPD2     C12790   4.562   2.658  13.795  0.6980 -0.2254 -0.2485
  872MPD2    C112791   4.639   2.559  13.841 -0.2066  0.1853 -0.6731
  872MPD2    C212792   4.599   2.490  13.956  0.1292 -1.0569  0.1566
  872MPD2    C312793   4.480   2.519  14.017  0.2265 -0.3026 -0.3698
  872MPD2    C412794   4.411   2.628  13.978 -0.7513 -0.0110 -0.1095
  872MPD2    C512795   4.447   2.698  13.866  0.2608  0.6556  0.6460
  872MPD2     H12796   4.658   2.417  14.010 -1.7706 -1.6844  1.3663
  872MPD2    H112797   4.330   2.661  14.041  0.8844 -0.6840  2.3366
  872MPD2    H212798   4.589   2.709  13.703  0.9520 -2.2363 -1.2736
  872MPD2    H312799   4.401   2.792  13.839  0.9973  0.8412  0.0283
  872MPD2     N12800   4.426   2.443  14.127  0.1307  0.3554  0.4467
  872MPD2    H512801   4.335   2.475  14.159 -0.2135  0.3028 -0.4695
  872MPD2    N112802   0.032   2.534  13.777  0.2755 -0.0785 -0.2549
  872MPD2    H712803   0.052   2.587  13.692 -1.7893  1.0429 -0.0297
  873MPD2     C12804   1.856   2.547   0.817 -0.3123  0.2709 -0.6335
  873MPD2    C112805   1.927   2.476   0.908 -0.6263 -0.6415  0.0886
  873MPD2    C212806   2.028   2.397   0.864  0.0130 -0.1470  0.0696
  873MPD2    C312807   2.043   2.382   0.727  0.5225  0.2690  0.0360
  873MPD2    C412808   1.973   2.455   0.637  0.1196  0.4052 -0.8022
  873MPD2    C512809   1.874   2.532   0.684  0.0896 -0.2878  0.5879
  873MPD2     H12810   2.093   2.338   0.927 -1.2604 -0.3288  1.2127
  873MPD2    H112811   1.968   2.441   0.530  0.3090 -0.6503 -0.6745
  873MPD2    H212812   1.775   2.614   0.841  0.6277  2.1637 -2.7024
  873MPD2    H312813   1.805   2.579   0.614 -0.4048 -1.1250  0.5210
  873MPD2     N12814   2.140   2.294   0.671 -0.1984  0.5403 -0.1285
  873MPD2    H512815   2.167   2.302   0.573 -0.5374  0.3345 -0.2395
  873MPD2    N112816   1.880   2.499   1.036  0.2044  0.2105 -0.7976
  873MPD2    H712817   1.810   2.572   1.043  0.7104  0.7717 -1.5599
  874MPD2     C12818   1.066   2.395  16.381 -0.3194 -0.3029  0.3981
  874MPD2    C112819   1.145   2.354  16.283 -0.0284  0.2330 -0.4693
  874MPD2    C212820   1.264   2.422  16.268 -0.3623 -0.3105 -0.3441
  874MPD2    C312821   1.297   2.533  16.350 -0.1138 -0.4232  0.3410
  874MPD2    C412822   1.222   2.558  16.459  0.0883 -0.2428  0.1277
  874MPD2    C512823   1.103   2.487  16.480 -0.1970 -0.3351  0.4540
  874MPD2     H12824   1.337   2.395  16.193  2.0152  2.2933  1.0405
  874MPD2    H112825   1.241   2.644  16.521  0.4046  0.0763 -0.4091
  874MPD2    H212826   0.967   2.358  16.408 -1.4356  0.8318 -2.1776
  874MPD2    H312827   1.035   2.524  16.556 -1.1045  1.5234 -1.2744
  874MPD2     N12828   1.412   2.610  16.316  0.0838 -0.5981  0.5170
  874MPD2    H512829   1.479   2.571  16.250  0.4315 -1.1120  1.1727
  874MPD2    N112830   1.084   2.256  16.196  0.2316 -0.0604 -0.0177
  874MPD2    H712831   1.007   2.203  16.236  1.2010 -0.7233  0.9787
  875MPD2     C12832   2.632   0.564  14.723  0.0716 -0.2346 -0.0674
  875MPD2    C112833   2.548   0.671  14.698 -0.2158  0.7197  0.2318
  875MPD2    C212834   2.510   0.744  14.808  0.9077 -0.4020 -0.2927
  875MPD2    C312835   2.528   0.698  14.937 -0.2309  0.0736 -0.3072
  875MPD2    C412836   2.601   0.588  14.955  0.3319 -0.2212 -0.8522
  875MPD2    C512837   2.670   0.538  14.852 -0.3002  0.0622  0.1925
  875MPD2     H12838   2.461   0.838  14.784 -0.2405 -0.6556  1.1093
  875MPD2    H112839   2.619   0.552  15.055  0.6437  1.5650 -0.2627
  875MPD2    H212840   2.676   0.502  14.645  1.1018  2.1080 -1.3427
  875MPD2    H312841   2.723   0.444  14.861 -0.6502 -0.2681 -1.1242
  875MPD2     N12842   2.474   0.771  15.047 -0.8420 -0.2037  0.4044
  875MPD2    H512843   2.482   0.734  15.141  1.9630 -0.3610  0.1197
  875MPD2    N112844   2.512   0.708  14.564  0.1239  0.0366 -0.9289
  875MPD2    H712845   2.527   0.638  14.492 -0.6249 -3.4499  2.2385
  876MPD2     C12846   1.164   1.873  15.796  0.5781 -0.5707 -0.4270
  876MPD2    C112847   1.301   1.850  15.800  1.5606 -0.2085  0.0089
  876MPD2    C212848   1.350   1.727  15.836 -0.1719  0.1764 -0.3395
  876MPD2    C312849   1.263   1.622  15.862 -0.7921 -0.5402 -0.3867
  876MPD2    C412850   1.128   1.640  15.861 -0.3496  0.3805  0.5113
  876MPD2    C512851   1.078   1.769  15.835 -0.1765 -0.1461  0.8223
  876MPD2     H12852   1.455   1.706  15.856 -1.1098 -1.5640  2.6879
  876MPD2    H112853   1.053   1.565  15.881  1.0722 -1.4148 -0.8260
  876MPD2    H212854   1.118   1.960  15.749  0.3628 -0.2127  0.4600
  876MPD2    H312855   0.970   1.778  15.839 -0.0325  1.8474 -0.2498
  876MPD2     N12856   1.325   1.504  15.904  0.0745 -0.3017  0.0321
  876MPD2    H512857   1.425   1.494  15.900  0.2718  2.6141 -1.9139
  876MPD2    N112858   1.379   1.959  15.755  0.3715 -0.6577 -0.4797
  876MPD2    H712859   1.329   2.031  15.704 -0.7185 -0.1714  1.2825
  877MPD2     C12860   1.224   2.349  15.214  0.0156 -0.7449  0.0962
  877MPD2    C112861   1.359   2.343  15.187 -0.0430  0.6753  0.3843
  877MPD2    C212862   1.404   2.374  15.061  0.5330  0.0757  0.6726
  877MPD2    C312863   1.316   2.410  14.961  0.2555  0.3761 -0.1853
  877MPD2    C412864   1.185   2.406  14.991 -0.0176  0.5821  0.0595
  877MPD2    C512865   1.141   2.380  15.118 -0.2627 -0.6267  0.8844
  877MPD2     H12866   1.512   2.363  15.051  0.3402  0.6172 -1.8178
  877MPD2    H112867   1.108   2.427  14.918 -1.6078 -2.9742  0.6897
  877MPD2    H212868   1.184   2.328  15.313 -0.8675 -2.5440 -0.6480
  877MPD2    H312869   1.037   2.373  15.147 -0.3850  1.5159  0.9435
  877MPD2     N12870   1.355   2.435  14.828 -0.3868  0.3067  0.8001
  877MPD2    H512871   1.284   2.442  14.756 -0.2269  1.8686  0.7890
  877MPD2    N112872   1.451   2.314  15.287 -0.4783  0.0648  0.1894
  877MPD2    H712873   1.551   2.312  15.267 -0.4758  0.3998  0.1770
  878MPD2     C12874   1.023   1.536  12.811 -0.2893  0.4402 -0.1451
  878MPD2    C112875   1.075   1.665  12.834 -0.1678  0.6919 -0.2213
  878MPD2    C212876   1.090   1.708  12.964  0.5179  0.2989  0.1195
  878MPD2    C312877   1.033   1.638  13.063 -0.0074 -0.2074 -0.2781
  878MPD2    C412878   0.975   1.515  13.042 -0.0554  0.2395  0.2950
  878MPD2    C512879   0.981   1.456  12.919 -0.2765  0.2204  0.7195
  878MPD2     H12880   1.132   1.804  12.993 -0.7833  0.6295  0.9014
  878MPD2    H112881   0.922   1.456  13.116 -1.2021  0.4064 -0.3813
  878MPD2    H212882   1.040   1.496  12.712 -1.4677 -0.4420  0.0088
  878MPD2    H312883   0.949   1.354  12.898 -0.8265  0.7468 -1.0208
  878MPD2     N12884   1.032   1.702  13.191 -0.5727 -0.0211  0.2271
  878MPD2    H512885   1.095   1.778  13.213 -0.1887 -0.3954  0.4126
  878MPD2    N112886   1.098   1.752  12.723  0.1953 -0.6508 -0.4599
  878MPD2    H712887   1.064   1.729  12.630 -0.4055  1.8576 -0.8566
  879MPD2     C12888   1.551   3.394  16.953  0.2655 -0.5258 -0.1994
  879MPD2    C112889   1.615   3.287  17.005  0.8798  0.3913 -0.3109
  879MPD2    C212890   1.541   3.179  17.044 -0.6068  0.1929  0.0862
  879MPD2    C312891   1.402   3.173  17.019  0.4069 -0.4390  0.2483
  879MPD2    C412892   1.342   3.284  16.960 -0.0999 -0.6389 -0.0844
  879MPD2    C512893   1.414   3.397  16.941  0.0918  0.6342  0.0823
  879MPD2     H12894   1.589   3.093  17.089 -0.4638 -0.1070 -0.6458
  879MPD2    H112895   1.236   3.299  16.942  0.1288  0.6205 -0.4453
  879MPD2    H212896   1.609   3.482  16.927  0.2319 -0.4497 -0.0167
  879MPD2    H312897   1.365   3.490  16.917 -1.2604 -0.0285  0.2998
  879MPD2     N12898   1.311   3.071  17.055  0.1413  0.3417  0.3970
  879MPD2    H512899   1.212   3.078  17.034  0.5196 -0.3593 -1.5750
  879MPD2    N112900   1.758   3.303  17.021 -0.1473 -0.0711  0.0373
  879MPD2    H712901   1.800   3.391  16.993  0.4881 -0.6560 -0.8543
  880MPD2     C12902   3.662   0.297   0.726  0.1234 -0.8146 -0.3367
  880MPD2    C112903   3.540   0.305   0.790 -0.4075  0.1142 -1.2335
  880MPD2    C212904   3.495   0.190   0.854 -0.1660 -0.6984 -0.2682
  880MPD2    C312905   3.576   0.084   0.867 -0.1759 -0.2853  0.1315
  880MPD2    C412906   3.700   0.081   0.803 -0.0711  0.1327  0.5680
  880MPD2    C512907   3.750   0.192   0.740  0.1454 -0.6715  0.5115
  880MPD2     H12908   3.399   0.201   0.904  0.1374 -0.9847  0.3858
  880MPD2    H112909   3.772   0.000   0.798 -2.0380 -1.4562 -2.0550
  880MPD2    H212910   3.711   0.382   0.680 -2.0979  1.7043  1.9106
  880MPD2    H312911   3.852   0.192   0.703 -0.4343  1.6269 -1.0397
  880MPD2     N12912   3.523   4.692   0.934 -0.8602  0.0297 -0.3792
  880MPD2    H512913   3.430   4.706   0.972 -0.3991  2.2010 -0.0981
  880MPD2    N112914   3.470   0.423   0.779  0.0990 -0.0278 -0.4335
  880MPD2    H712915   3.512   0.490   0.715  0.0518  0.9475  0.5514
  881MPD2     C12916   3.215   1.105   0.107  0.3352 -0.1824 -0.0996
  881MPD2    C112917   3.266   0.975   0.107  0.1239 -0.7774  0.6742
  881MPD2    C212918   3.265   0.905   0.232 -0.5400 -0.0618  0.4075
  881MPD2    C312919   3.233   0.973   0.346 -0.8427 -0.2254  0.1066
  881MPD2    C412920   3.197   1.105   0.345  0.3350 -0.7829 -0.0618
  881MPD2    C512921   3.192   1.169   0.228  0.3121  0.0913 -0.5663
  881MPD2     H12922   3.310   0.807   0.240 -1.3129 -0.4273  0.3360
  881MPD2    H112923   3.180   1.161   0.436  1.5814 -2.0784  0.9754
  881MPD2    H212924   3.220   1.171   0.021  0.4851  0.0123  0.0592
  881MPD2    H312925   3.170   1.275   0.222  0.6311  0.1672 -0.3897
  881MPD2     N12926   3.241   0.908   0.474 -0.0688  0.1638  0.2878
  881MPD2    H512927   3.239   0.973   0.552  1.7161  0.0468  0.4242
  881MPD2    N112928   3.281   0.914  17.680 -0.2215  0.2481  0.0728
  881MPD2    H712929   3.256   0.960  17.593  1.8991  1.9420  0.3590
  882MPD2     C12930   1.395   2.267  14.055 -0.3371 -1.1891  0.5448
  882MPD2    C112931   1.326   2.336  14.150 -0.0372 -0.1940  0.3756
  882MPD2    C212932   1.188   2.329  14.138 -0.0815  0.1264 -0.0290
  882MPD2    C312933   1.121   2.253  14.041  0.1589 -0.0750 -0.2742
  882MPD2    C412934   1.201   2.184  13.953 -0.6915 -0.5922  0.3673
  882MPD2    C512935   1.336   2.186  13.968  0.2840  0.7671  0.0351
  882MPD2     H12936   1.133   2.384  14.214  1.9061 -1.0093  2.2244
  882MPD2    H112937   1.157   2.113  13.884 -1.3198  0.2273 -0.0674
  882MPD2    H212938   1.502   2.282  14.053 -0.5625 -0.0308 -2.4329
  882MPD2    H312939   1.386   2.118  13.900  0.7797  0.0529  1.1155
  882MPD2     N12940   0.981   2.255  14.024 -0.0166  0.3126 -0.4846
  882MPD2    H512941   0.929   2.197  13.958  2.9557 -1.2004 -1.4934
  882MPD2    N112942   1.400   2.411  14.245 -0.1423  0.2124 -0.0349
  882MPD2    H712943   1.495   2.377  14.256  0.2681  1.1861 -0.6047
  883MPD2     C12944   3.279   2.120  16.345  0.6586  0.4033  0.5704
  883MPD2    C112945   3.373   2.155  16.248 -0.1698  0.8553 -0.2326
  883MPD2    C212946   3.456   2.261  16.256  0.5328  0.2163 -0.6630
  883MPD2    C312947   3.471   2.324  16.384 -0.4375  0.4338 -0.5785
  883MPD2    C412948   3.378   2.294  16.483 -0.4279 -0.4252  0.1261
  883MPD2    C512949   3.282   2.201  16.460  0.1396  0.0136 -0.4916
  883MPD2     H12950   3.522   2.277  16.171  1.7690 -1.1663  0.0285
  883MPD2    H112951   3.380   2.340  16.581  1.0272  2.0776 -1.0743
  883MPD2    H212952   3.200   2.047  16.336 -1.1744  2.3368  0.8440
  883MPD2    H312953   3.199   2.190  16.529  0.1450  2.2107 -0.1602
  883MPD2     N12954   3.578   2.416  16.401 -0.1501 -0.1082  0.3831
  883MPD2    H512955   3.641   2.433  16.323 -0.0804 -1.0796  0.2252
  883MPD2    N112956   3.377   2.085  16.119  0.1896  0.0540 -0.2819
  883MPD2    H712957   3.434   2.132  16.049 -1.5952  0.9048 -1.1449
  884MPD2     C12958   0.615   2.910  15.342  0.4497 -0.4793 -0.9274
  884MPD2    C112959   0.671   3.031  15.296 -0.1892  0.6163 -0.2911
  884MPD2    C212960   0.592   3.139  15.270  0.2232  0.3339  0.0225
  884MPD2    C312961   0.460   3.136  15.299 -0.1509  0.1967 -0.0841
  884MPD2    C412962   0.405   3.023  15.355 -0.0880 -0.2288 -0.5510
  884MPD2    C512963   0.482   2.907  15.371 -0.3209  0.3417  0.0877
  884MPD2     H12964   0.641   3.227  15.232  0.0293  0.5740  0.3279
  884MPD2    H112965   0.301   3.011  15.380  0.4654 -0.6867  1.5502
  884MPD2    H212966   0.664   2.814  15.353  0.7520 -0.5811 -3.1313
  884MPD2    H312967   0.438   2.820  15.418  0.3606 -0.3010 -0.4450
  884MPD2     N12968   0.379   3.239  15.259  0.4194  0.3917  0.1516
  884MPD2    H512969   0.427   3.315  15.211  2.1595 -0.8856 -0.1516
  884MPD2    N112970   0.810   3.031  15.263  0.3089 -0.2670 -0.2423
  884MPD2    H712971   0.841   3.117  15.219 -1.0475 -0.1794 -1.0123
  885MPD2     C12972   3.660   3.668   0.537  0.1263  0.0873  0.1525
  885MPD2    C112973   3.648   3.555   0.463  0.0460  0.1750  0.2891
  885MPD2    C212974   3.629   3.557   0.326  0.1490 -0.0410 -0.1594
  885MPD2    C312975   3.628   3.681   0.262  0.6615 -0.0918  0.3349
  885MPD2    C412976   3.641   3.798   0.338 -0.5223 -0.1719  0.3525
  885MPD2    C512977   3.657   3.784   0.474 -0.3373 -1.0497  0.3786
  885MPD2     H12978   3.608   3.474   0.259 -1.2688 -1.1215  1.6369
  885MPD2    H112979   3.646   3.899   0.298 -2.6725  0.2577  1.1339
  885MPD2    H212980   3.657   3.658   0.645  2.6166 -0.6155  0.1470
  885MPD2    H312981   3.672   3.874   0.532  0.6025 -1.9763  1.5872
  885MPD2     N12982   3.614   3.684   0.124 -0.7015 -1.1230 -0.2261
  885MPD2    H512983   3.633   3.597   0.075  0.4891  0.1765 -2.0690
  885MPD2    N112984   3.673   3.435   0.532 -0.4274 -0.1560 -0.5417
  885MPD2    H712985   3.721   3.440   0.621  1.3286 -1.0295 -1.4581
  886MPD2     C12986   4.441   1.866  15.548 -0.3634 -1.0242  0.0880
  886MPD2    C112987   4.557   1.844  15.475 -0.0810  0.6784  0.8450
  886MPD2    C212988   4.609   1.941  15.392 -0.1434  0.5342  0.2815
  886MPD2    C312989   4.547   2.069  15.381 -0.5200  0.4012  0.1862
  886MPD2    C412990   4.435   2.086  15.457 -0.0467  0.0394 -0.2150
  886MPD2    C512991   4.376   1.982  15.532  0.1091 -0.4621  0.0942
  886MPD2     H12992   4.698   1.915  15.337  0.3352  1.5473  0.5769
  886MPD2    H112993   4.382   2.181  15.453  0.7182  0.5956  2.5229
  886MPD2    H212994   4.395   1.787  15.605 -0.1701 -1.2486 -0.0664
  886MPD2    H312995   4.281   1.999  15.582 -0.0469 -0.8257 -0.0824
  886MPD2     N12996   4.616   2.172  15.315 -0.2269  0.2830  0.0640
  886MPD2    H512997   4.569   2.262  15.320  0.1862  0.5193 -0.3096
  886MPD2    N112998   4.627   1.725  15.474 -0.1216 -0.4215  0.3604
  886MPD2    H712999   4.703   1.714  15.408 -0.1289 -0.3244  0.3357
  887MPD2     C13000   0.591   1.545  15.392  0.1649 -0.3019 -0.4351
  887MPD2    C113001   0.488   1.621  15.441  0.1370  0.0969  0.1714
  887MPD2    C213002   0.512   1.734  15.513  0.0237  0.5025  0.3338
  887MPD2    C313003   0.643   1.777  15.532  1.2055 -0.5702  0.0245
  887MPD2    C413004   0.745   1.695  15.502 -0.8541 -0.6949 -0.1701
  887MPD2    C513005   0.720   1.578  15.432  0.4821 -0.1230 -0.6560
  887MPD2     H13006   0.427   1.777  15.566  1.3380  0.9709  2.0466
  887MPD2    H113007   0.848   1.726  15.520 -1.7346  1.0602  1.8066
  887MPD2    H213008   0.585   1.454  15.334 -0.0026  0.1604 -1.1356
  887MPD2    H313009   0.793   1.502  15.407  0.4021 -0.1275 -0.8768
  887MPD2     N13010   0.648   1.904  15.591  0.6193  0.0918  0.0037
  887MPD2    H513011   0.560   1.953  15.603  1.2086  0.5658  2.3110
  887MPD2    N113012   0.349   1.579  15.430  0.0410  0.2378  0.0782
  887MPD2    H713013   0.280   1.639  15.475 -0.4610  0.0455 -0.4369
  888MPD2     C13014   2.704   1.839  14.693 -0.4685  0.3568 -0.0159
  888MPD2    C113015   2.648   1.928  14.785  0.2312 -0.1545  0.1537
  888MPD2    C213016   2.673   2.063  14.777 -0.0352  0.6264 -0.1178
  888MPD2    C313017   2.777   2.110  14.698  0.2039 -0.4459  0.3183
  888MPD2    C413018   2.825   2.022  14.599  0.4370  0.1606 -0.2002
  888MPD2    C513019   2.795   1.891  14.605 -0.4792 -0.1916  0.4071
  888MPD2     H13020   2.609   2.120  14.843  2.5943  0.9816  2.1030
  888MPD2    H113021   2.909   2.040  14.532  0.9212  0.4011  0.4765
  888MPD2    H213022   2.674   1.735  14.681 -1.4985  0.4204  2.0075
  888MPD2    H313023   2.840   1.827  14.529 -0.7786  3.4379 -2.8113
  888MPD2     N13024   2.813   2.249  14.699  0.4493 -0.2276 -0.3869
  888MPD2    H513025   2.775   2.304  14.775  3.1222  0.3765  0.5165
  888MPD2    N113026   2.543   1.880  14.870  0.5502 -0.2324  1.1616
  888MPD2    H713027   2.521   1.940  14.949 -0.8594  1.7761 -0.7418
  889MPD2     C13028   1.913   1.976  12.512 -0.5610 -0.1976 -0.0818
  889MPD2    C113029   1.889   1.882  12.616 -0.0510  0.5541 -0.2570
  889MPD2    C213030   1.806   1.919  12.720  0.6493 -0.1070 -0.1506
  889MPD2    C313031   1.735   2.032  12.720  0.1156 -0.4873 -0.0767
  889MPD2    C413032   1.750   2.111  12.608  0.2975  0.1140  0.1624
  889MPD2    C513033   1.832   2.080  12.513 -0.5142 -0.5781 -0.6797
  889MPD2     H13034   1.794   1.854  12.806  2.0973  2.6088  2.1058
  889MPD2    H113035   1.706   2.210  12.606  0.3051  0.0930 -1.1796
  889MPD2    H213036   2.004   1.971  12.454  0.5616 -2.1191  1.8441
  889MPD2    H313037   1.844   2.149  12.430 -0.7367 -2.3903 -2.2279
  889MPD2     N13038   1.672   2.073  12.841 -0.3709  0.4769 -0.1486
  889MPD2    H513039   1.680   2.005  12.916  1.2989  3.1611  2.1247
  889MPD2    N113040   1.979   1.776  12.636 -0.0963 -0.3283  0.0093
  889MPD2    H713041   1.960   1.717  12.716  0.4661 -1.8671 -0.9820
  890MPD2     C13042   1.573   2.974  14.840 -0.4238 -0.9636 -0.1310
  890MPD2    C113043   1.572   3.078  14.931 -0.0333 -0.1024 -0.2207
  890MPD2    C213044   1.586   3.042  15.063 -0.6206 -0.7418 -0.1936
  890MPD2    C313045   1.583   2.913  15.105 -0.3808 -0.7354 -0.0785
  890MPD2    C413046   1.571   2.809  15.014 -0.5665 -0.5426  0.1291
  890MPD2    C513047   1.569   2.842  14.879  0.4695  0.0950 -0.4503
  890MPD2     H13048   1.592   3.107  15.149  0.6808  0.5135 -1.2383
  890MPD2    H113049   1.570   2.703  15.039 -0.1071 -0.5623  0.0620
  890MPD2    H213050   1.568   2.991  14.733  0.0386  1.1848  0.1864
  890MPD2    H313051   1.565   2.769  14.799 -0.7557 -0.9755  0.5973
  890MPD2     N13052   1.602   2.900  15.242  0.5823 -0.2083  0.0746
  890MPD2    H513053   1.628   2.983  15.294 -0.1458  0.7122 -1.0080
  890MPD2    N113054   1.576   3.213  14.885  0.4110 -0.9148  0.5416
  890MPD2    H713055   1.581   3.221  14.784 -0.3004  2.1053  0.7460
  891MPD2     C13056   3.968   1.350  16.594 -0.4017 -0.1628 -0.0821
  891MPD2    C113057   3.999   1.484  16.583  0.8462  0.3218 -0.7960
  891MPD2    C213058   4.131   1.522  16.613 -0.4065  0.7847 -0.1508
  891MPD2    C313059   4.219   1.428  16.655 -0.2592  0.2124 -1.1214
  891MPD2    C413060   4.181   1.296  16.678 -0.5042 -0.4666 -0.3014
  891MPD2    C513061   4.056   1.259  16.647 -0.1083 -0.2514  0.0021
  891MPD2     H13062   4.161   1.626  16.604 -0.4141  0.8914  1.0275
  891MPD2    H113063   4.240   1.219  16.726 -0.2990 -0.1460 -0.0363
  891MPD2    H213064   3.866   1.324  16.570  0.2628 -0.5998 -2.4186
  891MPD2    H313065   4.009   1.161  16.656 -2.0311  1.0022  3.7990
  891MPD2     N13066   4.339   1.480  16.696  0.1773  0.2884 -0.1414
  891MPD2    H513067   4.355   1.576  16.668 -0.2520  0.6864  0.9688
  891MPD2    N113068   3.906   1.582  16.541  0.0351  0.0098 -0.2981
  891MPD2    H713069   3.808   1.554  16.549 -0.0556  0.5427  0.5262
  892MPD2     C13070   0.507   2.674  14.779  0.3019  0.5086  0.7044
  892MPD2    C113071   0.395   2.647  14.694  0.9310 -0.1988 -0.4957
  892MPD2    C213072   0.421   2.593  14.568  0.4827 -0.6046 -0.3675
  892MPD2    C313073   0.550   2.549  14.531 -0.1882 -0.7265 -0.4827
  892MPD2    C413074   0.658   2.586  14.607  0.4387  0.5283  0.2458
  892MPD2    C513075   0.631   2.651  14.728  0.1538  0.3800  0.3536
  892MPD2     H13076   0.344   2.589  14.492 -1.9750  0.8273  2.0316
  892MPD2    H113077   0.757   2.587  14.562  0.1113 -1.9788 -0.5420
  892MPD2    H213078   0.498   2.724  14.875  2.8963  0.3952  1.0109
  892MPD2    H313079   0.717   2.688  14.783 -0.2048 -1.2278  2.0076
  892MPD2     N13080   0.575   2.507  14.401  0.1209  0.4968  0.6186
  892MPD2    H513081   0.673   2.511  14.373 -0.2069  0.3280 -0.5612
  892MPD2    N113082   0.263   2.691  14.721  0.1798 -0.0648  0.3280
  892MPD2    H713083   0.200   2.695  14.642 -0.8230  1.0782  1.1757
  893MPD2     C13084   3.521   1.802   2.610 -0.7561 -0.6206  0.3877
  893MPD2    C113085   3.430   1.807   2.512 -0.4906  0.0127  0.5034
  893MPD2    C213086   3.367   1.930   2.487 -1.0133  0.6373 -0.4869
  893MPD2    C313087   3.388   2.041   2.574 -0.7890  0.4103  0.1558
  893MPD2    C413088   3.484   2.022   2.670  0.4880  1.1533  0.0942
  893MPD2    C513089   3.547   1.910   2.684 -0.3683 -0.2428 -0.1133
  893MPD2     H13090   3.309   1.942   2.396 -0.2622 -1.8173 -1.2911
  893MPD2    H113091   3.521   2.109   2.724  0.6255 -1.0157  3.4523
  893MPD2    H213092   3.584   1.715   2.621 -0.1494 -0.2638 -0.3034
  893MPD2    H313093   3.631   1.898   2.751 -0.9298 -1.9043  0.2868
  893MPD2     N13094   3.336   2.174   2.561  0.7625 -0.7676 -0.3591
  893MPD2    H513095   3.353   2.239   2.637  0.2799 -2.2943  1.0602
  893MPD2    N113096   3.407   1.687   2.443 -0.0788  0.4548 -0.5588
  893MPD2    H713097   3.475   1.614   2.462 -0.8883 -0.2810 -0.5162
  894MPD2     C13098   0.525   2.960   1.047  0.4466  0.1131 -0.1058
  894MPD2    C113099   0.497   3.083   1.096  0.0924  0.1566  0.0983
  894MPD2    C213100   0.568   3.195   1.051  0.1571  0.7040  0.4473
  894MPD2    C313101   0.663   3.176   0.954 -0.4463 -0.4155 -0.0637
  894MPD2    C413102   0.690   3.054   0.896  0.6656  0.0064 -0.3300
  894MPD2    C513103   0.619   2.950   0.950 -0.4790  0.3836  0.2713
  894MPD2     H13104   0.553   3.299   1.080 -3.8114  0.5290 -1.0024
  894MPD2    H113105   0.754   3.042   0.809 -1.8842  1.3327 -2.4093
  894MPD2    H213106   0.464   2.875   1.076  0.2290  0.9853  2.0568
  894MPD2    H313107   0.637   2.855   0.902  2.4589  1.5312 -0.9335
  894MPD2     N13108   0.723   3.296   0.901  0.2318  0.0432 -0.5818
  894MPD2    H513109   0.708   3.380   0.956 -0.2533 -1.0817  1.0286
  894MPD2    N113110   0.408   3.111   1.204 -0.4283  0.5201  0.2584
  894MPD2    H713111   0.416   3.206   1.239 -3.0800  2.0437 -3.3901
  895MPD2     C13112   3.871   2.516  13.158 -0.1769  0.5618 -0.0580
  895MPD2    C113113   3.816   2.408  13.089  0.8895  1.0842 -0.4593
  895MPD2    C213114   3.888   2.293  13.094  0.1342 -0.0053  0.2230
  895MPD2    C313115   4.014   2.287  13.153 -0.1844 -0.9695 -0.4008
  895MPD2    C413116   4.058   2.390  13.233  0.0100  0.7518  0.4546
  895MPD2    C513117   3.985   2.501  13.242 -0.5277  0.1250  0.0936
  895MPD2     H13118   3.872   2.210  13.026  1.4121  0.3936 -0.5599
  895MPD2    H113119   4.154   2.393  13.282  0.1614  0.6375  0.1650
  895MPD2    H213120   3.820   2.612  13.162 -0.4007  0.4223  0.4029
  895MPD2    H313121   4.029   2.582  13.300 -0.2399 -0.8932  1.3089
  895MPD2     N13122   4.092   2.170  13.135 -0.1422 -0.0041  0.3906
  895MPD2    H513123   4.046   2.103  13.075  0.2001  0.9439 -0.9214
  895MPD2    N113124   3.716   2.414  12.989 -0.3175  0.1844 -0.3504
  895MPD2    H713125   3.695   2.324  12.948  0.9574  0.6208 -1.9317
  896MPD2     C13126   2.198   4.071   1.839 -0.0858  0.4800  0.0419
  896MPD2    C113127   2.244   4.071   1.710  0.0503 -0.6266 -0.0290
  896MPD2    C213128   2.163   4.005   1.619 -0.6892 -0.4810  0.2280
  896MPD2    C313129   2.046   3.955   1.654 -0.7739 -0.0649  0.2941
  896MPD2    C413130   2.000   3.964   1.780 -0.9347 -0.0537  0.1255
  896MPD2    C513131   2.075   4.023   1.873 -0.0804 -0.6272 -0.2696
  896MPD2     H13132   2.178   4.004   1.512 -0.0890  0.9739  0.2990
  896MPD2    H113133   1.918   3.903   1.817 -1.0979  1.5992  2.4946
  896MPD2    H213134   2.257   4.126   1.911  1.0310  2.3213 -2.2612
  896MPD2    H313135   2.049   4.014   1.978  1.1830 -0.3647  0.0731
  896MPD2     N13136   1.968   3.893   1.550 -0.1372  0.1833  0.3205
  896MPD2    H513137   2.015   3.882   1.460 -2.2472  0.1008 -0.7684
  896MPD2    N113138   2.363   4.144   1.675  0.4071 -0.1353  0.9819
  896MPD2    H713139   2.406   4.198   1.750  0.3137  0.1014  0.8674
  897MPD2     C13140   3.414   1.808  10.318  0.1744 -0.4199  0.0452
  897MPD2    C113141   3.378   1.720  10.418  0.1541  0.1073  0.3606
  897MPD2    C213142   3.280   1.761  10.508 -0.2450 -0.1988 -0.2736
  897MPD2    C313143   3.232   1.893  10.514 -0.2215  0.5516  0.3035
  897MPD2    C413144   3.268   1.977  10.402 -0.7134 -0.2637  0.5123
  897MPD2    C513145   3.353   1.929  10.307  0.4208 -0.1199 -0.0125
  897MPD2     H13146   3.266   1.712  10.603 -0.4762  0.2864 -0.0580
  897MPD2    H113147   3.227   2.075  10.380 -0.4690 -0.4604 -0.7800
  897MPD2    H213148   3.495   1.781  10.251 -0.6326  0.9699 -1.4952
  897MPD2    H313149   3.379   1.988  10.219  2.1494 -2.6182 -1.1578
  897MPD2     N13150   3.160   1.945  10.629  0.3472 -0.0815  0.3896
  897MPD2    H513151   3.139   1.869  10.692 -0.4765 -0.1385  0.0372
  897MPD2    N113152   3.452   1.593  10.431 -0.0419  0.3718 -0.6795
  897MPD2    H713153   3.528   1.573  10.366 -0.7877 -1.8505 -0.8556
  898MPD2     C13154   0.359   1.930   0.173  0.6070 -0.0493  0.3717
  898MPD2    C113155   0.465   1.976   0.106 -0.6310 -0.7337  0.8127
  898MPD2    C213156   0.486   2.114   0.090  0.0187 -0.1467  0.6399
  898MPD2    C313157   0.402   2.199   0.158  0.5080 -0.5125  0.4797
  898MPD2    C413158   0.294   2.148   0.231 -0.3747 -0.6609 -0.0092
  898MPD2    C513159   0.272   2.013   0.232  0.0258  0.1313  0.1465
  898MPD2     H13160   0.573   2.143   0.033 -1.3048 -0.9834 -1.8385
  898MPD2    H113161   0.226   2.213   0.286  0.5324 -0.9081  1.4094
  898MPD2    H213162   0.330   1.825   0.175  0.6005 -0.0807 -1.5546
  898MPD2    H313163   0.193   1.978   0.298 -1.4163 -0.3595 -1.8463
  898MPD2     N13164   0.420   2.333   0.128 -0.1834 -0.3111  0.5008
  898MPD2    H513165   0.480   2.362   0.052 -0.4270 -1.3113 -0.0813
  898MPD2    N113166   0.551   1.887   0.034 -0.5596  0.1311 -0.6948
  898MPD2    H713167   0.601   1.930  17.662  0.5895  0.1677  0.0881
  899MPD2     C13168   0.933   2.730  17.511 -0.2943 -0.0593  0.4596
  899MPD2    C113169   1.039   2.815  17.531  0.7134  0.0941 -0.4545
  899MPD2    C213170   1.131   2.784  17.632 -0.1723  0.1702  0.3233
  899MPD2    C313171   1.121   2.668   0.004 -0.6450 -0.5401 -0.4961
  899MPD2    C413172   1.014   2.583  17.686 -0.1929 -0.3176  0.1124
  899MPD2    C513173   0.924   2.619  17.583  0.2545 -0.0049  0.1699
  899MPD2     H13174   1.223   2.839  17.645  1.3102 -2.1448 -0.4743
  899MPD2    H113175   0.985   2.496   0.039 -1.3498 -2.1186 -3.1792
  899MPD2    H213176   0.854   2.763  17.445  1.3959  1.7376 -0.6761
  899MPD2    H313177   0.834   2.560  17.572 -0.2952  1.0338 -0.8514
  899MPD2     N13178   1.225   2.621   0.088 -0.0994 -0.0473  0.2907
  899MPD2    H513179   1.217   2.525   0.119  0.7241  0.4540  2.0477
  899MPD2    N113180   1.036   2.938  17.461  0.4972  0.0632  0.8287
  899MPD2    H713181   0.953   2.954  17.405  0.0324  0.7580  1.7187
  900MPD2     C13182   1.166   0.058  12.503  0.1894  0.2682  0.0017
  900MPD2    C113183   1.088   4.697  12.576 -0.8284  0.5133 -0.7138
  900MPD2    C213184   0.966   0.013  12.606  0.7194  0.4229  0.4865
  900MPD2    C313185   0.913   0.134  12.571 -0.3726  0.6355  0.6268
  900MPD2    C413186   0.992   0.219  12.492 -0.6254 -0.8365  0.3028
  900MPD2    C513187   1.120   0.177  12.468 -0.4055  0.0982 -0.4207
  900MPD2     H13188   0.907   4.668  12.663 -2.1678  0.5348 -2.3848
  900MPD2    H113189   0.971   0.320  12.459  0.1657  0.1171  2.7441
  900MPD2    H213190   1.271   0.039  12.479 -0.5417 -2.0521 -1.3948
  900MPD2    H313191   1.178   0.247  12.409  0.2825  0.2324  0.4068
  900MPD2     N13192   0.787   0.178  12.622  0.4964 -0.3677 -0.3245
  900MPD2    H513193   0.733   0.114  12.679  5.2514 -4.3475 -0.2718
  900MPD2    N113194   1.144   4.571  12.607 -0.5631  0.3442 -0.0128
  900MPD2    H713195   1.239   4.554  12.578 -0.6927 -0.1670 -0.1434
  901MPD2     C13196   1.009   3.546  12.966  0.0752 -0.3452 -0.2232
  901MPD2    C113197   1.105   3.532  12.874  0.0996 -0.2456 -0.0189
  901MPD2    C213198   1.156   3.645  12.807  0.3272  0.4051  0.1042
  901MPD2    C313199   1.096   3.768  12.827  0.1682  0.0897 -0.5451
  901MPD2    C413200   1.003   3.780  12.931 -0.5105 -0.3864  0.5472
  901MPD2    C513201   0.970   3.665  13.007 -0.2795 -0.1820  0.0638
  901MPD2     H13202   1.238   3.642  12.736  0.3941  0.4533  0.1799
  901MPD2    H113203   0.957   3.875  12.958 -1.8653 -0.8886  0.0112
  901MPD2    H213204   0.974   3.458  13.020 -1.1796 -1.0144 -2.1134
  901MPD2    H313205   0.911   3.673  13.097  1.0125 -0.6557  0.9462
  901MPD2     N13206   1.137   3.879  12.746  0.9060  0.1745  0.0552
  901MPD2    H513207   1.202   3.862  12.671  1.6362  0.7826  0.5451
  901MPD2    N113208   1.160   3.403  12.861 -0.0454 -0.2340  0.6884
  901MPD2    H713209   1.129   3.333  12.927  0.1092  0.6166  1.6741
  902MPD2     C13210   4.451   2.468  12.931  0.5546 -0.0805  0.1537
  902MPD2    C113211   4.332   2.531  12.898  0.1486 -0.2235  0.3512
  902MPD2    C213212   4.231   2.448  12.845 -0.3373 -0.7070 -0.4513
  902MPD2    C313213   4.257   2.309  12.825 -0.5328 -0.1256  0.1100
  902MPD2    C413214   4.374   2.250  12.859  0.4109  0.1561  0.2485
  902MPD2    C513215   4.474   2.334  12.907 -0.1284  0.3097  0.4709
  902MPD2     H13216   4.140   2.490  12.803 -1.2712 -0.9695  1.2847
  902MPD2    H113217   4.404   2.147  12.842 -0.7748  0.1242 -1.6339
  902MPD2    H213218   4.530   2.528  12.976 -1.5207  3.2239 -0.5955
  902MPD2    H313219   4.572   2.296  12.933 -0.0225  0.6112  0.5111
  902MPD2     N13220   4.171   2.226  12.746 -0.8410  0.2791 -0.1716
  902MPD2    H513221   4.212   2.142  12.706 -0.0513  0.9411 -0.7701
  902MPD2    N113222   4.318   2.670  12.905  0.5552  0.4184  0.3881
  902MPD2    H713223   4.397   2.717  12.949  0.1889  2.3044 -0.9916
  903MPD2     C13224   3.959   2.628  12.199  0.2733 -0.1848  0.5488
  903MPD2    C113225   3.976   2.504  12.148 -0.4206  1.0297 -0.1493
  903MPD2    C213226   3.997   2.481  12.016  0.1682  0.4887 -0.0662
  903MPD2    C313227   3.985   2.585  11.922  0.2951  0.1689 -0.1389
  903MPD2    C413228   3.969   2.713  11.969 -0.2146 -0.2568 -0.0601
  903MPD2    C513229   3.961   2.738  12.110 -0.1109  0.8098  0.3758
  903MPD2     H13230   4.029   2.387  11.973 -1.0116  0.7102 -1.4409
  903MPD2    H113231   3.960   2.793  11.896  3.7307 -0.6435 -1.0012
  903MPD2    H213232   3.949   2.646  12.306 -1.7216 -4.1446  1.0311
  903MPD2    H313233   3.948   2.840  12.143 -1.0707  0.8537 -0.1194
  903MPD2     N13234   3.999   2.555  11.789 -0.2122 -0.1380 -0.3513
  903MPD2    H513235   4.005   2.457  11.763  1.1754 -0.3199  0.6553
  903MPD2    N113236   4.004   2.411  12.246  0.6073 -0.3522  0.5720
  903MPD2    H713237   3.998   2.444  12.341  1.9672 -1.0570  0.9024
  904MPD2     C13238   3.893   1.594  13.589 -0.2941  0.4266 -0.2852
  904MPD2    C113239   3.854   1.492  13.683  0.5590  0.2156 -0.5059
  904MPD2    C213240   3.950   1.448  13.768 -0.9055  0.2131  0.7013
  904MPD2    C313241   4.074   1.506  13.772 -0.3461  0.1507 -0.4473
  904MPD2    C413242   4.108   1.615  13.693  0.5593  0.0926  0.2983
  904MPD2    C513243   4.016   1.650  13.594  0.3770 -0.2841  0.0874
  904MPD2     H13244   3.931   1.365  13.835  0.2695 -0.6369 -0.0233
  904MPD2    H113245   4.204   1.666  13.687  0.7140  0.0266  2.1936
  904MPD2    H213246   3.839   1.646  13.511 -2.6579 -1.6806 -0.0494
  904MPD2    H313247   4.049   1.717  13.515 -0.5664 -1.5850 -1.4118
  904MPD2     N13248   4.171   1.449  13.862 -0.6486 -0.1667 -0.4830
  904MPD2    H513249   4.147   1.372  13.924  1.3476  1.9606  2.8621
  904MPD2    N113250   3.725   1.433  13.684 -0.3014  0.0368 -0.3920
  904MPD2    H713251   3.714   1.349  13.739 -1.9025  1.1849  1.0221
  905MPD2     C13252   3.573   1.587  12.979  0.2087  0.1120  0.6869
  905MPD2    C113253   3.615   1.689  13.064  0.5000  0.3258 -0.2132
  905MPD2    C213254   3.733   1.753  13.036 -0.3489  0.5907 -0.7760
  905MPD2    C313255   3.810   1.706  12.928 -0.1178 -0.2627  0.0855
  905MPD2    C413256   3.757   1.611  12.844 -0.0167 -0.3381  0.9659
  905MPD2    C513257   3.635   1.554  12.869 -0.0665 -0.2845  0.2446
  905MPD2     H13258   3.777   1.829  13.099 -2.6490  0.8227  0.5451
  905MPD2    H113259   3.802   1.587  12.748  1.1315  1.5823  1.0078
  905MPD2    H213260   3.483   1.527  12.996  0.2184  0.0564  0.5427
  905MPD2    H313261   3.594   1.475  12.808  0.0824 -1.6905  1.9613
  905MPD2     N13262   3.937   1.760  12.897 -0.1054  0.4519 -0.5733
  905MPD2    H513263   3.994   1.705  12.834 -1.0120  0.2893 -1.2560
  905MPD2    N113264   3.543   1.710  13.181  0.7030 -0.7729  0.4806
  905MPD2    H713265   3.467   1.646  13.200 -0.3046  0.3377  0.1717
  906MPD2     C13266   1.940   1.852  11.262 -0.2194 -1.0094 -0.0720
  906MPD2    C113267   1.959   1.770  11.151 -0.1367  0.3406 -0.4005
  906MPD2    C213268   1.970   1.634  11.160  0.2403 -0.2470  0.2886
  906MPD2    C313269   1.971   1.580  11.289  0.5823  0.1837 -0.4610
  906MPD2    C413270   1.946   1.658  11.400 -0.0076 -0.2693 -0.0881
  906MPD2    C513271   1.938   1.789  11.386 -0.1337 -0.0251 -0.2465
  906MPD2     H13272   1.991   1.581  11.068  1.2323 -0.1465  0.4660
  906MPD2    H113273   1.950   1.613  11.498 -0.3807 -0.5147 -0.1864
  906MPD2    H213274   1.928   1.960  11.258 -1.9221 -1.2232 -0.9234
  906MPD2    H313275   1.936   1.847  11.478 -0.0162  1.9422 -1.4969
  906MPD2     N13276   1.996   1.440  11.315  0.3330 -0.1633  0.1801
  906MPD2    H513277   1.996   1.410  11.412 -1.2037 -1.2209 -0.1420
  906MPD2    N113278   1.961   1.819  11.021  0.0642 -0.5432  0.3654
  906MPD2    H713279   1.974   1.752  10.945 -0.1721 -0.6623  0.4323
  907MPD2     C13280   0.288   0.546  15.338  0.1223  0.1410  0.4981
  907MPD2    C113281   0.367   0.435  15.349 -0.2859 -0.4069  0.1673
  907MPD2    C213282   0.418   0.398  15.473  0.3457  1.0013  0.3394
  907MPD2    C313283   0.403   0.491  15.573  0.3579 -0.1340 -0.1179
  907MPD2    C413284   0.326   0.601  15.555  0.2041 -0.9987  0.3352
  907MPD2    C513285   0.262   0.630  15.442 -0.4004 -0.2158 -0.5024
  907MPD2     H13286   0.475   0.308  15.489 -0.6087  0.5176  1.0422
  907MPD2    H113287   0.313   0.677  15.632 -0.4818 -2.3669  1.5763
  907MPD2    H213288   0.238   0.566  15.244 -0.3794 -0.4270  0.6459
  907MPD2    H313289   0.202   0.719  15.422 -0.2442  0.2275  1.0113
  907MPD2     N13290   0.476   0.473  15.693 -0.7667 -0.1579 -0.2466
  907MPD2    H513291   0.537   0.392  15.688 -0.9409 -0.1861 -1.8053
  907MPD2    N113292   0.393   0.348  15.244 -0.2592 -0.8809 -0.0285
  907MPD2    H713293   0.461   0.273  15.257  1.3745  0.5892 -0.0328
  908MPD2     C13294   3.958   1.315   9.855  0.4619 -0.1934  0.2375
  908MPD2    C113295   3.854   1.231   9.890  0.5419 -0.2375 -0.3310
  908MPD2    C213296   3.815   1.214  10.019 -0.3648  0.3811  0.0911
  908MPD2    C313297   3.866   1.299  10.119  0.0680 -0.6155 -0.3320
  908MPD2    C413298   3.970   1.387  10.088 -1.1087 -0.4786 -0.2194
  908MPD2    C513299   4.012   1.394   9.954 -0.7161 -0.2158 -0.2482
  908MPD2     H13300   3.732   1.149  10.041 -1.0464  1.4401  0.6168
  908MPD2    H113301   4.011   1.460  10.157  0.2531 -1.8456  0.4176
  908MPD2    H213302   3.985   1.333   9.752 -0.9310 -0.4459 -0.1731
  908MPD2    H313303   4.085   1.469   9.926  0.2513 -1.1597 -0.2583
  908MPD2     N13304   3.810   1.282  10.246 -0.3359 -0.2093  0.5327
  908MPD2    H513305   3.729   1.221  10.241 -0.5052 -0.3027  4.4867
  908MPD2    N113306   3.787   1.150   9.799  0.1835  0.2556 -0.2651
  908MPD2    H713307   3.735   1.070   9.833  1.0049  0.1221  0.6746
  909MPD2     C13308   3.984   0.204  12.094 -0.2493  0.0838 -0.7544
  909MPD2    C113309   3.903   0.193  11.983  0.2378  0.0110 -0.4522
  909MPD2    C213310   3.762   0.205  11.999  0.1218 -0.2036 -0.3984
  909MPD2    C313311   3.699   0.211  12.125  0.2177  0.2330 -0.4602
  909MPD2    C413312   3.788   0.211  12.233  0.1620 -0.4173  0.5938
  909MPD2    C513313   3.926   0.217  12.214  0.3732  0.0716  0.3280
  909MPD2     H13314   3.696   0.213  11.914 -0.6716  3.2509  0.5798
  909MPD2    H113315   3.746   0.203  12.333  0.7366  0.9291  0.9333
  909MPD2    H213316   4.091   0.194  12.099 -0.4993 -0.2299  3.8011
  909MPD2    H313317   3.993   0.230  12.298 -0.3397 -0.4942  0.9823
  909MPD2     N13318   3.555   0.207  12.134 -0.6276 -0.3641  0.5307
  909MPD2    H513319   3.508   0.204  12.045  1.2441  0.7289 -0.4987
  909MPD2    N113320   3.959   0.180  11.852  0.2754 -0.1147  0.3860
  909MPD2    H713321   3.891   0.173  11.777  0.6155 -0.0578  0.0739
  910MPD2     C13322   4.646   0.241  14.966 -0.2737 -0.5068 -0.2463
  910MPD2    C113323   4.666   0.341  15.052  0.8278 -0.2257  0.1754
  910MPD2    C213324   4.585   0.456  15.044  0.0337 -0.6979 -0.2464
  910MPD2    C313325   4.502   0.465  14.928 -0.2995  0.4784  0.4144
  910MPD2    C413326   4.494   0.365  14.834 -0.7504  0.4954 -0.2799
  910MPD2    C513327   4.570   0.254  14.856  0.0265 -0.2828 -0.4843
  910MPD2     H13328   4.577   0.538  15.115 -2.2049 -0.8184 -0.3373
  910MPD2    H113329   4.429   0.363  14.747  0.7325 -0.3093 -1.3781
  910MPD2    H213330   4.708   0.152  14.956  0.4798 -0.1658  1.4367
  910MPD2    H313331   4.570   0.173  14.784 -1.4419  0.0666 -0.8669
  910MPD2     N13332   4.428   0.581  14.894 -1.2071 -0.4367  0.3273
  910MPD2    H513333   4.367   0.569  14.814  0.0962 -0.5276 -0.6504
  910MPD2    N113334   0.010   0.318  15.176 -0.0681  0.4180 -0.2120
  910MPD2    H713335   0.009   0.394  15.243 -2.2315  0.0264  0.2021
  911MPD2     C13336   2.422   1.410  16.130 -0.1770  0.8639  0.4854
  911MPD2    C113337   2.483   1.513  16.199  0.2636  0.1532 -0.4757
  911MPD2    C213338   2.449   1.645  16.164  0.1714 -0.6680  0.5435
  911MPD2    C313339   2.359   1.671  16.063 -0.3799 -0.2940 -0.1607
  911MPD2    C413340   2.300   1.570  15.997 -0.3628 -0.2687 -0.7928
  911MPD2    C513341   2.331   1.442  16.029 -0.5413 -0.1167  0.1089
  911MPD2     H13342   2.503   1.722  16.218 -0.1392 -0.9979  1.3226
  911MPD2    H113343   2.222   1.586  15.923 -1.5889 -1.5471  0.2220
  911MPD2    H213344   2.438   1.309  16.166 -1.5919 -0.6655 -3.1214
  911MPD2    H313345   2.292   1.360  15.970  0.4406 -0.4605 -0.0723
  911MPD2     N13346   2.324   1.802  16.014 -0.0658 -0.3716  0.5383
  911MPD2    H513347   2.249   1.799  15.946  0.7037 -2.5914 -0.2121
  911MPD2    N113348   2.561   1.479  16.308 -0.6666  0.2961 -0.3822
  911MPD2    H713349   2.570   1.378  16.320 -1.2091  0.3292  0.3316
  912MPD2     C13350   1.946   1.607  15.566 -0.8299 -0.4699 -0.1600
  912MPD2    C113351   1.961   1.645  15.693 -0.7993 -0.4676 -0.0297
  912MPD2    C213352   1.957   1.545  15.786 -0.1134 -0.0393 -0.0426
  912MPD2    C313353   1.923   1.418  15.750 -0.4447  0.4569 -0.3565
  912MPD2    C413354   1.897   1.387  15.624  0.3787  0.2247 -0.3817
  912MPD2    C513355   1.911   1.482  15.526 -0.2005  0.0953  0.5035
  912MPD2     H13356   1.973   1.566  15.892  0.3064  1.9848 -0.5048
  912MPD2    H113357   1.858   1.291  15.594 -1.4216  0.5391  0.9464
  912MPD2    H213358   1.958   1.682  15.489  3.2493 -0.6012  0.3680
  912MPD2    H313359   1.888   1.453  15.425  0.3348  2.2599 -0.2434
  912MPD2     N13360   1.939   1.317  15.849  0.0149 -0.8281  0.0434
  912MPD2    H513361   1.943   1.344  15.946  1.1878  1.1372 -0.5565
  912MPD2    N113362   1.982   1.787  15.725 -0.3887 -0.5200  0.2038
  912MPD2    H713363   1.969   1.849  15.646  0.0273 -1.0518 -0.2825
  913MPD2     C13364   3.425   3.746  10.482 -0.2998  0.2715 -0.5900
  913MPD2    C113365   3.313   3.659  10.494 -0.4304  0.2349 -0.2483
  913MPD2    C213366   3.227   3.659  10.381  0.0945  0.1434 -0.8037
  913MPD2    C313367   3.237   3.754  10.272  0.3821  0.8249  0.2558
  913MPD2    C413368   3.347   3.835  10.271 -0.2294 -0.3516  0.4585
  913MPD2    C513369   3.430   3.833  10.377 -0.1351 -0.1557 -0.8190
  913MPD2     H13370   3.134   3.604  10.381 -1.1423  2.2119 -0.8623
  913MPD2    H113371   3.377   3.891  10.183  0.6683 -0.4560  0.6977
  913MPD2    H213372   3.493   3.754  10.566 -0.4987  1.8975 -0.5860
  913MPD2    H313373   3.518   3.896  10.372 -1.3718  1.6017 -0.5335
  913MPD2     N13374   3.142   3.781  10.178  0.6965  0.2025 -0.9556
  913MPD2    H513375   3.155   3.864  10.121  1.1667  1.1686  0.5485
  913MPD2    N113376   3.288   3.596  10.616  0.1620 -0.5513 -0.6684
  913MPD2    H713377   3.366   3.605  10.679 -0.7794  1.8203  0.1584
  914MPD2     C13378   0.625   3.358  12.404  1.2724 -0.1644 -0.1481
  914MPD2    C113379   0.726   3.439  12.441 -0.3528 -0.8298  0.7820
  914MPD2    C213380   0.837   3.375  12.497  0.4545 -0.9900 -0.1051
  914MPD2    C313381   0.864   3.240  12.496 -0.1000 -0.2357  0.1297
  914MPD2    C413382   0.760   3.158  12.459 -0.1549  1.1469 -0.4819
  914MPD2    C513383   0.644   3.225  12.417 -1.1300  0.0609  0.8728
  914MPD2     H13384   0.909   3.449  12.531 -0.8119  0.6031 -0.8490
  914MPD2    H113385   0.758   3.050  12.464 -0.6670  1.1463 -0.6382
  914MPD2    H213386   0.529   3.390  12.366  1.7739  0.3506 -0.9895
  914MPD2    H313387   0.562   3.163  12.381  0.6397 -0.2599 -2.5178
  914MPD2     N13388   0.981   3.195  12.558 -0.1484  0.5324 -0.1549
  914MPD2    H513389   1.040   3.261  12.607  0.8952 -0.7689  0.3674
  914MPD2    N113390   0.710   3.577  12.427 -0.3020 -0.4891  0.5000
  914MPD2    H713391   0.633   3.605  12.367 -0.4161 -3.3218 -0.6961
  915MPD2     C13392   3.787   2.899  15.354  0.5692 -0.0776  0.1537
  915MPD2    C113393   3.657   2.847  15.357  0.2402  0.2837 -0.4953
  915MPD2    C213394   3.590   2.866  15.474  0.4066  0.4143 -0.1957
  915MPD2    C313395   3.638   2.944  15.577  0.1204  0.3077  0.5222
  915MPD2    C413396   3.771   2.986  15.578  0.1953  0.0815 -0.5508
  915MPD2    C513397   3.846   2.965  15.463 -0.3798  0.5748  0.4367
  915MPD2     H13398   3.493   2.824  15.499 -0.7232  2.7672 -0.6181
  915MPD2    H113399   3.823   3.025  15.665  0.5208 -0.0030 -0.7092
  915MPD2    H213400   3.842   2.885  15.262  0.6873  0.4758  0.1393
  915MPD2    H313401   3.946   3.007  15.468 -0.9274  2.1954 -2.4140
  915MPD2     N13402   3.552   2.958  15.689  0.3563  0.1334  0.5209
  915MPD2    H513403   3.462   2.911  15.687  0.4313 -0.0139  0.6585
  915MPD2    N113404   3.590   2.787  15.248  0.7315  1.0524 -0.1873
  915MPD2    H713405   3.494   2.755  15.256  0.4843  1.9552  0.4504
  916MPD2     C13406   1.613   1.235  15.429  0.0818  0.4223 -0.1389
  916MPD2    C113407   1.624   1.149  15.534  0.2339  0.0230  0.3749
  916MPD2    C213408   1.665   1.016  15.514  0.7840  0.1593  0.3999
  916MPD2    C313409   1.706   0.976  15.386  0.7488  0.3757 -0.2603
  916MPD2    C413410   1.693   1.062  15.282  0.3474 -0.2145  0.1211
  916MPD2    C513411   1.651   1.189  15.303 -0.3734 -0.4077  0.3685
  916MPD2     H13412   1.676   0.941  15.592  0.3103 -1.4770 -1.1096
  916MPD2    H113413   1.708   1.025  15.181  2.2502  0.9667 -0.0323
  916MPD2    H213414   1.577   1.334  15.453  0.1994  0.6035 -0.7113
  916MPD2    H313415   1.629   1.258  15.222 -2.5918  1.0057  2.1825
  916MPD2     N13416   1.752   0.843  15.369 -0.0820  0.0380  0.0596
  916MPD2    H513417   1.760   0.793  15.457 -0.4912 -0.0560  0.0457
  916MPD2    N113418   1.584   1.189  15.665  0.0760 -0.2388 -0.3016
  916MPD2    H713419   1.524   1.271  15.668  1.0478  0.4116  1.2565
  917MPD2     C13420   2.220   4.087  11.299  0.2043 -0.7056  0.4112
  917MPD2    C113421   2.314   4.075  11.388 -0.2758  0.5712 -0.2573
  917MPD2    C213422   2.430   4.146  11.361 -0.3718  0.3335 -0.2246
  917MPD2    C313423   2.443   4.225  11.240 -0.4652  0.2023  0.3459
  917MPD2    C413424   2.341   4.226  11.153 -0.0768  1.6121  0.1288
  917MPD2    C513425   2.229   4.160  11.189  0.6238  0.5378  0.1270
  917MPD2     H13426   2.511   4.151  11.433  1.1431 -0.5619 -1.8493
  917MPD2    H113427   2.346   4.283  11.061 -1.7781 -0.4490 -1.2290
  917MPD2    H213428   2.126   4.040  11.329  0.6236 -0.8538  1.5183
  917MPD2    H313429   2.141   4.164  11.126 -1.3077  1.0314  2.8657
  917MPD2     N13430   2.547   4.322  11.215  0.4367  0.0685  0.5037
  917MPD2    H513431   2.544   4.364  11.123  0.1798  2.0148  1.4060
  917MPD2    N113432   2.281   4.011  11.514  0.2897 -0.2646 -0.4139
  917MPD2    H713433   2.197   3.954  11.511 -0.6094  0.8977  1.9616
  918MPD2     C13434   2.681   3.990  12.504  0.7263 -0.8296 -0.0465
  918MPD2    C113435   2.710   3.875  12.437  0.1465  0.0688  0.0168
  918MPD2    C213436   2.623   3.816  12.349  0.3300 -0.4614  0.5469
  918MPD2    C313437   2.520   3.892  12.293  0.5806 -0.1980  0.4334
  918MPD2    C413438   2.497   4.013  12.353  0.7294 -0.3042 -0.5509
  918MPD2    C513439   2.575   4.062  12.458  0.1433 -0.9329  0.1265
  918MPD2     H13440   2.648   3.717  12.310  1.3043  0.4206 -1.1082
  918MPD2    H113441   2.416   4.074  12.315  1.3895  1.5994  1.0542
  918MPD2    H213442   2.731   4.018  12.597 -0.9145 -1.9294  1.1605
  918MPD2    H313443   2.528   4.152  12.495  0.9284 -0.2960 -0.4148
  918MPD2     N13444   2.459   3.859  12.173  0.2080  0.3879  0.5235
  918MPD2    H513445   2.481   3.769  12.132 -1.4748  0.5129 -0.6407
  918MPD2    N113446   2.821   3.794  12.476  0.5454 -0.5296  0.0351
  918MPD2    H713447   2.830   3.697  12.449  3.0277  0.0985 -1.3566
  919MPD2     C13448   2.845   2.802  11.669  0.1060  0.4509  0.3204
  919MPD2    C113449   2.758   2.884  11.745  0.6485  0.4350 -0.1001
  919MPD2    C213450   2.672   2.973  11.681 -0.1287 -0.6716 -0.0269
  919MPD2    C313451   2.668   2.977  11.545  0.4174  0.2824  0.0761
  919MPD2    C413452   2.747   2.892  11.466 -0.3126  0.3087 -0.0112
  919MPD2    C513453   2.824   2.800  11.531  0.4998  0.0338  0.3825
  919MPD2     H13454   2.593   3.020  11.739 -0.6108 -2.4113  0.7263
  919MPD2    H113455   2.727   2.879  11.361  0.4902 -1.8050  0.1096
  919MPD2    H213456   2.904   2.717  11.702 -1.2076 -0.4293  0.4379
  919MPD2    H313457   2.892   2.737  11.475 -0.4663  0.4502 -1.2473
  919MPD2     N13458   2.586   3.063  11.469  0.0028  0.7483  0.0125
  919MPD2    H513459   2.605   3.065  11.369  0.9810 -1.1955  0.1597
  919MPD2    N113460   2.739   2.871  11.884 -0.2513  0.2157 -0.3859
  919MPD2    H713461   2.645   2.895  11.914 -0.4381 -0.3246 -0.5298
  920MPD2     C13462   2.436   3.671  10.680  0.8955  0.8516  0.2535
  920MPD2    C113463   2.338   3.570  10.671  0.1963 -0.2684 -0.2332
  920MPD2    C213464   2.333   3.479  10.780 -0.7196  0.7964  0.1135
  920MPD2    C313465   2.425   3.483  10.884 -0.1696 -0.1626 -0.8713
  920MPD2    C413466   2.522   3.580  10.879  0.3050 -0.4816  0.0368
  920MPD2    C513467   2.521   3.676  10.788  0.5015  0.3707  0.6122
  920MPD2     H13468   2.260   3.399  10.770  0.4970 -0.2811 -0.1069
  920MPD2    H113469   2.589   3.596  10.963 -1.0492 -0.9615  1.2167
  920MPD2    H213470   2.430   3.747  10.603  3.5513 -0.0658 -0.8803
  920MPD2    H313471   2.597   3.753  10.790  1.6143 -0.7391  1.4404
  920MPD2     N13472   2.405   3.402  10.997  0.3408 -1.0437 -0.1551
  920MPD2    H513473   2.317   3.350  10.997  0.4665 -1.2602  0.2422
  920MPD2    N113474   2.252   3.551  10.559  0.1140  0.7589 -0.2793
  920MPD2    H713475   2.191   3.470  10.565  0.6280  0.2548 -1.9261
  921MPD2     C13476   3.242   2.023  16.736 -0.3560  0.0678 -0.3666
  921MPD2    C113477   3.283   1.900  16.692 -0.4983  0.2017  0.6038
  921MPD2    C213478   3.199   1.792  16.703 -0.2975  0.0369 -0.8708
  921MPD2    C313479   3.065   1.812  16.749 -0.0089  0.0461 -0.2580
  921MPD2    C413480   3.024   1.943  16.770  0.2611  0.2404 -0.4073
  921MPD2    C513481   3.114   2.047  16.767  0.0587 -0.1934  0.2010
  921MPD2     H13482   3.233   1.697  16.663 -0.1278 -0.6482  0.9122
  921MPD2    H113483   2.921   1.971  16.788  0.3972  0.1664  0.4727
  921MPD2    H213484   3.315   2.102  16.734 -2.3434  1.9514  1.8320
  921MPD2    H313485   3.082   2.147  16.795 -1.4505 -0.5192 -0.3756
  921MPD2     N13486   2.965   1.708  16.753 -0.5923 -0.0612  0.4834
  921MPD2    H513487   2.870   1.742  16.759  0.4245  3.1945 -1.6485
  921MPD2    N113488   3.418   1.896  16.642  0.2946 -0.1962 -0.4518
  921MPD2    H713489   3.463   1.982  16.613  0.2701 -1.0174 -2.8979
  922MPD2     C13490   4.372   3.945  17.029  0.5314 -0.0533 -0.0798
  922MPD2    C113491   4.383   4.066  17.099 -0.7479 -1.3846  0.4574
  922MPD2    C213492   4.340   4.068  17.232  0.4052 -0.1650  0.1765
  922MPD2    C313493   4.281   3.955  17.287 -0.1892  0.2765  0.0005
  922MPD2    C413494   4.278   3.838  17.211  0.0804  0.3711 -0.1093
  922MPD2    C513495   4.307   3.842  17.081  0.0677  0.0495 -0.0161
  922MPD2     H13496   4.351   4.158  17.290  0.3265  0.4928 -0.8230
  922MPD2    H113497   4.250   3.741  17.252 -0.0661  1.3297  2.0564
  922MPD2    H213498   4.408   3.928  16.928 -1.6280 -0.0236 -0.8499
  922MPD2    H313499   4.301   3.744  17.034  2.2908 -0.5565  0.9910
  922MPD2     N13500   4.243   3.953  17.423 -0.2676 -0.4310 -0.1763
  922MPD2    H513501   4.243   4.046  17.463 -1.7314 -0.5985  0.2018
  922MPD2    N113502   4.441   4.184  17.044 -0.3960  0.4648 -0.1912
  922MPD2    H713503   4.453   4.259  17.112 -1.3073  0.7196 -0.3083
  923MPD2     C13504   2.392   2.036  10.127  0.2869  0.6192  0.1055
  923MPD2    C113505   2.255   2.036  10.114  0.3319 -0.2504  0.6059
  923MPD2    C213506   2.186   2.162  10.133 -0.1727 -0.7847  0.0739
  923MPD2    C313507   2.254   2.278  10.168  0.5458 -0.3360  0.3964
  923MPD2    C413508   2.389   2.269  10.192 -0.0891 -0.0624 -0.3814
  923MPD2    C513509   2.459   2.149  10.166 -0.1721 -0.0589  0.3873
  923MPD2     H13510   2.079   2.165  10.113  0.2647  3.3109 -1.6489
  923MPD2    H113511   2.459   2.352  10.197 -1.4940  1.1184 -0.3064
  923MPD2    H213512   2.460   1.956  10.099  0.1254  0.9358 -1.2060
  923MPD2    H313513   2.567   2.140  10.175 -0.1287  1.4986  1.4205
  923MPD2     N13514   2.190   2.407  10.197 -0.5671  0.3515  0.0476
  923MPD2    H513515   2.247   2.490  10.212 -0.4134  0.7513 -2.6394
  923MPD2    N113516   2.213   1.915  10.058 -0.3355 -0.3561 -0.1664
  923MPD2    H713517   2.284   1.844  10.041  0.2655  0.3877 -0.7775
  924MPD2     C13518   0.907   4.599  16.192 -0.0744 -0.1058 -0.2206
  924MPD2    C113519   0.816   4.661  16.279  0.1188  0.0684 -0.2267
  924MPD2    C213520   0.780   0.066  16.253 -0.2336  0.3389 -0.1306
  924MPD2    C313521   0.836   0.133  16.148 -0.2197  0.1534  0.3721
  924MPD2    C413522   0.931   0.074  16.071  0.1453  0.6601 -0.0913
  924MPD2    C513523   0.962   4.667  16.090  0.3602 -0.5789  0.3558
  924MPD2     H13524   0.705   0.114  16.315  0.2482 -0.0861  0.7819
  924MPD2    H113525   0.974   0.117  15.981 -2.2137  3.2609  0.0093
  924MPD2    H213526   0.938   4.496  16.208 -2.1547 -0.8261 -0.9075
  924MPD2    H313527   1.033   4.621  16.022 -0.2966 -0.9543 -0.0742
  924MPD2     N13528   0.789   0.262  16.119  0.3954  0.1174  0.2216
  924MPD2    H513529   0.725   0.300  16.188 -0.5719  0.1852 -0.7140
  924MPD2    N113530   0.748   4.587  16.375 -0.4848 -0.8106  0.4129
  924MPD2    H713531   0.681   4.635  16.434 -0.0248 -1.4631  1.4543
  925MPD2     C13532   4.446   1.820  14.731  0.2913 -0.3692 -0.4667
  925MPD2    C113533   4.319   1.851  14.694 -0.1728  0.4450  1.0595
  925MPD2    C213534   4.216   1.810  14.775  0.1097  0.6233 -0.0965
  925MPD2    C313535   4.237   1.741  14.893  0.0915  0.2814 -0.2156
  925MPD2    C413536   4.371   1.718  14.937 -0.1583 -0.1170 -0.2518
  925MPD2    C513537   4.476   1.759  14.852  0.6195 -0.0152  0.4001
  925MPD2     H13538   4.115   1.815  14.735  0.5500  1.4678 -1.0756
  925MPD2    H113539   4.395   1.664  15.027 -0.1320 -1.4918 -1.0825
  925MPD2    H213540   4.536   1.853  14.680 -1.0858  0.7582 -2.1674
  925MPD2    H313541   4.578   1.745  14.885  0.2828 -2.1402  0.5242
  925MPD2     N13542   4.137   1.695  14.977  0.4068 -0.8462 -0.5004
  925MPD2    H513543   4.170   1.664  15.068 -3.2949  0.3381  1.2461
  925MPD2    N113544   4.293   1.913  14.570 -0.0722  1.0059 -0.2934
  925MPD2    H713545   4.197   1.941  14.555  0.1395  1.1778 -1.2824
  926MPD2     C13546   2.958   0.522  13.612 -0.3481 -0.4333 -0.1935
  926MPD2    C113547   2.906   0.588  13.501 -0.3703 -0.2112  0.3399
  926MPD2    C213548   2.988   0.663  13.417 -0.2732  0.3960 -0.1854
  926MPD2    C313549   3.125   0.678  13.440  0.4157 -0.8297 -0.1520
  926MPD2    C413550   3.172   0.613  13.556  0.3171  0.3977  0.1423
  926MPD2    C513551   3.088   0.533  13.632  0.4957  0.1584 -0.2697
  926MPD2     H13552   2.949   0.716  13.331  1.0567  0.8806 -0.4856
  926MPD2    H113553   3.274   0.625  13.593 -0.4154  2.7533  1.3739
  926MPD2    H213554   2.902   0.455  13.677  1.4840 -1.1553  0.6360
  926MPD2    H313555   3.124   0.476  13.718  0.6536 -0.6946 -0.9010
  926MPD2     N13556   3.217   0.764  13.369 -0.6091 -0.2273 -0.3054
  926MPD2    H513557   3.313   0.730  13.373 -0.3389  0.6744  0.8584
  926MPD2    N113558   2.768   0.588  13.470  0.2494  0.3291 -0.0948
  926MPD2    H713559   2.742   0.634  13.383 -0.8212 -1.9814 -1.0166
  927MPD2     C13560   2.542   3.289  17.703 -0.0138 -0.8768  0.8275
  927MPD2    C113561   2.635   3.209   0.057  0.1959  0.1722 -0.5446
  927MPD2    C213562   2.726   3.134  17.687 -0.1614  0.2171 -0.9815
  927MPD2    C313563   2.720   3.130  17.544  0.3084  0.3019  0.2929
  927MPD2    C413564   2.619   3.212  17.487 -0.5825  0.5301  0.1901
  927MPD2    C513565   2.545   3.299  17.565  0.0831 -0.1620 -0.1399
  927MPD2     H13566   2.808   3.081   0.031 -0.2512  1.2830  0.3423
  927MPD2    H113567   2.595   3.208  17.381  0.0454  0.4903  0.0496
  927MPD2    H213568   2.480   3.356   0.058 -0.7799 -1.6721  0.9292
  927MPD2    H313569   2.467   3.360  17.520 -1.1251 -1.6474 -0.0621
  927MPD2     N13570   2.810   3.050  17.468 -1.3398  0.2232  0.2289
  927MPD2    H513571   2.877   2.998  17.523  1.6025  1.6773 -1.9704
  927MPD2    N113572   2.642   3.213   0.200 -0.1324  0.3252  0.3536
  927MPD2    H713573   2.575   3.269   0.251  0.0049 -0.2967  1.2337
  928MPD2     C13574   1.074   1.199   1.022  0.0192  0.2125  0.2017
  928MPD2    C113575   1.191   1.257   1.040  0.5059 -0.1571 -0.0986
  928MPD2    C213576   1.280   1.264   0.937  0.4309  0.0192  0.3001
  928MPD2    C313577   1.256   1.205   0.815 -0.2779  0.1489 -0.6578
  928MPD2    C413578   1.134   1.139   0.801  0.0734  0.6560  0.9614
  928MPD2    C513579   1.042   1.145   0.903  0.0058 -0.0919  0.2251
  928MPD2     H13580   1.381   1.294   0.959  0.1397  1.5338 -0.4426
  928MPD2    H113581   1.108   1.091   0.707 -0.0405  1.6368  0.4974
  928MPD2    H213582   0.987   1.205   1.087 -0.4901  2.2071 -0.6619
  928MPD2    H313583   0.951   1.089   0.885  0.3646 -0.6905  0.2700
  928MPD2     N13584   1.348   1.210   0.701 -0.3979  0.5111  0.2360
  928MPD2    H513585   1.314   1.162   0.619  2.5601 -1.0701 -0.0799
  928MPD2    N113586   1.223   1.324   1.160  0.0387 -0.2911  0.1584
  928MPD2    H713587   1.313   1.371   1.161 -0.6943  1.1084 -1.2507
  929MPD2     C13588   1.617   1.308  10.967 -0.0801  0.1124 -0.3263
  929MPD2    C113589   1.480   1.300  10.968 -0.5269 -0.5750  1.0395
  929MPD2    C213590   1.416   1.294  10.838  0.3554  0.8631 -0.1893
  929MPD2    C313591   1.490   1.309  10.718  0.7748  0.0097 -0.5224
  929MPD2    C413592   1.628   1.315  10.728 -0.2421  0.2911  0.0790
  929MPD2    C513593   1.688   1.313  10.852  0.4397 -0.5733  1.0145
  929MPD2     H13594   1.307   1.292  10.844  0.2402 -0.8499 -2.4132
  929MPD2    H113595   1.697   1.323  10.645  2.0427 -0.3311  1.9109
  929MPD2    H213596   1.672   1.306  11.060  1.3965  0.9360 -1.1755
  929MPD2    H313597   1.795   1.319  10.861  0.8061 -3.0129 -1.8401
  929MPD2     N13598   1.422   1.329  10.591 -0.4773 -0.3663  0.3384
  929MPD2    H513599   1.481   1.362  10.515 -2.6411 -0.8208 -1.5348
  929MPD2    N113600   1.412   1.304  11.085  0.3678  0.0209  0.0369
  929MPD2    H713601   1.471   1.319  11.166 -0.4687  1.9266  0.2867
  930MPD2     C13602   2.523   3.604  14.132  0.1430 -0.3766 -0.0960
  930MPD2    C113603   2.456   3.693  14.053  0.1159  0.0069 -0.4860
  930MPD2    C213604   2.357   3.650  13.979 -0.4141 -0.4408  0.1079
  930MPD2    C313605   2.325   3.516  13.979  0.0397  0.5377  0.3003
  930MPD2    C413606   2.393   3.421  14.056  0.1747  1.0213  0.3408
  930MPD2    C513607   2.490   3.469  14.135 -0.3706  0.0929 -0.2524
  930MPD2     H13608   2.296   3.721  13.924 -0.3514  0.1300  0.7788
  930MPD2    H113609   2.363   3.317  14.066  0.9216  0.6194 -1.5716
  930MPD2    H213610   2.610   3.630  14.192 -0.5038  2.3833 -0.3766
  930MPD2    H313611   2.533   3.407  14.212 -0.4887  0.3944  0.0592
  930MPD2     N13612   2.210   3.465  13.912 -0.2975  0.2627  0.0859
  930MPD2    H513613   2.175   3.378  13.950  2.0114 -0.8526 -0.3800
  930MPD2    N113614   2.511   3.821  14.048  0.2989 -0.3952  0.3809
  930MPD2    H713615   2.582   3.841  14.118  0.2352 -0.3645  0.4374
  931MPD2     C13616   2.655   2.719   0.895  0.0886  0.2915  0.2752
  931MPD2    C113617   2.733   2.826   0.929 -0.4557  0.2169  0.0425
  931MPD2    C213618   2.790   2.827   1.059  0.1279 -0.3936 -0.2384
  931MPD2    C313619   2.774   2.712   1.142  0.4732 -0.5773 -0.5158
  931MPD2    C413620   2.694   2.616   1.096  0.2505 -0.4979  0.1728
  931MPD2    C513621   2.637   2.617   0.978  0.9369 -0.3297 -0.2559
  931MPD2     H13622   2.853   2.912   1.086  0.5206 -0.5808 -0.5653
  931MPD2    H113623   2.677   2.526   1.154 -1.2011  1.0582  2.1438
  931MPD2    H213624   2.609   2.710   0.797 -1.6078  0.7364  1.0301
  931MPD2    H313625   2.571   2.535   0.953  0.3587 -1.1223  3.8091
  931MPD2     N13626   2.820   2.696   1.278  0.1984 -0.3129  0.5134
  931MPD2    H513627   2.771   2.631   1.338  0.7082  0.0361  1.3170
  931MPD2    N113628   2.767   2.930   0.844 -0.1712 -0.0480  0.2274
  931MPD2    H713629   2.828   3.005   0.875  1.8183 -1.3044 -0.6553
  932MPD2     C13630   4.428   2.461  11.668 -0.3695  0.6900  0.2283
  932MPD2    C113631   4.504   2.399  11.570 -0.0558 -0.1411  0.3536
  932MPD2    C213632   4.506   2.261  11.567  1.0865  0.1637  0.4984
  932MPD2    C313633   4.449   2.185  11.666 -0.6208 -0.1758  0.0959
  932MPD2    C413634   4.374   2.250  11.762  0.4064  0.1496 -0.0286
  932MPD2    C513635   4.354   2.392  11.759  0.8686 -0.0028 -0.3581
  932MPD2     H13636   4.565   2.214  11.490 -1.6615  0.7066 -1.9241
  932MPD2    H113637   4.309   2.190  11.824 -0.4366 -0.8516 -1.8903
  932MPD2    H213638   4.415   2.568  11.667 -0.3499  0.7196  1.9742
  932MPD2    H313639   4.296   2.441  11.836  1.8461 -1.8969  1.5684
  932MPD2     N13640   4.453   2.046  11.669 -0.3890  0.0697 -0.0337
  932MPD2    H513641   4.413   2.007  11.753  1.7148  1.1206  1.4751
  932MPD2    N113642   4.588   2.472  11.483  0.4798  0.3221  0.1793
  932MPD2    H713643   4.640   2.414  11.418 -0.0075 -0.0339  0.1002
  933MPD2     C13644   0.757   1.871   1.472 -0.2065  0.1066  0.3729
  933MPD2    C113645   0.887   1.896   1.424 -0.6353  0.0651 -0.5999
  933MPD2    C213646   0.915   2.019   1.378 -0.3740 -0.5723  0.4009
  933MPD2    C313647   0.831   2.131   1.381 -0.1658 -0.6563  1.2038
  933MPD2    C413648   0.699   2.110   1.426 -0.2005  0.4608 -0.0496
  933MPD2    C513649   0.667   1.981   1.462  0.5526  0.2859 -0.3193
  933MPD2     H13650   1.011   2.023   1.329  1.6678 -0.8281  4.3990
  933MPD2    H113651   0.629   2.192   1.439 -2.0473 -0.9294 -1.3271
  933MPD2    H213652   0.723   1.773   1.503 -1.0317  0.5758  0.9578
  933MPD2    H313653   0.565   1.963   1.494  1.6066 -1.0456  2.3107
  933MPD2     N13654   0.868   2.260   1.325  0.1795 -0.2684 -0.5914
  933MPD2    H513655   0.956   2.272   1.275  0.4708  0.9838  0.2081
  933MPD2    N113656   0.982   1.784   1.418  0.6472 -0.0032 -0.4933
  933MPD2    H713657   0.943   1.693   1.437  2.2515 -0.5115  0.4179
  934MPD2     C13658   1.802   3.355   2.216 -0.0601 -0.2848  0.4022
  934MPD2    C113659   1.805   3.479   2.152  0.4291 -0.4114  0.8334
  934MPD2    C213660   1.787   3.481   2.010 -0.1323 -0.4734 -0.6636
  934MPD2    C313661   1.765   3.369   1.941  0.0366  0.4504  0.1190
  934MPD2    C413662   1.768   3.248   2.002 -0.0131  0.1995  0.3908
  934MPD2    C513663   1.786   3.241   2.144 -0.7016  0.9158  0.2574
  934MPD2     H13664   1.782   3.583   1.974 -0.6133  0.4112  1.8396
  934MPD2    H113665   1.748   3.153   1.953  0.5723 -0.1691  0.8669
  934MPD2    H213666   1.818   3.347   2.322  1.4412 -2.6701  0.0090
  934MPD2    H313667   1.782   3.142   2.187 -0.0233  0.4772 -0.7049
  934MPD2     N13668   1.743   3.364   1.798  0.4609  0.0118 -0.0873
  934MPD2    H513669   1.730   3.269   1.763  3.5269 -0.3087 -0.3287
  934MPD2    N113670   1.838   3.604   2.223 -0.5188  0.0831 -0.9865
  934MPD2    H713671   1.863   3.688   2.172  3.5003  0.9537  2.4578
  935MPD2     C13672   2.192   2.808   1.324  0.3105  0.0380 -0.4008
  935MPD2    C113673   2.091   2.834   1.234  0.2873  0.3243  0.4020
  935MPD2    C213674   1.994   2.923   1.271  0.7412  0.2780 -0.0295
  935MPD2    C313675   1.990   2.976   1.402  0.1360 -0.6280  0.2300
  935MPD2    C413676   2.089   2.947   1.490  0.7780  0.6046  0.8570
  935MPD2    C513677   2.188   2.869   1.447  0.9904 -0.1825  0.2386
  935MPD2     H13678   1.921   2.950   1.195 -0.7366 -1.5999  0.7337
  935MPD2    H113679   2.104   2.980   1.592  1.3365 -0.4981  1.1301
  935MPD2    H213680   2.270   2.735   1.305  1.5722  1.1439  0.5660
  935MPD2    H313681   2.273   2.849   1.511  1.9971 -0.9352 -1.3110
  935MPD2     N13682   1.896   3.069   1.455 -0.6555  0.2578  0.2803
  935MPD2    H513683   1.913   3.108   1.547  0.1011 -1.8759  1.0419
  935MPD2    N113684   2.089   2.779   1.107 -0.1804 -0.7899 -0.1410
  935MPD2    H713685   2.009   2.808   1.052 -1.0438  0.3157  1.7252
  936MPD2     C13686   0.253   1.668  12.121  0.3952 -0.9045 -0.1338
  936MPD2    C113687   0.342   1.561  12.118  0.2880 -0.2045 -0.2855
  936MPD2    C213688   0.472   1.583  12.082 -0.2688 -0.0863  0.0661
  936MPD2    C313689   0.522   1.708  12.044  0.5757 -0.4831 -0.3831
  936MPD2    C413690   0.435   1.813  12.043  0.5805 -0.0594 -0.0703
  936MPD2    C513691   0.306   1.789  12.082 -0.5368 -0.4536  0.9511
  936MPD2     H13692   0.537   1.500  12.109  1.5137  0.9873 -0.8764
  936MPD2    H113693   0.458   1.910  12.001  0.5275  0.6347  1.5055
  936MPD2    H213694   0.147   1.658  12.143  0.4432  0.7537  0.8011
  936MPD2    H313695   0.233   1.870  12.088 -0.0899 -0.1042  1.7136
  936MPD2     N13696   0.664   1.716  12.019  0.4903 -0.3865 -0.3324
  936MPD2    H513697   0.713   1.627  12.022  2.8107  0.9403  1.5653
  936MPD2    N113698   0.310   1.425  12.155 -0.4605  0.2326  0.5770
  936MPD2    H713699   0.384   1.355  12.159 -1.1206 -0.5719 -1.3255
  937MPD2     C13700   2.875   2.076  12.077 -0.5780  0.1077 -0.0908
  937MPD2    C113701   2.886   2.184  11.990 -0.6450 -0.1253  0.8650
  937MPD2    C213702   2.942   2.155  11.870 -0.6761  0.0360  1.0021
  937MPD2    C313703   2.978   2.030  11.831  0.3880 -0.6453 -0.4996
  937MPD2    C413704   2.954   1.924  11.917  0.2008  0.6466  0.0327
  937MPD2    C513705   2.907   1.955  12.044 -0.2398 -0.2413  0.0686
  937MPD2     H13706   2.959   2.247  11.814 -1.2154 -1.1815 -1.1861
  937MPD2    H113707   2.958   1.818  11.896 -2.5015  0.7494 -0.9411
  937MPD2    H213708   2.847   2.095  12.180  1.9856  2.0174  0.2368
  937MPD2    H313709   2.898   1.873  12.114 -0.8919 -1.1548 -1.0673
  937MPD2     N13710   3.047   2.018  11.701 -0.1966 -0.0500 -0.1197
  937MPD2    H513711   3.089   2.105  11.670  0.9165 -0.8866 -0.9453
  937MPD2    N113712   2.856   2.316  12.026  0.0155 -0.4485  0.8068
  937MPD2    H713713   2.876   2.387  11.956 -0.9186 -0.6255  0.3719
  938MPD2     C13714   1.520   2.531   0.774  0.1796  0.3100 -0.6776
  938MPD2    C113715   1.454   2.644   0.816 -0.0912  0.6407 -0.1670
  938MPD2    C213716   1.388   2.634   0.937  0.2095  0.1972 -0.2828
  938MPD2    C313717   1.385   2.532   1.024  0.8157 -0.0538 -0.2439
  938MPD2    C413718   1.456   2.420   0.983  0.5780  0.6085 -0.1724
  938MPD2    C513719   1.515   2.420   0.860  0.2302  0.3465 -0.0043
  938MPD2     H13720   1.349   2.728   0.975  0.0782  0.8804 -2.1234
  938MPD2    H113721   1.447   2.334   1.048  0.5710  0.6394 -0.1320
  938MPD2    H213722   1.559   2.530   0.672  1.3762 -1.0638 -0.1984
  938MPD2    H313723   1.569   2.329   0.837  0.9925  0.9264 -0.5287
  938MPD2     N13724   1.339   2.536   1.160  0.4416  0.7889  0.5384
  938MPD2    H513725   1.369   2.469   1.230 -0.0612 -2.2260 -2.1266
  938MPD2    N113726   1.441   2.765   0.749  0.1765 -0.5512  0.9869
  938MPD2    H713727   1.422   2.852   0.799 -0.1724  0.4235 -0.8315
  939MPD2     C13728   2.081   4.640   0.508  0.2494  0.1728 -0.2526
  939MPD2    C113729   2.168   4.681   0.598  0.1348 -0.2275 -0.5366
  939MPD2    C213730   2.297   4.721   0.566 -0.5195  0.2395  0.7030
  939MPD2    C313731   2.336   4.709   0.437 -0.6307  0.5133 -0.5972
  939MPD2    C413732   2.242   4.671   0.341 -0.1508  0.3085  0.3484
  939MPD2    C513733   2.119   4.642   0.377  0.6728  0.5437 -0.0648
  939MPD2     H13734   2.367   0.025   0.643  0.7546  1.5027 -0.9484
  939MPD2    H113735   2.260   4.680   0.234 -0.3124 -1.1973  0.1895
  939MPD2    H213736   1.984   4.600   0.535  0.9717 -0.3466  1.5384
  939MPD2    H313737   2.045   4.611   0.304  0.8489  1.2496 -0.5399
  939MPD2     N13738   2.471   4.723   0.408 -0.1399  0.2319  0.0277
  939MPD2    H513739   2.532   0.036   0.479  0.0477  0.6542 -0.3665
  939MPD2    N113740   2.113   4.683   0.725 -0.1530 -0.0408 -0.3095
  939MPD2    H713741   2.013   4.668   0.735 -0.1741 -1.0348 -2.0099
  940MPD2     C13742   1.318   0.843  13.698 -0.4388 -0.1688  0.3100
  940MPD2    C113743   1.224   0.939  13.714 -0.2344 -0.3649  0.2264
  940MPD2    C213744   1.202   1.028  13.606  1.3165  0.6604 -0.3258
  940MPD2    C313745   1.263   1.011  13.486 -0.3857 -0.1950 -0.0392
  940MPD2    C413746   1.360   0.918  13.470  0.2815  0.1664  0.3744
  940MPD2    C513747   1.388   0.835  13.577  0.0536  0.7503 -0.1293
  940MPD2     H13748   1.121   1.100  13.607  0.0141 -0.7960  0.3600
  940MPD2    H113749   1.415   0.910  13.377  0.3988 -1.3340  0.5719
  940MPD2    H213750   1.349   0.767  13.768 -1.1320  0.4129  1.2591
  940MPD2    H313751   1.458   0.754  13.562 -2.9743 -2.2443  1.8971
  940MPD2     N13752   1.244   1.092  13.369  0.6571  0.3690 -0.1078
  940MPD2    H513753   1.292   1.063  13.285  0.2476  1.0223 -0.5656
  940MPD2    N113754   1.148   0.959  13.836  0.3935 -0.2733 -0.5134
  940MPD2    H713755   1.083   1.037  13.841  1.1619  0.2874  0.8179
  941MPD2     C13756   0.476   4.555   9.602  0.8707 -0.7729 -0.0280
  941MPD2    C113757   0.506   4.640   9.704 -0.1378  0.0095  0.6975
  941MPD2    C213758   0.407   4.655   9.796 -0.2148 -0.1800 -0.4815
  941MPD2    C313759   0.297   4.568   9.809  0.1031 -0.0628 -0.1074
  941MPD2    C413760   0.267   4.489   9.698  0.2102  0.1244 -0.0976
  941MPD2    C513761   0.363   4.480   9.599 -0.0401 -0.4723  0.3584
  941MPD2     H13762   0.429   4.714   9.884 -2.2777 -1.0911  0.6421
  941MPD2    H113763   0.181   4.423   9.692  0.5396 -0.4292  1.2042
  941MPD2    H213764   0.549   4.539   9.523  0.6313 -1.0854 -0.1817
  941MPD2    H313765   0.355   4.397   9.530  1.2852 -0.2141 -0.1095
  941MPD2     N13766   0.222   4.547   9.928 -0.2115  0.2660  0.5003
  941MPD2    H513767   0.136   4.494   9.925  0.6042 -1.0839  1.2070
  941MPD2    N113768   0.630   4.708   9.736 -0.2217 -0.0592 -0.0687
  941MPD2    H713769   0.633   0.044   9.816 -0.8895 -0.7046  0.4526
  942MPD2     C13770   0.618   1.933   9.209 -0.0352 -0.6471 -0.3273
  942MPD2    C113771   0.699   1.825   9.182  0.3618  0.6646 -0.5175
  942MPD2    C213772   0.837   1.839   9.192 -0.4618  0.0617 -0.6524
  942MPD2    C313773   0.895   1.960   9.231 -0.6548 -0.7039 -0.6417
  942MPD2    C413774   0.818   2.069   9.242  0.6477 -0.0313 -0.8375
  942MPD2    C513775   0.676   2.054   9.245  0.0857  0.8838 -0.2328
  942MPD2     H13776   0.898   1.752   9.172 -0.2353 -0.1416  0.9154
  942MPD2    H113777   0.855   2.167   9.269 -0.8090  0.3684 -0.2681
  942MPD2    H213778   0.510   1.936   9.196  0.0084 -2.1349 -1.0855
  942MPD2    H313779   0.615   2.143   9.255  0.2099  1.1041 -1.4487
  942MPD2     N13780   1.041   1.968   9.229 -0.6860  0.6056  0.3224
  942MPD2    H513781   1.088   1.882   9.201 -1.0287 -0.6961  3.7982
  942MPD2    N113782   0.658   1.707   9.122  1.0523  0.0022  0.5331
  942MPD2    H713783   0.725   1.634   9.101  0.8409  0.0789 -0.3784
  943MPD2     C13784   3.734   0.183   9.587 -0.3493  0.1795  0.5998
  943MPD2    C113785   3.671   0.081   9.654  0.0388  0.0809 -0.5739
  943MPD2    C213786   3.719   0.035   9.769  0.3637 -0.3972 -0.6624
  943MPD2    C313787   3.835   0.092   9.829  0.1375  0.2034 -0.2796
  943MPD2    C413788   3.899   0.196   9.759  0.6233 -0.5450  0.0953
  943MPD2    C513789   3.848   0.241   9.642 -0.2004 -0.3712  0.5414
  943MPD2     H13790   3.659   4.689   9.823 -0.8496 -0.2072 -1.7570
  943MPD2    H113791   3.987   0.246   9.798 -0.4518 -0.8497  2.9122
  943MPD2    H213792   3.710   0.198   9.482 -0.0972  0.0011  0.5154
  943MPD2    H313793   3.899   0.323   9.592  1.3460 -1.4025  0.4438
  943MPD2     N13794   3.891   0.031   9.947  0.2862  0.6527  0.6166
  943MPD2    H513795   3.828   4.695   9.997  0.0446  0.5752  0.2225
  943MPD2    N113796   3.552   0.039   9.590  0.5138 -0.8721 -1.4541
  943MPD2    H713797   3.533   0.074   9.497 -0.5287  2.7420  0.1369
  944MPD2     C13798   3.836   3.183  11.060  0.0972  0.4647 -0.2724
  944MPD2    C113799   3.713   3.234  11.015 -0.4527 -0.0137 -0.5721
  944MPD2    C213800   3.645   3.318  11.100 -0.4887 -0.4349 -0.1179
  944MPD2    C313801   3.673   3.337  11.234  0.0620  0.4048 -0.0621
  944MPD2    C413802   3.787   3.275  11.279 -0.6335 -0.5348  0.1468
  944MPD2    C513803   3.865   3.200  11.194  0.2126  0.0862 -0.4894
  944MPD2     H13804   3.558   3.371  11.062  1.2717  2.6643  0.1264
  944MPD2    H113805   3.821   3.289  11.382 -0.2529 -0.1361 -0.0342
  944MPD2    H213806   3.904   3.124  10.999 -3.2267 -3.4659 -0.2316
  944MPD2    H313807   3.955   3.156  11.238 -1.9797 -1.6131  2.3040
  944MPD2     N13808   3.575   3.405  11.313  0.1987  0.1207  0.0233
  944MPD2    H513809   3.493   3.439  11.264 -0.4821 -0.2993  0.8650
  944MPD2    N113810   3.675   3.225  10.880  0.3858  0.2797  0.1763
  944MPD2    H713811   3.600   3.290  10.856 -1.1717 -1.3102  0.7040
    1TCq1    O113812   1.556   4.552  15.297  0.0528  0.1919 -0.1743
    1TCq1    C113813   1.607   4.631  15.404 -0.9997 -0.3190 -0.2845
    1TCq1    O213814   1.564   4.612  15.518  0.2874  0.0009  0.3069
    1TCq1    C213815   1.648   0.033  15.348 -0.2846 -0.4455  0.0022
    1TCq1    C313816   1.709   0.037  15.229 -0.7379 -0.6034 -0.2666
    1TCq1    C413817   1.708   0.155  15.161 -1.1967 -0.7569 -0.5647
    1TCq1    C513818   1.651   0.263  15.213  0.4253  0.4358  1.0609
    1TCq1    C613819   1.590   0.266  15.335 -0.0153  1.1109  0.0947
    1TCq1    C713820   1.586   0.142  15.401  0.0386  0.0749  0.9586
    1TCq1    C813821   1.532   0.385  15.391  0.8039 -0.4880  0.1526
    1TCq1    O413822   1.515   0.388  15.509  0.5904 -0.7191  0.0219
    1TCq1    C913823   1.769   0.154  15.027 -0.3182  0.8978 -0.4655
    1TCq1    O513824   1.747   0.251  14.949  0.2356  0.5421  0.2776
    1TCq1    O613825   1.813   0.040  14.986 -0.2545 -0.1143  0.0148
    1TCq1    H113826   1.595   4.578  15.211  1.1521 -1.4463 -0.1701
    1TCq1    H213827   1.767   4.679  15.192  0.6950  0.0437  0.5200
    1TCq1    H313828   1.671   0.356  15.162  0.4424 -0.3426 -0.3433
    1TCq1    H413829   1.539   0.134  15.498 -0.1549  1.8069  1.0133
    2MPD2     C13830   1.392   0.879  15.372  0.5938 -0.2801 -0.4240
    2MPD2    C113831   1.411   0.830  15.246  0.9292 -0.4760 -0.2545
    2MPD2    C213832   1.433   0.695  15.229 -0.2859  0.9773 -0.3282
    2MPD2    C313833   1.469   0.616  15.334 -0.3249  0.1805 -1.0568
    2MPD2    C413834   1.466   0.670  15.461 -0.6221 -0.0651  0.8288
    2MPD2    C513835   1.421   0.799  15.478 -0.7489 -0.4096  0.5789
    2MPD2     H13836   1.468   0.649  15.137 -3.1430  0.0397 -0.9463
    2MPD2    H113837   1.506   0.614  15.544 -0.1291  0.1420  0.7277
    2MPD2    H213838   1.350   0.978  15.391  0.4496 -0.0215 -2.0883
    2MPD2    H313839   1.415   0.843  15.576 -0.9254 -1.0487  0.8551
    2MPD2     N13840   1.516   0.488  15.302 -0.1312  0.2700  0.0489
    2MPD2    H513841   1.536   0.475  15.204 -0.9947 -1.4077  0.0767
    2MPD2    N113842   1.403   0.915  15.132 -0.5215 -0.3095  0.2908
    2MPD2    H713843   1.396   1.014  15.150  0.7976 -0.2898  0.6504
    3TMC2    C113844   1.440   0.974  14.913 -0.2198 -0.7579  1.1785
    3TMC2    C213845   1.485   1.097  14.951  1.0415 -0.4134  0.2909
    3TMC2    C313846   1.538   1.173  14.854  0.0004 -0.0928  0.4493
    3TMC2    C413847   1.432   0.939  14.778  0.4246 -0.1948 -0.3626
    3TMC2    C513848   1.480   1.022  14.679 -0.2809 -0.6752 -0.0318
    3TMC2    C613849   1.542   1.137  14.718 -0.7657 -0.1138  0.2209
    3TMC2     C13850   1.412   0.870  15.006 -0.4335  0.0028  0.4072
    3TMC2     O13851   1.405   0.760  14.956  0.1752 -0.2748  0.1230
    3TMC2     H13852   1.481   1.124  15.055 -1.0135 -0.2841  0.1764
    3TMC2    H113853   1.389   0.847  14.741  0.8106 -0.7381  0.5564
    3TMC2    H213854   1.597   1.199  14.648 -1.7914  1.7004  1.0379
    3TMC2    C713855   1.510   0.947  14.556 -0.2196  0.0063 -0.4008
    3TMC2    C813856   1.624   1.280  14.893 -0.6658 -0.2969 -0.2804
    3TMC2    O113857   1.531   0.827  14.567 -0.2689  0.2891 -0.3711
    3TMC2    O213858   1.736   1.297  14.846  0.2954  0.5891 -0.0954
    3TMC2    O513859   1.566   1.343  14.997 -0.0412 -0.7150  0.2758
    3TMC2    H513860   1.489   1.294  15.032  0.7512 -1.1323  1.3972
    4MPD2     C13861   0.585   1.507  13.583  0.0189  0.1534 -0.2853
    4MPD2    C113862   0.654   1.423  13.499 -0.5597  0.1669  0.3519
    4MPD2    C213863   0.791   1.408  13.509 -0.3071  0.3718 -0.4835
    4MPD2    C313864   0.860   1.461  13.621 -0.2083  0.1923  0.0738
    4MPD2    C413865   0.791   1.540  13.704  0.1844  0.1211 -0.2996
    4MPD2    C513866   0.658   1.561  13.683 -0.2014 -0.7131 -0.1509
    4MPD2     H13867   0.837   1.346  13.434 -0.0141 -0.8790  0.7183
    4MPD2    H113868   0.829   1.587  13.794 -0.6883  0.2904 -0.0142
    4MPD2    H213869   0.477   1.518  13.578  0.0118  0.9641  1.3987
    4MPD2    H313870   0.601   1.617  13.756 -1.6707 -1.2977 -0.8557
    4MPD2     N13871   1.003   1.442  13.639  0.3414  0.3114 -0.6985
    4MPD2    H513872   1.043   1.377  13.572  0.1005 -0.5207 -0.0392
    4MPD2    N113873   0.577   1.357  13.401 -0.1451  0.4041  0.5071
    4MPD2    H713874   0.484   1.397  13.400 -0.1092  0.4989  1.0328
    5TCq2    C113875   1.078   1.486  13.747  0.1555 -0.1718  0.4051
    5TCq2    O213876   1.029   1.505  13.861 -0.7900  0.3152 -0.4106
    5TCq2    C213877   1.211   1.434  13.748 -0.8468  0.3414 -0.2255
    5TCq2    C313878   1.293   1.435  13.640  0.3968  0.5071 -0.2938
    5TCq2    C413879   1.404   1.355  13.640  0.9484  0.7619  0.0253
    5TCq2    C513880   1.429   1.256  13.737 -0.4062 -0.1863 -0.1782
    5TCq2    C613881   1.345   1.261  13.848  0.2551 -0.0775 -0.4742
    5TCq2    C713882   1.238   1.353  13.857 -0.2451  0.3104 -0.2388
    5TCq2    C813883   1.396   1.215  13.976 -0.2419  0.1459 -0.2684
    5TCq2    O413884   1.396   1.296  14.070 -0.0362  0.1967 -0.0162
    5TCq2    C913885   1.502   1.352  13.529  0.1001  0.1748 -0.3283
    5TCq2    O513886   1.614   1.308  13.559  0.6934  0.2881  0.7169
    5TCq2    O613887   1.482   1.423  13.426  0.0858  0.6140 -0.6266
    5TCq2    H213888   1.281   1.501  13.555  0.2338  1.4792  0.4722
    5TCq2    H313889   1.510   1.188  13.719 -2.5214 -2.4919 -0.9948
    5TCq2    H413890   1.184   1.368  13.950  1.9676 -0.6389  1.2004
    6MPD1     C13891   4.367   2.369  12.310  0.3937  0.3325  0.0945
    6MPD1    C113892   4.340   2.346  12.448  0.0891 -0.1144 -0.1495
    6MPD1    C213893   4.376   2.219  12.500 -0.0363 -0.0645  0.5033
    6MPD1    C313894   4.425   2.122  12.422  0.3587 -0.6115  0.0313
    6MPD1    C413895   4.442   2.144  12.286  0.3977  0.1288  0.1069
    6MPD1    C513896   4.406   2.264  12.222  0.3485 -0.6114  0.1017
    6MPD1     H13897   4.394   2.211  12.607 -0.6481  0.2473  0.6249
    6MPD1    H113898   4.475   2.064  12.220 -1.2109 -0.8463  0.4852
    6MPD1    H213899   4.354   2.467  12.266 -1.1678 -0.0556 -0.3050
    6MPD1    H313900   4.423   2.263  12.115 -1.7322 -0.2665 -0.2329
    6MPD1     N13901   4.468   2.003  12.478 -0.7715  0.2423 -0.2907
    6MPD1    H513902   4.528   1.939  12.427 -0.2638  0.5064 -0.0264
    6MPD1    N113903   4.332   2.459  12.530 -0.0592  0.0406  0.4455
    6MPD1    H613904   4.291   2.541  12.485  2.9018 -0.9572 -4.0802
    6MPD1    H713905   4.295   2.450  12.624  1.4865  0.2242  1.0671
    7MPD2     C13906   4.468   1.383  13.111  0.1428  0.4301  0.3543
    7MPD2    C113907   4.561   1.380  13.008 -0.3070  0.1587 -0.3738
    7MPD2    C213908   4.673   1.298  13.016 -0.1524  0.3584 -0.0729
    7MPD2    C313909   4.690   1.215  13.124  0.1457  0.2794  0.8895
    7MPD2    C413910   4.596   1.212  13.223  0.1926 -0.4658 -0.0560
    7MPD2    C513911   4.488   1.297  13.211  0.0011  0.4943 -0.4219
    7MPD2     H13912   0.019   1.292  12.935  0.7281  0.0320  0.7284
    7MPD2    H113913   4.599   1.142  13.306  2.0644  0.0991  0.3517
    7MPD2    H213914   4.381   1.447  13.100 -1.7808 -2.1504  0.5389
    7MPD2    H313915   4.412   1.290  13.288 -0.6145 -0.9096 -1.1578
    7MPD2     N13916   0.086   1.147  13.114  0.5529  0.1217 -0.0339
    7MPD2    H513917   0.140   1.163  13.030 -0.0355  1.5110 -0.1458
    7MPD2    N113918   4.549   1.451  12.886  0.0308  0.2339  0.2450
    7MPD2    H713919   4.634   1.444  12.831 -0.1487 -0.8101  0.1061
    8TMC3    C113920   0.303   1.095  13.200  0.5972 -0.9331 -0.0683
    8TMC3    C213921   0.381   1.189  13.263  0.8705  0.1570  0.2601
    8TMC3    C313922   0.500   1.232  13.206  0.2392 -0.0951 -0.6499
    8TMC3    C413923   0.341   1.076  13.072  0.1980  0.2824 -1.0375
    8TMC3    C513924   0.436   1.140  13.004  0.0430  0.2532  0.1234
    8TMC3    C613925   0.528   1.215  13.074  0.6385 -0.4315  0.2069
    8TMC3     C13926   0.155   1.099  13.225 -0.6298 -0.2572 -0.5051
    8TMC3     O13927   0.116   1.114  13.342 -0.2312 -0.0671 -0.1079
    8TMC3     H13928   0.387   1.182  13.371 -1.4823 -0.6188  0.3465
    8TMC3    H113929   0.282   0.993  13.033 -0.1989  1.0511 -2.0656
    8TMC3    H213930   0.618   1.255  13.029 -0.4564  1.1660 -0.5710
    8TMC3    C713931   0.365   1.205  12.890 -0.2038 -0.3049 -0.2627
    8TMC3    C813932   0.616   1.276  13.296  0.5875 -0.1490  0.5551
    8TMC3    O113933   0.244   1.191  12.886  0.1152 -0.3583  0.1625
    8TMC3    O213934   0.721   1.219  13.267  0.5457  0.2251 -0.7439
    9TMC3    C113935   4.488   1.813  12.612  0.0243 -0.1580 -0.4901
    9TMC3    C213936   4.586   1.765  12.535  0.1940  0.0102 -0.0316
    9TMC3    C313937   4.626   1.641  12.554 -0.7008 -0.5074 -0.9215
    9TMC3    C413938   4.432   1.733  12.709  0.1778 -0.0165 -0.3120
    9TMC3    C513939   4.474   1.605  12.727 -0.3674 -0.6233  0.6108
    9TMC3    C613940   4.574   1.559  12.645  0.3068  0.3710 -0.4599
    9TMC3     C13941   4.429   1.947  12.598  0.2911  0.0587  0.4996
    9TMC3     O13942   4.348   1.995  12.678  0.2169  0.4807 -0.2923
    9TMC3     H13943   4.637   1.831  12.466  0.9379  1.3559  1.8029
    9TMC3    H113944   4.349   1.767  12.770  0.1741 -0.9041  0.1879
    9TMC3    H213945   4.603   1.455  12.639 -0.0937  0.1117  2.1067
    9TMC3    C713946   4.441   1.529  12.842  0.7941  0.8369 -0.1504
    9TMC3    C813947   0.036   1.618  12.511 -0.2032 -0.6684  0.1200
    9TMC3    O113948   4.337   1.557  12.903  0.1339 -0.0958 -0.7771
    9TMC3    O213949   0.077   1.668  12.410  0.1201 -0.0437  0.0765
   10MPD2     C13950   0.485   1.372  12.595  0.0829 -0.4138 -0.0276
   10MPD2    C113951   0.404   1.350  12.704 -0.6337 -0.1676 -0.5372
   10MPD2    C213952   0.275   1.401  12.700  0.6594 -0.0430  0.1202
   10MPD2    C313953   0.235   1.489  12.596  0.3047 -0.2958  0.2604
   10MPD2    C413954   0.327   1.521  12.495 -0.3037 -0.3417  0.2366
   10MPD2    C513955   0.449   1.457  12.495  0.1704  0.1588  0.3367
   10MPD2     H13956   0.201   1.369  12.773  0.1967  2.0990  0.5997
   10MPD2    H113957   0.303   1.589  12.413  4.3002  0.7120 -0.2634
   10MPD2    H213958   0.583   1.325  12.587  0.2596  0.2609 -1.9783
   10MPD2    H313959   0.515   1.483  12.413  0.9450 -1.1918  0.5367
   10MPD2     N13960   0.101   1.538  12.600 -0.1802 -0.1044  0.9988
   10MPD2    H513961   0.049   1.517  12.684 -2.4017 -1.1546 -0.6672
   10MPD2    N113962   0.448   1.262  12.806  0.2445 -0.3912  0.2838
   10MPD2    H713963   0.539   1.216  12.800  0.6414  0.1326  2.1909
   11MPD2     C13964   1.549   0.847  14.274 -0.0403 -0.2527 -0.1469
   11MPD2    C113965   1.501   0.968  14.307  0.0634 -0.2876  0.0723
   11MPD2    C213966   1.473   1.055  14.202  0.2489 -0.2356 -0.2049
   11MPD2    C313967   1.476   1.009  14.071  0.3834 -1.0011  0.2891
   11MPD2    C413968   1.514   0.878  14.043  0.1868 -0.4829  0.1089
   11MPD2    C513969   1.556   0.799  14.147 -1.0453  0.3480  0.8790
   11MPD2     H13970   1.437   1.153  14.233 -0.3175 -0.7073  0.6541
   11MPD2    H113971   1.511   0.837  13.943 -0.5933  0.6560 -0.3342
   11MPD2    H213972   1.596   0.773  14.338 -0.5861 -0.0747  0.4596
   11MPD2    H313973   1.608   0.705  14.134 -0.8939  0.6113 -0.5044
   11MPD2     N13974   1.440   1.087  13.964 -1.1132  0.3740  0.7109
   11MPD2    H513975   1.433   1.044  13.872  0.2016  1.5476  0.0610
   11MPD2    N113976   1.496   1.022  14.446 -0.0937  0.3121  0.2886
   11MPD2    H713977   1.468   1.119  14.456 -1.0779  0.1973 -1.3160
    1MPD1     C13978   3.439   1.776  17.113 -0.0756  0.3016  0.7056
    1MPD1    C113979   3.492   1.726  16.994 -0.0471 -0.7672  0.1397
    1MPD1    C213980   3.616   1.774  16.952  0.4432 -1.1014 -0.0650
    1MPD1    C313981   3.671   1.887  17.014  0.9100 -0.3363  0.8137
    1MPD1    C413982   3.611   1.936  17.122  0.2071 -0.3392 -0.2654
    1MPD1    C513983   3.495   1.885  17.175  0.8315 -0.1971  0.4141
    1MPD1     H13984   3.648   1.742  16.854  0.6015  0.6941 -0.6064
    1MPD1    H113985   3.661   2.019  17.169  1.0199 -0.1427 -1.4752
    1MPD1    H213986   3.344   1.742  17.152 -0.2361 -0.6865 -0.5667
    1MPD1    H313987   3.465   1.928  17.270 -1.4042  0.1376 -0.4545
    1MPD1     N13988   3.780   1.954  16.964 -0.3779  0.5272 -0.3149
    1MPD1    H513989   3.807   2.043  17.006  0.7001  0.1829 -0.2662
    1MPD1    N113990   3.433   1.618  16.926 -0.5001 -0.1879 -0.2779
    1MPD1    H613991   3.333   1.639  16.930 -0.5041 -0.6028  2.1362
    1MPD1    H713992   3.449   1.626  16.826  1.4670 -1.4714 -0.0629
    2MPD1     C13993   3.861   2.765  17.086 -0.1977  0.6136  0.0094
    2MPD1    C113994   3.763   2.682  17.048 -0.2080 -0.4027 -0.0158
    2MPD1    C213995   3.808   2.556  17.015  0.3898  0.5658 -0.5991
    2MPD1    C313996   3.940   2.520  16.989 -0.5433  0.3539  0.1665
    2MPD1    C413997   4.038   2.615  17.009 -0.4798  0.2900  0.1139
    2MPD1    C513998   3.993   2.729  17.068 -0.2843  0.1309  0.3732
    2MPD1     H13999   3.732   2.480  17.002  0.4547  0.8838 -2.9321
    2MPD1    H114000   4.142   2.593  16.990 -0.8697 -0.9118 -0.6445
    2MPD1    H214001   3.851   2.860  17.137  0.0406  0.1283  0.9470
    2MPD1    H314002   4.074   2.793  17.102  0.3406  0.2668 -1.3716
    2MPD1     N14003   3.956   2.395  16.926 -0.0599 -0.4810 -0.0483
    2MPD1    H514004   3.869   2.344  16.911 -1.0603  1.7797 -2.0728
    2MPD1    N114005   3.628   2.706  17.085 -0.1211  0.2483  0.0187
    2MPD1    H614006   3.616   2.805  17.062  0.5583  0.6800  1.4838
    2MPD1    H714007   3.568   2.646  17.030 -0.8357  1.1815 -0.2313
    3TMC3    C114008   4.056   2.215  16.809 -0.3967  0.3639  0.1249
    3TMC3    C214009   4.173   2.165  16.757  0.0597 -0.5682  0.3002
    3TMC3    C314010   4.184   2.031  16.727 -0.2438 -0.2298 -0.0271
    3TMC3    C414011   3.960   2.131  16.855 -0.3661  0.3360  0.0743
    3TMC3    C514012   3.975   1.998  16.837 -0.2749  0.1549 -0.3092
    3TMC3    C614013   4.085   1.945  16.766  0.1628  0.5864  0.5096
    3TMC3     C14014   4.070   2.352  16.865 -0.0146 -0.2258 -0.6640
    3TMC3     O14015   4.177   2.412  16.853  0.4155 -0.4919  0.1819
    3TMC3     H14016   4.257   2.232  16.744 -0.3005 -0.3817 -1.0603
    3TMC3    H114017   3.867   2.171  16.892 -0.8021 -0.7090  0.0891
    3TMC3    H214018   4.106   1.840  16.753 -1.7247  0.2190  0.4112
    3TMC3    C714019   3.868   1.907  16.875  0.3653 -0.3552  0.3205
    3TMC3    C814020   4.305   1.968  16.696 -0.6542 -0.2153 -0.7248
    3TMC3    O114021   3.873   1.800  16.816  0.3166  0.2283  0.0278
    3TMC3    O214022   4.398   2.021  16.747 -0.2889 -0.5678 -0.0861
    4MPD1     C14023   4.633   1.639  16.465  0.5591 -0.5904 -0.1211
    4MPD1    C114024   4.508   1.604  16.424  0.1727 -0.0673 -0.8761
    4MPD1    C214025   4.401   1.692  16.456  0.1847 -0.1149 -0.1789
    4MPD1    C314026   4.417   1.797  16.545 -0.1897 -0.8862  0.3404
    4MPD1    C414027   4.548   1.834  16.576  0.0560 -0.3683  0.7364
    4MPD1    C514028   4.650   1.748  16.535  0.3502 -0.6221  0.0333
    4MPD1     H14029   4.299   1.671  16.426 -0.1150  1.8931 -0.5620
    4MPD1    H114030   4.574   1.918  16.639 -0.1270 -0.3201  0.7473
    4MPD1    H214031   4.714   1.575  16.430  0.0890  0.1882 -2.6545
    4MPD1    H314032   0.023   1.776  16.570 -0.4817  0.7322  1.2827
    4MPD1     N14033   4.304   1.866  16.599 -0.1015  0.0277  0.3528
    4MPD1    H514034   4.209   1.841  16.574 -0.4083  2.2251 -0.6215
    4MPD1    N114035   4.493   1.510  16.326  0.3150 -0.7316  0.0945
    4MPD1    H614036   4.399   1.472  16.313  0.4297 -0.9515 -0.0892
    4MPD1    H714037   4.558   1.433  16.337 -1.3169 -2.0948  0.1832
    1TCq1    O114038   0.756   1.865  12.354  0.1334  0.5652  0.0213
    1TCq1    C114039   0.649   1.798  12.395  0.4798  0.0109  0.8174
    1TCq1    O214040   0.661   1.693  12.454  0.4458 -0.1644  0.9343
    1TCq1    C214041   0.544   1.892  12.412 -0.2020  0.1931 -0.1527
    1TCq1    C314042   0.542   2.001  12.322  0.0270  0.4256 -0.0516
    1TCq1    C414043   0.462   2.103  12.350  0.6274 -1.0041 -0.0056
    1TCq1    C514044   0.368   2.096  12.446  0.5184 -0.4542 -0.5123
    1TCq1    C614045   0.380   1.991  12.540 -0.2658 -0.4766  0.3383
    1TCq1    C714046   0.470   1.881  12.526 -0.3487  0.2261  1.1920
    1TCq1    C814047   0.291   2.002  12.650 -0.9255  0.0105 -0.0908
    1TCq1    O414048   0.221   2.099  12.667 -0.4887 -0.2207 -0.1131
    1TCq1    C914049   0.420   2.184  12.240 -0.3205 -0.9041 -0.5626
    1TCq1    O514050   0.313   2.244  12.248 -0.5896  0.0108  0.6083
    1TCq1    O614051   0.472   2.157  12.130 -0.0184  0.3171  0.9222
    1TCq1    H114052   0.741   1.959  12.333  0.8671  0.5494 -0.5250
    1TCq1    H214053   0.584   1.998  12.222 -1.5772  3.1035 -0.8234
    1TCq1    H314054   0.306   2.183  12.461  1.6792  0.0317  1.3819
    1TCq1    H414055   0.493   1.800  12.594  1.2166  0.4428  0.9393
    2MPD1     C14056   4.714   1.735  12.960 -0.2371  0.0171 -0.3066
    2MPD1    C114057   0.113   1.675  12.947 -0.1559 -0.2223  0.5776
    2MPD1    C214058   0.197   1.731  12.857  1.3232 -0.3495 -0.9939
    2MPD1    C314059   0.177   1.853  12.805 -0.3221 -0.2652  0.5251
    2MPD1    C414060   0.057   1.917  12.821  0.2961  0.3037  0.1876
    2MPD1    C514061   4.692   1.853  12.892  0.5011 -0.3211  0.5346
    2MPD1     H14062   0.291   1.682  12.832  1.1921 -0.3624 -1.4641
    2MPD1    H114063   0.035   2.014  12.779 -0.6777 -1.0427 -2.3731
    2MPD1    H214064   4.643   1.690  13.028 -1.7914  0.9390 -1.3298
    2MPD1    H314065   4.599   1.906  12.912 -0.7912 -1.4882 -2.4715
    2MPD1     N14066   0.281   1.888  12.718 -0.1297  0.3147  0.2590
    2MPD1    H514067   0.352   1.819  12.698  1.3433  1.7494  0.5849
    2MPD1    N114068   0.141   1.543  12.993  0.0113  0.1657  0.6728
    2MPD1    H614069   0.238   1.523  13.017  0.3018  2.3467  1.3195
    2MPD1    H714070   0.081   1.528  13.074 -1.4821 -2.6338 -0.9343
    1TCq1    O114071   3.677   2.276   1.483  0.3308  0.3002  0.3652
    1TCq1    C114072   3.573   2.272   1.389 -0.2953  0.1115 -0.3450
    1TCq1    O214073   3.466   2.327   1.392  0.9985 -0.4370  0.3241
    1TCq1    C214074   3.640   2.253   1.260  0.2502 -0.2632  0.1845
    1TCq1    C314075   3.753   2.176   1.258  0.5044 -0.5329 -0.1145
    1TCq1    C414076   3.851   2.195   1.163 -0.5366 -0.3509  0.0319
    1TCq1    C514077   3.823   2.279   1.061  0.4596 -0.2850 -0.2555
    1TCq1    C614078   3.704   2.351   1.058  0.1821 -0.3149 -0.5498
    1TCq1    C714079   3.616   2.345   1.163 -0.4223  0.2656 -0.5099
    1TCq1    C814080   3.672   2.421   0.938  0.1390  0.3186  0.3861
    1TCq1    O414081   3.771   2.470   0.885 -0.2795  0.7086 -0.4253
    1TCq1    C914082   3.936   2.084   1.140  0.1695  1.0040  0.1249
    1TCq1    O514083   3.889   1.976   1.171  0.3029 -0.1534 -0.1328
    1TCq1    O614084   4.036   2.103   1.066  0.4028 -0.2517 -0.4550
    1TCq1    H114085   3.761   2.228   1.466  0.7351  0.7742  0.9997
    1TCq1    H214086   3.766   2.092   1.325 -1.9033 -1.6418 -1.0408
    1TCq1    H314087   3.885   2.283   0.972  1.3145 -0.1924  0.3441
    1TCq1    H414088   3.530   2.411   1.160  1.0986  2.2431 -0.3875
    2MPD1     C14089   3.355   2.611   0.588 -0.1836  0.7480 -0.0299
    2MPD1    C114090   3.281   2.566   0.689 -0.5113 -0.0841 -0.0042
    2MPD1    C214091   3.345   2.496   0.794  0.4598 -0.2097 -0.6511
    2MPD1    C314092   3.477   2.481   0.794  0.4028  0.4345  0.8696
    2MPD1    C414093   3.550   2.509   0.679  0.0969  0.5172 -0.6545
    2MPD1    C514094   3.484   2.582   0.578 -0.2666 -0.0780 -0.4586
    2MPD1     H14095   3.285   2.475   0.882  1.0408 -0.4698 -0.3208
    2MPD1    H114096   3.655   2.485   0.664 -0.1671 -1.4362  0.4953
    2MPD1    H214097   3.316   2.659   0.499  1.1318  0.1135 -0.9680
    2MPD1    H314098   3.540   2.615   0.492  0.7585 -2.5437 -0.7509
    2MPD1     N14099   3.540   2.439   0.912 -0.5112  0.1738  0.3654
    2MPD1    H514100   3.479   2.406   0.987  2.3702 -1.3211  2.0683
    2MPD1    N114101   3.148   2.602   0.700  0.2385 -0.0445  0.4603
    2MPD1    H614102   3.099   2.614   0.612  0.4701  1.8682  0.5864
    2MPD1    H714103   3.096   2.543   0.764  1.4330 -2.2441 -0.6184
    1MPD1     C14104   2.662   1.693  10.802  0.3198  0.7697 -0.3846
    1MPD1    C114105   2.616   1.821  10.802 -0.0126  0.4305 -0.4620
    1MPD1    C214106   2.617   1.887  10.921 -0.0240 -0.1945  0.0547
    1MPD1    C314107   2.653   1.821  11.040 -0.1964 -0.4101 -0.2988
    1MPD1    C414108   2.697   1.690  11.045 -0.5084 -0.1382 -0.0905
    1MPD1    C514109   2.706   1.630  10.921  0.3631  0.0094  0.7518
    1MPD1     H14110   2.582   1.989  10.925  0.0469 -0.1195 -1.1633
    1MPD1    H114111   2.751   1.645  11.127  2.8831  1.2988 -1.5362
    1MPD1    H214112   2.666   1.638  10.709  1.1922  1.8894 -1.0155
    1MPD1    H314113   2.743   1.528  10.920 -1.1243 -0.5074 -1.4971
    1MPD1     N14114   2.643   1.897  11.163  0.0852 -0.2589 -0.4362
    1MPD1    H514115   2.613   1.994  11.157  0.7769  0.0038  0.3039
    1MPD1    N114116   2.563   1.880  10.688  0.1687 -0.4603  0.0484
    1MPD1    H614117   2.489   1.948  10.705  1.0671  0.4258  0.4221
    1MPD1    H714118   2.531   1.809  10.622  0.7594 -1.1660  0.5247
    2MPD1     C14119   0.736   2.512  11.705  0.0836 -0.0798 -0.5728
    2MPD1    C114120   0.765   2.426  11.603 -0.0068 -0.2636  1.0100
    2MPD1    C214121   0.894   2.379  11.581  0.0292  0.6525 -0.2295
    2MPD1    C314122   0.991   2.432  11.661 -0.2070 -0.1022  1.0754
    2MPD1    C414123   0.964   2.530  11.753  0.0851 -0.1480 -0.4174
    2MPD1    C514124   0.835   2.567  11.778  0.1516 -0.0290  0.3504
    2MPD1     H14125   0.919   2.320  11.494  0.9426  0.2151  0.3336
    2MPD1    H114126   1.040   2.574  11.816 -0.3584  1.6372 -1.1260
    2MPD1    H214127   0.635   2.553  11.708 -0.1305 -0.5882 -1.0295
    2MPD1    H314128   0.816   2.654  11.839 -1.5190 -0.4938  0.5053
    2MPD1     N14129   1.126   2.386  11.651  0.7615  0.6627 -0.4251
    2MPD1    H514130   1.197   2.437  11.702  1.4880 -0.7930  0.0388
    2MPD1    N114131   0.659   2.360  11.539 -0.6438  0.5717  0.0714
    2MPD1    H614132   0.683   2.325  11.447  1.6713  1.6365  0.2832
    2MPD1    H714133   0.578   2.421  11.528 -0.3217  1.0436  0.3112
    3MPD1     C14134   1.610   1.651  11.025  0.1683  0.4479 -0.1496
    3MPD1    C114135   1.586   1.779  10.969  0.0946  0.5529  0.0960
    3MPD1    C214136   1.533   1.872  11.056 -0.3235  0.2158 -0.3995
    3MPD1    C314137   1.539   1.859  11.196 -0.4342 -0.6954  0.2457
    3MPD1    C414138   1.573   1.734  11.248 -0.6837 -0.4240 -0.1102
    3MPD1    C514139   1.614   1.639  11.162  0.0769 -0.4554  0.5243
    3MPD1     H14140   1.496   1.968  11.024 -1.3583 -1.0295 -2.9620
    3MPD1    H114141   1.567   1.712  11.354  1.5891 -1.1316 -0.1319
    3MPD1    H214142   1.626   1.565  10.961 -0.7252  0.8607 -0.9390
    3MPD1    H314143   1.637   1.537  11.194  1.7714 -0.2778 -0.0806
    3MPD1     N14144   1.495   1.969  11.274 -0.5211  0.0305  0.2210
    3MPD1    H514145   1.477   2.052  11.219 -1.0833 -0.5416 -0.4610
    3MPD1    N114146   1.586   1.797  10.828 -0.4170  0.6543 -0.7530
    3MPD1    H614147   1.656   1.745  10.776 -1.6363 -0.8721 -0.8712
    3MPD1    H714148   1.595   1.893  10.796  0.0224  0.5095 -1.0579
    4MPD2     C14149   2.441   2.131  11.939  0.3932  0.3887 -0.8620
    4MPD2    C114150   2.487   2.203  11.828 -0.0337  0.5530 -0.1948
    4MPD2    C214151   2.447   2.335  11.814  0.2941  1.0117  0.2022
    4MPD2    C314152   2.346   2.388  11.901 -0.1266  0.0277 -0.9288
    4MPD2    C414153   2.293   2.306  12.004 -0.3202 -0.8126  0.4632
    4MPD2    C514154   2.353   2.183  12.025 -0.0027  0.1935 -0.1571
    4MPD2     H14155   2.473   2.387  11.723  0.0416  1.1890  0.2307
    4MPD2    H114156   2.226   2.350  12.077 -2.3346 -2.2373 -0.5344
    4MPD2    H214157   2.487   2.034  11.950 -1.5361 -0.5973 -1.5170
    4MPD2    H314158   2.330   2.125  12.113 -0.9717 -2.7278 -2.3154
    4MPD2     N14159   2.297   2.518  11.885 -0.0750  0.1905 -0.7584
    4MPD2    H514160   2.212   2.536  11.936  1.6886 -0.0619  2.2498
    4MPD2    N114161   2.592   2.151  11.748  0.3086  0.0876 -0.3555
    4MPD2    H714162   2.631   2.215  11.680  1.0811 -1.0012 -0.9473
    5TMC3    C114163   2.709   2.012  11.620  0.1341  0.8788 -0.3392
    5TMC3    C214164   2.668   1.923  11.525  0.1289 -0.7044 -0.2955
    5TMC3    C314165   2.674   1.958  11.390 -0.1763 -0.5561 -0.0696
    5TMC3    C414166   2.755   2.132  11.586  0.5372  0.0833  0.4254
    5TMC3    C514167   2.735   2.173  11.455  0.3990  0.0500  0.4782
    5TMC3    C614168   2.688   2.091  11.362 -0.2992 -0.1745 -0.2839
    5TMC3     C14169   2.621   2.016  11.731  0.6600 -0.6263  0.6479
    5TMC3     O14170   2.547   1.920  11.757  0.0629 -0.5508 -1.0111
    5TMC3     H14171   2.662   1.819  11.553  2.7606 -0.3850  1.5422
    5TMC3    H114172   2.820   2.189  11.652 -0.0605  0.9833  0.2415
    5TMC3    H214173   2.691   2.126  11.260 -0.4049 -1.2433 -0.6513
    5TMC3    C714174   2.692   2.312  11.453  0.4173  0.0782 -0.2976
    5TMC3    C814175   2.667   1.844  11.289 -0.2266  0.1326 -0.1916
    5TMC3    O114176   2.701   2.357  11.565  0.5892 -0.9313 -0.3339
    5TMC3    O214177   2.673   1.727  11.326  0.2694 -0.0747 -0.0607
    6TMC3    C114178   1.294   2.242  11.582  0.1181  0.0984  0.0469
    6TMC3    C214179   1.328   2.117  11.548 -0.7211 -0.1093  0.2550
    6TMC3    C314180   1.435   2.097  11.459 -0.3348 -0.1787 -0.2004
    6TMC3    C414181   1.368   2.351  11.546 -0.3126  0.5384  0.3167
    6TMC3    C514182   1.478   2.326  11.467 -0.0253  0.8452  0.6430
    6TMC3    C614183   1.517   2.201  11.427  0.3895  0.4080  0.0167
    6TMC3     C14184   1.157   2.266  11.597 -0.4170 -0.4238 -0.0703
    6TMC3     O14185   1.086   2.171  11.566 -0.0038 -0.0322 -0.1521
    6TMC3     H14186   1.267   2.030  11.571  0.8704 -1.3995 -0.4878
    6TMC3    H114187   1.335   2.453  11.565 -0.4727  0.4029  0.7533
    6TMC3    H214188   1.616   2.186  11.384  0.0213 -0.6764 -0.4466
    6TMC3    C714189   1.571   2.434  11.460 -0.0232 -0.5908  0.4586
    6TMC3    C814190   1.459   1.964  11.409 -0.6574 -0.4183 -0.3482
    6TMC3    O114191   1.585   2.491  11.564  0.8164 -0.4808 -0.0017
    6TMC3    O214192   1.444   1.867  11.489 -0.6020 -0.9778  0.3489
    7MPD2     C14193   2.423   2.717  11.268  0.4821 -0.1386 -0.4525
    7MPD2    C114194   2.455   2.678  11.397  0.2650  0.1089  0.2438
    7MPD2    C214195   2.527   2.562  11.424  0.2925 -0.1525  0.5626
    7MPD2    C314196   2.579   2.489  11.319 -0.2876  0.4243  0.8376
    7MPD2    C414197   2.552   2.530  11.188 -0.3749 -0.2564 -0.1122
    7MPD2    C514198   2.470   2.635  11.161 -0.3453  0.6144 -0.2841
    7MPD2     H14199   2.546   2.536  11.527 -1.4733 -0.1029  0.8992
    7MPD2    H114200   2.577   2.468  11.103  0.8180  1.3301 -0.9230
    7MPD2    H214201   2.364   2.805  11.243  0.6182 -0.2777 -1.2470
    7MPD2    H314202   2.445   2.654  11.057 -0.6003 -0.9011 -0.5043
    7MPD2     N14203   2.647   2.362  11.338 -0.4350  0.2863 -0.6584
    7MPD2    H514204   2.669   2.318  11.250  1.5811  0.0876 -0.0687
    7MPD2    N114205   2.405   2.751  11.506 -0.1420 -0.0784 -0.4457
    7MPD2    H714206   2.429   2.709  11.596  0.0584  1.9988  0.4768
    8TMC3    C114207   2.280   2.899  11.628  0.4328  0.1586  0.2494
    8TMC3    C214208   2.150   2.900  11.621  0.5738 -0.6790  0.1386
    8TMC3    C314209   2.082   2.809  11.698 -0.0156 -0.2982  0.3794
    8TMC3    C414210   2.355   2.834  11.725 -0.7340  0.4828 -0.1850
    8TMC3    C514211   2.291   2.738  11.794 -0.2141  0.7019 -0.2238
    8TMC3    C614212   2.157   2.730  11.786  0.2233 -0.0272 -0.3491
    8TMC3     C14213   2.326   2.863  11.496  0.9906 -0.2413 -0.3228
    8TMC3     O14214   2.255   2.899  11.403  0.1798  0.1103 -0.4071
    8TMC3     H14215   2.092   2.964  11.556  0.1614 -1.5193 -0.3260
    8TMC3    H114216   2.460   2.858  11.724 -0.0962 -2.3222  1.2062
    8TMC3    H214217   2.106   2.643  11.827  0.6970  0.2353  0.8036
    8TMC3    C714218   2.362   2.610  11.809 -0.1318 -0.2324  0.0551
    8TMC3    C814219   1.967   2.738  11.638 -0.8330 -0.0750  0.3962
    8TMC3    O114220   2.468   2.607  11.754  0.4156  0.2835  0.4817
    8TMC3    O214221   1.916   2.649  11.706 -0.2255 -0.0938  0.0575
    9MPD2     C14222   2.000   2.650  11.284  0.6811 -0.4076  0.8345
    9MPD2    C114223   1.944   2.649  11.409  0.3339 -0.0200 -0.6233
    9MPD2    C214224   1.833   2.576  11.436 -0.0396 -0.1266 -0.1167
    9MPD2    C314225   1.780   2.493  11.341 -0.1315  0.9998  0.3493
    9MPD2    C414226   1.843   2.488  11.218 -0.4687  0.2527  0.2908
    9MPD2    C514227   1.954   2.565  11.183 -0.1853 -0.4159  0.3615
    9MPD2     H14228   1.782   2.590  11.531 -0.1389 -0.1937 -0.1601
    9MPD2    H114229   1.802   2.422  11.142  1.4456 -0.2617 -0.2870
    9MPD2    H214230   2.078   2.719  11.254  0.3279 -0.3238  0.1273
    9MPD2    H314231   2.009   2.550  11.091 -1.2442 -1.4190 -0.1122
    9MPD2     N14232   1.654   2.426  11.351  0.2438  0.3527 -0.1184
    9MPD2    H514233   1.620   2.373  11.271 -3.2315  0.1274  1.4874
    9MPD2    N114234   2.001   2.733  11.509 -0.2331  0.2500  0.2124
    9MPD2    H714235   2.079   2.787  11.473  0.9250 -0.8467  1.1060
    1MPD1     C14236   1.645   1.424  16.277 -0.3392 -0.3131 -0.1589
    1MPD1    C114237   1.639   1.294  16.321  0.3337 -0.6158  0.2101
    1MPD1    C214238   1.526   1.237  16.361  0.5160 -0.7178 -0.7720
    1MPD1    C314239   1.412   1.313  16.362  0.2186 -1.1411  0.0960
    1MPD1    C414240   1.408   1.440  16.304  0.1839 -0.5778 -0.1696
    1MPD1    C514241   1.529   1.497  16.265 -1.2016  0.7943  0.1675
    1MPD1     H14242   1.524   1.132  16.387 -2.0404 -0.2320  0.9089
    1MPD1    H114243   1.326   1.507  16.324  0.3739 -0.5644  0.5543
    1MPD1    H214244   1.733   1.466  16.230 -0.0008  1.2534  1.8782
    1MPD1    H314245   1.541   1.596  16.223 -0.1006  1.1223  1.2411
    1MPD1     N14246   1.284   1.262  16.410  0.0126  0.1609  0.2027
    1MPD1    H514247   1.208   1.329  16.416 -2.2888 -2.1854 -2.8120
    1MPD1    N114248   1.755   1.220  16.328 -0.2145  0.1740  1.0456
    1MPD1    H614249   1.770   1.194  16.425  0.0622 -1.9895  0.4187
    1MPD1    H714250   1.830   1.282  16.298 -1.4450  1.3351  0.3217
    2MPD1     C14251   1.137   0.517  17.038 -0.2870 -0.2851 -0.0548
    2MPD1    C114252   1.187   0.639  17.081 -0.0881  0.1326 -0.2009
    2MPD1    C214253   1.157   0.749  17.004  0.7234  0.5187  0.4903
    2MPD1    C314254   1.074   0.742  16.893 -0.3602  0.8329  0.0220
    2MPD1    C414255   1.025   0.620  16.857  0.1466 -0.4692 -0.4742
    2MPD1    C514256   1.063   0.507  16.925 -0.2703  0.0522  0.6638
    2MPD1     H14257   1.207   0.843  17.026  3.4544 -0.4845 -1.3865
    2MPD1    H114258   0.964   0.596  16.770  0.2771  0.6841 -0.8840
    2MPD1    H214259   1.150   0.428  17.098 -0.9351 -0.0010  0.5056
    2MPD1    H314260   1.033   0.407  16.895  0.4448 -0.3681  1.3451
    2MPD1     N14261   1.055   0.855  16.815 -0.7620  0.9536 -0.0387
    2MPD1    H514262   1.111   0.933  16.847  2.1045 -1.1478  0.1013
    2MPD1    N114263   1.300   0.635  17.167 -0.5403  0.6111  0.1268
    2MPD1    H614264   1.293   0.721  17.221  0.2229  0.4050  0.5494
    2MPD1    H714265   1.300   0.556  17.231 -0.0820  0.0928 -0.5043
    3TCq2    C114266   0.967   0.866  16.712 -0.0331  0.1319 -0.0809
    3TCq2    O214267   0.873   0.793  16.677 -0.0637 -0.1994  0.2053
    3TCq2    C214268   0.979   0.993  16.645  0.3873  0.6097  0.5188
    3TCq2    C314269   0.877   1.034  16.554  0.8000  0.2411 -0.0351
    3TCq2    C414270   0.906   1.120  16.449 -0.0762 -0.5863  0.1043
    3TCq2    C514271   1.031   1.163  16.422  0.4012  0.4156  0.3326
    3TCq2    C614272   1.127   1.125  16.512 -0.1052 -0.0303 -0.2526
    3TCq2    C714273   1.105   1.039  16.615 -0.2637  0.0794  0.0999
    3TCq2    C814274   1.266   1.143  16.473  0.2067 -0.4773 -0.1811
    3TCq2    O414275   1.342   1.058  16.519  0.1569 -0.5468  0.3296
    3TCq2    C914276   0.801   1.170  16.355 -0.6185  0.6506 -0.6163
    3TCq2    O514277   0.690   1.120  16.361  0.5224  0.1929 -0.0289
    3TCq2    O614278   0.834   1.253  16.266  0.3747 -0.0555  0.1497
    3TCq2    H214279   0.776   0.995  16.557  0.9693  0.0258  3.6447
    3TCq2    H314280   1.050   1.229  16.338 -1.9729 -0.5939 -0.9665
    3TCq2    H414281   1.190   1.001  16.671 -0.2831  0.4452  0.3748
    1TCq1    O114282   0.232   4.663  13.023  0.3114 -0.5354  0.0444
    1TCq1    C114283   0.331   4.680  13.107  0.0010  0.9597  0.9975
    1TCq1    O214284   0.387   4.592  13.170  0.2280  0.0130  0.4936
    1TCq1    C214285   0.350   0.094  13.138  0.2801 -0.5905 -0.0829
    1TCq1    C314286   0.250   0.191  13.140  0.0337  0.3906  0.0879
    1TCq1    C414287   0.269   0.320  13.191 -0.8038 -0.2998 -1.0436
    1TCq1    C514288   0.384   0.352  13.257  0.4471 -0.0447 -0.0676
    1TCq1    C614289   0.474   0.246  13.276 -1.0509  0.2849 -0.6040
    1TCq1    C714290   0.466   0.124  13.209  0.2981  0.1064 -0.4417
    1TCq1    C814291   0.599   0.271  13.350  0.2292 -0.0471 -1.1288
    1TCq1    O414292   0.618   0.388  13.383  0.5749 -0.2146  0.0929
    1TCq1    C914293   0.186   0.430  13.150 -0.1679  0.1786  0.3638
    1TCq1    O514294   0.116   0.407  13.048 -0.2949  1.2858 -0.1103
    1TCq1    O614295   0.238   0.543  13.173  0.4263 -0.3694 -0.2934
    1TCq1    H114296   0.218   0.016  12.966 -1.3651  0.0179  1.2349
    1TCq1    H214297   0.160   0.177  13.080  0.5891 -0.6434 -0.4946
    1TCq1    H314298   0.419   0.450  13.287  0.5110  0.1724 -0.8351
    1TCq1    H414299   0.542   0.046  13.205  1.2057  1.0569 -1.7685
    2MPD2     C14300   0.880   0.266  13.466  0.3624  0.6405  0.3384
    2MPD2    C114301   0.824   0.164  13.390  0.3348 -0.3569  0.1298
    2MPD2    C214302   0.896   0.055  13.356  0.4093  0.0077 -0.2178
    2MPD2    C314303   1.027   0.033  13.403  0.2897  0.1847  0.4193
    2MPD2    C414304   1.076   0.137  13.485  0.1646  0.1531 -0.0941
    2MPD2    C514305   1.001   0.246  13.518 -0.2766 -0.5142  0.0658
    2MPD2     H14306   0.844   4.697  13.312 -1.6304  1.4008 -0.4502
    2MPD2    H114307   1.167   0.124  13.543  0.4385  0.0443 -0.5417
    2MPD2    H214308   0.823   0.358  13.479  0.1356  0.5153  0.2319
    2MPD2    H314309   1.033   0.322  13.588  0.8163 -0.6370 -0.2944
    2MPD2     N14310   1.091   4.642  13.363  0.2003  0.1419 -0.1193
    2MPD2    H514311   1.028   4.578  13.316 -1.5633  0.6970  1.4944
    2MPD2    N114312   0.688   0.163  13.349 -0.5880 -0.3002 -0.0936
    2MPD2    H714313   0.658   0.071  13.319  0.0461 -0.7661  0.6884
    3TCq1    O114314   1.303   4.446  12.933 -0.4701 -0.4853  0.0672
    3TCq1    C114315   1.365   4.362  13.018 -0.2309  0.1064  0.1094
    3TCq1    O214316   1.400   4.249  12.981  0.5793 -0.1486 -0.1205
    3TCq1    C214317   1.296   4.373  13.138  0.4836 -0.6375  0.5990
    3TCq1    C314318   1.207   4.270  13.157  0.3355 -0.2423 -0.0728
    3TCq1    C414319   1.140   4.279  13.274  0.2847  0.1608  0.1214
    3TCq1    C514320   1.157   4.383  13.363  0.1839 -0.5177  0.5917
    3TCq1    C614321   1.248   4.482  13.338  0.4355  0.3329  0.0015
    3TCq1    C714322   1.321   4.474  13.224 -0.5678  0.8629 -0.2497
    3TCq1    C814323   1.227   4.615  13.389  0.5509  0.0971  0.6680
    3TCq1    O414324   1.328   4.688  13.387  0.0691  0.6487  0.5023
    3TCq1    C914325   1.042   4.181  13.311 -1.0909 -0.3772  0.6802
    3TCq1    O514326   0.956   4.218  13.397 -0.2280  0.5248 -0.8400
    3TCq1    O614327   1.028   4.093  13.229 -0.4348 -0.2932 -0.5866
    3TCq1    H114328   1.240   4.496  12.988 -0.7651 -0.8362  0.0514
    3TCq1    H214329   1.187   4.192  13.084  0.5710 -1.0650  0.7353
    3TCq1    H314330   1.091   4.385  13.448 -0.0898 -0.0363  0.3722
    3TCq1    H414331   1.384   4.558  13.199  3.2863 -2.2910 -1.0368
    1MPD2     C14332   4.115   0.671  14.383  0.3932 -0.4441  0.0763
    1MPD2    C114333   4.046   0.557  14.400  0.7137 -0.0238 -0.1169
    1MPD2    C214334   4.096   0.440  14.346 -0.3736  0.1605  0.2659
    1MPD2    C314335   4.223   0.446  14.278  0.5698 -0.3517 -0.3990
    1MPD2    C414336   4.291   0.562  14.262 -0.3798  0.0531 -0.5690
    1MPD2    C514337   4.234   0.673  14.317 -0.7985 -1.1190  0.7563
    1MPD2     H14338   4.042   0.346  14.350  3.5651 -2.0456  1.5245
    1MPD2    H114339   4.382   0.571  14.203 -0.3019  2.9755  0.0047
    1MPD2    H214340   4.075   0.767  14.414  0.0228  0.1093 -2.1419
    1MPD2    H314341   4.279   0.770  14.302  2.1434 -2.5798  0.1454
    1MPD2     N14342   4.268   0.327  14.218 -0.5630 -0.2300 -0.6784
    1MPD2    H514343   4.217   0.240  14.228 -1.2962  0.2733  0.1285
    1MPD2    N114344   3.925   0.566  14.478 -0.5267  0.2454  0.2409
    1MPD2    H714345   3.884   0.659  14.485  1.9770  1.2815  0.8481
    2TMC3    C114346   3.709   0.477  14.537  0.3584  0.3490 -0.0984
    2TMC3    C214347   3.643   0.357  14.551  0.0251  0.5042  0.3733
    2TMC3    C314348   3.522   0.344  14.485 -0.0719  0.2528  0.8325
    2TMC3    C414349   3.653   0.589  14.484  0.4358 -0.8225  0.0154
    2TMC3    C514350   3.521   0.578  14.461  0.9926  0.1657 -0.3515
    2TMC3    C614351   3.453   0.458  14.448 -0.2675 -0.0392  0.2127
    2TMC3     C14352   3.855   0.452  14.516 -0.5369 -0.3082  0.3675
    2TMC3     O14353   3.898   0.337  14.517  0.2508 -0.5115  0.1917
    2TMC3     H14354   3.686   0.269  14.597 -3.2264 -1.7928 -0.9820
    2TMC3    H114355   3.713   0.676  14.460 -0.3145  0.2778  2.0456
    2TMC3    H214356   3.359   0.448  14.394  1.1068 -0.4372 -2.1196
    2TMC3    C714357   3.443   0.697  14.423  0.3878 -0.1924  0.0597
    2TMC3    C814358   3.539   0.265  14.361  0.1765  0.9254 -0.0560
    2TMC3    O114359   3.338   0.682  14.363  0.1081  0.3551  0.4252
    2TMC3    O214360   3.467   0.298  14.267  0.6351  0.2076 -0.1630
    3TCq1    O114361   4.216   1.449  14.657 -0.0906  0.2218 -0.4183
    3TCq1    C114362   4.101   1.385  14.645 -0.3341 -0.1426 -0.2353
    3TCq1    O214363   4.053   1.305  14.725 -0.1989  0.1184  0.2057
    3TCq1    C214364   4.010   1.448  14.552 -0.4222 -0.0982  0.4000
    3TCq1    C314365   4.026   1.585  14.546 -0.4675  0.7426  0.1569
    3TCq1    C414366   3.914   1.653  14.506 -0.2097 -0.9179 -0.1045
    3TCq1    C514367   3.794   1.593  14.474 -0.0851 -0.1441 -0.4492
    3TCq1    C614368   3.785   1.458  14.491 -0.5721 -0.2941  0.3102
    3TCq1    C714369   3.895   1.380  14.524  0.8802 -0.2106  0.3202
    3TCq1    C814370   3.654   1.387  14.468  0.4176  0.0638 -0.5964
    3TCq1    O414371   3.567   1.455  14.420 -0.5886  0.5760  0.4555
    3TCq1    C914372   3.915   1.798  14.489 -0.2143  0.2501 -0.7419
    3TCq1    O514373   3.801   1.852  14.482 -0.5132  0.6085 -0.1095
    3TCq1    O614374   4.016   1.859  14.521  0.3025  0.1214  0.3983
    3TCq1    H114375   4.232   1.495  14.571  2.0408 -0.3254 -0.3233
    3TCq1    H214376   4.115   1.643  14.570 -0.3544 -0.7893  3.4722
    3TCq1    H314377   3.708   1.652  14.442 -0.6921 -0.0280  1.3878
    3TCq1    H414378   3.903   1.272  14.523 -1.9586 -0.3963 -1.3537
    4MPD2     C14379   3.421   1.202  14.392 -0.2749  0.4305  0.4953
    4MPD2    C114380   3.534   1.174  14.464 -0.2589 -0.8093 -0.3840
    4MPD2    C214381   3.550   1.043  14.489 -1.0897  0.1811 -1.2571
    4MPD2    C314382   3.464   0.942  14.446  0.0790  0.4922  0.8067
    4MPD2    C414383   3.349   0.980  14.375  0.8604  0.5819  0.6560
    4MPD2    C514384   3.327   1.109  14.351 -0.1147  0.4524 -0.0677
    4MPD2     H14385   3.641   1.019  14.542 -1.1318  0.1555 -1.1966
    4MPD2    H114386   3.285   0.899  14.341  2.1468  0.1708 -0.7420
    4MPD2    H214387   3.414   1.300  14.345 -0.0678 -0.7663 -2.0411
    4MPD2    H314388   3.246   1.133  14.284  0.7095 -0.7048 -1.4906
    4MPD2     N14389   3.503   0.811  14.469  0.2720 -0.2011 -0.3104
    4MPD2    H514390   3.587   0.795  14.522 -0.2520 -0.1154  0.5507
    4MPD2    N114391   3.648   1.256  14.491 -0.0839 -0.2848  0.5399
    4MPD2    H714392   3.718   1.207  14.546 -0.1918  0.4747  1.3507
    5TMC2    C114393   4.260   4.725  14.209 -1.2542  0.1141  0.4604
    5TMC2    C214394   4.349   4.690  14.309  0.1570  0.1988  0.2731
    5TMC2    C314395   4.477   0.019  14.321 -0.1305 -0.2508 -0.8094
    5TMC2    C414396   4.296   0.108  14.127 -0.4792 -0.9117  0.1101
    5TMC2    C514397   4.412   0.171  14.152  0.0711 -0.0202  0.3018
    5TMC2    C614398   4.501   0.129  14.248  0.0174  0.2483  0.3125
    5TMC2     C14399   4.120   0.002  14.250  0.0273 -0.5283  0.3530
    5TMC2     O14400   4.103   0.042  14.364 -0.0424  0.8512  0.1910
    5TMC2     H14401   4.321   4.617  14.384 -1.6946  0.1472 -0.4780
    5TMC2    H114402   4.237   0.145  14.044  0.5646  0.8255  0.1523
    5TMC2    H214403   4.597   0.179  14.256 -0.0818  0.4886  0.0039
    5TMC2    C714404   4.394   0.314  14.175  0.1412 -0.4401  0.7335
    5TMC2    C814405   4.543   0.018  14.450 -0.0795 -0.3339  0.0538
    5TMC2    O114406   4.493   0.385  14.198 -0.0524 -0.5148  0.1499
    5TMC2    O214407   4.582   0.126  14.494 -0.1904 -0.4178 -0.3616
    5TMC2    O514408   4.548   4.618  14.494 -0.1987  0.1242 -0.6143
    5TMC2    H514409   4.504   4.550  14.439  0.6664 -1.8871  1.1937
    6MPD2     C14410   3.640   0.137  14.109  0.0051 -0.6474  0.3989
    6MPD2    C114411   3.704   0.136  14.231 -0.1719  0.3248  0.0837
    6MPD2    C214412   3.833   0.087  14.239  0.2713 -0.1624 -0.5650
    6MPD2    C314413   3.906   0.047  14.130 -0.1140 -0.2004  0.3970
    6MPD2    C414414   3.841   0.051  14.006 -0.5064  0.6519  0.6270
    6MPD2    C514415   3.711   0.098  13.994 -0.0782 -0.5823 -0.1025
    6MPD2     H14416   3.879   0.093  14.337 -1.6272  1.2441  0.2367
    6MPD2    H114417   3.893   0.027  13.913 -1.5690  0.9421 -0.0411
    6MPD2    H214418   3.538   0.172  14.100 -0.0222 -0.9902 -0.5698
    6MPD2    H314419   3.664   0.120  13.899 -2.4019 -2.3270  0.6270
    6MPD2     N14420   4.040   0.011  14.135 -0.2193  0.4340  0.1792
    6MPD2    H514421   4.086   4.718  14.047 -0.8860  0.4266 -0.1643
    6MPD2    N114422   3.654   0.197  14.350 -0.6097 -0.3699  0.3175
    6MPD2    H714423   3.706   0.195  14.437 -0.6473 -0.5388  0.3361
  945NH3     N114424   2.038   4.586  12.062 -0.1154 -0.2874 -0.1689
  945NH3     H214425   2.084   4.497  12.046  0.4196 -0.1074  0.4029
  945NH3     H314426   2.073   4.630  12.146 -1.5010  2.2472 -0.9025
  945NH3     H414427   2.046   4.654  11.987 -1.4035 -0.5515 -0.5600
  946SOD     NA14428   3.339   3.054  12.829 -0.0168  0.5735  0.3936
  947SOD     NA14429   0.630   1.257  16.182  0.0722  0.0570 -0.2403
  948SOD     NA14430   1.014   2.579  14.337 -0.1650  0.0795 -0.0169
  949SOD     NA14431   4.090   4.253  11.575  0.1954 -0.3067 -0.0160
  950SOD     NA14432   1.730   0.566  15.817  0.1992 -0.6204  0.0937
  951SOD     NA14433   2.436   2.209  16.775  0.2427  0.0826 -0.0049
  952SOD     NA14434   2.956   4.148  12.649  0.1453  0.3660  0.0931
  953SOD     NA14435   2.079   2.085   7.994 -0.7063 -0.2386 -0.1003
  954SOD     NA14436   2.240   4.610  13.492 -0.1870  0.3237 -0.2689
  955SOD     NA14437   0.767   1.615  15.055 -0.0519  0.1497  0.0832
  956SOD     NA14438   0.227   1.447  11.674  0.4295  0.0223  0.3464
  957SOD     NA14439   3.124   0.522   0.371  0.0004 -0.2510  0.3264
  958SOD     NA14440   2.365   1.088  14.724 -0.5579 -0.2301  0.1098
  959SOD     NA14441   1.169   4.440  14.349  0.2558  0.0203 -0.0805
  960SOD     NA14442   4.516   0.154  10.490  0.0447 -0.2201  0.2720
  961SOD     NA14443   4.401   3.640   4.640 -0.1022  0.2766 -0.4293
  962SOD     NA14444   1.393   4.004   2.196 -0.6783  0.4497  0.7351
  963SOD     NA14445   1.359   3.500   3.613  0.1301  0.3912 -0.3651
  964SOD     NA14446   4.358   4.286  10.742  0.2603  0.0162  0.1358
  965SOD     NA14447   4.142   4.649   6.708  0.5176  0.4012 -0.1805
  966SOD     NA14448   3.590   0.897  15.014  0.1070 -0.4930 -0.0670
  967SOD     NA14449   4.548   2.427   8.609 -0.2238 -0.3160  0.0466
  968SOD     NA14450   0.776   3.240  16.635 -0.0523  0.2418 -0.2101
  969SOD     NA14451   1.960   0.546  17.596 -0.2111  0.0378 -0.0194
  970SOD     NA14452   2.586   2.811   3.384 -0.5889 -0.3989  0.1216
  971SOD     NA14453   1.567   0.334  14.876  0.0229 -0.5514 -0.0932
  972SOD     NA14454   0.615   2.147  11.966  0.2786  0.4668  0.2314
  973SOD     NA14455   0.728   0.283  10.250  0.4154 -0.3170 -0.0883
  974SOD     NA14456   3.502   3.297  14.471 -0.3092 -0.2469  0.3187
  975SOD     NA14457   0.475   0.793  12.555 -0.0414 -0.2220 -0.1213
  976SOD     NA14458   1.819   0.628  12.475 -0.5904 -0.5736 -0.3318
  977SOD     NA14459   0.148   0.634  12.996  0.6033  0.0051 -0.0640
  978SOD     NA14460   3.799   2.700  10.468 -0.6914 -0.4156 -0.0535
  979SOD     NA14461   0.667   0.138  12.129  0.2029 -0.2494  0.4906
  980SOD     NA14462   4.140   4.235  10.532  0.0745 -0.0185 -0.4392
  981SOD     NA14463   3.878   1.783   9.155  0.1882 -0.2433  0.3328
  982SOD     NA14464   2.743   2.758   2.284  0.3282  0.0719  0.4984
  983SOD     NA14465   2.155   0.401   1.758  0.1568 -0.3459  0.1169
  984SOD     NA14466   1.138   0.734  13.021  0.2974  0.8215 -0.0730
  985SOD     NA14467   3.865   3.597  11.523  0.5453 -0.6012 -0.7145
  986SOD     NA14468   2.625   2.465   0.565  0.3048  0.2941 -0.2617
  987SOD     NA14469   4.210   1.801   2.613  0.0345 -0.1332  0.2849
  988SOD     NA14470   2.779   1.068   7.864 -0.2586  0.1231  0.4854
  989SOD     NA14471   4.432   2.894  17.669  0.0053 -0.1053  0.6966
  990SOD     NA14472   0.867   3.056   0.534  0.2906  0.0796  0.1535
  991SOD     NA14473   1.949   0.260  14.869 -0.5737 -0.0067 -0.2186
  992SOD     NA14474   3.904   2.042  14.548  0.4577  0.2752 -0.1594
  993SOD     NA14475   0.923   4.118  13.035 -0.4569  0.0247  0.0369
  994SOD     NA14476   0.855   1.539  10.853  0.0942 -0.2052  0.3507
  995SOD     NA14477   0.999   0.540  15.523 -0.1393 -0.1714 -0.1592
  996SOD     NA14478   0.830   2.718   8.505  0.1831 -0.0211 -0.1686
  997SOD     NA14479   4.159   0.101  10.668 -0.1325  0.0154  0.5444
  998SOD     NA14480   2.605   1.436   5.920  0.1232 -0.0846  0.6055
  999SOD     NA14481   3.411   0.573  10.235  0.0530  0.3794  0.0648
 1000SOD     NA14482   2.089   4.552  17.077  0.0711  0.1838  0.1538
 1001SOD     NA14483   3.532   1.383  11.804  0.0657 -0.5622 -0.1143
 1002SOD     NA14484   2.617   1.022  13.292  0.0484  0.0316  0.3717
 1003SOD     NA14485   1.549   4.089  13.076 -0.4665  0.5431 -0.2094
 1004SOD     NA14486   2.728   2.437   2.236 -0.2640  0.4517  0.0969
 1005SOD     NA14487   4.615   4.476  10.868  0.2157  0.5988  0.0393
 1006SOD     NA14488   1.201   4.579   8.019  0.1424  0.0389 -0.2300
 1007SOD     NA14489   0.354   2.691   1.271 -0.1759 -0.0326 -0.1725
 1008SOD     NA14490   0.886   4.610  14.438  0.1318  0.2962  0.5696
 1009SOD     NA14491   0.937   0.060  15.508 -0.2398 -0.2397  0.1147
 1010SOD     NA14492   4.426   4.647  10.665 -0.3819  0.1673  0.2153
 1011SOD     NA14493   3.013   1.880   2.297  0.1683  0.5368  0.8170
 1012SOL     OW14494   1.553   2.349   6.533  0.5424 -0.1201  0.5494
 1012SOL    HW114495   1.561   2.444   6.527  0.2125 -0.1614 -0.5101
 1012SOL    HW214496   1.563   2.330   6.626  2.1443 -1.2993  0.1404
 1013SOL     OW14497   0.056   1.446  13.277  0.7110 -0.0199  0.1174
 1013SOL    HW114498   0.019   1.359  13.261  2.3163 -0.8254  0.7486
 1013SOL    HW214499   0.144   1.428  13.310  1.5074  2.5382 -0.5942
 1014SOL     OW14500   2.359   3.396   5.697  0.6821  0.2251 -0.4883
 1014SOL    HW114501   2.326   3.309   5.722  0.3228  0.8712  1.2701
 1014SOL    HW214502   2.440   3.406   5.746  0.8740  1.2474 -1.0299
 1015SOL     OW14503   1.179   0.995   4.992 -0.6034  0.5268  0.1403
 1015SOL    HW114504   1.217   0.989   4.905 -3.0529  1.4913 -0.9769
 1015SOL    HW214505   1.252   0.966   5.047 -1.1369 -2.5882 -0.8240
 1016SOL     OW14506   1.806   2.721   3.192  0.2004  0.1005  0.2874
 1016SOL    HW114507   1.720   2.737   3.153 -1.1443 -1.3007  2.6742
 1016SOL    HW214508   1.812   2.627   3.172  0.0643  0.6472 -2.4039
 1017SOL     OW14509   2.063   0.588   1.641 -0.5633 -0.1153  0.5428
 1017SOL    HW114510   2.119   0.661   1.614  0.8281 -1.2947  0.2677
 1017SOL    HW214511   2.047   0.552   1.553  1.0891  1.3240 -0.3534
 1018SOL     OW14512   2.340   0.467   8.535  0.8539  0.1459 -0.2584
 1018SOL    HW114513   2.288   0.547   8.532  1.8622  0.7330 -2.1520
 1018SOL    HW214514   2.287   0.419   8.598  2.9154  0.6836  1.8662
 1019SOL     OW14515   4.398   2.202   6.589 -0.4648 -0.1437  0.1277
 1019SOL    HW114516   4.411   2.221   6.682 -1.0485 -0.5711  0.2994
 1019SOL    HW214517   4.373   2.110   6.596  1.6013 -0.6755  0.3168
 1020SOL     OW14518   2.306   0.735   8.596 -0.3183 -0.1882  0.1936
 1020SOL    HW114519   2.388   0.695   8.624 -0.4499 -0.3694  0.3287
 1020SOL    HW214520   2.290   0.806   8.658 -0.9721  0.2919 -0.5262
 1021SOL     OW14521   0.909   3.236   9.445  0.5522  0.3413  0.4649
 1021SOL    HW114522   0.977   3.219   9.380  1.2634  2.3633  0.6851
 1021SOL    HW214523   0.872   3.310   9.396  1.3048  0.8422  0.6512
 1022SOL     OW14524   0.195   0.248   5.974  0.0790 -0.4170  0.1986
 1022SOL    HW114525   0.194   0.329   6.025  1.7086  1.0389 -2.0649
 1022SOL    HW214526   0.105   0.219   5.986 -0.4058 -0.0654 -2.5315
 1023SOL     OW14527   3.463   3.068   6.196 -0.4195 -0.6969  0.8272
 1023SOL    HW114528   3.555   3.067   6.222  0.1308 -3.3840 -1.2182
 1023SOL    HW214529   3.464   3.097   6.105 -0.9613 -0.5634  0.8658
 1024SOL     OW14530   3.424   0.886   7.409 -0.0314 -0.7873 -0.1742
 1024SOL    HW114531   3.498   0.839   7.447  0.5063  0.0914 -0.1232
 1024SOL    HW214532   3.466   0.967   7.382  1.2792 -0.8403  1.6834
 1025SOL     OW14533   2.013   3.222   3.850  0.2806 -0.1259 -0.2966
 1025SOL    HW114534   1.982   3.313   3.856  2.2812  0.5696 -0.5370
 1025SOL    HW214535   1.943   3.178   3.898  0.4615 -0.6978 -0.5621
 1026SOL     OW14536   1.710   2.736   3.960  0.6883 -0.5530  0.0721
 1026SOL    HW114537   1.720   2.705   3.870  1.3963 -0.6774  0.1974
 1026SOL    HW214538   1.648   2.810   3.958 -0.1838 -1.2786  0.1243
 1027SOL     OW14539   3.912   2.134  11.065  0.1824 -0.2102  0.6300
 1027SOL    HW114540   3.885   2.146  11.156 -0.0662 -1.5156  0.7349
 1027SOL    HW214541   3.859   2.197  11.016 -1.0692 -1.6691  0.1140
 1028SOL     OW14542   3.976   2.069  15.290 -0.1295 -0.4318  0.2335
 1028SOL    HW114543   4.017   2.138  15.342 -0.8932  0.8151 -0.8318
 1028SOL    HW214544   4.025   1.995  15.325 -0.0796 -1.1975 -1.4653
 1029SOL     OW14545   3.116   1.604   8.666  0.2766  0.3361  0.2501
 1029SOL    HW114546   3.025   1.606   8.698  0.6368  0.5584  1.2705
 1029SOL    HW214547   3.156   1.566   8.744 -0.9390  2.2141  1.7824
 1030SOL     OW14548   2.765   1.556   8.079  0.1852  0.2762 -0.1924
 1030SOL    HW114549   2.724   1.480   8.036 -1.2075  0.3108  1.1033
 1030SOL    HW214550   2.857   1.532   8.093  0.0996  0.1064  0.0792
 1031SOL     OW14551   2.260   1.165   8.282 -0.1652 -0.1101  0.6920
 1031SOL    HW114552   2.328   1.230   8.297 -0.3465  0.2616 -0.0646
 1031SOL    HW214553   2.293   1.090   8.331  1.0363  0.0386  0.1109
 1032SOL     OW14554   1.627   4.004   7.455  0.0097 -0.3023  0.2544
 1032SOL    HW114555   1.569   3.969   7.523  0.0930 -1.4796 -0.2793
 1032SOL    HW214556   1.570   4.006   7.377 -0.7284  0.5396  0.8081
 1033SOL     OW14557   3.921   3.842   5.168 -0.2877  0.3159 -0.0662
 1033SOL    HW114558   3.826   3.839   5.183 -0.3517 -1.7924 -0.9251
 1033SOL    HW214559   3.920   3.924   5.118 -3.7387 -1.7594 -3.4533
 1034SOL     OW14560   1.399   1.186   2.431 -0.7852  0.2164  0.1345
 1034SOL    HW114561   1.446   1.269   2.434 -2.6969  1.2850  0.8365
 1034SOL    HW214562   1.381   1.169   2.338  2.2935 -0.2490 -0.3550
 1035SOL     OW14563   2.815   3.170   6.458  0.5064 -0.5992  0.1122
 1035SOL    HW114564   2.834   3.227   6.532  0.8838  1.2788 -1.4333
 1035SOL    HW214565   2.851   3.231   6.394  1.9415 -1.4209  0.1283
 1036SOL     OW14566   3.680   3.041   1.537 -0.6795  0.2481 -0.1907
 1036SOL    HW114567   3.590   3.016   1.518 -0.5396  0.2972 -0.9073
 1036SOL    HW214568   3.730   3.002   1.465 -0.1169 -3.0174  1.9262
 1037SOL     OW14569   0.018   1.627   6.128 -0.0683 -0.3113 -0.7983
 1037SOL    HW114570   4.667   1.675   6.096 -0.5063 -0.3726  0.1749
 1037SOL    HW214571   0.058   1.616   6.041  1.1929 -0.6578 -0.1761
 1038SOL     OW14572   4.402   1.615   3.112 -0.3526  0.1063 -0.0544
 1038SOL    HW114573   4.481   1.616   3.058  1.0015 -0.8733  1.9023
 1038SOL    HW214574   4.437   1.620   3.201 -1.6255 -0.0761  0.4578
 1039SOL     OW14575   3.761   4.575   3.730  0.2197  0.3768  0.5464
 1039SOL    HW114576   3.841   4.540   3.768  1.0794  0.8328 -0.8107
 1039SOL    HW214577   3.776   4.550   3.639 -1.2855 -1.2482  0.7498
 1040SOL     OW14578   4.533   4.547  16.210  0.5572  0.0496  0.4509
 1040SOL    HW114579   4.535   4.530  16.116 -2.1206 -2.7143  0.8927
 1040SOL    HW214580   4.536   4.457  16.243  3.8781 -0.2924 -0.7854
 1041SOL     OW14581   4.318   3.972   7.535 -0.0110 -0.7697  0.1652
 1041SOL    HW114582   4.365   4.020   7.468 -1.2878  0.4251  0.1298
 1041SOL    HW214583   4.231   4.013   7.531  0.0839 -0.2583  2.9826
 1042SOL     OW14584   4.610   2.917   8.485 -0.0300 -0.0784  0.1163
 1042SOL    HW114585   4.682   2.977   8.466 -0.6281  0.3628 -0.7568
 1042SOL    HW214586   4.633   2.853   8.417  0.6568 -0.7507  0.9619
 1043SOL     OW14587   4.300   3.395   6.013 -0.2178  0.3354  0.2171
 1043SOL    HW114588   4.337   3.394   6.101 -0.5735 -1.8663  0.3411
 1043SOL    HW214589   4.360   3.335   5.969 -1.4304 -0.6561 -0.0957
 1044SOL     OW14590   1.207   4.121   6.807  0.4332 -0.2989 -0.3704
 1044SOL    HW114591   1.182   4.034   6.839 -1.4248 -0.3453 -1.9488
 1044SOL    HW214592   1.293   4.108   6.766  0.4439  0.2622 -0.5185
 1045SOL     OW14593   3.297   0.587   1.345 -0.4101 -0.0226  0.4888
 1045SOL    HW114594   3.343   0.653   1.397 -1.4828 -0.0267  1.4336
 1045SOL    HW214595   3.214   0.632   1.326  1.1394  2.6010  0.0087
 1046SOL     OW14596   3.671   1.543   8.469  0.1942  0.3263 -0.3900
 1046SOL    HW114597   3.668   1.639   8.477 -2.4358  0.5689 -4.1705
 1046SOL    HW214598   3.764   1.524   8.476  0.3862  2.4302  2.8220
 1047SOL     OW14599   0.868   3.031   3.922 -0.0965 -0.2715  0.0684
 1047SOL    HW114600   0.961   3.036   3.946  0.2224  0.2766 -1.2763
 1047SOL    HW214601   0.853   2.937   3.912  0.7071 -0.2073 -1.5720
 1048SOL     OW14602   3.916   4.384   0.993 -0.2619  0.0664 -0.4133
 1048SOL    HW114603   3.843   4.440   0.967  0.3195  0.3619 -1.3743
 1048SOL    HW214604   3.892   4.372   1.085 -1.2118 -0.9081 -0.7887
 1049SOL     OW14605   4.666   4.314  11.802  0.1664 -0.0569 -0.5534
 1049SOL    HW114606   0.008   4.346  11.743  0.5660  0.7381  0.3395
 1049SOL    HW214607   4.595   4.270  11.755  1.7764 -0.8228 -2.2493
 1050SOL     OW14608   4.462   4.259   1.535 -0.1587 -0.6786 -0.0349
 1050SOL    HW114609   4.479   4.352   1.520 -1.3981 -0.7883 -2.1161
 1050SOL    HW214610   4.449   4.244   1.442 -1.6028 -1.6111  0.3200
 1051SOL     OW14611   3.396   3.166   3.353 -0.0389 -0.4865  0.0059
 1051SOL    HW114612   3.350   3.094   3.396 -0.2143 -0.9575 -0.9825
 1051SOL    HW214613   3.325   3.205   3.302  1.6225 -0.0214 -1.9455
 1052SOL     OW14614   0.315   3.292   0.513  0.0038  0.1651 -0.3966
 1052SOL    HW114615   0.268   3.375   0.521  0.1238  0.2699 -0.8073
 1052SOL    HW214616   0.245   3.232   0.487  1.5952 -1.0322 -1.9051
 1053SOL     OW14617   2.228   1.940   3.390  0.7162  0.2769 -0.0536
 1053SOL    HW114618   2.233   1.873   3.458  1.3982 -0.3559 -0.7348
 1053SOL    HW214619   2.287   2.005   3.428  2.4500 -2.1830  1.4585
 1054SOL     OW14620   1.116   3.615   5.519 -0.2670  0.5670  0.1834
 1054SOL    HW114621   1.161   3.531   5.509  1.1514  1.8675 -4.2361
 1054SOL    HW214622   1.026   3.585   5.531 -1.5164  3.5760 -1.6642
 1055SOL     OW14623   0.842   2.716   0.731 -0.4036 -0.0229  0.3033
 1055SOL    HW114624   0.801   2.630   0.722  2.0752 -1.0086 -1.6248
 1055SOL    HW214625   0.795   2.757   0.657  1.3680 -0.2608 -0.9407
 1056SOL     OW14626   3.122   0.355  16.177  0.0586 -0.6308 -0.5675
 1056SOL    HW114627   3.208   0.316  16.166 -0.1796 -1.3707  0.2363
 1056SOL    HW214628   3.147   0.447  16.190 -0.1842 -0.6657  0.1472
 1057SOL     OW14629   3.363   0.090   7.937  0.4608 -0.3927 -0.5141
 1057SOL    HW114630   3.449   0.048   7.941  1.2779  1.4120  1.0321
 1057SOL    HW214631   3.347   0.089   7.843  1.3439 -1.2135 -0.6594
 1058SOL     OW14632   1.900   2.708   6.709  0.1320  0.4895 -0.4515
 1058SOL    HW114633   1.853   2.754   6.779  0.3290  0.9842 -0.6438
 1058SOL    HW214634   1.988   2.747   6.711  0.8680 -1.2215  0.5245
 1059SOL     OW14635   0.261   3.992  12.475  0.2892  0.3011  0.9501
 1059SOL    HW114636   0.201   3.937  12.425  1.0341  0.9143 -0.6219
 1059SOL    HW214637   0.296   3.933  12.541  2.3420  0.8661  0.3852
 1060SOL     OW14638   0.708   4.463   8.252 -0.1072 -0.0661  0.4556
 1060SOL    HW114639   0.732   4.419   8.334  1.8752  1.0489  0.4789
 1060SOL    HW214640   0.649   4.399   8.211  0.5049  1.6188 -3.1085
 1061SOL     OW14641   0.195   0.808  13.157 -0.1566  0.0291  0.0391
 1061SOL    HW114642   0.224   0.727  13.199 -2.5937 -0.3248  1.0579
 1061SOL    HW214643   0.100   0.804  13.174 -0.0305 -2.2428  0.2372
 1062SOL     OW14644   3.059   4.508  15.695  0.3352 -0.1063 -0.0863
 1062SOL    HW114645   3.015   4.516  15.780  1.5081  0.8581  0.4174
 1062SOL    HW214646   3.000   4.550  15.632  0.0080 -0.4455 -0.0046
 1063SOL     OW14647   1.113   4.523   7.100 -0.2189 -0.6947  0.1727
 1063SOL    HW114648   1.115   4.603   7.048 -0.3529 -1.0020 -0.3152
 1063SOL    HW214649   1.035   4.539   7.152  0.0055 -1.1271  0.6426
 1064SOL     OW14650   1.130   2.084   6.899  0.4570  0.0506 -0.0445
 1064SOL    HW114651   1.104   1.997   6.871 -0.9697  0.0109  1.3874
 1064SOL    HW214652   1.138   2.132   6.817 -0.5613  2.2858  1.1370
 1065SOL     OW14653   3.763   1.563   5.221 -0.0509 -0.3910  0.0672
 1065SOL    HW114654   3.819   1.500   5.266 -1.7828 -1.2044  1.0690
 1065SOL    HW214655   3.689   1.556   5.281  0.6506 -0.0636  0.9715
 1066SOL     OW14656   1.897   3.257  16.179  0.1128 -0.3020  0.2921
 1066SOL    HW114657   1.979   3.215  16.204  0.8894  1.2453  0.3899
 1066SOL    HW214658   1.860   3.211  16.104 -0.9126  0.1437  0.5170
 1067SOL     OW14659   2.543   2.219   4.481 -0.3633 -0.0620  0.7076
 1067SOL    HW114660   2.505   2.305   4.461 -0.5142 -0.0799  0.9187
 1067SOL    HW214661   2.593   2.199   4.402 -0.5222  2.8303 -0.1441
 1068SOL     OW14662   4.675   1.058  14.221 -1.0228  0.1801 -0.0764
 1068SOL    HW114663   4.699   0.999  14.149  0.8520  1.4633 -0.4989
 1068SOL    HW214664   4.676   0.991  14.289  1.3592 -0.8781 -1.1251
 1069SOL     OW14665   4.292   4.100   4.254  0.2775 -0.3719  0.1899
 1069SOL    HW114666   4.246   4.139   4.328 -0.1330 -2.8575  1.2569
 1069SOL    HW214667   4.245   4.016   4.248 -1.6075  0.9008 -3.0248
 1070SOL     OW14668   3.603   3.442   3.163 -0.5454  0.4501  0.1463
 1070SOL    HW114669   3.691   3.450   3.127 -0.1912 -0.8333  0.7409
 1070SOL    HW214670   3.600   3.350   3.187  1.3041  0.7918  1.6760
 1071SOL     OW14671   4.143   2.299  10.069  0.5573  0.3445 -0.4410
 1071SOL    HW114672   4.184   2.214  10.085  1.6220  0.8713 -0.3892
 1071SOL    HW214673   4.059   2.282  10.112  0.1698 -0.2516 -1.4086
 1072SOL     OW14674   1.012   0.102   8.696  0.2099  0.8455  0.1403
 1072SOL    HW114675   0.948   0.048   8.743  0.4874 -0.9143 -1.4879
 1072SOL    HW214676   0.974   0.189   8.708  2.4116  2.3352 -3.6735
 1073SOL     OW14677   2.673   3.110  16.900  0.4500 -0.5287 -0.0733
 1073SOL    HW114678   2.628   3.148  16.976  1.2074  0.6257 -0.2038
 1073SOL    HW214679   2.619   3.154  16.834  0.0419  1.3030  1.4444
 1074SOL     OW14680   2.961   2.681   9.217 -0.0876  0.6147 -0.8065
 1074SOL    HW114681   2.879   2.718   9.185 -0.9698  0.9892  1.8354
 1074SOL    HW214682   2.964   2.602   9.163  0.1293  0.1051 -0.0475
 1075SOL     OW14683   2.347   4.173   5.250 -0.4484 -0.2968  0.0904
 1075SOL    HW114684   2.378   4.176   5.341 -0.9763 -1.3825  0.3059
 1075SOL    HW214685   2.281   4.104   5.258  0.5329 -1.1753  0.6141
 1076SOL     OW14686   4.425   1.836   6.386 -0.3037 -0.2928 -0.3759
 1076SOL    HW114687   4.373   1.897   6.438 -0.1772  0.6235 -1.3063
 1076SOL    HW214688   4.438   1.771   6.455 -1.6382  1.9228  1.9471
 1077SOL     OW14689   2.075   2.526   2.681  0.3258  0.1058 -0.9868
 1077SOL    HW114690   1.992   2.562   2.649  0.6359  2.6345  1.0072
 1077SOL    HW214691   2.075   2.544   2.775 -0.6103  0.5938 -1.0786
 1078SOL     OW14692   4.319   3.433   4.653 -0.2411 -0.0299  0.0894
 1078SOL    HW114693   4.327   3.388   4.569 -0.6256  1.7897 -0.9279
 1078SOL    HW214694   4.247   3.387   4.694 -0.7445  1.2347  0.6229
 1079SOL     OW14695   3.921   1.537   6.553 -0.1263  0.3105  0.2929
 1079SOL    HW114696   3.936   1.497   6.468 -2.4049 -1.4718  0.7224
 1079SOL    HW214697   3.981   1.611   6.562  0.8233 -0.4018 -0.1993
 1080SOL     OW14698   0.109   2.227   9.804 -0.4613  0.7686  0.4790
 1080SOL    HW114699   0.023   2.268   9.794 -0.1650  1.0829 -0.7917
 1080SOL    HW214700   0.160   2.301   9.837  1.0245 -0.1515  0.2658
 1081SOL     OW14701   4.228   1.926   3.821  0.4140  0.3514  0.0414
 1081SOL    HW114702   4.211   1.836   3.796 -0.8461  1.2265 -2.1980
 1081SOL    HW214703   4.248   1.915   3.914 -0.3913  0.5187  0.2333
 1082SOL     OW14704   1.528   0.623   1.467 -0.0789  0.2123  0.4885
 1082SOL    HW114705   1.603   0.665   1.424 -1.1629  1.9787  0.3043
 1082SOL    HW214706   1.553   0.644   1.558  0.5105  0.7592  0.2023
 1083SOL     OW14707   4.583   3.542   4.221  0.3755  0.2505 -1.0814
 1083SOL    HW114708   4.595   3.633   4.191 -0.6586  0.8733  0.4329
 1083SOL    HW214709   4.654   3.495   4.176 -0.5389 -2.1511 -0.0186
 1084SOL     OW14710   3.638   4.321   6.478 -0.1559  0.1543 -0.3788
 1084SOL    HW114711   3.630   4.246   6.419 -0.9341  1.2659 -1.6709
 1084SOL    HW214712   3.624   4.396   6.420  0.2529 -1.0525 -2.0255
 1085SOL     OW14713   4.401   4.697   9.222 -0.1934  0.2368 -0.3395
 1085SOL    HW114714   4.316   4.657   9.244 -0.7928  2.1507  0.7773
 1085SOL    HW214715   4.425   0.012   9.305  1.6744  0.5459 -1.0468
 1086SOL     OW14716   2.232   1.452   3.926 -0.1854 -0.1924  0.0253
 1086SOL    HW114717   2.295   1.523   3.939 -0.7171  0.5442 -1.4811
 1086SOL    HW214718   2.269   1.425   3.842 -0.1593  0.7668 -0.2709
 1087SOL     OW14719   1.949   0.765   0.700 -0.1864  0.1026 -0.6912
 1087SOL    HW114720   1.910   0.701   0.759  1.2313 -0.3434 -0.2147
 1087SOL    HW214721   1.961   0.842   0.755 -1.9026 -0.6758  0.7567
 1088SOL     OW14722   0.418   1.498   1.220  0.1233 -0.0094  0.4162
 1088SOL    HW114723   0.453   1.445   1.148 -1.0307 -2.2048  1.5019
 1088SOL    HW214724   0.353   1.557   1.180 -1.3318 -1.0935  1.1677
 1089SOL     OW14725   4.220   3.606  10.557 -0.3742 -0.3428  0.1453
 1089SOL    HW114726   4.180   3.681  10.602 -1.1699 -0.6032 -0.1334
 1089SOL    HW214727   4.251   3.575  10.642  0.0687 -2.0511 -0.6418
 1090SOL     OW14728   0.232   3.931   0.025 -0.8007 -0.4642  0.2128
 1090SOL    HW114729   0.206   3.923   0.117  0.9473 -0.3250  0.7162
 1090SOL    HW214730   0.293   3.861   0.003 -0.8815 -0.0526 -1.3130
 1091SOL     OW14731   1.986   3.335  15.094 -0.2929 -0.0444  0.1551
 1091SOL    HW114732   1.961   3.383  15.173 -1.1872  0.8893 -0.6855
 1091SOL    HW214733   2.078   3.360  15.103 -0.0590 -0.4925 -1.0951
 1092SOL     OW14734   3.013   1.636   6.312 -0.2924  0.1137  0.4148
 1092SOL    HW114735   2.962   1.660   6.390 -2.9848 -0.8440 -1.0294
 1092SOL    HW214736   3.098   1.674   6.336 -1.5373  4.8346 -2.6489
 1093SOL     OW14737   0.915   3.476   2.622 -0.1507  0.0352  0.5741
 1093SOL    HW114738   0.920   3.446   2.531 -1.6138 -2.8779  1.4332
 1093SOL    HW214739   1.003   3.513   2.629  0.1586 -1.0098  2.4621
 1094SOL     OW14740   1.461   2.191   9.542 -0.1191 -0.0529 -0.2455
 1094SOL    HW114741   1.410   2.168   9.620 -1.8613 -0.9131 -1.6516
 1094SOL    HW214742   1.531   2.130   9.562 -0.7525 -0.6052  0.2802
 1095SOL     OW14743   2.188   2.953   5.428 -0.3726 -0.3463 -0.3123
 1095SOL    HW114744   2.154   2.879   5.480 -1.0387 -0.9217 -1.5429
 1095SOL    HW214745   2.234   2.907   5.358 -0.9230 -0.6013 -0.5117
 1096SOL     OW14746   4.258   3.958   2.192  0.1002 -0.0823  0.4045
 1096SOL    HW114747   4.303   4.005   2.262  0.7222  0.0158 -0.0648
 1096SOL    HW214748   4.285   4.008   2.115  4.5244 -1.0120  1.3634
 1097SOL     OW14749   0.541   4.156   2.835  0.0096 -1.1230  1.0962
 1097SOL    HW114750   0.581   4.139   2.921  0.7502 -1.6085  0.6599
 1097SOL    HW214751   0.620   4.165   2.782 -0.4203 -4.2590 -0.0832
 1098SOL     OW14752   3.684   3.322   1.745  0.0202 -0.2282 -0.5286
 1098SOL    HW114753   3.621   3.348   1.678  0.3522 -0.9196 -1.1086
 1098SOL    HW214754   3.634   3.260   1.797 -0.0426  0.2728  0.0080
 1099SOL     OW14755   4.478   0.680   9.488 -0.3718  0.4345  0.0539
 1099SOL    HW114756   4.558   0.640   9.521 -0.7155 -0.0144  0.3417
 1099SOL    HW214757   4.439   0.726   9.562 -1.3805  0.4214 -0.4634
 1100SOL     OW14758   3.040   3.038   0.899 -0.5474 -0.3521 -0.0559
 1100SOL    HW114759   3.114   3.018   0.955 -0.7298  2.8153  1.3062
 1100SOL    HW214760   3.060   2.971   0.833  0.9997  0.0177  0.0493
 1101SOL     OW14761   2.001   1.434   4.255  0.1229 -0.3671  0.1253
 1101SOL    HW114762   1.950   1.507   4.290 -1.4771 -0.9454 -0.9859
 1101SOL    HW214763   2.081   1.483   4.238  0.5333 -0.4847  1.7251
 1102SOL     OW14764   1.921   0.714  12.294  0.1679 -0.5527 -0.1670
 1102SOL    HW114765   1.974   0.787  12.263 -1.7223  0.0951 -1.8763
 1102SOL    HW214766   1.844   0.720  12.237 -1.7624 -0.1915  2.4408
 1103SOL     OW14767   3.829   3.862   5.491  0.3782  0.1772  0.4339
 1103SOL    HW114768   3.838   3.789   5.430  2.3086  1.1786 -0.4677
 1103SOL    HW214769   3.733   3.867   5.493  0.3160 -0.8530 -0.4832
 1104SOL     OW14770   3.458   3.639   1.942  0.0960  0.0127 -0.2124
 1104SOL    HW114771   3.377   3.589   1.934  1.4908 -2.4775  0.9872
 1104SOL    HW214772   3.463   3.670   1.852  1.0406  0.8604  0.1345
 1105SOL     OW14773   4.346   0.734   2.819  0.3085  0.6109  0.6591
 1105SOL    HW114774   4.300   0.808   2.858 -1.0862  0.3901 -0.5464
 1105SOL    HW214775   4.326   0.674   2.891 -1.7338  0.5133 -0.0011
 1106SOL     OW14776   1.247   3.930  13.224 -0.2695 -0.1438  0.1644
 1106SOL    HW114777   1.181   3.999  13.222  1.7367  1.8029  0.6518
 1106SOL    HW214778   1.308   3.951  13.296 -0.6362 -1.3320  0.8094
 1107SOL     OW14779   4.434   2.361   7.976 -0.2762  0.3373  0.6655
 1107SOL    HW114780   4.457   2.282   7.927 -0.6372  0.3405  0.4920
 1107SOL    HW214781   4.457   2.429   7.913 -2.2324  0.6924  0.3318
 1108SOL     OW14782   2.309   2.196   4.686  0.1677 -0.0440 -0.3089
 1108SOL    HW114783   2.380   2.211   4.622  0.1932 -2.1709 -0.7945
 1108SOL    HW214784   2.254   2.271   4.664 -0.0431 -0.8743 -2.6481
 1109SOL     OW14785   0.308   2.681  10.603  0.1927  0.2635 -0.4049
 1109SOL    HW114786   0.256   2.624  10.546 -1.2262  1.0515  0.0968
 1109SOL    HW214787   0.398   2.661  10.577  1.0504  2.5608  0.7928
 1110SOL     OW14788   0.357   1.172   0.589 -0.0187 -0.0731  0.4465
 1110SOL    HW114789   0.309   1.255   0.587 -1.8565 -1.1329  0.5625
 1110SOL    HW214790   0.325   1.135   0.507 -1.0830  1.1245  0.3165
 1111SOL     OW14791   2.218   0.953   3.689  0.0782 -0.1301 -0.2946
 1111SOL    HW114792   2.162   1.027   3.714  0.2973 -0.7628  2.1029
 1111SOL    HW214793   2.303   0.986   3.659 -0.0071 -0.3576 -0.7833
 1112SOL     OW14794   4.686   0.343  10.155  0.1073  0.3291 -0.1233
 1112SOL    HW114795   4.641   0.259  10.164 -2.4326  1.7481  0.4921
 1112SOL    HW214796   0.042   0.324  10.202 -0.2790 -1.7798 -0.2979
 1113SOL     OW14797   2.088   1.417   7.110  0.5361  0.7118 -0.1013
 1113SOL    HW114798   2.086   1.327   7.144  0.9329  0.4426 -0.7661
 1113SOL    HW214799   2.011   1.452   7.154  0.7453  3.6069 -2.0374
 1114SOL     OW14800   1.390   4.126   8.632 -0.4182  0.2695 -0.0990
 1114SOL    HW114801   1.440   4.103   8.710 -0.6184  1.5194  0.3899
 1114SOL    HW214802   1.455   4.176   8.584 -1.2484 -0.5241 -2.0787
 1115SOL     OW14803   4.548   3.936   0.808 -0.2028  0.1712  0.6345
 1115SOL    HW114804   4.628   3.917   0.856 -1.2107 -1.7639  1.5145
 1115SOL    HW214805   4.483   3.935   0.878 -0.1879  2.8247  0.6995
 1116SOL     OW14806   4.083   1.677   9.202  0.5729 -0.0939  0.4638
 1116SOL    HW114807   4.133   1.657   9.281 -0.6151 -1.1071  0.9644
 1116SOL    HW214808   4.138   1.641   9.132 -0.7467 -1.2124  0.0002
 1117SOL     OW14809   1.408   2.152   2.847 -0.1448 -0.1597  0.1298
 1117SOL    HW114810   1.390   2.144   2.940  0.7072 -4.2501 -0.0871
 1117SOL    HW214811   1.320   2.156   2.807 -0.8567  1.2509  1.8314
 1118SOL     OW14812   2.347   0.081  11.338 -0.2249  1.1751 -0.4162
 1118SOL    HW114813   2.297   0.131  11.274 -0.2076 -0.6127 -1.8237
 1118SOL    HW214814   2.393   0.027  11.273 -1.0521 -0.9011  0.7306
 1119SOL     OW14815   2.535   2.287   7.869  0.6431  0.4862 -0.1343
 1119SOL    HW114816   2.553   2.209   7.921 -1.6152 -0.7856 -1.2822
 1119SOL    HW214817   2.562   2.355   7.931 -2.0328 -0.5568  2.1499
 1120SOL     OW14818   2.231   3.716   4.337  0.2097 -0.1845  0.4555
 1120SOL    HW114819   2.185   3.769   4.272  1.5346 -0.0541 -0.3711
 1120SOL    HW214820   2.310   3.694   4.287 -0.5005  0.5448 -0.9650
 1121SOL     OW14821   0.136   2.896   3.565 -0.5658  0.3943  0.0887
 1121SOL    HW114822   0.041   2.885   3.562 -0.8081  2.1267  1.5220
 1121SOL    HW214823   0.152   2.930   3.477 -1.9940 -0.9449 -0.7124
 1122SOL     OW14824   0.669   0.499   0.304  0.4794 -0.7213  0.6825
 1122SOL    HW114825   0.586   0.543   0.322  1.9698  1.7433  1.5008
 1122SOL    HW214826   0.649   0.407   0.288  1.6763 -0.8638 -0.0335
 1123SOL     OW14827   0.890   3.705   7.482 -0.2634  0.1937  0.2472
 1123SOL    HW114828   0.856   3.733   7.567 -0.2235  1.0944 -0.0342
 1123SOL    HW214829   0.937   3.786   7.465  1.9016 -1.0754  0.1497
 1124SOL     OW14830   3.621   4.193   2.188  0.0791 -0.1612 -0.2743
 1124SOL    HW114831   3.695   4.251   2.209  0.1541 -0.0244 -0.8894
 1124SOL    HW214832   3.660   4.106   2.192  0.7617  0.1508  0.0223
 1125SOL     OW14833   2.137   0.464   6.796  0.0651 -0.3745 -0.1493
 1125SOL    HW114834   2.213   0.445   6.851  0.0913 -1.0948 -0.4258
 1125SOL    HW214835   2.155   0.414   6.716  3.8265  1.5890 -0.5104
 1126SOL     OW14836   0.326   2.216  14.495 -0.3412  0.1393  0.0772
 1126SOL    HW114837   0.341   2.293  14.440  1.2869 -1.3194 -1.5149
 1126SOL    HW214838   0.261   2.177  14.437  0.8181 -1.5630 -0.0763
 1127SOL     OW14839   3.309   1.566   3.438  0.2258 -0.2287 -0.2766
 1127SOL    HW114840   3.247   1.508   3.395 -1.1407  0.3300  0.8981
 1127SOL    HW214841   3.252   1.631   3.481 -0.8246 -0.6004 -1.1041
 1128SOL     OW14842   1.719   2.621   2.380 -0.8479 -0.3595  0.0117
 1128SOL    HW114843   1.717   2.696   2.321  2.3304 -0.6241 -0.4334
 1128SOL    HW214844   1.626   2.614   2.401 -1.2026 -0.5908 -1.6696
 1129SOL     OW14845   3.668   1.665   7.983 -0.1127 -0.1927  0.7987
 1129SOL    HW114846   3.644   1.609   8.056 -1.9314  1.2134  1.2996
 1129SOL    HW214847   3.716   1.732   8.031  2.3907 -0.4080 -1.3916
 1130SOL     OW14848   0.156   2.201   1.576  0.0905 -0.1945 -0.3337
 1130SOL    HW114849   0.208   2.279   1.557 -0.4355  0.0243 -0.8535
 1130SOL    HW214850   0.204   2.164   1.650  1.0063 -1.1349 -1.4008
 1131SOL     OW14851   1.508   1.623   2.179 -0.2856  0.4240 -0.4248
 1131SOL    HW114852   1.509   1.575   2.095  1.6486 -0.6157  0.1815
 1131SOL    HW214853   1.561   1.700   2.159  2.4000 -1.5757 -1.1424
 1132SOL     OW14854   1.537   3.613  11.527  0.3352  0.8670 -0.5591
 1132SOL    HW114855   1.537   3.640  11.619 -0.6119  0.3296 -0.4011
 1132SOL    HW214856   1.618   3.654  11.497  0.0676  0.9067 -1.2377
 1133SOL     OW14857   1.854   1.616   4.444 -0.1580  0.3590 -0.0810
 1133SOL    HW114858   1.769   1.626   4.487  0.5734 -0.2750  1.4985
 1133SOL    HW214859   1.843   1.669   4.364  3.0565  0.2476 -0.6126
 1134SOL     OW14860   3.270   3.877   2.862  0.4057 -0.0167  0.1888
 1134SOL    HW114861   3.338   3.911   2.805 -0.3576  3.4311  1.3077
 1134SOL    HW214862   3.198   3.939   2.848  1.1503  0.4192 -1.6407
 1135SOL     OW14863   0.363   2.351  16.607  0.6411  0.0761 -0.0872
 1135SOL    HW114864   0.310   2.352  16.527  0.9460  0.6522 -0.2840
 1135SOL    HW214865   0.382   2.443  16.623 -2.8129  0.5609  0.9807
 1136SOL     OW14866   3.058   0.827  15.034  0.8855  0.2156  0.4857
 1136SOL    HW114867   3.076   0.921  15.041  2.0721  0.1319 -1.4157
 1136SOL    HW214868   3.141   0.783  15.055 -0.2461 -1.8372  0.6011
 1137SOL     OW14869   1.026   4.207   1.991 -0.2110  0.2020 -0.2135
 1137SOL    HW114870   1.024   4.290   1.943 -0.4793 -0.5596 -1.5255
 1137SOL    HW214871   1.062   4.158   1.916 -3.5635  2.0751 -3.0153
 1138SOL     OW14872   0.602   0.120   5.428 -0.1486 -0.5045  0.1108
 1138SOL    HW114873   0.623   0.121   5.334 -1.6221 -0.7567 -0.2203
 1138SOL    HW214874   0.513   0.154   5.415  1.1684  0.8998 -5.1869
 1139SOL     OW14875   0.767   1.446   2.239  0.3728 -0.2528 -0.1739
 1139SOL    HW114876   0.817   1.375   2.200  1.8341  0.2746  0.7626
 1139SOL    HW214877   0.674   1.424   2.233  0.2084  0.5032 -0.4987
 1140SOL     OW14878   1.625   2.470   5.781  0.0866 -0.5014 -0.0407
 1140SOL    HW114879   1.590   2.429   5.702  0.8863  0.6991 -1.0238
 1140SOL    HW214880   1.541   2.482   5.825  0.1428  0.9138 -0.3229
 1141SOL     OW14881   2.575   2.988   4.863  0.0308 -0.1164  0.0271
 1141SOL    HW114882   2.627   3.042   4.923 -0.3305  0.1462  0.0997
 1141SOL    HW214883   2.567   2.906   4.911  0.1250 -0.1223  0.0329
 1142SOL     OW14884   3.059   0.793  14.758  0.0941  0.0685  0.3882
 1142SOL    HW114885   3.038   0.775  14.850 -0.1868 -1.8276 -0.0458
 1142SOL    HW214886   2.980   0.777  14.707 -0.3753 -1.6749  1.6631
 1143SOL     OW14887   2.044   4.706   9.244 -0.1703 -0.1016 -0.1839
 1143SOL    HW114888   2.073   4.654   9.169  0.5296 -1.5704  1.1014
 1143SOL    HW214889   1.994   0.044   9.194 -0.1243 -0.2764 -0.4490
 1144SOL     OW14890   2.355   2.681   4.876 -0.9297  0.9780  0.3971
 1144SOL    HW114891   2.347   2.591   4.908  0.0233  1.0519  0.8456
 1144SOL    HW214892   2.425   2.714   4.932  0.7061 -1.2143 -0.3427
 1145SOL     OW14893   4.438   2.478   2.342 -0.0808 -0.0767  0.2973
 1145SOL    HW114894   4.450   2.535   2.418  0.8781 -1.0540  0.8798
 1145SOL    HW214895   4.513   2.495   2.285 -0.2295  2.3179  0.8113
 1146SOL     OW14896   2.451   1.985   1.673 -0.5435  0.4591  0.5460
 1146SOL    HW114897   2.504   1.911   1.702 -1.0275  0.8380  2.3722
 1146SOL    HW214898   2.406   1.956   1.594  1.3619 -0.9369 -0.0237
 1147SOL     OW14899   0.281   3.442   4.814 -0.1867 -0.6068 -0.4831
 1147SOL    HW114900   0.257   3.363   4.862 -0.1901 -0.9108 -0.9790
 1147SOL    HW214901   0.245   3.436   4.725  0.6399 -0.8629 -0.7973
 1148SOL     OW14902   2.708   3.062   7.062 -0.4575 -0.7072 -0.5124
 1148SOL    HW114903   2.662   3.001   7.120  1.6345 -1.2156  0.5919
 1148SOL    HW214904   2.755   3.004   7.003  1.5440  0.1815  0.2287
 1149SOL     OW14905   1.917   3.200   7.473  0.2427  0.4369  0.1897
 1149SOL    HW114906   1.915   3.277   7.530 -0.4175  0.6029 -0.0604
 1149SOL    HW214907   1.982   3.230   7.409  0.2710 -2.2030 -1.0367
 1150SOL     OW14908   1.330   3.688   2.889  0.7499  0.1321 -0.1374
 1150SOL    HW114909   1.288   3.708   2.805  0.1757 -0.1071  0.0893
 1150SOL    HW214910   1.414   3.732   2.881  0.6261  0.3430 -0.2912
 1151SOL     OW14911   1.981   0.332   2.198  0.0306  0.4028  0.4589
 1151SOL    HW114912   2.037   0.260   2.227 -0.5268 -0.4580 -0.6157
 1151SOL    HW214913   1.947   0.357   2.284  0.3471  1.6016  0.2424
 1152SOL     OW14914   0.085   1.914  11.849  0.8344 -0.3155 -0.2402
 1152SOL    HW114915   0.078   1.944  11.758  0.5375  0.1094 -0.0767
 1152SOL    HW214916   0.135   1.982  11.895 -0.1873  0.5060 -0.3292
 1153SOL     OW14917   1.454   2.612   2.427  0.1003 -0.0196 -0.0136
 1153SOL    HW114918   1.412   2.589   2.344 -0.1216  1.3803 -0.2994
 1153SOL    HW214919   1.455   2.526   2.468 -0.2414  0.3143  0.6800
 1154SOL     OW14920   3.749   0.566  14.829  0.0941 -0.2170 -0.2078
 1154SOL    HW114921   3.792   0.485  14.858 -0.1818 -1.1359 -2.3309
 1154SOL    HW214922   3.823   0.622  14.805  0.4006 -0.5493 -0.0391
 1155SOL     OW14923   2.611   1.043   2.633  0.1830 -0.0901  0.2890
 1155SOL    HW114924   2.527   1.089   2.640 -0.0636 -0.2080 -1.9356
 1155SOL    HW214925   2.583   0.952   2.617  2.4112 -0.5299 -1.0104
 1156SOL     OW14926   3.027   1.082   2.467  0.0564 -0.3601  0.1315
 1156SOL    HW114927   2.997   1.107   2.554 -1.4566  3.5725 -1.5027
 1156SOL    HW214928   2.988   1.156   2.420  0.2333 -0.1392  0.3373
 1157SOL     OW14929   2.636   1.004   0.934 -0.0885  0.0913  0.2364
 1157SOL    HW114930   2.630   1.029   0.842  0.1973  1.3098  0.5487
 1157SOL    HW214931   2.716   1.050   0.963 -0.5907  1.2178 -0.1574
 1158SOL     OW14932   3.909   2.148  17.389 -0.8516 -0.8527 -0.1398
 1158SOL    HW114933   3.994   2.147  17.434  1.6161  0.9723 -4.8042
 1158SOL    HW214934   3.854   2.207  17.440  1.4738  0.4796  0.8505
 1159SOL     OW14935   0.575   0.070  10.281  0.2280  0.4056 -0.4204
 1159SOL    HW114936   0.628   0.087  10.359  0.2722  0.7497 -0.5248
 1159SOL    HW214937   0.494   0.054  10.329  0.7322 -1.5705 -0.2216
 1160SOL     OW14938   1.605   0.575  12.397  0.1715 -0.3665 -0.6218
 1160SOL    HW114939   1.541   0.646  12.400 -1.2159 -1.6408 -0.1058
 1160SOL    HW214940   1.551   0.496  12.404 -1.1336  0.3934 -2.2491
 1161SOL     OW14941   0.438   3.362   5.545 -0.3857  0.5094 -0.1785
 1161SOL    HW114942   0.528   3.335   5.524 -0.9870  1.3547 -3.8441
 1161SOL    HW214943   0.465   3.451   5.569  0.7194  0.3625 -0.8257
 1162SOL     OW14944   2.596   1.731   2.435  1.1812  0.1742  0.3009
 1162SOL    HW114945   2.650   1.735   2.357  0.4413 -1.5363 -0.2946
 1162SOL    HW214946   2.608   1.637   2.446 -4.0655 -0.7577 -1.7903
 1163SOL     OW14947   0.436   0.558   2.370 -0.9364 -0.3758 -0.1611
 1163SOL    HW114948   0.479   0.644   2.366 -1.2369 -0.2755 -1.2640
 1163SOL    HW214949   0.516   0.517   2.401 -0.0682  2.0546  0.8608
 1164SOL     OW14950   1.399   2.407   8.964  0.1863 -0.2426 -0.1681
 1164SOL    HW114951   1.438   2.438   8.883  0.9949  0.1539  0.3733
 1164SOL    HW214952   1.479   2.395   9.015 -0.0605 -1.1181  0.0148
 1165SOL     OW14953   3.575   0.502   8.151  0.5323 -0.0164  0.2067
 1165SOL    HW114954   3.542   0.413   8.143  0.5098 -0.0194  0.3290
 1165SOL    HW214955   3.557   0.509   8.245  0.0278  1.0059  0.0329
 1166SOL     OW14956   3.650   2.006   7.282 -0.3618 -0.0655 -0.1370
 1166SOL    HW114957   3.596   2.063   7.337  0.1659 -0.0269  0.3297
 1166SOL    HW214958   3.702   2.081   7.254  1.6500 -1.5406 -0.3501
 1167SOL     OW14959   3.013   2.358   7.730 -0.1417  0.6797  0.2731
 1167SOL    HW114960   2.968   2.274   7.728  0.7976  0.2192 -1.1046
 1167SOL    HW214961   3.017   2.361   7.826  0.1425 -1.0157  0.3080
 1168SOL     OW14962   4.228   1.945   6.563 -0.1015  0.3573  0.6227
 1168SOL    HW114963   4.157   1.906   6.615 -0.4667 -0.3646 -0.4144
 1168SOL    HW214964   4.172   2.005   6.514  1.5930  0.8445 -0.7020
 1169SOL     OW14965   3.208   1.847   0.617 -0.3167 -0.2115 -0.8382
 1169SOL    HW114966   3.147   1.825   0.688 -0.4745 -2.9801 -1.8263
 1169SOL    HW214967   3.290   1.824   0.661 -0.0508  2.0780 -0.1458
 1170SOL     OW14968   1.893   0.137  14.457  0.1352 -0.7210 -0.0184
 1170SOL    HW114969   1.957   0.166  14.391 -0.3580 -1.0584 -0.6385
 1170SOL    HW214970   1.940   0.115  14.538 -0.7003 -1.3706  0.2806
 1171SOL     OW14971   1.413   0.993  11.911 -0.2483  0.2590  0.2572
 1171SOL    HW114972   1.373   0.913  11.878  1.4522 -0.3332 -0.3353
 1171SOL    HW214973   1.404   1.035  11.825  1.2119  0.0225 -0.0059
 1172SOL     OW14974   4.029   0.132   5.894  0.2073 -0.3418 -0.1017
 1172SOL    HW114975   4.052   0.054   5.843 -0.0270  0.0080 -0.7404
 1172SOL    HW214976   3.996   0.194   5.830  0.3001 -0.6356 -0.4387
 1173SOL     OW14977   3.050   4.169   1.651  0.2392 -0.5546  0.3422
 1173SOL    HW114978   3.124   4.197   1.705 -1.5853  0.4902  2.2989
 1173SOL    HW214979   3.008   4.118   1.720 -1.2144  0.8670  0.5065
 1174SOL     OW14980   4.428   2.748   3.348 -0.1375 -0.7554 -0.1976
 1174SOL    HW114981   4.441   2.654   3.331 -1.7680 -1.3658  1.9882
 1174SOL    HW214982   4.383   2.776   3.268  0.5192 -2.1620 -1.0579
 1175SOL     OW14983   1.610   1.126   3.815 -0.5783 -0.4060 -0.2140
 1175SOL    HW114984   1.592   1.035   3.839 -1.1004 -0.1448  0.3887
 1175SOL    HW214985   1.529   1.134   3.764  0.1632  0.6252 -1.2270
 1176SOL     OW14986   4.196   2.553  16.118  0.2851 -0.1609  0.0803
 1176SOL    HW114987   4.175   2.528  16.028  1.9043 -3.1012  0.5483
 1176SOL    HW214988   4.186   2.467  16.157 -0.6767  0.1177  0.4475
 1177SOL     OW14989   1.618   0.761   8.949  0.2725  0.0113  0.7660
 1177SOL    HW114990   1.606   0.724   9.036 -0.5101 -0.7046  0.3555
 1177SOL    HW214991   1.684   0.823   8.980 -0.4301  0.2773  1.7345
 1178SOL     OW14992   4.084   1.493   2.801 -0.0729  0.0072 -0.8004
 1178SOL    HW114993   4.014   1.555   2.784  0.3331  0.9970  1.1488
 1178SOL    HW214994   4.147   1.506   2.730  2.1855 -2.4804  0.7335
 1179SOL     OW14995   3.261   0.457  12.427 -0.2092  0.0668  0.8351
 1179SOL    HW114996   3.351   0.489  12.420 -0.8796  1.5077 -1.1658
 1179SOL    HW214997   3.213   0.511  12.364 -0.3611 -0.1696  0.7489
 1180SOL     OW14998   0.861   2.158   1.714 -0.4242  0.2497 -0.5059
 1180SOL    HW114999   0.789   2.110   1.757  0.3771 -0.9855 -0.5502
 1180SOL    HW215000   0.850   2.129   1.623 -0.3895 -1.7954  0.1411
 1181SOL     OW15001   3.949   2.805   8.576  0.2873  0.1730  0.3569
 1181SOL    HW115002   3.914   2.787   8.489  0.6073  0.0355  0.2565
 1181SOL    HW215003   3.893   2.758   8.638 -0.5710  1.1301  0.2967
 1182SOL     OW15004   4.339   2.173  14.775 -0.7750 -0.0331  0.2597
 1182SOL    HW115005   4.392   2.102  14.811  0.7667  0.8278 -0.3163
 1182SOL    HW215006   4.270   2.165  14.842 -0.8360  3.0466  0.5742
 1183SOL     OW15007   2.525   1.206   3.872  0.2196 -0.1570 -0.5049
 1183SOL    HW115008   2.554   1.278   3.816 -2.2202  0.3847 -1.0528
 1183SOL    HW215009   2.542   1.231   3.963 -0.4394  0.2755 -0.5012
 1184SOL     OW15010   2.809   0.073   7.787  0.6903  0.5510 -0.3577
 1184SOL    HW115011   2.881   0.014   7.812 -1.4966 -1.6537  0.7834
 1184SOL    HW215012   2.802   0.059   7.693  2.8880 -2.8481 -0.0556
 1185SOL     OW15013   0.910   2.728   8.981 -0.5872  0.0486  0.6167
 1185SOL    HW115014   0.988   2.781   9.001 -1.4451  1.8910 -0.8561
 1185SOL    HW215015   0.853   2.787   8.932 -0.4670 -0.5881 -0.2929
 1186SOL     OW15016   2.330   3.446   5.080  0.5388  0.2171 -0.3915
 1186SOL    HW115017   2.325   3.379   5.148 -1.7682 -0.1660 -0.9439
 1186SOL    HW215018   2.239   3.471   5.069 -0.8639 -4.6866 -0.0889
 1187SOL     OW15019   4.513   4.577   6.921  1.1886 -0.4771  0.7537
 1187SOL    HW115020   4.527   4.631   6.999 -0.3918 -0.7254  1.2024
 1187SOL    HW215021   4.593   4.595   6.871  0.2598  1.5317 -0.0160
 1188SOL     OW15022   0.063   3.808   8.318 -0.1036 -0.3181  0.1878
 1188SOL    HW115023   0.158   3.805   8.303  0.1000 -0.8678  1.5633
 1188SOL    HW215024   0.050   3.886   8.372  0.9612 -0.0567  0.0763
 1189SOL     OW15025   4.659   1.541   0.669  0.1160  0.4393  0.1322
 1189SOL    HW115026   4.602   1.585   0.605 -0.4799  0.6816  0.8327
 1189SOL    HW215027   4.624   1.601   0.735 -0.7973  0.1010 -0.0474
 1190SOL     OW15028   1.658   4.235   3.930 -0.1783  0.2655 -0.0477
 1190SOL    HW115029   1.745   4.236   3.892  0.5555  0.8266  1.6714
 1190SOL    HW215030   1.681   4.282   4.010 -3.2646 -0.8383  1.4915
 1191SOL     OW15031   2.618   3.200   7.837 -0.3603  0.2827  0.5242
 1191SOL    HW115032   2.677   3.125   7.836 -0.9966 -0.2199  1.2924
 1191SOL    HW215033   2.559   3.174   7.908  0.9575 -1.6065  0.9318
 1192SOL     OW15034   0.771   2.228   5.476 -0.4464 -0.0373 -0.1491
 1192SOL    HW115035   0.755   2.253   5.385 -0.1239 -2.1793 -0.7867
 1192SOL    HW215036   0.863   2.254   5.487  0.0588 -0.7573 -2.6322
 1193SOL     OW15037   3.176   0.955   4.100  0.4475 -0.3678  0.0094
 1193SOL    HW115038   3.206   1.032   4.147 -3.5210  0.5490  0.9895
 1193SOL    HW215039   3.117   0.923   4.168  1.1548  1.1635  1.3390
 1194SOL     OW15040   0.364   2.523   5.568  0.2552  0.2188 -0.1782
 1194SOL    HW115041   0.351   2.483   5.654  1.1974 -2.1915 -1.1751
 1194SOL    HW215042   0.303   2.472   5.515 -0.7113  1.6765 -0.4973
 1195SOL     OW15043   0.176   2.947  10.899 -0.1014 -0.2686  0.2523
 1195SOL    HW115044   0.133   3.028  10.872  1.7440  1.0133  1.1692
 1195SOL    HW215045   0.179   2.966  10.993  2.0496  1.0823 -0.0682
 1196SOL     OW15046   2.264   1.948   4.655  0.6563 -0.1338  0.4319
 1196SOL    HW115047   2.270   2.041   4.676 -0.2868 -0.1501  0.7723
 1196SOL    HW215048   2.283   1.913   4.741  0.1882  2.8633  1.7497
 1197SOL     OW15049   1.825   3.603   8.834  0.1519  0.3618  0.3164
 1197SOL    HW115050   1.787   3.592   8.746 -0.3415 -0.8677  0.6894
 1197SOL    HW215051   1.779   3.534   8.881 -1.1718  1.1126  0.1192
 1198SOL     OW15052   1.391   4.152   5.176 -0.2824 -0.0466  0.1229
 1198SOL    HW115053   1.406   4.138   5.269 -1.3646 -1.4348  0.0806
 1198SOL    HW215054   1.479   4.156   5.137  0.9813  2.3658  3.1943
 1199SOL     OW15055   2.169   0.718   5.320 -0.5965  0.7047  0.7135
 1199SOL    HW115056   2.210   0.634   5.299 -0.2772  1.2173 -0.6892
 1199SOL    HW215057   2.139   0.745   5.233  1.7672  0.4663 -0.1519
 1200SOL     OW15058   1.624   4.301   1.727  0.9852  0.8178 -0.4698
 1200SOL    HW115059   1.647   4.394   1.723  1.8296  0.5899 -0.9172
 1200SOL    HW215060   1.679   4.261   1.660  2.4955  3.0747 -0.5722
 1201SOL     OW15061   0.664   1.958  14.534  0.2630 -0.1104  0.4914
 1201SOL    HW115062   0.726   1.900  14.577 -2.3314 -2.6517  0.7202
 1201SOL    HW215063   0.629   1.901  14.466  0.0662  0.6336 -0.0399
 1202SOL     OW15064   2.405   2.440  15.953 -0.2557 -0.1141  0.3651
 1202SOL    HW115065   2.473   2.482  15.901 -1.5355  1.2252 -0.2183
 1202SOL    HW215066   2.338   2.427  15.887 -0.3549  3.8475 -0.2772
 1203SOL     OW15067   3.948   0.688   2.941  0.1642  0.4557  0.5584
 1203SOL    HW115068   3.920   0.775   2.915 -1.2991  0.1276  1.0429
 1203SOL    HW215069   3.924   0.638   2.863  0.5813 -1.5096  1.6717
 1204SOL     OW15070   2.904   2.802   5.421 -0.0790  0.7599  0.0601
 1204SOL    HW115071   2.951   2.806   5.337  1.5727 -1.9255  0.8701
 1204SOL    HW215072   2.938   2.724   5.463  0.5745  1.3995  0.7095
 1205SOL     OW15073   2.306   3.932   7.931  0.0408  0.4417 -0.0125
 1205SOL    HW115074   2.373   3.929   7.863 -0.0419 -1.1256 -0.0168
 1205SOL    HW215075   2.290   4.026   7.935 -0.9480  0.3688 -2.3264
 1206SOL     OW15076   0.459   3.527   3.120 -0.0126 -0.0840 -0.4837
 1206SOL    HW115077   0.508   3.530   3.202  0.5631 -0.4629 -0.8211
 1206SOL    HW215078   0.383   3.582   3.143  1.3252  1.5994 -0.1077
 1207SOL     OW15079   1.678   2.205   1.034 -0.0036  0.8978 -0.0949
 1207SOL    HW115080   1.733   2.186   1.110  0.8834 -0.2142 -1.0112
 1207SOL    HW215081   1.590   2.190   1.067  0.6202 -0.8686  0.7614
 1208SOL     OW15082   3.155   4.668   7.285  0.0739 -0.0395  0.2374
 1208SOL    HW115083   3.101   0.017   7.312 -0.4553 -0.4823  0.4139
 1208SOL    HW215084   3.126   4.605   7.352 -1.5622  0.3414 -0.1017
 1209SOL     OW15085   4.429   1.612   1.036 -0.1452  0.3670  0.1078
 1209SOL    HW115086   4.463   1.700   1.022  0.8911 -0.0189  0.1380
 1209SOL    HW215087   4.515   1.568   1.037  0.4816  1.5816 -0.8045
 1210SOL     OW15088   1.762   1.255   9.765 -0.2132 -0.5456  0.0735
 1210SOL    HW115089   1.763   1.240   9.670 -2.3111  0.3657 -0.0844
 1210SOL    HW215090   1.764   1.350   9.777 -1.3490 -0.7606  1.9667
 1211SOL     OW15091   0.970   0.219   7.273  0.0539 -0.2242  0.2841
 1211SOL    HW115092   0.907   0.280   7.236  1.1617 -0.3144 -1.7553
 1211SOL    HW215093   0.947   0.137   7.229 -0.4487  0.2885 -0.3894
 1212SOL     OW15094   0.669   4.123   3.108 -0.1099 -0.4453 -0.2468
 1212SOL    HW115095   0.680   4.028   3.100  1.1099 -0.2387 -0.9361
 1212SOL    HW215096   0.749   4.157   3.067 -1.2915  0.6004 -1.6583
 1213SOL     OW15097   1.383   4.636   3.698 -0.1328 -0.1387 -0.1943
 1213SOL    HW115098   1.385   4.566   3.763 -0.5959 -1.1334 -1.2564
 1213SOL    HW215099   1.440   4.592   3.634 -0.3360  0.4224 -0.7613
 1214SOL     OW15100   0.725   0.957   8.954  0.2652 -0.6935 -0.3709
 1214SOL    HW115101   0.668   0.994   9.021  0.6446 -0.4316 -0.1976
 1214SOL    HW215102   0.675   0.882   8.920  0.1312 -0.1474 -1.3786
 1215SOL     OW15103   4.036   0.589   7.873 -0.2366 -0.0777  0.3260
 1215SOL    HW115104   3.955   0.545   7.900 -0.4658  0.2674  0.2027
 1215SOL    HW215105   4.088   0.593   7.953 -1.8261 -0.8200  1.3964
 1216SOL     OW15106   1.408   4.620   0.582 -0.2918 -0.4189  0.1329
 1216SOL    HW115107   1.371   4.657   0.662 -0.3579 -0.0354 -0.0752
 1216SOL    HW215108   1.460   4.554   0.627  1.9488 -0.3177 -2.2976
 1217SOL     OW15109   1.458   4.101  10.885 -0.5873  0.0551 -0.6382
 1217SOL    HW115110   1.449   4.122  10.978 -2.6909 -0.5792 -0.7149
 1217SOL    HW215111   1.553   4.113  10.874 -0.5452 -0.9419 -1.3949
 1218SOL     OW15112   1.634   1.380   2.976 -0.3752 -0.0108 -0.0430
 1218SOL    HW115113   1.613   1.446   2.910 -1.0870 -0.7342 -0.5488
 1218SOL    HW215114   1.666   1.437   3.046 -0.1087  0.1344 -0.2862
 1219SOL     OW15115   1.564   0.258   6.308 -0.9549 -0.0239 -0.5727
 1219SOL    HW115116   1.652   0.292   6.297 -1.1536  0.4055 -0.8153
 1219SOL    HW215117   1.538   0.244   6.217 -1.1293 -1.4573 -0.3119
 1220SOL     OW15118   0.388   0.668  14.929 -0.0103  0.7416 -0.4411
 1220SOL    HW115119   0.329   0.604  14.968 -0.5462  0.8511 -1.0786
 1220SOL    HW215120   0.407   0.617  14.851 -1.1038 -0.7906  0.3145
 1221SOL     OW15121   1.344   0.264   2.317 -0.1861  0.9684 -0.3938
 1221SOL    HW115122   1.323   0.235   2.406  0.5045  2.6437  0.3151
 1221SOL    HW215123   1.344   0.359   2.335 -0.7638  0.5281  2.0184
 1222SOL     OW15124   1.076   3.674   4.117  0.0545  0.2444  0.4116
 1222SOL    HW115125   1.145   3.609   4.128 -0.9190 -1.4016 -3.2005
 1222SOL    HW215126   1.097   3.753   4.166 -0.4674  1.8476 -1.9127
 1223SOL     OW15127   3.593   3.473   2.136 -0.3544  0.1376 -0.1508
 1223SOL    HW115128   3.578   3.546   2.075 -1.3870 -1.0218 -1.2759
 1223SOL    HW215129   3.502   3.458   2.162 -0.2780 -1.3756 -0.7647
 1224SOL     OW15130   2.674   3.097  14.720  0.2187  0.0452 -0.4628
 1224SOL    HW115131   2.710   3.027  14.774  0.9412  1.6102  1.0799
 1224SOL    HW215132   2.634   3.042  14.653 -1.3948  0.0087  0.5193
 1225SOL     OW15133   0.952   0.181   2.172 -0.0853 -0.6532  0.4009
 1225SOL    HW115134   0.982   0.106   2.224 -0.1146  0.8775  2.6536
 1225SOL    HW215135   0.931   0.240   2.245 -3.5003 -1.5020  0.0983
 1226SOL     OW15136   1.698   2.852   1.727  0.0535  0.2432  0.3080
 1226SOL    HW115137   1.765   2.897   1.778  1.4264  0.6114 -1.8172
 1226SOL    HW215138   1.637   2.822   1.794 -0.2000 -3.1001 -1.3936
 1227SOL     OW15139   2.792   0.005  15.781 -0.0968  0.3339 -0.1624
 1227SOL    HW115140   2.796   4.692  15.693 -0.1680 -0.7011  0.2930
 1227SOL    HW215141   2.818   4.653  15.830  0.9782  1.6817  1.3979
 1228SOL     OW15142   1.051   1.513   6.560 -0.3217 -0.3870  0.2992
 1228SOL    HW115143   1.035   1.533   6.468  2.0819 -2.0756 -0.4802
 1228SOL    HW215144   1.134   1.465   6.553 -1.3497 -1.9844 -1.0555
 1229SOL     OW15145   1.923   3.196   5.147  0.1750  0.0673  0.6946
 1229SOL    HW115146   1.896   3.105   5.163 -0.2199  0.2085  0.8446
 1229SOL    HW215147   2.017   3.183   5.140 -0.0463 -1.2521  0.0847
 1230SOL     OW15148   1.913   0.142   5.526  0.1603  0.3471  0.2217
 1230SOL    HW115149   1.837   0.173   5.575 -1.3110  1.3049 -2.6700
 1230SOL    HW215150   1.865   0.103   5.453 -1.1687 -0.8502  1.7481
 1231SOL     OW15151   2.742   4.225   6.362  0.2242 -0.1024  0.0488
 1231SOL    HW115152   2.648   4.212   6.353  0.5384 -0.0623 -3.2768
 1231SOL    HW215153   2.769   4.138   6.390  0.3685  0.2328  0.9825
 1232SOL     OW15154   3.899   3.697   4.434  0.3967 -0.0603  0.6206
 1232SOL    HW115155   3.954   3.619   4.444  0.8083  0.1857  0.2823
 1232SOL    HW215156   3.855   3.680   4.351 -0.1597  0.9333  0.7113
 1233SOL     OW15157   0.633   3.001   8.344  0.1238 -0.2848  0.4016
 1233SOL    HW115158   0.644   2.912   8.377 -2.6417 -0.7831 -0.0003
 1233SOL    HW215159   0.686   2.990   8.265 -0.8441 -0.7935 -0.1786
 1234SOL     OW15160   0.036   2.017   4.577  0.2435  0.1711 -0.2556
 1234SOL    HW115161   4.691   1.958   4.552 -0.0446 -0.0399  1.0683
 1234SOL    HW215162   0.107   1.968   4.535 -0.1458  0.6374 -1.4780
 1235SOL     OW15163   0.285   0.036   0.401  0.6212  0.0480 -0.2428
 1235SOL    HW115164   0.301   0.106   0.339 -2.0723  0.9063  0.0208
 1235SOL    HW215165   0.219   0.080   0.455 -0.4857 -2.8345  0.7646
 1236SOL     OW15166   1.658   3.117  16.247  0.1989 -0.3609 -0.0185
 1236SOL    HW115167   1.709   3.197  16.262  0.4480 -0.7423  1.1973
 1236SOL    HW215168   1.576   3.147  16.286  0.7709 -0.0715  0.9800
 1237SOL     OW15169   0.137   2.077  14.348 -0.4903  0.5237 -0.2596
 1237SOL    HW115170   0.072   2.013  14.320  0.0184  0.5459 -1.4949
 1237SOL    HW215171   0.132   2.148  14.284  1.5945  1.7377  0.9255
 1238SOL     OW15172   4.243   3.934   3.700 -0.3610 -0.3563  0.0986
 1238SOL    HW115173   4.266   3.882   3.623 -2.5086 -0.6210 -0.3408
 1238SOL    HW215174   4.150   3.915   3.705  0.0067 -1.4983  3.0048
 1239SOL     OW15175   2.683   1.325   8.877 -0.3098 -0.3300 -0.0981
 1239SOL    HW115176   2.762   1.301   8.925 -1.9419 -2.0252  1.7525
 1239SOL    HW215177   2.710   1.381   8.805 -0.1804  1.2998  1.2155
 1240SOL     OW15178   0.460   2.965  11.571  0.6778 -0.0325 -0.0727
 1240SOL    HW115179   0.471   3.021  11.647  2.5182  1.4779 -1.4524
 1240SOL    HW215180   0.367   2.981  11.553  0.5155  0.3728  1.1679
 1241SOL     OW15181   0.191   4.498  17.444  0.3069 -0.1682  0.2950
 1241SOL    HW115182   0.208   4.491  17.350  1.8841  1.1516  0.4857
 1241SOL    HW215183   0.280   4.489  17.478  0.4266 -2.2183 -0.5780
 1242SOL     OW15184   2.034   0.116  15.266 -0.0817  0.2842 -0.2988
 1242SOL    HW115185   2.016   0.181  15.199  0.3595  1.0732  0.3559
 1242SOL    HW215186   2.044   0.042  15.207  0.1400  0.9235 -1.0570
 1243SOL     OW15187   4.714   1.858   3.030 -0.1577  0.1607  0.0985
 1243SOL    HW115188   4.645   1.903   3.079 -1.6486 -2.3838  0.3513
 1243SOL    HW215189   0.046   1.932   3.050  1.4236 -0.8172 -0.8579
 1244SOL     OW15190   3.403   0.043   2.518  0.0571  0.6134  0.4418
 1244SOL    HW115191   3.417   0.022   2.426 -1.8437  0.0218  0.2986
 1244SOL    HW215192   3.485   4.725   2.541 -1.6268 -2.1523  1.1726
 1245SOL     OW15193   2.527   1.932   2.174  0.1997 -0.1383 -0.6745
 1245SOL    HW115194   2.582   1.854   2.182  0.3988  0.3534  2.9953
 1245SOL    HW215195   2.469   1.904   2.104  1.6629 -0.9425 -1.5714
 1246SOL     OW15196   2.033   4.457   8.361 -0.3268 -0.1435 -0.0175
 1246SOL    HW115197   1.957   4.508   8.390  0.3813 -0.3016  2.1764
 1246SOL    HW215198   2.095   4.485   8.429 -0.5458  1.2955 -0.4082
 1247SOL     OW15199   1.994   2.176   3.157 -0.3227  0.3500 -0.0396
 1247SOL    HW115200   2.023   2.123   3.083  1.4643  2.2110 -0.6828
 1247SOL    HW215201   1.922   2.119   3.183 -0.1168  0.4938  0.8621
 1248SOL     OW15202   1.786   1.630  11.782  0.1714  0.1782  0.6361
 1248SOL    HW115203   1.727   1.614  11.855 -0.4707  1.2738  0.3572
 1248SOL    HW215204   1.723   1.642  11.711  2.1544  2.1050 -0.8176
 1249SOL     OW15205   1.615   3.047   2.351  0.1006  0.0099 -0.4324
 1249SOL    HW115206   1.567   3.128   2.333  0.1049  1.0236  4.3193
 1249SOL    HW215207   1.583   2.989   2.281  0.8064 -3.0366  1.7939
 1250SOL     OW15208   0.939   0.263   4.385  0.6157 -0.5081  0.1515
 1250SOL    HW115209   0.970   0.343   4.343  2.1289 -2.1200 -1.8029
 1250SOL    HW215210   1.027   0.225   4.393  0.9978  0.0995 -1.2333
 1251SOL     OW15211   4.684   2.467  12.212  0.2427  0.1034  0.5494
 1251SOL    HW115212   4.618   2.475  12.281  0.7377 -0.6819  1.1184
 1251SOL    HW215213   4.626   2.507  12.147  1.5879  0.2827 -0.5248
 1252SOL     OW15214   4.264   2.642   4.690  0.4595 -0.3979  0.1065
 1252SOL    HW115215   4.211   2.711   4.651 -0.7030 -2.4013 -1.8213
 1252SOL    HW215216   4.315   2.604   4.619  2.4135 -0.3586  1.4729
 1253SOL     OW15217   1.306   3.669   3.150 -0.4078  0.0677  0.0004
 1253SOL    HW115218   1.375   3.722   3.191  0.4643 -2.1936  1.4735
 1253SOL    HW215219   1.321   3.676   3.056  0.9214 -2.0949  0.0455
 1254SOL     OW15220   3.049   4.686   2.788  0.3665  0.0391 -0.1633
 1254SOL    HW115221   3.016   4.597   2.786 -0.5482  0.3654  0.5448
 1254SOL    HW215222   3.003   0.005   2.717 -0.6248 -1.0228 -0.1964
 1255SOL     OW15223   0.589   2.829   3.669 -0.0865 -0.4622 -0.3114
 1255SOL    HW115224   0.595   2.925   3.662 -0.8013 -0.2870  1.5427
 1255SOL    HW215225   0.499   2.815   3.639 -0.1221  0.6962 -0.7404
 1256SOL     OW15226   0.372   0.790   0.747 -0.4425  0.0995 -0.8085
 1256SOL    HW115227   0.348   0.704   0.713  1.1067  0.2896 -2.3381
 1256SOL    HW215228   0.429   0.829   0.681  1.2817 -0.7032  0.1936
 1257SOL     OW15229   2.836   0.907  16.339  0.3153  0.0601 -0.2360
 1257SOL    HW115230   2.742   0.925  16.344  0.5664  1.2185  0.5149
 1257SOL    HW215231   2.863   0.998  16.322  1.5275  0.0691  1.6600
 1258SOL     OW15232   0.590   1.685  11.161  0.4058  0.0185 -0.1060
 1258SOL    HW115233   0.506   1.724  11.185  0.2026 -0.5925  0.1695
 1258SOL    HW215234   0.641   1.766  11.161  1.2734 -0.5236 -1.1280
 1259SOL     OW15235   2.555   1.890   4.555  0.3618  0.1453 -0.4467
 1259SOL    HW115236   2.549   1.841   4.637 -0.3661 -1.0151 -1.2097
 1259SOL    HW215237   2.477   1.946   4.562  0.1987 -0.1109 -0.2150
 1260SOL     OW15238   2.028   4.499  13.437  0.1730 -0.4548  0.1606
 1260SOL    HW115239   1.944   4.539  13.459  0.1904 -0.5037  0.3155
 1260SOL    HW215240   2.003   4.421  13.386 -0.0377  0.5014 -1.1913
 1261SOL     OW15241   0.573   1.735   1.768  0.0310 -0.2385  0.0983
 1261SOL    HW115242   0.509   1.753   1.838 -1.9598  0.1656 -1.8179
 1261SOL    HW215243   0.533   1.679   1.702 -0.5583  1.9283 -1.3948
 1262SOL     OW15244   2.714   3.321   7.142  0.3016  0.4794  0.0291
 1262SOL    HW115245   2.707   3.228   7.122 -2.1546  0.6428  0.1061
 1262SOL    HW215246   2.647   3.325   7.210  2.7241 -1.3095  2.5160
 1263SOL     OW15247   2.717   4.499   0.793  0.3969  0.2465  0.5437
 1263SOL    HW115248   2.705   4.590   0.765  1.6224  0.0166 -0.7711
 1263SOL    HW215249   2.628   4.464   0.793 -0.4968  2.5316  2.3072
 1264SOL     OW15250   4.670   3.313   3.661 -0.2540 -0.0208 -0.2103
 1264SOL    HW115251   4.623   3.234   3.636 -1.4957  1.8340 -3.6787
 1264SOL    HW215252   0.034   3.284   3.651  0.0620  0.2493  1.7945
 1265SOL     OW15253   3.687   1.759   3.816 -0.0681 -0.4248 -0.2841
 1265SOL    HW115254   3.764   1.780   3.764 -0.7906  3.3873  0.1593
 1265SOL    HW215255   3.639   1.698   3.760 -0.3254 -1.5997  1.2430
 1266SOL     OW15256   0.661   0.376   1.504 -0.2902 -0.4815 -0.6435
 1266SOL    HW115257   0.687   0.284   1.505  0.3582 -0.2853  0.8826
 1266SOL    HW215258   0.571   0.371   1.470 -0.2532  4.3487 -1.3899
 1267SOL     OW15259   1.019   2.958   4.763 -0.3989 -0.4405  0.0352
 1267SOL    HW115260   1.090   2.894   4.758 -0.5018 -0.4612 -1.1260
 1267SOL    HW215261   1.004   2.958   4.668 -0.4916  0.3241  0.0541
 1268SOL     OW15262   3.500   2.518   4.686  0.3081  0.3603  0.0513
 1268SOL    HW115263   3.515   2.499   4.779  1.5243  0.7573 -0.0659
 1268SOL    HW215264   3.502   2.431   4.648 -2.8187  0.5013 -0.4394
 1269SOL     OW15265   0.363   0.369   0.936 -0.2473  0.1132  0.1050
 1269SOL    HW115266   0.332   0.440   0.880 -0.0149 -0.6923 -1.0519
 1269SOL    HW215267   0.342   0.284   0.898  0.9285  0.8788 -2.3193
 1270SOL     OW15268   1.443   3.422   2.912 -0.3611 -0.7039  0.0485
 1270SOL    HW115269   1.522   3.449   2.865  0.1265 -0.6525  0.9047
 1270SOL    HW215270   1.383   3.483   2.869 -0.4882  1.3810  3.1710
 1271SOL     OW15271   2.000   3.108   8.161 -0.0260  0.3043 -0.1371
 1271SOL    HW115272   2.038   3.191   8.131 -0.7591  0.4431 -0.7095
 1271SOL    HW215273   1.960   3.140   8.241  1.5675 -0.9256  1.1369
 1272SOL     OW15274   1.447   3.435  10.418  0.1311 -0.3091 -0.2048
 1272SOL    HW115275   1.445   3.352  10.370  3.0569  0.3609 -1.4698
 1272SOL    HW215276   1.474   3.502  10.355  2.8572  1.1156  2.4902
 1273SOL     OW15277   2.364   4.388   8.875 -0.3013 -0.1171  0.6321
 1273SOL    HW115278   2.409   4.463   8.914 -0.2384 -0.9066  2.1145
 1273SOL    HW215279   2.394   4.388   8.785 -0.1662 -1.8496  0.6838
 1274SOL     OW15280   0.044   1.404  10.209  0.1534 -0.1135 -0.0006
 1274SOL    HW115281   0.052   1.310  10.226 -2.3105 -0.2185  0.6225
 1274SOL    HW215282   4.677   1.420  10.192  0.0327 -0.3469  0.4165
 1275SOL     OW15283   3.126   2.026   2.164 -0.4326  0.0672  0.1867
 1275SOL    HW115284   3.198   2.072   2.208 -0.3998 -0.2289  0.4423
 1275SOL    HW215285   3.075   2.101   2.134 -2.6025 -0.0870  3.4241
 1276SOL     OW15286   4.243   0.451   1.577  0.6146 -0.3624  0.4728
 1276SOL    HW115287   4.255   0.465   1.483 -0.7514  0.8309  0.4761
 1276SOL    HW215288   4.280   0.527   1.622  0.2397 -0.1161  0.3595
 1277SOL     OW15289   4.575   3.909   3.660 -0.6902 -0.4521 -0.3529
 1277SOL    HW115290   4.506   3.878   3.601 -1.0447 -2.2799  1.0279
 1277SOL    HW215291   4.599   3.995   3.626  0.4710 -1.2352 -1.4933
 1278SOL     OW15292   0.849   1.384   2.997  0.4985  0.5241 -0.1118
 1278SOL    HW115293   0.771   1.428   3.032 -0.3118 -0.4435 -0.7082
 1278SOL    HW215294   0.913   1.394   3.067  0.6414 -0.6857 -0.0650
 1279SOL     OW15295   2.258   3.861   7.657 -0.0693 -0.1554  0.0174
 1279SOL    HW115296   2.219   3.947   7.641  1.5660  0.6863  0.5299
 1279SOL    HW215297   2.271   3.822   7.570  0.8265  0.5238 -0.1602
 1280SOL     OW15298   0.993   2.613   4.987 -0.1298  0.2572  0.6076
 1280SOL    HW115299   1.005   2.699   5.026 -0.8997  0.6626 -0.0472
 1280SOL    HW215300   1.010   2.634   4.895 -1.8472 -0.2336  0.1717
 1281SOL     OW15301   0.327   2.715   3.571  0.2885  0.4557 -0.0073
 1281SOL    HW115302   0.261   2.781   3.587 -0.4590 -0.4588  0.6584
 1281SOL    HW215303   0.339   2.722   3.476 -2.7637 -0.1037 -0.4305
 1282SOL     OW15304   0.428   0.535   5.929  0.3834 -0.1424  0.2023
 1282SOL    HW115305   0.481   0.599   5.976  0.5032 -0.3672  0.3760
 1282SOL    HW215306   0.486   0.459   5.928  0.7678  0.1928 -2.1010
 1283SOL     OW15307   2.421   1.021   7.204  0.4798  0.3897 -0.6085
 1283SOL    HW115308   2.509   1.059   7.205  0.3683  0.6848 -2.5314
 1283SOL    HW215309   2.422   0.992   7.296 -1.3578  0.6470 -0.5207
 1284SOL     OW15310   3.701   3.755  13.864  0.3738  0.2621 -0.0186
 1284SOL    HW115311   3.757   3.760  13.786 -0.1837 -0.5236 -0.4799
 1284SOL    HW215312   3.640   3.696  13.819 -0.5516  1.1303  0.1027
 1285SOL     OW15313   0.829   3.534   6.208  0.0755  0.3707 -0.4150
 1285SOL    HW115314   0.844   3.616   6.162  1.1862  1.3365  1.6857
 1285SOL    HW215315   0.881   3.546   6.288  0.7842  1.5898 -1.0500
 1286SOL     OW15316   3.396   1.930   0.281 -0.6968 -0.0159  0.0714
 1286SOL    HW115317   3.460   2.001   0.286  1.1597 -1.4683 -2.8709
 1286SOL    HW215318   3.400   1.902   0.372  0.2463 -1.1802 -0.3214
 1287SOL     OW15319   0.740   3.222   2.247 -0.4343 -0.2480  0.2906
 1287SOL    HW115320   0.780   3.149   2.200 -3.3827 -2.0875  0.6192
 1287SOL    HW215321   0.691   3.171   2.312  1.4210 -1.0820  1.0087
 1288SOL     OW15322   0.578   1.936   4.437  0.2641 -0.1555  0.7774
 1288SOL    HW115323   0.613   2.025   4.442  0.1172 -0.1142  1.1128
 1288SOL    HW215324   0.529   1.934   4.355  0.1630  0.0393  0.8322
 1289SOL     OW15325   2.310   0.780  11.369  0.1799  0.3252  0.3040
 1289SOL    HW115326   2.333   0.697  11.327 -0.5785 -1.5632  3.5883
 1289SOL    HW215327   2.380   0.840  11.344 -0.1699 -0.1261 -1.7584
 1290SOL     OW15328   2.017   3.678   6.592 -0.3532 -0.4987 -0.1931
 1290SOL    HW115329   2.039   3.727   6.671 -2.5786  0.0335  0.0953
 1290SOL    HW215330   2.095   3.694   6.538  0.7983 -1.9554  1.0463
 1291SOL     OW15331   3.060   3.660   7.771 -0.4392 -0.1044  0.3090
 1291SOL    HW115332   3.020   3.618   7.847  0.3565 -0.4803  0.5152
 1291SOL    HW215333   3.109   3.590   7.727  0.2221  1.9896 -2.3297
 1292SOL     OW15334   0.066   3.857  17.071 -0.0375  0.8370  0.1420
 1292SOL    HW115335   0.007   3.905  17.129 -0.8268  1.2989 -1.0407
 1292SOL    HW215336   0.102   3.798  17.137  0.0174 -0.2741 -0.8753
 1293SOL     OW15337   0.158   4.360   2.155 -0.2056 -0.4192 -0.2938
 1293SOL    HW115338   0.216   4.360   2.230 -0.4765  3.9238 -0.0682
 1293SOL    HW215339   0.120   4.448   2.157 -1.0979 -0.7870 -0.9764
 1294SOL     OW15340   4.663   2.772   7.069  0.2268  0.1666  0.1374
 1294SOL    HW115341   4.655   2.862   7.101  0.2330  0.1804  0.1000
 1294SOL    HW215342   4.681   2.780   6.976  2.8920 -0.8101  0.5534
 1295SOL     OW15343   3.332   1.339   6.346 -0.2138  0.1270 -0.3288
 1295SOL    HW115344   3.272   1.373   6.412 -0.3616 -1.7298  0.4803
 1295SOL    HW215345   3.287   1.255   6.336  1.8962 -1.1325  0.9351
 1296SOL     OW15346   4.206   0.406   6.528  0.2043 -0.4948  0.0290
 1296SOL    HW115347   4.183   0.320   6.494  2.3588 -0.7254 -0.8817
 1296SOL    HW215348   4.210   0.391   6.623  1.6715 -3.0775 -0.4321
 1297SOL     OW15349   2.633   4.326   4.441  0.2699 -0.2568  0.0601
 1297SOL    HW115350   2.550   4.345   4.485 -0.7174 -0.4989 -1.6757
 1297SOL    HW215351   2.695   4.317   4.513  1.2037  1.0144 -0.5880
 1298SOL     OW15352   3.115   4.336   6.164 -0.0354 -0.6532 -0.2561
 1298SOL    HW115353   3.164   4.254   6.168 -0.4585 -1.0353 -3.2863
 1298SOL    HW215354   3.130   4.361   6.255 -1.3897  1.1443 -0.5172
 1299SOL     OW15355   3.474   0.094   6.329 -0.2172 -0.0036  0.3593
 1299SOL    HW115356   3.411   0.142   6.275 -0.8009 -0.0676  0.9792
 1299SOL    HW215357   3.417   0.049   6.392  0.8355 -1.2746  0.3974
 1300SOL     OW15358   3.422   3.143   4.844 -0.6735 -0.2544 -0.0687
 1300SOL    HW115359   3.427   3.060   4.891 -0.3311 -0.4483 -0.4481
 1300SOL    HW215360   3.332   3.136   4.814 -0.2228 -1.3558 -1.1711
 1301SOL     OW15361   0.255   2.781   5.502 -0.1362  0.2570 -0.3394
 1301SOL    HW115362   0.284   2.691   5.514 -0.5384  0.1395 -0.2534
 1301SOL    HW215363   0.161   2.771   5.512 -0.6403  2.5150 -3.0063
 1302SOL     OW15364   3.705   4.223   6.831  0.0813  0.2449 -0.8045
 1302SOL    HW115365   3.761   4.295   6.858 -2.5715  2.2368 -0.6266
 1302SOL    HW215366   3.621   4.269   6.825 -0.9877 -1.7196 -0.8461
 1303SOL     OW15367   2.710   0.470  17.402 -0.1966  0.7444 -0.2648
 1303SOL    HW115368   2.683   0.407  17.468  0.0436 -0.9899 -1.8039
 1303SOL    HW215369   2.689   0.559  17.431  0.7668  0.6836  0.6162
 1304SOL     OW15370   0.071   1.717  15.214 -0.6938 -0.3998  1.0108
 1304SOL    HW115371   0.071   1.645  15.152 -0.0984 -1.2743  2.0314
 1304SOL    HW215372   0.058   1.793  15.157 -1.3318 -0.7411  0.7004
 1305SOL     OW15373   4.642   2.160   7.532  0.2276 -0.4567  0.5818
 1305SOL    HW115374   0.003   2.153   7.571  0.5221  0.2954  0.0585
 1305SOL    HW215375   4.634   2.066   7.517  1.7802 -0.7819  1.8654
 1306SOL     OW15376   0.320   1.325   4.617  0.5962  0.1282 -0.5328
 1306SOL    HW115377   0.347   1.233   4.613  2.5434  0.6328  1.8107
 1306SOL    HW215378   0.229   1.310   4.642  0.6482 -0.3667 -0.6422
 1307SOL     OW15379   2.595   1.876   3.183  0.2694  0.3538 -0.1834
 1307SOL    HW115380   2.581   1.966   3.153  0.0511 -0.0092 -1.1989
 1307SOL    HW215381   2.571   1.834   3.100 -1.4654  0.5427  0.2083
 1308SOL     OW15382   4.559   1.616  11.281  0.0837  0.5578 -0.3800
 1308SOL    HW115383   4.467   1.622  11.256  0.0046  0.0872 -0.2171
 1308SOL    HW215384   4.561   1.582  11.371 -1.7788 -0.9506 -0.9080
 1309SOL     OW15385   1.800   0.363   6.218 -0.2823 -0.4652 -0.5718
 1309SOL    HW115386   1.886   0.334   6.188 -0.3873 -2.2909  0.9077
 1309SOL    HW215387   1.789   0.432   6.151  1.8743 -0.2981 -0.7409
 1310SOL     OW15388   0.615   4.049  15.631  0.5322 -0.1360 -0.1316
 1310SOL    HW115389   0.669   4.019  15.559  1.5459 -1.2442  1.0905
 1310SOL    HW215390   0.614   4.144  15.616 -3.7787 -0.4284 -1.6628
 1311SOL     OW15391   0.831   3.437   9.284 -0.1335 -0.3497  0.0176
 1311SOL    HW115392   0.872   3.487   9.215  1.7776 -0.2067  1.2712
 1311SOL    HW215393   0.771   3.504   9.316  1.0320  1.3083 -1.3162
 1312SOL     OW15394   0.065   0.710   8.054 -0.5419 -0.1864  0.4580
 1312SOL    HW115395   0.089   0.666   8.135 -1.4200 -1.4386  0.0278
 1312SOL    HW215396   4.713   0.660   8.029 -1.1929  1.0848 -0.0915
 1313SOL     OW15397   4.454   1.130   1.052 -0.2318  0.0913  0.1428
 1313SOL    HW115398   4.476   1.107   1.143  0.2583 -1.5421 -0.3814
 1313SOL    HW215399   4.524   1.190   1.029 -0.7821  0.3778 -0.7638
 1314SOL     OW15400   4.422   1.252   6.729 -0.0962  0.1315  0.1940
 1314SOL    HW115401   4.406   1.209   6.813  0.2914  1.8467  1.1391
 1314SOL    HW215402   4.369   1.200   6.668 -1.8764  2.0331  0.1053
 1315SOL     OW15403   3.449   4.480   2.834  0.2374 -0.0059 -0.5446
 1315SOL    HW115404   3.487   4.468   2.747  1.3422 -1.3097  0.1259
 1315SOL    HW215405   3.492   4.414   2.888  1.3812 -0.1483 -1.6183
 1316SOL     OW15406   4.384   1.084   6.916 -0.0788 -0.2836  0.3181
 1316SOL    HW115407   4.317   1.018   6.899 -1.4532  0.9053  1.1240
 1316SOL    HW215408   4.454   1.025   6.943  0.7350  0.3883 -0.2852
 1317SOL     OW15409   2.651   4.155  12.076  0.0579 -0.0718  0.0138
 1317SOL    HW115410   2.561   4.142  12.107 -0.5790 -0.8015 -2.2003
 1317SOL    HW215411   2.632   4.200  11.994 -0.0920  0.3398  0.2760
 1318SOL     OW15412   4.616   2.398   6.713 -0.3483  0.4778 -0.4477
 1318SOL    HW115413   4.549   2.379   6.779 -0.7053 -0.2777 -1.0359
 1318SOL    HW215414   4.672   2.321   6.719  0.2396  1.0102  0.9587
 1319SOL     OW15415   0.375   0.425   9.446  0.1215  0.0424  0.2866
 1319SOL    HW115416   0.443   0.388   9.502 -1.2873 -1.8745  0.7265
 1319SOL    HW215417   0.352   0.349   9.393 -0.7372 -0.6277  1.6308
 1320SOL     OW15418   1.542   4.548  13.509 -0.2594  0.4208 -0.4682
 1320SOL    HW115419   1.471   4.588  13.460 -1.1209 -0.2886  0.1956
 1320SOL    HW215420   1.537   4.456  13.486  2.1705 -0.9871  4.5083
 1321SOL     OW15421   1.287   1.750   8.183  0.1554 -0.0370 -0.0270
 1321SOL    HW115422   1.364   1.714   8.139 -1.5837 -1.3235 -2.0395
 1321SOL    HW215423   1.325   1.798   8.256 -0.3678  1.3897 -0.6841
 1322SOL     OW15424   4.068   3.488  10.279 -0.0190  0.6964 -0.3617
 1322SOL    HW115425   4.057   3.423  10.348  0.7861 -0.6499 -1.5121
 1322SOL    HW215426   4.163   3.503  10.278 -0.0189  0.6785 -1.2267
 1323SOL     OW15427   3.482   1.844   8.943  0.2009 -0.8216 -0.6270
 1323SOL    HW115428   3.524   1.759   8.952  3.9484  0.9614 -1.1732
 1323SOL    HW215429   3.392   1.814   8.932 -0.0071 -0.3739 -0.2024
 1324SOL     OW15430   3.516   2.312  15.911 -0.1703 -0.5081  0.2815
 1324SOL    HW115431   3.611   2.313  15.920 -0.0279 -0.0482 -1.2448
 1324SOL    HW215432   3.494   2.381  15.849  0.8092 -0.5244 -0.0816
 1325SOL     OW15433   2.331   4.327   3.523 -0.3074 -0.0670  0.3500
 1325SOL    HW115434   2.366   4.296   3.440  2.5995  1.7322  0.8975
 1325SOL    HW215435   2.267   4.398   3.509 -0.3895  0.3243  2.7184
 1326SOL     OW15436   3.281   2.071  14.812 -0.1137  0.0939  0.1972
 1326SOL    HW115437   3.207   2.108  14.861  0.2076  0.4074  0.4390
 1326SOL    HW215438   3.244   2.069  14.724 -0.9538  1.2282  0.5125
 1327SOL     OW15439   4.102   1.505  17.244 -0.1009 -0.4013  0.4791
 1327SOL    HW115440   4.090   1.518  17.338  1.8413  0.8672  0.5378
 1327SOL    HW215441   4.052   1.578  17.207 -0.1421 -0.9476 -0.5255
 1328SOL     OW15442   3.870   4.301   6.619  0.0079  0.1782  0.1054
 1328SOL    HW115443   3.865   4.257   6.704 -1.8125  3.5754  1.7499
 1328SOL    HW215444   3.781   4.281   6.590  0.1120  4.0448 -2.7485
 1329SOL     OW15445   1.492   3.096   4.856  0.1879  0.0421 -0.0303
 1329SOL    HW115446   1.506   3.074   4.763  0.7212 -2.6747  0.7090
 1329SOL    HW215447   1.532   3.183   4.856  0.8853 -0.2791 -0.1620
 1330SOL     OW15448   1.831   1.844   8.872 -0.3557  0.4195 -0.5304
 1330SOL    HW115449   1.736   1.836   8.864 -0.2601  0.3174 -1.7015
 1330SOL    HW215450   1.863   1.754   8.861  0.3179  0.4186  1.6124
 1331SOL     OW15451   1.661   0.885   0.974  0.2767  0.3918  0.3821
 1331SOL    HW115452   1.657   0.792   0.955  2.0940  0.5504 -0.7535
 1331SOL    HW215453   1.657   0.927   0.888  3.0588  0.4577  0.2951
 1332SOL     OW15454   0.962   4.258  14.855  0.5286 -0.2897  0.0545
 1332SOL    HW115455   1.019   4.309  14.912 -0.4541  1.6114 -0.6833
 1332SOL    HW215456   1.025   4.230  14.789  0.7214 -0.5310  0.3408
 1333SOL     OW15457   0.217   3.101  16.961 -0.1016  0.4904 -0.4912
 1333SOL    HW115458   0.220   3.016  17.006 -1.1223 -0.3565 -1.9946
 1333SOL    HW215459   0.126   3.128  16.970 -0.2844  0.3957 -2.0250
 1334SOL     OW15460   2.346   1.717   6.197 -0.9942 -0.8276 -0.3414
 1334SOL    HW115461   2.274   1.766   6.237  0.6208 -0.5584  2.2473
 1334SOL    HW215462   2.326   1.732   6.105 -0.7272 -2.0021 -0.5874
 1335SOL     OW15463   3.591   1.091   3.749 -0.1788  0.7462  0.3719
 1335SOL    HW115464   3.555   1.127   3.830 -1.2417 -0.5110  0.4515
 1335SOL    HW215465   3.560   1.152   3.682 -0.5222  1.2484  0.9858
 1336SOL     OW15466   0.382   4.637   3.446  0.0897  0.3632 -0.4993
 1336SOL    HW115467   0.342   4.637   3.533 -1.4581  0.8273 -1.2073
 1336SOL    HW215468   0.437   4.560   3.460 -0.7838  0.1649  1.6964
 1337SOL     OW15469   2.560   3.668   5.478 -0.1234 -0.1292  0.3491
 1337SOL    HW115470   2.647   3.657   5.515 -0.5610  0.2938  1.5074
 1337SOL    HW215471   2.574   3.748   5.428  0.2097 -0.1189  0.4601
 1338SOL     OW15472   0.352   1.119  14.732  0.0360 -0.2364 -0.0456
 1338SOL    HW115473   0.345   1.044  14.673 -1.0853 -0.1268 -0.0405
 1338SOL    HW215474   0.346   1.062  14.809  0.5833  0.8233  0.7711
 1339SOL     OW15475   0.758   1.546   6.086 -0.4367  0.0323 -0.0974
 1339SOL    HW115476   0.705   1.614   6.130  0.3796  0.0175  0.9205
 1339SOL    HW215477   0.723   1.470   6.132 -0.6574  0.5844  0.6727
 1340SOL     OW15478   2.790   0.775  15.808 -0.8605 -0.3087 -1.0060
 1340SOL    HW115479   2.820   0.831  15.737  1.8469 -0.7079 -0.1861
 1340SOL    HW215480   2.695   0.779  15.803 -0.8323 -0.8890 -1.9915
 1341SOL     OW15481   3.733   3.111  16.180 -0.0915  0.2391  0.0860
 1341SOL    HW115482   3.689   3.087  16.261  1.4828  1.0218  1.1630
 1341SOL    HW215483   3.762   3.201  16.191  2.5300 -0.8045  1.5230
 1342SOL     OW15484   1.190   2.289   1.431  0.3822 -0.1649 -0.3452
 1342SOL    HW115485   1.198   2.255   1.342  0.0931  1.2620 -0.9079
 1342SOL    HW215486   1.252   2.230   1.476 -0.7424 -1.4027 -0.4249
 1343SOL     OW15487   2.784   0.445   3.968 -0.2968  0.3199 -0.3348
 1343SOL    HW115488   2.811   0.357   3.994 -0.5124 -0.1166 -1.5912
 1343SOL    HW215489   2.720   0.428   3.899 -0.8980  0.6164  0.1508
 1344SOL     OW15490   1.381   3.390   7.060  0.0284 -0.8009  0.4374
 1344SOL    HW115491   1.328   3.322   7.102 -2.7683  0.6268 -0.8296
 1344SOL    HW215492   1.443   3.416   7.129 -1.3191  1.9436  0.6136
 1345SOL     OW15493   1.807   2.527   7.245 -0.1432  0.1839  0.6791
 1345SOL    HW115494   1.891   2.551   7.285  0.8462 -0.8222 -0.7691
 1345SOL    HW215495   1.748   2.571   7.306 -1.8973  0.1258 -0.9752
 1346SOL     OW15496   4.020   4.215  17.259  0.0025  0.2816 -0.5700
 1346SOL    HW115497   3.941   4.182  17.301 -0.1510  1.8563  0.4025
 1346SOL    HW215498   4.059   4.129  17.243 -0.9796 -0.4012  0.7637
 1347SOL     OW15499   4.702   3.937   4.473  0.3376 -0.9569  0.1197
 1347SOL    HW115500   4.698   3.896   4.559 -0.9626 -0.4768  0.2812
 1347SOL    HW215501   4.620   3.986   4.474  1.7573  1.5030 -1.0216
 1348SOL     OW15502   4.225   1.427  10.305  0.2786 -0.5103 -0.3159
 1348SOL    HW115503   4.222   1.334  10.283  0.0858 -0.7181  0.5849
 1348SOL    HW215504   4.142   1.430  10.353 -0.6681 -2.4072 -1.8558
 1349SOL     OW15505   3.449   0.905   6.288  0.0947  0.2895 -0.3075
 1349SOL    HW115506   3.530   0.926   6.334  1.2871 -1.3220 -1.6590
 1349SOL    HW215507   3.401   0.988   6.294 -1.0239 -0.4542  0.9976
 1350SOL     OW15508   3.643   2.543   4.950  0.7066 -0.7937  0.0521
 1350SOL    HW115509   3.733   2.541   4.918  1.1720  0.9515  1.2270
 1350SOL    HW215510   3.657   2.544   5.045  0.7434  2.0972  0.0154
 1351SOL     OW15511   4.498   2.157   7.764  0.5448  0.2557  0.1224
 1351SOL    HW115512   4.426   2.098   7.744  0.5819 -0.6362  2.7598
 1351SOL    HW215513   4.536   2.163   7.676  0.6324  0.0101  0.1425
 1352SOL     OW15514   1.499   0.515   7.990  0.1213  0.1007 -0.0703
 1352SOL    HW115515   1.471   0.448   7.928  0.4223  0.0261 -0.1276
 1352SOL    HW215516   1.410   0.538   8.015 -0.2081 -2.7099  1.3198
 1353SOL     OW15517   1.739   3.707  15.793 -0.1392  0.5013 -0.1334
 1353SOL    HW115518   1.793   3.687  15.716  1.0710  1.8680  0.3473
 1353SOL    HW215519   1.789   3.647  15.849  0.0330 -0.0295 -0.8547
 1354SOL     OW15520   3.235   4.540   3.200  0.2787 -0.0030  0.1696
 1354SOL    HW115521   3.206   4.627   3.228 -0.0647 -0.0052 -0.1881
 1354SOL    HW215522   3.249   4.556   3.107 -1.8203 -1.3017 -0.3558
 1355SOL     OW15523   2.697   0.151  17.059  0.0282 -0.3323  0.0624
 1355SOL    HW115524   2.740   0.226  17.101 -0.6157  0.7272 -1.1579
 1355SOL    HW215525   2.756   0.154  16.984  1.0765  0.4984  0.9147
 1356SOL     OW15526   0.789   3.197   8.471  0.3699 -0.2835  0.4941
 1356SOL    HW115527   0.839   3.134   8.418  0.4253  0.9871 -0.9616
 1356SOL    HW215528   0.701   3.163   8.450  0.8592 -1.9559  1.1266
 1357SOL     OW15529   4.162   1.810   8.827  0.3252 -0.2860 -0.1444
 1357SOL    HW115530   4.234   1.778   8.882 -0.3883 -1.8139 -0.1137
 1357SOL    HW215531   4.107   1.863   8.885  1.6139  1.2117 -0.2695
 1358SOL     OW15532   1.048   0.651   6.259 -0.5670 -0.4983  0.1700
 1358SOL    HW115533   1.066   0.724   6.319  0.5428  1.8217 -3.0351
 1358SOL    HW215534   1.138   0.634   6.231 -0.4602 -0.4042  0.4514
 1359SOL     OW15535   1.438   2.356  17.403 -0.5320 -0.6120  0.3782
 1359SOL    HW115536   1.374   2.423  17.425 -0.5230  0.2177 -2.0160
 1359SOL    HW215537   1.462   2.316  17.486  0.3872  0.4484  0.6247
 1360SOL     OW15538   2.097   2.920  17.183 -0.6660 -0.3300 -0.3050
 1360SOL    HW115539   2.104   2.881  17.095  2.5990 -1.1310  0.3137
 1360SOL    HW215540   2.045   2.855  17.230 -1.2287 -0.1414 -0.6654
 1361SOL     OW15541   2.688   3.233   5.633 -0.0365 -0.8787 -0.3987
 1361SOL    HW115542   2.756   3.294   5.604 -0.7655 -0.0237 -0.3418
 1361SOL    HW215543   2.735   3.151   5.617 -1.3491 -1.3604 -1.7471
 1362SOL     OW15544   4.666   4.225   3.471  0.0643  0.2368  0.0297
 1362SOL    HW115545   0.008   4.160   3.453  1.4990  2.1998 -1.6579
 1362SOL    HW215546   4.718   4.304   3.458  1.6700 -1.0016 -1.0573
 1363SOL     OW15547   0.863   3.119  16.445 -0.2545  0.0946  0.2607
 1363SOL    HW115548   0.901   3.032  16.457 -3.0049 -1.0000  1.2008
 1363SOL    HW215549   0.833   3.123  16.354  0.7491 -1.6021 -0.1533
 1364SOL     OW15550   4.217   3.395   2.790  0.1383 -0.0157  0.2141
 1364SOL    HW115551   4.186   3.392   2.700  1.2312  2.3343 -0.2330
 1364SOL    HW215552   4.208   3.304   2.819 -1.0682 -0.6661 -2.2382
 1365SOL     OW15553   3.454   0.784   8.145  0.2738  0.5579  0.1293
 1365SOL    HW115554   3.460   0.688   8.144  0.4675  0.5659  0.5065
 1365SOL    HW215555   3.522   0.808   8.208 -0.0181  1.2703  0.1746
 1366SOL     OW15556   0.731   0.110   4.877  0.4621 -0.0475 -0.2249
 1366SOL    HW115557   0.786   0.125   4.800 -1.4146 -3.2914 -2.2138
 1366SOL    HW215558   0.670   0.184   4.869 -2.7830 -2.9892 -2.5452
 1367SOL     OW15559   1.858   4.158   4.633 -0.4350 -0.7917  0.4986
 1367SOL    HW115560   1.891   4.122   4.715 -1.2069  0.9080  1.5605
 1367SOL    HW215561   1.765   4.140   4.646 -1.4765  2.6634 -2.0485
 1368SOL     OW15562   3.869   4.237   9.301 -0.3351  0.1989  0.3949
 1368SOL    HW115563   3.830   4.315   9.339  0.5066  1.3727 -1.1905
 1368SOL    HW215564   3.818   4.170   9.347  2.1650 -1.3177  0.9713
 1369SOL     OW15565   2.678   3.514   8.637  0.2700  0.7435 -0.2462
 1369SOL    HW115566   2.731   3.485   8.711  3.0326  2.9062 -1.3711
 1369SOL    HW215567   2.723   3.469   8.565  0.4837  0.6328 -0.0446
 1370SOL     OW15568   3.825   1.087   3.921 -0.4681 -0.0767  0.0177
 1370SOL    HW115569   3.766   1.072   3.847  2.1890 -1.3002 -1.8387
 1370SOL    HW215570   3.861   0.998   3.922 -0.0853  0.1095  2.6062
 1371SOL     OW15571   4.010   0.936   4.381  0.1904 -0.1558 -0.3811
 1371SOL    HW115572   3.964   0.882   4.445  0.4117  1.6177  1.2605
 1371SOL    HW215573   3.937   0.946   4.320  0.3832  0.5612 -0.4912
 1372SOL     OW15574   1.747   0.848   4.804  0.9190 -0.5020 -0.0379
 1372SOL    HW115575   1.729   0.835   4.897 -0.5903  1.2307 -0.0760
 1372SOL    HW215576   1.835   0.885   4.809  0.4197  0.6479  0.1939
 1373SOL     OW15577   3.773   0.183   8.011  0.0806 -0.3775 -0.1026
 1373SOL    HW115578   3.779   0.151   8.101  0.9226  2.4415  0.8307
 1373SOL    HW215579   3.714   0.116   7.977 -2.1260  1.7619 -0.4736
 1374SOL     OW15580   4.406   0.987   2.494  0.1968  0.6981  0.1008
 1374SOL    HW115581   4.399   1.030   2.409  5.4006 -1.3992 -1.3562
 1374SOL    HW215582   4.314   0.987   2.522  0.2816 -2.5423  0.3272
 1375SOL     OW15583   2.202   0.935  14.807  0.5170  0.1418 -0.0806
 1375SOL    HW115584   2.172   0.929  14.897 -2.5819 -0.0401 -1.1282
 1375SOL    HW215585   2.174   0.851  14.771 -2.1662  1.6091 -1.4031
 1376SOL     OW15586   1.752   4.664   6.961  0.0155  0.0298 -0.0059
 1376SOL    HW115587   1.696   4.710   7.023 -0.8405  0.2849 -0.9580
 1376SOL    HW215588   1.815   4.631   7.025  2.4642 -1.7084 -3.2829
 1377SOL     OW15589   4.078   0.600   6.326  0.9437  0.2886  0.2043
 1377SOL    HW115590   4.118   0.546   6.394 -1.4992 -1.7980 -0.0015
 1377SOL    HW215591   3.985   0.577   6.335  0.9858 -0.0811 -0.3162
 1378SOL     OW15592   0.728   0.719  13.957  0.1777  0.2089 -0.1477
 1378SOL    HW115593   0.733   0.813  13.940  0.9069  0.3621  0.9222
 1378SOL    HW215594   0.818   0.688  13.968  0.6922  1.6919 -0.2489
 1379SOL     OW15595   0.735   3.329  12.806 -0.1067  0.3266  0.4478
 1379SOL    HW115596   0.655   3.351  12.758 -0.7178  1.1891  1.8781
 1379SOL    HW215597   0.791   3.291  12.739 -0.1868 -1.9426  1.6526
 1380SOL     OW15598   3.031   0.558   2.347  0.0840 -0.1321  0.6879
 1380SOL    HW115599   3.104   0.597   2.299 -1.4396  2.2067  0.2606
 1380SOL    HW215600   2.989   0.642   2.364 -0.6336  0.1654 -2.5909
 1381SOL     OW15601   3.523   3.377   7.234 -0.2612  0.3545  0.2461
 1381SOL    HW115602   3.488   3.303   7.185 -3.5284  0.8094  1.8952
 1381SOL    HW215603   3.592   3.406   7.175 -1.8487  1.2824 -1.1532
 1382SOL     OW15604   3.214   1.231   5.199 -0.2689  0.6799 -0.1731
 1382SOL    HW115605   3.272   1.259   5.129 -0.3358  3.0041  0.6991
 1382SOL    HW215606   3.132   1.260   5.159 -1.7391 -0.0509  2.2872
 1383SOL     OW15607   0.256   2.226   6.219  0.4158  0.1278 -0.5600
 1383SOL    HW115608   0.209   2.286   6.161 -1.5298  0.1744  1.0532
 1383SOL    HW215609   0.276   2.160   6.153 -1.7237  3.3336 -4.4771
 1384SOL     OW15610   0.235   1.111   6.684  0.0614  0.0209 -0.3782
 1384SOL    HW115611   0.223   1.070   6.598  1.0422  1.0638 -1.0071
 1384SOL    HW215612   0.145   1.115   6.716 -0.3993  1.2240 -1.8454
 1385SOL     OW15613   0.798   2.702  14.348 -0.4939 -0.5129 -0.0614
 1385SOL    HW115614   0.787   2.753  14.268 -1.2232  2.0828  1.6967
 1385SOL    HW215615   0.796   2.765  14.420  0.0128  1.9952 -2.2445
 1386SOL     OW15616   0.056   4.218   4.782 -0.3416 -0.3652  0.4514
 1386SOL    HW115617   0.053   4.124   4.766 -3.0841 -0.6558  2.6530
 1386SOL    HW215618   4.696   4.244   4.815  0.2503  0.4152  1.3834
 1387SOL     OW15619   2.126   1.129   2.625 -0.0688 -0.3865  0.3045
 1387SOL    HW115620   2.206   1.106   2.672 -0.4900 -0.1016  1.1527
 1387SOL    HW215621   2.066   1.067   2.668 -2.8678  2.2569  0.1858
 1388SOL     OW15622   0.479   0.120   2.118 -0.0321 -0.2431  0.8176
 1388SOL    HW115623   0.479   0.215   2.127  0.6645 -0.2010  0.3838
 1388SOL    HW215624   0.390   0.103   2.148 -0.3012  0.3974  0.3734
 1389SOL     OW15625   3.109   1.274   3.028 -0.6144 -0.3312 -0.0433
 1389SOL    HW115626   3.200   1.266   3.002 -0.7668  0.9491 -0.9801
 1389SOL    HW215627   3.075   1.344   2.972 -1.8899  0.0869  1.2265
 1390SOL     OW15628   3.275   2.476   6.903  0.1518 -0.8323 -0.3409
 1390SOL    HW115629   3.271   2.387   6.939 -0.6848 -0.4718  0.4588
 1390SOL    HW215630   3.289   2.525   6.984 -1.7674  0.1241 -0.6000
 1391SOL     OW15631   3.628   2.481  11.706  0.4240 -0.3510 -0.1424
 1391SOL    HW115632   3.650   2.573  11.690 -1.5758 -0.0384 -1.0406
 1391SOL    HW215633   3.534   2.496  11.716  0.3608 -0.2763 -0.8073
 1392SOL     OW15634   4.592   3.266   8.888 -0.5367 -0.0309  0.1722
 1392SOL    HW115635   4.581   3.357   8.917 -0.1112 -0.2532  1.0470
 1392SOL    HW215636   4.525   3.258   8.821 -2.3531  1.0684  1.8663
 1393SOL     OW15637   2.608   1.031   3.267 -0.4882 -0.2429  0.3652
 1393SOL    HW115638   2.629   0.977   3.191 -1.4564 -0.8288  0.5079
 1393SOL    HW215639   2.699   1.037   3.296 -0.7072  1.1407  0.7756
 1394SOL     OW15640   4.263   2.452  15.582 -0.5598 -0.4027 -0.0036
 1394SOL    HW115641   4.270   2.546  15.596 -1.1321 -0.2459 -0.8166
 1394SOL    HW215642   4.282   2.400  15.660  1.0269 -0.1656 -0.2353
 1395SOL     OW15643   1.370   4.213   0.557  0.0203  0.2035 -0.3333
 1395SOL    HW115644   1.405   4.295   0.522 -2.2799  1.0289 -0.7304
 1395SOL    HW215645   1.445   4.172   0.599  1.0920  1.9780 -0.5024
 1396SOL     OW15646   0.819   1.209   4.156 -0.4451 -0.1793 -0.2260
 1396SOL    HW115647   0.896   1.184   4.106 -0.3569  0.0237 -0.1944
 1396SOL    HW215648   0.748   1.170   4.106  0.4745 -1.1921 -0.7313
 1397SOL     OW15649   1.770   4.059   5.314  0.9772 -0.0852 -0.4229
 1397SOL    HW115650   1.818   3.981   5.285  1.8278  1.0100 -1.9519
 1397SOL    HW215651   1.718   4.079   5.236 -0.7251 -3.5670 -0.1807
 1398SOL     OW15652   0.465   2.108  16.692  0.7674  0.0609  0.0895
 1398SOL    HW115653   0.433   2.193  16.663  3.2516  1.1486  0.5897
 1398SOL    HW215654   0.395   2.046  16.712  0.9528 -0.6655 -1.4103
 1399SOL     OW15655   3.104   0.582   0.131 -0.0187  0.0770 -0.0410
 1399SOL    HW115656   3.196   0.607   0.119 -0.6879  2.7267  0.4223
 1399SOL    HW215657   3.073   0.569   0.041  1.3834  2.5796 -0.9140
 1400SOL     OW15658   0.674   0.746   4.202  0.8191 -0.0113  0.1120
 1400SOL    HW115659   0.613   0.767   4.272  0.5706 -1.3909  0.2896
 1400SOL    HW215660   0.620   0.746   4.122  3.0408  0.5694 -1.3966
 1401SOL     OW15661   0.735   2.580   8.777  0.6170 -0.2635 -0.2291
 1401SOL    HW115662   0.783   2.589   8.859  3.0538 -2.4688 -1.4085
 1401SOL    HW215663   0.698   2.493   8.785 -0.4586  0.2753  0.6494
 1402SOL     OW15664   2.870   4.003   1.779  0.1368  0.1860  0.2232
 1402SOL    HW115665   2.798   4.065   1.767 -0.5808 -0.6330  0.2837
 1402SOL    HW215666   2.838   3.963   1.860 -2.8499  2.6049  0.2384
 1403SOL     OW15667   3.399   4.588   9.000  0.3335  0.4709 -0.3566
 1403SOL    HW115668   3.327   4.650   8.991 -1.5206 -1.3057  2.6394
 1403SOL    HW215669   3.472   4.649   8.989  0.2245  1.4131  4.1814
 1404SOL     OW15670   3.164   0.121   4.913 -0.1233 -0.1262  0.3376
 1404SOL    HW115671   3.087   0.142   4.860  1.0051 -0.7539 -1.5424
 1404SOL    HW215672   3.234   0.158   4.860  1.3677 -2.1571  0.8906
 1405SOL     OW15673   1.445   3.980   5.795  0.5554  0.0906 -0.1543
 1405SOL    HW115674   1.356   3.947   5.806  0.5404 -0.2392 -1.1833
 1405SOL    HW215675   1.411   4.068   5.783  1.0240  0.6243  2.5489
 1406SOL     OW15676   1.143   0.307   7.450 -0.1212  0.5492 -0.1437
 1406SOL    HW115677   1.070   0.313   7.389 -0.7385  1.6051  0.6862
 1406SOL    HW215678   1.107   0.231   7.496  3.0997 -0.1531  1.1839
 1407SOL     OW15679   0.881   3.942  12.109  0.5774  0.5015 -0.0873
 1407SOL    HW115680   0.929   3.859  12.112  1.3714  0.8757 -2.6787
 1407SOL    HW215681   0.789   3.916  12.114  1.1227 -1.9600 -2.8251
 1408SOL     OW15682   2.828   0.608  15.552  0.0009 -0.4370 -0.2139
 1408SOL    HW115683   2.743   0.638  15.582  0.7471  2.0599 -0.6166
 1408SOL    HW215684   2.875   0.602  15.635  2.6331 -0.0090 -1.6789
 1409SOL     OW15685   3.343   1.501   2.725  0.0996  0.5617  0.1395
 1409SOL    HW115686   3.310   1.587   2.751 -2.0504 -0.1093 -0.3527
 1409SOL    HW215687   3.259   1.455   2.727 -0.0851  1.0398  3.0757
 1410SOL     OW15688   4.276   1.794   4.090 -0.2853 -0.2934  0.5412
 1410SOL    HW115689   4.222   1.780   4.168 -0.9580  0.3027  0.1829
 1410SOL    HW215690   4.358   1.827   4.129 -0.0340  0.5042 -0.6456
 1411SOL     OW15691   2.976   3.877   5.600 -0.0078 -0.0357 -0.2581
 1411SOL    HW115692   2.996   3.967   5.623 -1.4202  0.7764 -2.2242
 1411SOL    HW215693   3.064   3.842   5.584  0.9555  2.5660 -0.5960
 1412SOL     OW15694   0.906   3.600   6.466 -0.3992 -0.1455  0.0334
 1412SOL    HW115695   0.885   3.547   6.543  1.6858 -0.1999  0.5596
 1412SOL    HW215696   0.993   3.632   6.486 -0.4377 -0.0343  0.0227
 1413SOL     OW15697   0.592   3.436   2.911 -0.0806  0.4277 -0.4907
 1413SOL    HW115698   0.510   3.423   2.863 -1.5490  0.3742  2.0308
 1413SOL    HW215699   0.560   3.452   2.999 -2.6368 -0.1956 -1.3052
 1414SOL     OW15700   1.664   2.301  16.626 -0.1914 -0.3658 -0.6269
 1414SOL    HW115701   1.584   2.260  16.593  0.2573 -1.5974 -0.1830
 1414SOL    HW215702   1.638   2.392  16.613 -1.2004 -0.5047  0.3872
 1415SOL     OW15703   2.384   3.360  12.995  0.3032  0.5288 -0.8736
 1415SOL    HW115704   2.345   3.439  12.959  0.4996  0.3213 -1.5400
 1415SOL    HW215705   2.351   3.292  12.937 -1.2640  0.4954  0.0789
 1416SOL     OW15706   1.550   2.154   0.315 -0.3941 -0.4553  0.3149
 1416SOL    HW115707   1.526   2.067   0.284  1.5642 -1.4013  1.4333
 1416SOL    HW215708   1.541   2.203   0.233 -0.3050  0.1221  0.6559
 1417SOL     OW15709   0.274   2.422   8.419  0.4916 -0.0386  0.1215
 1417SOL    HW115710   0.288   2.401   8.327  0.2223 -0.7003  0.2325
 1417SOL    HW215711   0.258   2.332   8.448 -1.5749 -0.1037 -1.2188
 1418SOL     OW15712   2.871   4.722   1.636 -0.0300  0.3002  0.0679
 1418SOL    HW115713   2.950   0.048   1.623 -0.2298  0.4624 -0.5139
 1418SOL    HW215714   2.828   0.061   1.692 -2.4931 -1.1247 -0.1765
 1419SOL     OW15715   3.053   3.825   0.357  0.2008 -0.1919  0.1542
 1419SOL    HW115716   3.124   3.831   0.293 -1.2762 -0.3333 -1.5022
 1419SOL    HW215717   3.103   3.763   0.410 -1.7041 -2.4312 -0.6698
 1420SOL     OW15718   2.805   1.529   3.093  0.0589 -0.0204 -0.5498
 1420SOL    HW115719   2.810   1.524   2.998 -1.9636  0.2727 -0.6705
 1420SOL    HW215720   2.886   1.575   3.117  0.3455 -1.1016  0.5788
 1421SOL     OW15721   1.579   0.106   4.386 -0.0412  0.4706 -0.1178
 1421SOL    HW115722   1.638   0.032   4.372  1.1945  1.5618 -0.7054
 1421SOL    HW215723   1.522   0.107   4.309  0.7974  0.7321 -0.7357
 1422SOL     OW15724   0.027   0.227   3.022 -0.0588  0.0655  0.5631
 1422SOL    HW115725   0.019   0.319   2.997 -2.2289 -0.7282 -1.6477
 1422SOL    HW215726   0.119   0.217   2.997  0.3299  2.2087  1.0683
 1423SOL     OW15727   0.080   3.152   6.590 -0.0014  0.0219 -0.1936
 1423SOL    HW115728   0.141   3.089   6.552 -0.0228  0.6925 -1.3494
 1423SOL    HW215729   0.135   3.230   6.587 -0.4249  0.2508 -2.1798
 1424SOL     OW15730   1.660   2.797   4.608 -0.1337  0.1550  0.2007
 1424SOL    HW115731   1.668   2.755   4.523 -0.3477  2.8749 -1.1554
 1424SOL    HW215732   1.573   2.835   4.610  0.4443  1.4977  0.1730
 1425SOL     OW15733   4.675   1.244   4.200  0.3772 -0.2200 -0.7011
 1425SOL    HW115734   0.016   1.289   4.148  1.3959 -0.0644  0.7233
 1425SOL    HW215735   4.603   1.252   4.138 -0.4849  0.1655  0.3541
 1426SOL     OW15736   0.920   0.831   3.721 -0.0823 -0.4228  0.0717
 1426SOL    HW115737   0.909   0.763   3.655  0.6342  0.7728 -1.2892
 1426SOL    HW215738   0.881   0.785   3.795  0.2847  1.5242  1.4725
 1427SOL     OW15739   0.132   1.038  15.204 -0.1003 -0.0113  0.0622
 1427SOL    HW115740   0.059   0.979  15.225  0.3355 -0.9268 -1.0027
 1427SOL    HW215741   0.208   0.981  15.199 -0.9272 -1.0607 -0.5259
 1428SOL     OW15742   0.310   3.658   7.642  0.1442 -0.1225  0.2788
 1428SOL    HW115743   0.354   3.740   7.660 -0.4769  0.6961 -1.8729
 1428SOL    HW215744   0.254   3.672   7.565 -0.6650 -3.5745  0.1993
 1429SOL     OW15745   1.837   4.566   4.077 -0.0872  0.5159 -0.1328
 1429SOL    HW115746   1.900   4.614   4.024 -0.6005  1.5685  0.2220
 1429SOL    HW215747   1.851   4.601   4.165  1.0202  0.7434 -0.4050
 1430SOL     OW15748   4.491   1.917   4.207 -0.0088 -0.8261  0.4755
 1430SOL    HW115749   4.569   1.968   4.186  0.6127 -2.5685 -1.5368
 1430SOL    HW215750   4.515   1.876   4.290  1.3486 -2.8189 -0.8874
 1431SOL     OW15751   2.023   0.564   4.722 -0.0364 -0.3232 -0.9651
 1431SOL    HW115752   1.935   0.528   4.735  0.5720 -1.9538 -1.2698
 1431SOL    HW215753   2.015   0.645   4.772 -0.4367 -0.5810 -0.6090
 1432SOL     OW15754   4.192   2.780   8.929  0.7938  0.0184  0.3126
 1432SOL    HW115755   4.114   2.833   8.949  1.9223  0.9148  2.3832
 1432SOL    HW215756   4.193   2.771   8.834 -0.9178 -1.8348  0.4759
 1433SOL     OW15757   0.034   3.624  15.471 -0.1258 -0.2834  0.7609
 1433SOL    HW115758   0.004   3.533  15.459 -1.5188 -0.0176  2.3946
 1433SOL    HW215759   4.705   3.660  15.540 -0.4670 -1.9645  1.3876
 1434SOL     OW15760   3.717   3.786   9.470  0.4100 -0.1561  0.0541
 1434SOL    HW115761   3.668   3.758   9.547 -0.1231  0.1989 -0.1528
 1434SOL    HW215762   3.798   3.738   9.486  0.3148  0.8439  3.6132
 1435SOL     OW15763   4.247   0.906   7.750  0.1059  0.1570  0.3014
 1435SOL    HW115764   4.334   0.947   7.759  0.4084 -0.4459  0.1255
 1435SOL    HW215765   4.216   0.924   7.838  0.1625  3.2185 -0.3139
 1436SOL     OW15766   0.076   1.946   5.087 -0.5617 -0.0139 -0.5958
 1436SOL    HW115767   0.088   2.018   5.025  2.5793 -2.5957 -3.0080
 1436SOL    HW215768   0.033   1.879   5.035 -3.1643  2.7522 -2.0450
 1437SOL     OW15769   4.371   2.765   7.396 -0.2057 -0.3698  0.7333
 1437SOL    HW115770   4.342   2.745   7.307 -0.3616  0.8755  0.5010
 1437SOL    HW215771   4.437   2.700   7.417 -1.1171 -1.6546 -0.3767
 1438SOL     OW15772   3.682   3.466   6.990  0.1028 -0.0631 -0.0017
 1438SOL    HW115773   3.661   3.547   6.943 -0.9661 -0.5568 -0.3568
 1438SOL    HW215774   3.775   3.454   6.968 -0.1711 -1.7947 -0.1730
 1439SOL     OW15775   3.842   3.499   0.804 -0.2532  0.1342  0.0797
 1439SOL    HW115776   3.886   3.436   0.861 -1.2544  0.7207  1.5011
 1439SOL    HW215777   3.891   3.580   0.818 -2.1275  1.1603  0.6331
 1440SOL     OW15778   3.876   3.535   6.205 -0.1638  0.4696 -0.0403
 1440SOL    HW115779   3.886   3.581   6.121  1.4439  1.0304  0.4679
 1440SOL    HW215780   3.924   3.591   6.265  1.3676 -1.0994  0.2023
 1441SOL     OW15781   1.647   3.703   7.881  0.0312 -0.1430 -0.3265
 1441SOL    HW115782   1.593   3.782   7.868  0.6552  0.0588 -1.7316
 1441SOL    HW215783   1.663   3.714   7.974  0.1977  1.0445 -0.4934
 1442SOL     OW15784   4.205   3.185   5.311  0.0464  0.0658 -0.1123
 1442SOL    HW115785   4.274   3.120   5.300 -0.4431 -0.3121 -0.9720
 1442SOL    HW215786   4.164   3.169   5.226 -0.1654  0.4775 -0.0853
 1443SOL     OW15787   4.493   4.563  10.099  0.4964 -0.7382 -0.5161
 1443SOL    HW115788   4.418   4.512  10.133  0.1893  0.5587  0.7468
 1443SOL    HW215789   4.567   4.503  10.108  3.3702  3.1945  2.1917
 1444SOL     OW15790   1.830   0.520   7.414  0.5278 -0.2027 -0.2494
 1444SOL    HW115791   1.758   0.526   7.476 -0.5026  2.7600 -1.7619
 1444SOL    HW215792   1.776   0.525   7.335  0.8401  2.1749 -0.3034
 1445SOL     OW15793   0.957   4.614   1.739  0.8497 -0.2081 -0.4936
 1445SOL    HW115794   0.914   4.648   1.818  1.4199  3.2742 -1.6725
 1445SOL    HW215795   0.915   4.528   1.734  0.0120  0.3628 -3.3717
 1446SOL     OW15796   1.712   4.001   6.285 -0.4453  0.1845 -0.1448
 1446SOL    HW115797   1.737   4.093   6.280  1.4125 -0.3019  0.2246
 1446SOL    HW215798   1.759   3.972   6.206 -0.8831  0.7989 -0.6310
 1447SOL     OW15799   2.287   3.389   0.442 -0.0087 -0.4346 -0.0213
 1447SOL    HW115800   2.300   3.298   0.415  1.2784  0.4620 -2.3657
 1447SOL    HW215801   2.339   3.441   0.380 -0.4689 -0.0876 -0.1163
 1448SOL     OW15802   2.639   2.855   5.731  0.4036 -0.0706 -0.0410
 1448SOL    HW115803   2.594   2.931   5.767  2.7321  0.7368  1.1833
 1448SOL    HW215804   2.689   2.828   5.808  1.1030 -0.8820 -0.7755
 1449SOL     OW15805   3.814   1.191   3.539  0.5178  0.1497  0.5351
 1449SOL    HW115806   3.722   1.208   3.521  0.4436  0.2465  1.0071
 1449SOL    HW215807   3.805   1.096   3.543 -1.3223  0.3712  1.7425
 1450SOL     OW15808   0.914   0.369   5.129  0.0711 -0.3637  0.0336
 1450SOL    HW115809   0.916   0.374   5.224  0.3754  0.8918 -0.0484
 1450SOL    HW215810   0.934   0.457   5.097  1.0520 -0.8856 -0.7917
 1451SOL     OW15811   3.106   4.258  15.619 -0.1789  0.1672 -0.0333
 1451SOL    HW115812   3.104   4.347  15.652  2.5108  0.2840 -0.1866
 1451SOL    HW215813   3.118   4.279  15.526  0.4322  0.0666  0.0187
 1452SOL     OW15814   0.778   4.590   1.190 -0.4563  0.3895 -0.1307
 1452SOL    HW115815   0.719   4.519   1.164  0.8782  0.2098 -2.6257
 1452SOL    HW215816   0.852   4.540   1.223  0.0494  0.5040 -1.0937
 1453SOL     OW15817   2.579   1.294   8.290 -0.4306  0.1174 -0.2712
 1453SOL    HW115818   2.660   1.343   8.308 -0.8488  1.3998 -1.9032
 1453SOL    HW215819   2.545   1.350   8.221 -0.4922 -1.5812 -1.6150
 1454SOL     OW15820   1.744   3.354  11.119  0.2095 -0.8472  0.0443
 1454SOL    HW115821   1.720   3.292  11.188  0.6419  1.1129  1.9845
 1454SOL    HW215822   1.678   3.423  11.128  0.7257 -0.1384 -1.6848
 1455SOL     OW15823   1.358   3.505   3.363  0.1138 -0.7058 -0.4712
 1455SOL    HW115824   1.281   3.496   3.307  1.4069  0.9926 -2.5142
 1455SOL    HW215825   1.385   3.596   3.349  1.0147 -0.5842  1.9279
 1456SOL     OW15826   4.189   1.178   6.540 -0.3735  0.1637 -0.6715
 1456SOL    HW115827   4.128   1.236   6.585  0.8250 -1.0186  2.4926
 1456SOL    HW215828   4.135   1.099   6.545 -0.9802  0.5855 -0.5630
 1457SOL     OW15829   2.807   1.705   0.539  0.3871  0.2061 -0.1065
 1457SOL    HW115830   2.712   1.717   0.530  0.0389  0.6686  4.2745
 1457SOL    HW215831   2.840   1.787   0.576 -0.4722 -0.0599  1.2438
 1458SOL     OW15832   2.081   1.169   3.847  0.3273 -0.4432 -0.5872
 1458SOL    HW115833   2.019   1.204   3.783 -1.3764 -0.5684  0.9701
 1458SOL    HW215834   2.098   1.243   3.906  1.6087 -0.4199 -1.0027
 1459SOL     OW15835   4.637   3.918   2.265  0.1542  0.2295  0.2989
 1459SOL    HW115836   4.645   4.013   2.272  0.7427  0.3720 -2.2529
 1459SOL    HW215837   4.599   3.911   2.178  1.6942 -0.3095 -0.3435
 1460SOL     OW15838   4.164   0.501   7.616  0.1104  0.0454 -0.4671
 1460SOL    HW115839   4.110   0.493   7.695 -0.8182  0.1317 -1.0903
 1460SOL    HW215840   4.099   0.459   7.559  0.4383 -0.5558 -0.3903
 1461SOL     OW15841   3.733   0.912   9.946 -0.5767 -0.1666  0.0661
 1461SOL    HW115842   3.651   0.912   9.995 -0.1492 -0.4790  0.7704
 1461SOL    HW215843   3.751   0.819   9.934  2.0275  0.2785  0.5388
 1462SOL     OW15844   3.183   4.088   2.536 -0.4788 -0.7784  0.3375
 1462SOL    HW115845   3.170   3.997   2.511  1.8029 -1.3061  1.0555
 1462SOL    HW215846   3.266   4.095   2.488 -0.0187  2.6984  1.6667
 1463SOL     OW15847   3.079   4.272  11.610  0.2366 -0.1891  0.6441
 1463SOL    HW115848   3.055   4.362  11.587 -1.7787  0.2934  4.7179
 1463SOL    HW215849   3.159   4.276  11.661  1.1679  2.0128 -0.9700
 1464SOL     OW15850   2.451   2.019  16.619  0.6662 -0.1863  0.3370
 1464SOL    HW115851   2.491   1.982  16.540 -0.6212 -1.0584  0.0941
 1464SOL    HW215852   2.435   1.933  16.658  1.7400 -0.0995  0.9459
 1465SOL     OW15853   1.649   0.670   1.732 -0.0511 -0.5844 -0.0791
 1465SOL    HW115854   1.725   0.714   1.772  1.0808 -1.8109 -0.9009
 1465SOL    HW215855   1.616   0.628   1.811  0.2480  1.3889  1.1098
 1466SOL     OW15856   2.938   2.506  10.697 -0.3486  0.0778  0.0972
 1466SOL    HW115857   3.004   2.530  10.632  0.0858 -0.7913  0.2196
 1466SOL    HW215858   2.977   2.527  10.782 -0.2775  2.4652 -0.5145
 1467SOL     OW15859   0.122   2.821   3.247 -0.5260 -0.1622 -0.5352
 1467SOL    HW115860   0.047   2.769   3.218 -1.6546  0.0861  1.8590
 1467SOL    HW215861   0.188   2.803   3.181 -0.9322 -1.1865 -0.6643
 1468SOL     OW15862   1.112   2.399   2.271 -0.5274  0.0599  0.7294
 1468SOL    HW115863   1.085   2.463   2.337  0.5216  0.6254  0.6192
 1468SOL    HW215864   1.030   2.384   2.223 -0.8587  1.5223  0.8143
 1469SOL     OW15865   2.468   1.274  17.598 -0.0736 -0.2871  0.0962
 1469SOL    HW115866   2.413   1.215  17.650 -2.1071  2.1631  0.7203
 1469SOL    HW215867   2.416   1.289  17.519  0.9058 -1.1034 -0.7128
 1470SOL     OW15868   1.700   0.959   1.578 -0.1747  0.1258 -0.3111
 1470SOL    HW115869   1.690   0.879   1.527  0.9517 -0.9131  1.1107
 1470SOL    HW215870   1.787   0.949   1.616  0.8345  2.7838 -1.9186
 1471SOL     OW15871   2.817   4.098  11.124 -0.0367 -0.3828 -0.6848
 1471SOL    HW115872   2.778   4.163  11.066 -0.0543  0.7352  0.5807
 1471SOL    HW215873   2.862   4.048  11.056  0.8895 -2.5130  1.4699
 1472SOL     OW15874   0.326   1.726   0.718  0.2763  0.0615 -0.3077
 1472SOL    HW115875   0.411   1.727   0.763  0.3512  1.4939 -0.4672
 1472SOL    HW215876   0.312   1.632   0.707 -0.5727  0.1116  0.3167
 1473SOL     OW15877   2.191   2.782   6.725 -0.4000 -0.1325 -0.3041
 1473SOL    HW115878   2.202   2.688   6.735  0.0852  0.0696  0.9846
 1473SOL    HW215879   2.186   2.784   6.629  0.5806  0.4738 -0.3443
 1474SOL     OW15880   1.364   1.814   7.188  0.5820  0.3059 -0.0293
 1474SOL    HW115881   1.280   1.793   7.147  0.2763 -2.7837  2.1707
 1474SOL    HW215882   1.336   1.807   7.280 -0.8103 -1.4214 -0.5643
 1475SOL     OW15883   0.176   1.378   0.556  0.2462  0.2480 -0.2222
 1475SOL    HW115884   0.126   1.411   0.631 -0.2914 -0.9049 -0.0742
 1475SOL    HW215885   0.110   1.382   0.487  0.5780  0.3502 -0.5306
 1476SOL     OW15886   0.106   1.829   9.876 -0.3209 -0.4971 -0.1169
 1476SOL    HW115887   0.132   1.865   9.792  0.4063 -0.3750  0.1615
 1476SOL    HW215888   0.183   1.845   9.930  0.3968  1.7280 -1.8236
 1477SOL     OW15889   0.074   1.708   8.583 -0.5380 -0.3332  0.1576
 1477SOL    HW115890   4.715   1.677   8.551 -0.8564 -1.2163  1.8256
 1477SOL    HW215891   0.134   1.656   8.530 -0.1244 -0.0270  0.3301
 1478SOL     OW15892   3.093   3.181  13.552  0.1756  0.3091 -0.1531
 1478SOL    HW115893   3.132   3.101  13.587  0.0552 -0.0608 -0.8669
 1478SOL    HW215894   3.101   3.236  13.630  0.9858 -0.5040  0.3519
 1479SOL     OW15895   0.921   0.264   6.692 -0.8298  0.2370 -0.2398
 1479SOL    HW115896   0.894   0.254   6.784  0.8518 -2.1157  0.0317
 1479SOL    HW215897   1.016   0.276   6.686 -0.3918 -4.2061 -2.4640
 1480SOL     OW15898   2.836   0.371   1.187 -0.0274  0.5154 -0.1670
 1480SOL    HW115899   2.820   0.455   1.143 -1.3866  0.5006  0.3184
 1480SOL    HW215900   2.926   0.357   1.157 -0.5285  0.7088 -1.7847
 1481SOL     OW15901   0.577   2.437   8.228  0.0458 -0.4338  0.3041
 1481SOL    HW115902   0.582   2.430   8.133  0.1423 -0.5956  0.3213
 1481SOL    HW215903   0.487   2.405   8.234 -0.2841  0.1178 -1.4883
 1482SOL     OW15904   3.037   0.551   6.517 -0.7867  0.1608 -0.5026
 1482SOL    HW115905   2.942   0.564   6.522 -0.5446  1.5830  0.3377
 1482SOL    HW215906   3.053   0.503   6.598  1.5499  3.0922  0.7533
 1483SOL     OW15907   1.677   0.650   2.211  0.2777 -0.0518  0.1044
 1483SOL    HW115908   1.628   0.731   2.200 -1.3922 -0.6989  2.8955
 1483SOL    HW215909   1.665   0.616   2.122  0.9552 -0.7820  0.3008
 1484SOL     OW15910   1.166   0.048   3.617  0.7350 -1.1707 -0.2130
 1484SOL    HW115911   1.254   0.016   3.637  1.8573  1.0993 -1.4941
 1484SOL    HW215912   1.137   0.080   3.703 -1.3456 -1.9268 -0.6300
 1485SOL     OW15913   2.552   3.496   3.871 -0.1860  0.5503 -0.1490
 1485SOL    HW115914   2.622   3.558   3.894  0.7525 -0.6653  0.2531
 1485SOL    HW215915   2.595   3.415   3.895  0.0485  0.9265  0.7159
 1486SOL     OW15916   1.349   0.467   1.067 -0.4926  0.9500  0.8387
 1486SOL    HW115917   1.279   0.421   1.114 -0.6690  0.7770  0.4193
 1486SOL    HW215918   1.326   0.558   1.082  2.8562  1.7609  0.9170
 1487SOL     OW15919   4.110   0.878   4.927 -0.0508  0.2789 -0.3415
 1487SOL    HW115920   4.181   0.866   4.864  2.6076  0.4709  2.6826
 1487SOL    HW215921   4.150   0.934   4.993  1.0414  0.7518 -1.3929
 1488SOL     OW15922   2.523   2.150   1.158  0.0008  0.2356 -0.3191
 1488SOL    HW115923   2.510   2.183   1.247 -0.7588  0.6026 -0.5564
 1488SOL    HW215924   2.439   2.171   1.116 -1.6526 -2.3247  1.7462
 1489SOL     OW15925   1.811   2.480   8.890  0.2269 -0.0299  0.4345
 1489SOL    HW115926   1.831   2.390   8.918 -0.4637 -0.5232 -0.6519
 1489SOL    HW215927   1.718   2.473   8.868  0.7334  3.5721 -2.7962
 1490SOL     OW15928   4.113   3.684   2.017 -0.5142  0.0970  0.5895
 1490SOL    HW115929   4.113   3.618   1.947  3.9095  0.0513  0.6352
 1490SOL    HW215930   4.075   3.643   2.095  3.2824 -1.6382  1.5387
 1491SOL     OW15931   0.569   1.608   6.796 -0.5695  0.5161  0.0650
 1491SOL    HW115932   0.646   1.551   6.793  0.1336  1.5271 -1.0892
 1491SOL    HW215933   0.523   1.574   6.873  0.6358 -0.2454  0.4446
 1492SOL     OW15934   3.700   4.203   1.474  0.1016  0.7647 -0.0598
 1492SOL    HW115935   3.616   4.177   1.437 -0.3761 -0.1703  1.6856
 1492SOL    HW215936   3.673   4.269   1.537 -0.4095  1.1138 -0.6436
 1493SOL     OW15937   3.435   2.081   8.628  0.6819 -1.0002 -0.6040
 1493SOL    HW115938   3.376   2.053   8.558 -0.8877  2.1975 -0.5717
 1493SOL    HW215939   3.522   2.049   8.603  1.6039  0.7714  0.3381
 1494SOL     OW15940   1.919   2.769  17.323 -0.7769 -0.5630  0.3458
 1494SOL    HW115941   1.864   2.759  17.401 -2.9975  1.1930 -1.0043
 1494SOL    HW215942   1.899   2.690  17.273  1.1153  0.1172 -1.4878
 1495SOL     OW15943   4.664   1.801  12.037 -0.1687  0.4059  0.3841
 1495SOL    HW115944   4.674   1.710  12.010 -2.0491 -0.0442  1.2195
 1495SOL    HW215945   4.718   1.847  11.973 -2.6818 -0.1554 -2.1609
 1496SOL     OW15946   4.524   3.078   3.558  0.1021  0.0541  0.0043
 1496SOL    HW115947   4.471   3.080   3.478  0.1707  0.9001 -0.0200
 1496SOL    HW215948   4.538   2.986   3.580  0.1128 -0.1542 -0.8550
 1497SOL     OW15949   2.275   1.398   3.625  0.3112  0.0204  0.5236
 1497SOL    HW115950   2.187   1.433   3.637  0.9662  0.8576  2.9225
 1497SOL    HW215951   2.294   1.437   3.540  0.0380 -1.3030 -0.1318
 1498SOL     OW15952   0.656   0.518   4.681 -0.1615  0.4260 -0.1987
 1498SOL    HW115953   0.672   0.606   4.715  1.5474 -1.0207  2.8481
 1498SOL    HW215954   0.582   0.540   4.625 -0.4130  1.7530  0.6705
 1499SOL     OW15955   1.456   2.373  15.923 -0.2588  0.8152 -0.1210
 1499SOL    HW115956   1.405   2.304  15.965  2.9252  0.1205  2.5894
 1499SOL    HW215957   1.397   2.382  15.848  0.7218  0.6095 -0.9080
 1500SOL     OW15958   2.441   3.502   2.882  0.0216  0.1668 -0.4844
 1500SOL    HW115959   2.362   3.450   2.893  0.2126 -0.3543 -1.5931
 1500SOL    HW215960   2.410   3.577   2.830  0.9140  1.3787  0.7350
 1501SOL     OW15961   3.336   0.286   3.436 -0.2038  0.3455  0.5397
 1501SOL    HW115962   3.286   0.213   3.399  0.5530  0.4503 -0.6688
 1501SOL    HW215963   3.382   0.243   3.508  1.4108 -1.4515 -1.5842
 1502SOL     OW15964   1.683   3.050   5.358  0.7078  0.2589 -0.0962
 1502SOL    HW115965   1.643   2.971   5.320 -2.1993  0.6944  2.0394
 1502SOL    HW215966   1.617   3.117   5.340 -1.6374 -1.5720  1.5407
 1503SOL     OW15967   2.974   3.067  10.317  0.3672 -0.6374  0.9185
 1503SOL    HW115968   2.912   3.078  10.246 -1.4068  1.0583  2.7207
 1503SOL    HW215969   3.033   2.998  10.287 -0.1139 -0.4187 -0.5277
 1504SOL     OW15970   0.016   1.386   6.976 -0.3242 -0.3223 -0.5189
 1504SOL    HW115971   0.101   1.345   6.987 -0.5455 -0.7367 -0.3242
 1504SOL    HW215972   4.713   1.341   6.897 -0.2087 -0.2675 -0.5922
 1505SOL     OW15973   2.626   0.279  17.558  0.2639 -0.5231  0.0594
 1505SOL    HW115974   2.541   0.260  17.598  0.4901  2.2432  1.8980
 1505SOL    HW215975   2.685   0.290  17.633 -1.8219 -0.2514  1.6586
 1506SOL     OW15976   0.056   1.494  15.053 -0.1743 -0.1949 -0.1499
 1506SOL    HW115977   4.705   1.463  15.101  0.9118 -0.1791  1.6033
 1506SOL    HW215978   0.110   1.415  15.059  0.5725  0.3866  0.7951
 1507SOL     OW15979   1.417   2.273   2.128  0.1794  0.0524  0.2404
 1507SOL    HW115980   1.411   2.364   2.157 -1.3134  0.5932 -1.7935
 1507SOL    HW215981   1.381   2.276   2.039 -3.5579  0.8766  1.8117
 1508SOL     OW15982   3.469   3.332   9.059  0.2020  0.8446  0.0823
 1508SOL    HW115983   3.414   3.346   9.136 -1.2565 -0.9396 -0.6511
 1508SOL    HW215984   3.482   3.421   9.027 -0.1173  0.3719 -1.3490
 1509SOL     OW15985   3.343   3.324   9.711 -0.4204  0.2801  0.7250
 1509SOL    HW115986   3.391   3.244   9.730 -0.2491  0.3774  0.7040
 1509SOL    HW215987   3.409   3.393   9.703 -0.2255  0.0134 -0.0016
 1510SOL     OW15988   0.896   0.580   4.346 -0.5509  0.2068  0.3998
 1510SOL    HW115989   0.849   0.660   4.323  3.0814  1.9755 -0.9742
 1510SOL    HW215990   0.975   0.594   4.294 -1.1940  1.8648 -0.1188
 1511SOL     OW15991   1.863   2.556  13.430  0.6153 -0.1185 -0.0453
 1511SOL    HW115992   1.836   2.626  13.370  0.0476  0.8800  1.3648
 1511SOL    HW215993   1.835   2.585  13.517  0.5106  3.0986 -1.1384
 1512SOL     OW15994   3.315   3.255   7.047 -0.1140  0.3123 -0.1540
 1512SOL    HW115995   3.345   3.263   6.957  0.1607  2.2751  0.1189
 1512SOL    HW215996   3.226   3.228   7.022 -1.2919  2.8805  1.2970
 1513SOL     OW15997   2.547   4.306   8.668 -0.3075 -0.0598 -0.1061
 1513SOL    HW115998   2.552   4.225   8.718 -0.6738  1.4941  2.4340
 1513SOL    HW215999   2.523   4.274   8.581  0.7418  0.4558 -0.5918
 1514SOL     OW16000   3.989   1.696   7.611  0.1025  0.2274 -0.3806
 1514SOL    HW116001   4.078   1.689   7.576  0.0795  2.7023 -0.9512
 1514SOL    HW216002   3.960   1.605   7.607  0.5032  0.0636  0.6210
 1515SOL     OW16003   2.181   1.851   7.570 -0.0606  0.2935  0.3783
 1515SOL    HW116004   2.248   1.845   7.502  0.6096 -1.8835  1.2310
 1515SOL    HW216005   2.183   1.944   7.595  0.1146  0.5651 -0.6539
 1516SOL     OW16006   2.073   3.411   8.035 -0.1098  0.1372  0.6661
 1516SOL    HW116007   2.116   3.416   7.950 -1.0822 -1.2773  0.1130
 1516SOL    HW216008   2.041   3.501   8.031  1.4584  0.7382  1.4902
 1517SOL     OW16009   2.667   2.247   2.671 -0.0114  0.0474 -0.3355
 1517SOL    HW116010   2.625   2.320   2.716 -1.8196  0.3251 -2.4638
 1517SOL    HW216011   2.695   2.195   2.747  1.0066  0.1785 -0.6148
 1518SOL     OW16012   1.191   0.252   1.503  0.4097 -0.4155 -0.3728
 1518SOL    HW116013   1.257   0.244   1.435 -0.8322  0.2265 -1.6565
 1518SOL    HW216014   1.235   0.204   1.573 -0.0843 -1.2476 -0.6324
 1519SOL     OW16015   2.667   4.319   4.179  0.4033  0.0963 -0.4539
 1519SOL    HW116016   2.659   4.345   4.271 -1.8143  0.1196 -0.6407
 1519SOL    HW216017   2.753   4.278   4.179  0.7749  0.8905 -0.1508
 1520SOL     OW16018   4.151   2.446  13.984 -0.6911  0.3068  0.5865
 1520SOL    HW116019   4.218   2.431  13.918 -1.0781  1.5890 -0.0950
 1520SOL    HW216020   4.128   2.530  13.944 -4.1480  0.1061  2.0705
 1521SOL     OW16021   2.180   3.113   5.087  0.3934  0.2873 -0.0859
 1521SOL    HW116022   2.189   3.019   5.072 -0.1152  0.3126 -0.5619
 1521SOL    HW216023   2.212   3.131   5.175  2.0682 -0.1241 -0.6092
 1522SOL     OW16024   3.558   3.604   8.526  0.1733 -0.3474  0.3156
 1522SOL    HW116025   3.469   3.571   8.532 -0.0135 -0.2724 -1.9658
 1522SOL    HW216026   3.599   3.531   8.573  1.8192 -0.7453 -1.7280
 1523SOL     OW16027   0.522   3.663  11.229  0.2789 -0.0760  0.0843
 1523SOL    HW116028   0.500   3.753  11.203 -2.7823 -0.8959 -0.1909
 1523SOL    HW216029   0.442   3.651  11.280 -0.8282  0.1641 -1.5929
 1524SOL     OW16030   2.013   2.829   8.123  0.2154 -0.2118  0.1880
 1524SOL    HW116031   2.006   2.924   8.129 -1.2276 -0.2118 -1.2487
 1524SOL    HW216032   2.086   2.810   8.181  0.7116 -0.5184 -0.5355
 1525SOL     OW16033   4.308   4.167   9.052  0.0908 -0.0596 -0.0785
 1525SOL    HW116034   4.365   4.202   9.121  1.1257 -1.0515 -0.4326
 1525SOL    HW216035   4.220   4.170   9.089  0.0114  0.8791 -0.3197
 1526SOL     OW16036   1.075   3.735  12.082  0.9488 -0.3040 -0.5743
 1526SOL    HW116037   1.109   3.821  12.058  0.8070 -0.0868  0.0045
 1526SOL    HW216038   1.122   3.722  12.165  0.8365 -3.7869 -1.0400
 1527SOL     OW16039   2.467   1.475  11.702 -0.1672 -0.3520 -0.3969
 1527SOL    HW116040   2.389   1.501  11.653 -0.9260 -0.1323  0.9100
 1527SOL    HW216041   2.495   1.553  11.750 -1.5341 -1.3972  2.0890
 1528SOL     OW16042   4.065   3.909   9.520 -0.2162 -0.1561  0.4155
 1528SOL    HW116043   4.109   3.971   9.463 -2.5283  1.4972  0.4340
 1528SOL    HW216044   4.116   3.831   9.497 -2.6856 -1.6400 -0.0198
 1529SOL     OW16045   2.760   2.665   6.252 -0.0820 -0.0032 -0.0030
 1529SOL    HW116046   2.846   2.706   6.242 -1.1294  2.3387  0.5557
 1529SOL    HW216047   2.711   2.730   6.201  0.2006  1.6594  1.8580
 1530SOL     OW16048   1.763   0.066   1.498 -0.1156 -0.2956 -0.3403
 1530SOL    HW116049   1.837   0.036   1.551 -1.6996  1.9565  3.2009
 1530SOL    HW216050   1.689   0.062   1.559 -1.1588 -0.3872 -1.5975
 1531SOL     OW16051   1.440   1.774   3.455 -0.0786 -0.2546  0.5011
 1531SOL    HW116052   1.464   1.861   3.423 -1.3835 -0.5662 -1.3798
 1531SOL    HW216053   1.365   1.749   3.401  0.1573 -0.2904  0.1847
 1532SOL     OW16054   0.621   1.772   4.909  1.0189 -0.4759  0.2625
 1532SOL    HW116055   0.585   1.848   4.862  0.8813 -0.2091  0.8035
 1532SOL    HW216056   0.650   1.722   4.833  2.3908 -0.2871  0.6608
 1533SOL     OW16057   3.056   2.460   7.455  0.6224 -0.5003  0.3712
 1533SOL    HW116058   3.044   2.425   7.543 -0.2539  0.7992  0.7654
 1533SOL    HW216059   2.984   2.415   7.411 -0.9258  0.6681  1.7109
 1534SOL     OW16060   0.122   3.098   2.108  0.1834  0.6261  0.2942
 1534SOL    HW116061   0.129   3.191   2.090 -2.7870  0.7878 -0.0948
 1534SOL    HW216062   0.212   3.067   2.123  0.2740  1.4165  1.3540
 1535SOL     OW16063   2.751   4.167  16.570  0.1471  0.2825  0.7280
 1535SOL    HW116064   2.702   4.176  16.652 -0.1467  1.1887  0.4533
 1535SOL    HW216065   2.707   4.094  16.525 -2.6862  2.2708  0.2634
 1536SOL     OW16066   3.546   4.626  12.335 -0.0492  0.0723  0.4847
 1536SOL    HW116067   3.550   4.717  12.363 -0.4624  0.2567 -0.0578
 1536SOL    HW216068   3.634   4.597  12.359  0.1362  0.3143  0.0883
 1537SOL     OW16069   0.040   2.846   5.760  0.1407 -0.4008  0.2296
 1537SOL    HW116070   0.022   2.777   5.695 -1.3049 -0.3911  0.6084
 1537SOL    HW216071   0.130   2.828   5.787  0.3129 -1.5672 -1.1495
 1538SOL     OW16072   0.504   4.404   7.050  0.2765 -0.5533 -0.0715
 1538SOL    HW116073   0.417   4.371   7.070  1.0898 -1.6482  1.6419
 1538SOL    HW216074   0.524   4.385   6.958 -0.3760 -1.5058 -0.0095
 1539SOL     OW16075   2.255   1.144  15.732 -0.2750 -0.3254  0.0273
 1539SOL    HW116076   2.223   1.227  15.696  0.7101 -0.2741 -0.7340
 1539SOL    HW216077   2.209   1.078  15.682 -1.2638 -0.6458  1.3658
 1540SOL     OW16078   0.006   0.317  11.213 -0.1268  0.3707  0.3095
 1540SOL    HW116079   4.689   0.394  11.251 -0.7550  0.2891 -0.2341
 1540SOL    HW216080   0.085   0.311  11.266 -0.7335 -0.0905  1.1635
 1541SOL     OW16081   3.575   1.664   4.056 -0.7741 -0.1424 -0.1669
 1541SOL    HW116082   3.574   1.592   3.992 -1.0891  0.6232 -1.0111
 1541SOL    HW216083   3.590   1.731   3.990 -0.4593  1.4177  1.4808
 1542SOL     OW16084   0.872   1.054  15.774  0.2052  0.2839 -0.1220
 1542SOL    HW116085   0.869   0.960  15.794 -1.3562  0.2545 -0.5180
 1542SOL    HW216086   0.866   1.041  15.679  0.4034 -2.1336  0.1807
 1543SOL     OW16087   3.932   1.888  13.310 -0.0125  0.5722 -0.6582
 1543SOL    HW116088   3.853   1.940  13.299 -1.3514 -1.0999  0.9527
 1543SOL    HW216089   3.970   1.929  13.387 -2.1921  1.3042  0.0229
 1544SOL     OW16090   0.017   2.652   5.585 -0.1083  0.1551  0.4075
 1544SOL    HW116091   4.655   2.616   5.570  0.0282 -0.5665  1.2980
 1544SOL    HW216092   0.045   2.574   5.634 -1.8043 -0.6408  0.1215
 1545SOL     OW16093   1.751   0.399   8.723 -0.1783 -0.1524 -0.3141
 1545SOL    HW116094   1.753   0.390   8.819 -0.5072  1.0550 -0.1958
 1545SOL    HW216095   1.675   0.456   8.711 -1.5110 -1.5784  1.1677
 1546SOL     OW16096   2.142   0.906   1.864  0.5996 -0.0168 -0.2465
 1546SOL    HW116097   2.160   0.862   1.947  1.6631  1.1132  0.1122
 1546SOL    HW216098   2.136   0.999   1.883  0.2264  0.1189 -1.0496
 1547SOL     OW16099   4.712   0.184   4.395 -0.2296  0.4691  0.2287
 1547SOL    HW116100   0.061   0.129   4.376  0.6522  1.2882  1.3428
 1547SOL    HW216101   4.681   0.197   4.305 -2.6332  1.7911  1.2312
 1548SOL     OW16102   2.967   1.559   2.394 -0.0428  0.3089  0.0630
 1548SOL    HW116103   2.993   1.472   2.365  1.7368  1.3971 -1.6656
 1548SOL    HW216104   2.930   1.598   2.315 -0.0079  1.4079  0.5871
 1549SOL     OW16105   0.738   3.517  15.424  0.2078 -0.0835  0.2608
 1549SOL    HW116106   0.803   3.458  15.462 -0.3989  0.2958  1.8502
 1549SOL    HW216107   0.771   3.605  15.445  1.0568  0.1543 -2.0215
 1550SOL     OW16108   0.770   3.442  16.546  0.1659 -0.3145 -0.3836
 1550SOL    HW116109   0.776   3.523  16.598 -1.3073  1.3014 -2.7386
 1550SOL    HW216110   0.768   3.485  16.461 -1.3412 -1.2724 -0.8306
 1551SOL     OW16111   0.466   0.156   8.175  0.2653  0.8545  0.2105
 1551SOL    HW116112   0.470   0.248   8.200 -0.7972  0.7879  0.6007
 1551SOL    HW216113   0.557   0.126   8.178  0.6003  1.6221 -2.5161
 1552SOL     OW16114   2.649   3.620   4.677 -0.6938 -0.3058  0.2314
 1552SOL    HW116115   2.597   3.585   4.749 -0.5210  0.7520  0.8763
 1552SOL    HW216116   2.655   3.711   4.707  0.9497 -0.5455  0.6101
 1553SOL     OW16117   3.997   0.932   5.413  0.2494 -0.4208  0.4526
 1553SOL    HW116118   3.950   0.881   5.347 -1.3332 -2.0535  2.8227
 1553SOL    HW216119   3.951   0.903   5.493  0.0090  1.6866  1.0621
 1554SOL     OW16120   1.539   4.034   0.674  0.1918 -0.1213 -0.0254
 1554SOL    HW116121   1.603   4.085   0.724 -1.3007 -0.6881  2.4680
 1554SOL    HW216122   1.551   3.954   0.726  2.1201 -0.5085 -1.0710
 1555SOL     OW16123   3.996   3.190   1.884  0.1038 -0.1449  0.1777
 1555SOL    HW116124   3.942   3.167   1.959  2.6338 -1.2089  1.6941
 1555SOL    HW216125   3.965   3.126   1.820 -0.0215  0.8437 -0.7597
 1556SOL     OW16126   0.523   0.781   5.643  0.0237  0.6224 -0.5336
 1556SOL    HW116127   0.531   0.686   5.636 -0.1870  0.6849 -1.5859
 1556SOL    HW216128   0.492   0.811   5.558 -0.6691 -0.6036 -0.7159
 1557SOL     OW16129   2.258   1.533  11.952  0.7435 -0.2824 -0.2260
 1557SOL    HW116130   2.304   1.458  11.913  0.1720  0.4242 -2.2722
 1557SOL    HW216131   2.164   1.525  11.939  0.7303 -3.5471  1.9067
 1558SOL     OW16132   3.465   4.222   6.131 -0.3036  0.1621 -0.2179
 1558SOL    HW116133   3.416   4.302   6.153 -0.3983  0.4169 -1.3397
 1558SOL    HW216134   3.527   4.253   6.064  0.2608  1.7204  1.0303
 1559SOL     OW16135   1.636   2.664   7.420  0.4806 -0.0847 -0.3527
 1559SOL    HW116136   1.593   2.750   7.425  0.0902 -0.0364 -4.4401
 1559SOL    HW216137   1.558   2.616   7.390 -0.7274  0.2193  2.3234
 1560SOL     OW16138   1.537   3.184  11.321  0.1541  0.5913  0.3031
 1560SOL    HW116139   1.609   3.150  11.374  0.4952  0.5239 -0.2054
 1560SOL    HW216140   1.462   3.145  11.364  0.2835  1.2111  1.0923
 1561SOL     OW16141   0.108   1.386   9.719  0.1620 -0.1936  0.0822
 1561SOL    HW116142   0.048   1.411   9.789 -0.3930 -1.4202  0.0368
 1561SOL    HW216143   0.190   1.430   9.739 -0.3554  1.4067 -1.2396
 1562SOL     OW16144   3.157   0.921   8.326 -0.3651  0.3480 -0.3198
 1562SOL    HW116145   3.247   0.915   8.356 -0.2826 -0.9253 -0.8158
 1562SOL    HW216146   3.111   0.985   8.380  0.7496  0.5443  0.3930
 1563SOL     OW16147   0.157   0.790  10.640  0.1678  0.4017 -0.1844
 1563SOL    HW116148   0.069   0.829  10.639 -0.0627 -0.1156 -0.3922
 1563SOL    HW216149   0.209   0.868  10.661 -1.0704  1.1384  0.1698
 1564SOL     OW16150   2.108   0.190   4.299 -0.2998 -0.2945 -0.0844
 1564SOL    HW116151   2.080   0.261   4.357  1.1477  0.8337 -0.7738
 1564SOL    HW216152   2.151   0.242   4.231 -1.2995  1.3297  0.5284
 1565SOL     OW16153   1.627   2.270   7.909 -0.2807  0.3564 -0.2147
 1565SOL    HW116154   1.711   2.281   7.864  0.0133  0.1254  0.2796
 1565SOL    HW216155   1.622   2.176   7.927 -0.9897  0.6565  1.1415
 1566SOL     OW16156   3.341   3.678   2.672  0.1302 -0.2018  0.0828
 1566SOL    HW116157   3.435   3.666   2.686  0.4495  0.1650 -1.8134
 1566SOL    HW216158   3.321   3.765   2.708  0.2898 -0.2002  0.1670
 1567SOL     OW16159   3.072   3.846  13.612  0.0573  0.0122  0.5349
 1567SOL    HW116160   3.142   3.910  13.624 -0.9334  1.0151  0.9892
 1567SOL    HW216161   3.101   3.809  13.528  4.1130 -1.4048  2.5915
 1568SOL     OW16162   1.664   3.307   8.314  0.4499  0.4884 -0.1761
 1568SOL    HW116163   1.700   3.393   8.336  0.9292  0.1649  0.2992
 1568SOL    HW216164   1.733   3.248   8.343  0.2937  0.9537  1.1146
 1569SOL     OW16165   3.139   3.277   3.247  0.3562  0.0004 -0.0874
 1569SOL    HW116166   3.164   3.294   3.157 -2.3554  1.3122 -0.5736
 1569SOL    HW216167   3.159   3.359   3.291  0.6860  0.5581 -1.2828
 1570SOL     OW16168   2.164   1.925   5.990 -0.0259  0.2848 -0.5389
 1570SOL    HW116169   2.180   1.844   5.941 -0.7878 -0.5040  0.5231
 1570SOL    HW216170   2.151   1.981   5.913 -1.4385  0.3171 -0.2951
 1571SOL     OW16171   0.647   2.739   6.114 -0.6142 -0.0595  0.1835
 1571SOL    HW116172   0.720   2.684   6.086 -0.0479  0.5758  0.4043
 1571SOL    HW216173   0.600   2.669   6.160  0.7432  0.6228  2.6034
 1572SOL     OW16174   1.010   3.731  11.818 -0.2018  0.5215  0.3119
 1572SOL    HW116175   1.047   3.718  11.905 -3.1617 -0.3076  1.4649
 1572SOL    HW216176   1.059   3.807  11.788 -1.9471  1.8868  0.9142
 1573SOL     OW16177   2.311   2.208   3.909 -0.1329 -0.5160 -0.3413
 1573SOL    HW116178   2.299   2.185   3.816  0.6487  1.0459 -0.8189
 1573SOL    HW216179   2.232   2.260   3.919  0.8545  0.6866  1.1330
 1574SOL     OW16180   1.380   2.867  16.773 -0.4615  0.1232 -0.4058
 1574SOL    HW116181   1.400   2.925  16.700  1.8663 -0.5149 -0.2755
 1574SOL    HW216182   1.304   2.822  16.735 -1.0839 -0.1640  1.1625
 1575SOL     OW16183   3.112   0.899   4.394  0.1657  0.4541 -0.7257
 1575SOL    HW116184   3.189   0.951   4.415 -0.3054  1.8242 -2.4537
 1575SOL    HW216185   3.036   0.935   4.440 -0.8048 -0.6072 -1.4868
 1576SOL     OW16186   2.638   3.023   1.401  0.1941  0.0419 -0.0108
 1576SOL    HW116187   2.574   3.092   1.420  0.7300  0.8008 -0.9674
 1576SOL    HW216188   2.720   3.071   1.392 -0.4994  1.3887  0.8698
 1577SOL     OW16189   2.818   4.640   6.107 -0.3438 -0.0165 -0.2443
 1577SOL    HW116190   2.769   4.562   6.083 -0.1921  0.3666 -1.7528
 1577SOL    HW216191   2.871   4.615   6.183 -0.3133 -0.1221 -0.3015
 1578SOL     OW16192   1.324   2.532   2.221 -0.1815  0.5134  0.3137
 1578SOL    HW116193   1.257   2.464   2.236  0.1126 -0.0082 -0.7697
 1578SOL    HW216194   1.285   2.588   2.155  0.0782 -2.5347 -2.4423
 1579SOL     OW16195   1.315   3.322   5.940 -0.3437 -0.0962  0.5570
 1579SOL    HW116196   1.229   3.293   5.911 -0.5056  1.5561 -0.6106
 1579SOL    HW216197   1.333   3.390   5.876  2.5149  0.2608  1.7422
 1580SOL     OW16198   3.130   2.959   7.181 -0.2356 -0.1389  0.0652
 1580SOL    HW116199   3.114   2.865   7.192  0.3409 -0.3460 -0.8778
 1580SOL    HW216200   3.224   2.960   7.198 -0.1351 -2.3927 -0.3326
 1581SOL     OW16201   1.081   3.425  15.837 -0.6528 -0.6262 -0.0968
 1581SOL    HW116202   1.120   3.410  15.923  0.8121  0.8405 -0.5107
 1581SOL    HW216203   1.155   3.396  15.784  0.5872  1.3484  0.5794
 1582SOL     OW16204   0.069   2.335   6.030 -0.0292 -0.7333  0.1058
 1582SOL    HW116205   0.080   2.259   5.972  2.0726  0.1586 -0.6538
 1582SOL    HW216206   4.724   2.371   5.977 -0.3127  0.5074  1.3190
 1583SOL     OW16207   2.806   0.506   4.885 -0.4483 -0.4061  0.7381
 1583SOL    HW116208   2.862   0.430   4.873 -1.7327 -1.0701 -1.0308
 1583SOL    HW216209   2.764   0.505   4.799  1.3737  0.2753 -0.1717
 1584SOL     OW16210   0.060   4.385   1.265 -0.0237  0.4728 -0.0498
 1584SOL    HW116211   0.031   4.451   1.327  0.6852  1.0598 -0.3391
 1584SOL    HW216212   4.716   4.404   1.202  0.9046  0.4372 -1.0993
 1585SOL     OW16213   0.957   3.141  15.598 -0.0384 -0.0428 -0.2379
 1585SOL    HW116214   0.884   3.099  15.642  1.9433 -0.4291  2.6787
 1585SOL    HW216215   0.934   3.234  15.596 -0.3720 -0.1090  0.5647
 1586SOL     OW16216   3.654   1.341   5.684 -0.6491  0.1564 -0.3028
 1586SOL    HW116217   3.620   1.367   5.770  2.0467 -0.2842  0.9072
 1586SOL    HW216218   3.631   1.248   5.687 -2.1828  0.5887  2.0819
 1587SOL     OW16219   3.172   1.173  10.657 -0.4350  0.1529  0.1342
 1587SOL    HW116220   3.176   1.265  10.685 -2.4552  0.6981 -1.3973
 1587SOL    HW216221   3.164   1.137  10.745  1.8459 -3.4404 -1.1199
 1588SOL     OW16222   2.469   3.945   8.822  0.3140 -0.1207 -0.0827
 1588SOL    HW116223   2.472   3.903   8.736 -3.9626  1.1795 -0.8388
 1588SOL    HW216224   2.430   3.876   8.876 -0.1735 -1.6074 -2.3538
 1589SOL     OW16225   4.530   0.194   4.977 -0.1941 -0.0605 -0.0114
 1589SOL    HW116226   4.485   0.270   4.941  1.1543  0.9342  0.4134
 1589SOL    HW216227   4.523   0.216   5.070  2.4195  1.4363 -0.1651
 1590SOL     OW16228   0.516   2.369   2.517  0.2905  0.0934  0.2671
 1590SOL    HW116229   0.538   2.340   2.606  2.1185  0.8833  0.0723
 1590SOL    HW216230   0.436   2.322   2.493  1.2678 -2.5705  2.2698
 1591SOL     OW16231   2.214   3.294   3.694  0.8179 -1.1894 -1.1421
 1591SOL    HW116232   2.177   3.265   3.610 -1.3327  1.8562 -1.2391
 1591SOL    HW216233   2.145   3.269   3.754  1.2396 -1.2138 -0.6707
 1592SOL     OW16234   3.076   4.312   5.348  0.3443  0.2733 -0.2564
 1592SOL    HW116235   3.140   4.383   5.353  3.2750 -2.5550  2.0087
 1592SOL    HW216236   3.069   4.314   5.252  1.4546 -0.6299 -0.3521
 1593SOL     OW16237   3.077   3.007   0.324 -0.4967 -0.2596  0.5629
 1593SOL    HW116238   3.145   2.958   0.277 -0.8655  0.0246 -0.2620
 1593SOL    HW216239   3.024   2.934   0.357 -0.0075 -1.1010 -0.5200
 1594SOL     OW16240   1.391   3.823   8.179  0.1328 -0.4830  0.0861
 1594SOL    HW116241   1.369   3.739   8.139  0.4534 -0.2544 -0.5618
 1594SOL    HW216242   1.299   3.850   8.191  0.3227  0.4708 -0.5642
 1595SOL     OW16243   2.891   0.378   2.089 -0.3541 -0.5589  0.0316
 1595SOL    HW116244   2.971   0.430   2.081 -1.6901  1.2831 -1.5674
 1595SOL    HW216245   2.916   0.322   2.162 -3.3003 -1.9252 -0.0135
 1596SOL     OW16246   1.184   2.370   0.208 -0.3494 -0.0612  0.0283
 1596SOL    HW116247   1.168   2.279   0.184 -1.4944 -0.0250  0.6366
 1596SOL    HW216248   1.103   2.396   0.254 -0.4674  1.9294 -1.2903
 1597SOL     OW16249   3.480   0.561   2.339  0.1298 -0.1841  0.1807
 1597SOL    HW116250   3.500   0.481   2.389 -0.4643 -1.3307 -1.3956
 1597SOL    HW216251   3.438   0.619   2.402 -0.1743  0.6818 -0.8326
 1598SOL     OW16252   2.635   4.287  11.849  0.0555 -0.0569  0.6097
 1598SOL    HW116253   2.717   4.323  11.816 -0.9091 -0.2011 -1.9811
 1598SOL    HW216254   2.595   4.249  11.770 -2.3311  1.3619  1.1312
 1599SOL     OW16255   0.530   1.039   6.719  0.7909 -0.5339 -0.3590
 1599SOL    HW116256   0.455   1.098   6.714  0.4577 -1.0392 -1.3387
 1599SOL    HW216257   0.486   0.954   6.726  1.0922 -0.5239  1.7961
 1600SOL     OW16258   4.515   1.117   3.717 -0.2878  0.8938  0.6486
 1600SOL    HW116259   4.425   1.134   3.687 -0.1645  0.8657  0.2614
 1600SOL    HW216260   4.563   1.138   3.637 -1.6052 -1.6130 -0.7909
 1601SOL     OW16261   3.967   0.668   5.597 -0.5046  0.4976  0.6545
 1601SOL    HW116262   3.984   0.658   5.691  1.3205 -2.3187  0.0365
 1601SOL    HW216263   4.055   0.649   5.563 -0.8954 -1.4283  0.7023
 1602SOL     OW16264   4.394   4.234   4.018  0.0961 -0.0457 -0.8808
 1602SOL    HW116265   4.413   4.141   4.005 -1.4407 -0.9402  3.1554
 1602SOL    HW216266   4.382   4.221   4.113 -1.8013 -1.5225 -1.3074
 1603SOL     OW16267   1.588   0.765   7.309  0.0834  0.4620 -0.9948
 1603SOL    HW116268   1.595   0.678   7.270  2.8962  0.7632 -1.1510
 1603SOL    HW216269   1.651   0.758   7.380 -1.0475 -1.2355 -0.1571
 1604SOL     OW16270   4.208   0.073  13.121 -0.0453 -0.6667  0.8266
 1604SOL    HW116271   4.164   0.093  13.038 -0.4079  0.7148  1.3548
 1604SOL    HW216272   4.154   0.129  13.177 -1.2683 -0.8752 -0.1498
 1605SOL     OW16273   3.706   1.891   6.108  0.3857  0.1937  0.1239
 1605SOL    HW116274   3.766   1.857   6.175  0.6054  1.4287  0.5456
 1605SOL    HW216275   3.622   1.907   6.151  0.0007  1.8971 -1.2784
 1606SOL     OW16276   0.657   1.986   1.785 -0.0564  0.3369  0.2640
 1606SOL    HW116277   0.580   1.986   1.840  0.3114  0.5690  0.7775
 1606SOL    HW216278   0.668   1.896   1.753  3.3009  1.4702 -1.8356
 1607SOL     OW16279   0.471   1.364   0.998 -0.2746  0.8542 -0.2253
 1607SOL    HW116280   0.440   1.414   0.923 -3.9935  1.4604  1.7339
 1607SOL    HW216281   0.429   1.281   0.975  0.7083  0.5317 -0.8349
 1608SOL     OW16282   2.664   0.249   2.018  0.2595  0.5854 -0.1913
 1608SOL    HW116283   2.610   0.319   2.054 -1.6146 -1.5785  1.1125
 1608SOL    HW216284   2.745   0.284   2.056  1.6111 -3.6338  0.7230
 1609SOL     OW16285   0.976   1.921   0.020  0.4667 -0.3170  0.5944
 1609SOL    HW116286   0.952   1.930   0.112  0.4591  1.5844  0.4073
 1609SOL    HW216287   1.001   1.829   0.028  0.6496 -0.3134  0.0733
 1610SOL     OW16288   0.813   3.760   6.049 -0.6962  0.0668 -0.4454
 1610SOL    HW116289   0.776   3.783   5.963  0.7562  2.6758 -0.3916
 1610SOL    HW216290   0.797   3.847   6.087 -1.6383 -0.4100  0.2535
 1611SOL     OW16291   1.505   2.884   7.455 -0.1905  0.1714 -0.7990
 1611SOL    HW116292   1.459   2.835   7.523  1.2303  1.0091  0.7499
 1611SOL    HW216293   1.481   2.975   7.475  1.9282  0.8781 -1.5054
 1612SOL     OW16294   4.545   1.877   1.540  0.0897  0.0823 -0.7073
 1612SOL    HW116295   4.526   1.966   1.568  0.0187  0.4317 -1.8698
 1612SOL    HW216296   4.498   1.867   1.457 -1.5175 -0.7567  0.3081
 1613SOL     OW16297   2.250   2.464   1.287 -0.6086 -0.0581  0.1921
 1613SOL    HW116298   2.192   2.436   1.216 -1.5922  0.3025  0.8624
 1613SOL    HW216299   2.313   2.521   1.242  1.0398 -1.2808  0.9394
 1614SOL     OW16300   1.518   0.718   4.037  0.0623 -0.2923  0.3840
 1614SOL    HW116301   1.579   0.649   4.013 -0.4095 -1.5414  2.7172
 1614SOL    HW216302   1.452   0.669   4.087  2.1670 -1.2249  2.2590
 1615SOL     OW16303   0.640   3.794   7.298 -0.5468  0.3697  0.2703
 1615SOL    HW116304   0.635   3.741   7.218 -0.1817  0.3196  0.2772
 1615SOL    HW216305   0.719   3.756   7.336  0.3082  2.0036  0.1677
 1616SOL     OW16306   4.294   3.136   2.845  0.2655 -0.2644 -0.1501
 1616SOL    HW116307   4.260   3.064   2.897  1.3018 -2.0016 -1.8523
 1616SOL    HW216308   4.371   3.164   2.895  0.4483 -0.4216 -0.3452
 1617SOL     OW16309   2.643   4.467  12.868 -0.2829 -0.1272  0.1524
 1617SOL    HW116310   2.590   4.546  12.880 -0.6482 -0.5512  1.3504
 1617SOL    HW216311   2.712   4.476  12.933 -0.6928  0.6998  0.4806
 1618SOL     OW16312   1.419   0.218  11.897 -0.6334  0.2752 -0.3357
 1618SOL    HW116313   1.340   0.175  11.864 -0.6836  1.1970 -1.4129
 1618SOL    HW216314   1.430   0.285  11.830 -0.2847  0.1598 -0.3990
 1619SOL     OW16315   0.116   0.567   3.286  0.3127  0.7669 -0.5371
 1619SOL    HW116316   0.183   0.573   3.353  0.5489  1.7966 -0.8592
 1619SOL    HW216317   0.144   0.490   3.237  1.4608  0.4495  0.6538
 1620SOL     OW16318   2.744   1.342   4.362 -0.0918  0.0981  0.7124
 1620SOL    HW116319   2.753   1.431   4.397  2.0727 -0.3588  1.3280
 1620SOL    HW216320   2.828   1.320   4.321 -0.6978  0.3146 -0.6432
 1621SOL     OW16321   2.176   3.385   7.784 -0.3597  0.0572 -0.3971
 1621SOL    HW116322   2.234   3.458   7.804  0.5280 -1.6149  3.0570
 1621SOL    HW216323   2.110   3.427   7.728 -0.3132  2.0297  1.0015
 1622SOL     OW16324   1.888   0.865   6.529  0.4430  0.4911 -0.1492
 1622SOL    HW116325   1.984   0.860   6.523  0.4473  0.4082 -0.0145
 1622SOL    HW216326   1.868   0.784   6.577 -0.6081  1.4958  1.0967
 1623SOL     OW16327   2.773   4.596   8.268  0.0581 -0.2373  0.3562
 1623SOL    HW116328   2.795   4.538   8.195 -0.2634  0.2205 -0.0945
 1623SOL    HW216329   2.839   4.556   8.326  1.8457  1.2791 -0.6446
 1624SOL     OW16330   1.341   0.682   7.076  0.5479 -0.3532  0.1906
 1624SOL    HW116331   1.430   0.676   7.042 -0.3803 -1.5261 -2.0218
 1624SOL    HW216332   1.288   0.636   7.010 -1.3293  0.3007  1.2313
 1625SOL     OW16333   3.803   4.009   4.386  0.0966 -0.3757 -0.0897
 1625SOL    HW116334   3.810   3.914   4.400  3.4184 -0.1424 -0.1907
 1625SOL    HW216335   3.711   4.028   4.403  0.1833  1.0352 -1.2116
 1626SOL     OW16336   0.853   2.729  12.409  0.4809 -0.0492 -0.3481
 1626SOL    HW116337   0.867   2.811  12.457  0.6184 -0.8209  0.9245
 1626SOL    HW216338   0.934   2.687  12.436 -1.3480 -1.2506  3.2011
 1627SOL     OW16339   4.475   4.472   3.485 -1.0861  0.1034  0.1396
 1627SOL    HW116340   4.503   4.417   3.558  0.9205 -0.2472 -0.8798
 1627SOL    HW216341   4.475   4.561   3.522  3.0628  1.0257 -2.0901
 1628SOL     OW16342   4.189   3.095   4.854 -0.5540  0.3111 -0.0974
 1628SOL    HW116343   4.213   3.117   4.764  1.9689  1.5628  0.8736
 1628SOL    HW216344   4.262   3.135   4.901 -0.4888  1.7619 -1.4239
 1629SOL     OW16345   0.120   2.204  17.266 -0.1509 -0.0595  0.1720
 1629SOL    HW116346   0.181   2.183  17.195  0.9562  0.0670  1.0859
 1629SOL    HW216347   0.167   2.272  17.313  0.4585  0.7087 -1.5663
 1630SOL     OW16348   3.496   0.124   7.460  0.0305 -0.3518  0.3156
 1630SOL    HW116349   3.504   0.117   7.364 -0.3931 -0.7974  0.3154
 1630SOL    HW216350   3.477   0.217   7.473 -2.0938 -0.9815  1.6814
 1631SOL     OW16351   2.421   3.410   2.077 -0.2573 -0.3504  0.2139
 1631SOL    HW116352   2.341   3.410   2.025 -0.7777  0.8938  1.0028
 1631SOL    HW216353   2.478   3.387   2.005 -0.1320  1.6848 -0.3474
 1632SOL     OW16354   1.080   0.150   5.052  0.4711  0.2945  0.0879
 1632SOL    HW116355   1.056   0.099   4.975 -1.1061  1.0005  0.1173
 1632SOL    HW216356   1.006   0.207   5.071  0.5512  0.2887  0.4209
 1633SOL     OW16357   1.837   0.239   0.771 -0.1112  0.1918  0.1492
 1633SOL    HW116358   1.770   0.171   0.777  1.8225 -1.7206  0.4963
 1633SOL    HW216359   1.842   0.249   0.676 -0.3025 -0.6557  0.0457
 1634SOL     OW16360   3.975   4.293  13.412 -0.1630  0.0775 -0.0504
 1634SOL    HW116361   4.046   4.230  13.426 -0.5165 -1.0458 -3.3291
 1634SOL    HW216362   3.956   4.269  13.322 -0.5791 -0.3297  0.1473
 1635SOL     OW16363   3.770   0.335   4.946 -0.3607  0.2454  0.4796
 1635SOL    HW116364   3.815   0.398   4.889 -1.4822 -0.9838 -1.7435
 1635SOL    HW216365   3.720   0.399   4.996 -0.7361 -0.2464  0.7278
 1636SOL     OW16366   4.188   1.264  17.201 -0.3603 -0.2748  0.1939
 1636SOL    HW116367   4.094   1.246  17.200 -0.3940 -0.1187  0.5071
 1636SOL    HW216368   4.179   1.353  17.236 -2.0214  0.0561 -1.0416
 1637SOL     OW16369   3.690   2.540   5.809 -0.3299 -0.3226  0.3513
 1637SOL    HW116370   3.610   2.540   5.861 -0.5774  2.0586 -0.0188
 1637SOL    HW216371   3.721   2.623   5.846  0.3336  0.4347 -1.8673
 1638SOL     OW16372   4.136   0.234   3.086  0.0963  0.2827 -0.3831
 1638SOL    HW116373   4.206   0.188   3.039 -0.4311  0.4229 -1.3135
 1638SOL    HW216374   4.185   0.263   3.163 -1.8051  1.4401  0.3700
 1639SOL     OW16375   3.577   0.874   5.064  0.2480 -0.0832 -0.5513
 1639SOL    HW116376   3.553   0.959   5.101  1.8818 -0.2128  0.7767
 1639SOL    HW216377   3.671   0.867   5.079  0.1984 -0.3951 -0.3898
 1640SOL     OW16378   0.822   0.074   6.970  0.0397  0.1526  0.4193
 1640SOL    HW116379   0.749   0.024   7.005 -0.3492  1.4875  1.5156
 1640SOL    HW216380   0.801   0.163   6.997  1.7893  0.3400  1.2022
 1641SOL     OW16381   0.737   2.390   6.833 -0.5553 -0.3992 -0.0020
 1641SOL    HW116382   0.650   2.351   6.842 -0.5165 -0.7693 -1.3093
 1641SOL    HW216383   0.731   2.410   6.740  0.8497  0.7599  0.1589
 1642SOL     OW16384   0.259   2.019   6.436 -0.5749  0.0221  0.1122
 1642SOL    HW116385   0.224   2.107   6.420  0.1322 -0.0259 -1.7349
 1642SOL    HW216386   0.221   1.966   6.366 -2.2004 -1.4469  2.1100
 1643SOL     OW16387   4.363   3.658   2.938 -0.4710 -0.3321  0.0854
 1643SOL    HW116388   4.342   3.572   2.901 -1.1909 -0.2730  0.3598
 1643SOL    HW216389   4.377   3.709   2.858  1.6179 -1.4023 -0.2209
 1644SOL     OW16390   0.774   1.541   6.981  0.4606  0.3654 -0.5939
 1644SOL    HW116391   0.858   1.525   6.938  0.2991  1.1118 -1.1779
 1644SOL    HW216392   0.772   1.633   7.004  1.1304  0.3932 -0.6369
 1645SOL     OW16393   4.616   2.828   6.655 -0.2843 -0.0879  0.4628
 1645SOL    HW116394   4.684   2.835   6.588  0.4323  0.6404  1.2511
 1645SOL    HW216395   4.653   2.756   6.707  2.4145 -0.4057 -1.8788
 1646SOL     OW16396   2.290   4.503   6.704 -0.3016  0.0230 -0.0015
 1646SOL    HW116397   2.247   4.418   6.689 -0.6115 -0.0026  1.0371
 1646SOL    HW216398   2.340   4.509   6.622  0.2092  0.8029  0.3730
 1647SOL     OW16399   4.692   0.060   3.817  0.0867 -0.2567  0.4898
 1647SOL    HW116400   0.019   0.119   3.764 -0.1899 -0.0165  0.4872
 1647SOL    HW216401   4.704   0.092   3.907  1.0237  0.6772  0.0302
 1648SOL     OW16402   0.920   3.069   6.894 -0.4024  0.2974 -0.1732
 1648SOL    HW116403   1.013   3.088   6.905 -0.7522  1.1984  1.1603
 1648SOL    HW216404   0.885   3.148   6.934  0.1690  0.3622  0.2054
 1649SOL     OW16405   2.278   1.388  14.230  0.3507  0.0788  0.2862
 1649SOL    HW116406   2.304   1.405  14.320  2.3001 -2.0072  0.1298
 1649SOL    HW216407   2.321   1.303  14.218 -1.3562 -0.5440 -1.4228
 1650SOL     OW16408   1.060   0.438   2.966 -0.1089 -0.2075  0.1728
 1650SOL    HW116409   1.047   0.506   2.901 -0.9157 -2.1272 -1.6640
 1650SOL    HW216410   1.155   0.452   2.972  0.7244 -4.3404 -3.5263
 1651SOL     OW16411   1.212   3.947  14.976  0.0709 -0.3202 -0.0701
 1651SOL    HW116412   1.208   3.868  14.922  0.7773  0.3670 -1.1240
 1651SOL    HW216413   1.128   3.942  15.021 -0.2513 -1.0351 -0.7451
 1652SOL     OW16414   1.853   3.701   5.410  0.1916 -0.0782  0.3425
 1652SOL    HW116415   1.923   3.640   5.389  0.7817  0.8191 -0.2918
 1652SOL    HW216416   1.847   3.662   5.497  0.8497  2.4775  1.5374
 1653SOL     OW16417   3.554   3.488   5.173  0.0254 -0.5441 -0.1709
 1653SOL    HW116418   3.614   3.414   5.190  0.3480  0.4038  2.9296
 1653SOL    HW216419   3.513   3.465   5.090 -1.9461  1.1901  0.3479
 1654SOL     OW16420   1.527   4.210   8.034 -0.3246 -0.2548  0.5269
 1654SOL    HW116421   1.557   4.190   7.945 -0.4735  1.4867  0.0861
 1654SOL    HW216422   1.539   4.126   8.077 -1.4063 -0.3321  0.6829
 1655SOL     OW16423   1.547   0.959   1.796 -0.5137 -0.2932 -0.1223
 1655SOL    HW116424   1.598   0.949   1.715  0.6705  0.6453  0.5054
 1655SOL    HW216425   1.489   1.026   1.761  1.2500  0.6379 -1.3033
 1656SOL     OW16426   1.939   1.307   1.428  0.2655  0.2558  0.0480
 1656SOL    HW116427   1.851   1.335   1.453  0.2842 -0.3085  0.7592
 1656SOL    HW216428   1.948   1.227   1.481  1.2343 -0.9557 -1.9348
 1657SOL     OW16429   1.240   3.171   4.256 -0.2030 -0.2831 -0.6995
 1657SOL    HW116430   1.323   3.199   4.217 -0.5101  0.1093 -1.0653
 1657SOL    HW216431   1.197   3.257   4.259  0.2432 -0.1302  1.2614
 1658SOL     OW16432   2.692   0.048   8.706  0.2201  0.2399 -0.1097
 1658SOL    HW116433   2.723   0.104   8.635  1.4046  0.2110  0.3844
 1658SOL    HW216434   2.709   4.685   8.673 -1.7890  0.8298 -2.7508
 1659SOL     OW16435   3.708   2.056   9.640 -0.3295  0.4491 -0.9400
 1659SOL    HW116436   3.702   1.960   9.646 -0.6509  0.6465  1.7201
 1659SOL    HW216437   3.636   2.080   9.698 -0.7884 -2.0740 -0.4314
 1660SOL     OW16438   0.031   2.567   8.655  0.2673 -0.3440  0.5619
 1660SOL    HW116439   4.718   2.601   8.736  0.1159  2.6533 -0.8030
 1660SOL    HW216440   0.123   2.557   8.680 -0.0102  0.5798  1.9554
 1661SOL     OW16441   3.121   2.707   6.866 -0.2079  0.2502  0.2109
 1661SOL    HW116442   3.075   2.691   6.783 -1.6163  2.2058  0.5973
 1661SOL    HW216443   3.186   2.637   6.863 -0.3261  0.1628 -0.4767
 1662SOL     OW16444   3.482   0.289   5.833  0.0358 -0.3973 -0.4238
 1662SOL    HW116445   3.483   0.312   5.925 -2.1859  0.2809 -0.5663
 1662SOL    HW216446   3.434   0.206   5.836 -1.3229  0.3984 -0.3314
 1663SOL     OW16447   3.163   3.838   2.468 -0.2394  0.2834  0.1920
 1663SOL    HW116448   3.229   3.797   2.413 -1.0680 -1.2359  0.3040
 1663SOL    HW216449   3.120   3.770   2.520 -0.5239 -0.2829 -0.7848
 1664SOL     OW16450   2.235   2.169   7.403 -0.2993  0.1131 -0.4428
 1664SOL    HW116451   2.198   2.150   7.316  1.9241  0.0091 -1.3760
 1664SOL    HW216452   2.295   2.096   7.417 -0.1280  0.1744 -0.8509
 1665SOL     OW16453   2.271   2.096   2.414 -0.1639  0.3910  0.4127
 1665SOL    HW116454   2.306   2.106   2.326  0.6648 -0.5108  0.6469
 1665SOL    HW216455   2.267   2.001   2.425  0.7756  0.2450 -0.5572
 1666SOL     OW16456   3.974   3.834   7.799 -0.0079 -0.4302  0.0126
 1666SOL    HW116457   4.025   3.847   7.879  2.0987 -0.7938 -1.2445
 1666SOL    HW216458   4.021   3.757   7.766  0.3885 -0.3731  0.4379
 1667SOL     OW16459   4.174   4.035  16.060 -0.0403  0.7182 -0.0389
 1667SOL    HW116460   4.142   3.955  16.101 -0.3949  0.9340  0.0995
 1667SOL    HW216461   4.101   4.056  16.002  0.5939 -0.3387 -1.2282
 1668SOL     OW16462   2.309   1.878   1.964  0.0590  0.2825 -0.0670
 1668SOL    HW116463   2.361   1.956   1.943  0.2213  0.3393  0.5502
 1668SOL    HW216464   2.230   1.885   1.909 -0.1235  0.2717  0.1960
 1669SOL     OW16465   1.554   0.870   8.675  0.0769  0.3340  0.6586
 1669SOL    HW116466   1.464   0.844   8.694 -0.0027  0.9207  1.0716
 1669SOL    HW216467   1.597   0.856   8.759 -0.3872  0.7221  0.9567
 1670SOL     OW16468   0.633   1.234  13.929  0.6237 -0.7302 -0.2794
 1670SOL    HW116469   0.637   1.328  13.945 -0.2870 -1.0492  1.8607
 1670SOL    HW216470   0.637   1.193  14.015  2.6436 -0.4449 -0.2222
 1671SOL     OW16471   2.241   2.524  16.687  0.4640  0.2748 -1.1657
 1671SOL    HW116472   2.303   2.455  16.664 -1.5703 -1.5289 -1.2226
 1671SOL    HW216473   2.295   2.600  16.664  1.0115 -0.0543 -0.9549
 1672SOL     OW16474   2.953   2.350  16.587  0.0752 -0.8133 -0.0670
 1672SOL    HW116475   2.970   2.399  16.506  4.2843 -1.7672  0.2411
 1672SOL    HW216476   3.024   2.372  16.646 -1.1250  2.0499  0.3254
 1673SOL     OW16477   4.125   2.713  10.757  0.4197  0.2429  0.5816
 1673SOL    HW116478   4.208   2.713  10.805 -1.5924  2.2883  4.0467
 1673SOL    HW216479   4.095   2.797  10.791 -1.3339 -0.2126  0.1346
 1674SOL     OW16480   4.108   4.187   2.056  0.2399  0.4551  0.6934
 1674SOL    HW116481   4.178   4.150   2.001 -1.7630 -0.2370 -1.3871
 1674SOL    HW216482   4.063   4.107   2.084  0.5796  0.1958  0.5012
 1675SOL     OW16483   0.928   1.639  12.519  0.3180 -0.2668 -0.3430
 1675SOL    HW116484   0.974   1.559  12.491 -1.9163 -1.2475 -1.2168
 1675SOL    HW216485   0.838   1.628  12.489 -0.2005 -0.3690  1.2652
 1676SOL     OW16486   4.245   3.246   6.885  0.3985 -0.0054 -0.1153
 1676SOL    HW116487   4.157   3.278   6.905  0.3958 -0.9343  1.3575
 1676SOL    HW216488   4.301   3.263   6.961  1.2317  2.0402 -1.1529
 1677SOL     OW16489   1.257   0.751   1.363 -0.3439 -0.1927 -0.3322
 1677SOL    HW116490   1.181   0.695   1.378 -2.1691  2.4305  0.2360
 1677SOL    HW216491   1.331   0.692   1.376  1.4957  2.1148 -0.3799
 1678SOL     OW16492   3.105   0.538   4.731  0.3677 -0.0056  0.4036
 1678SOL    HW116493   3.012   0.549   4.710 -0.2207 -1.7865  2.0440
 1678SOL    HW216494   3.116   0.450   4.694  1.2847  0.7059 -0.9768
 1679SOL     OW16495   0.155   0.508  17.622  0.0989 -0.1807  0.0739
 1679SOL    HW116496   0.095   0.576  17.591 -0.9087 -0.8118  0.6258
 1679SOL    HW216497   0.090   0.444  17.651  0.2739  0.2729  1.4617
 1680SOL     OW16498   0.733   1.081   3.704  0.0446 -0.3081  0.2165
 1680SOL    HW116499   0.751   1.173   3.687 -1.0997 -0.3159 -0.9927
 1680SOL    HW216500   0.821   1.043   3.710  0.7663  1.4384  0.5453
 1681SOL     OW16501   4.550   1.718   2.870 -0.5668  0.1146  0.0567
 1681SOL    HW116502   4.610   1.778   2.915 -0.5719  0.0443  0.1563
 1681SOL    HW216503   4.606   1.643   2.850  0.3573  0.6179  0.7485
 1682SOL     OW16504   4.317   4.100  10.606  0.1278  0.4157  0.1023
 1682SOL    HW116505   4.391   4.081  10.549  1.1005  1.7122  0.9156
 1682SOL    HW216506   4.281   4.012  10.603  1.4016 -0.0065 -2.4971
 1683SOL     OW16507   3.334   4.140   1.453  0.0564 -0.2150  0.2592
 1683SOL    HW116508   3.267   4.204   1.432 -0.2212 -0.1210  1.3964
 1683SOL    HW216509   3.306   4.068   1.397 -1.2223  2.4807 -2.5395
 1684SOL     OW16510   1.214   2.120   3.410  0.1313  0.3439 -0.2594
 1684SOL    HW116511   1.195   2.071   3.491  0.1115  0.4072 -0.2253
 1684SOL    HW216512   1.188   2.060   3.341  0.5300 -1.9174  1.5483
 1685SOL     OW16513   2.906   3.738   3.439 -0.5051  0.1784  0.2378
 1685SOL    HW116514   2.943   3.782   3.363  1.6279 -0.1177  1.1063
 1685SOL    HW216515   2.883   3.651   3.407  2.0814  0.3522 -2.0428
 1686SOL     OW16516   3.023   0.310   7.815 -0.3615  0.4614  0.1576
 1686SOL    HW116517   3.039   0.234   7.870 -1.9568 -0.2895 -0.4080
 1686SOL    HW216518   3.048   0.280   7.727 -0.0186  0.3511  0.2929
 1687SOL     OW16519   4.235   4.401   5.519 -0.0965  0.2116  0.4754
 1687SOL    HW116520   4.196   4.477   5.476 -0.2333  0.1082  0.4193
 1687SOL    HW216521   4.295   4.450   5.576  0.8344  0.8011 -0.9954
 1688SOL     OW16522   1.541   3.678  15.422  0.0911 -0.3950 -0.3667
 1688SOL    HW116523   1.556   3.584  15.419  2.2489  0.0092 -2.2644
 1688SOL    HW216524   1.622   3.711  15.383  0.0780  0.4336  0.2930
 1689SOL     OW16525   4.100   0.263  12.527  0.0435  0.5054 -0.0958
 1689SOL    HW116526   4.133   0.351  12.508 -2.5008  1.6446  0.7973
 1689SOL    HW216527   4.117   0.274  12.621 -0.9410 -3.3597  0.5528
 1690SOL     OW16528   3.159   4.258   8.992 -0.3117 -0.1087  0.0161
 1690SOL    HW116529   3.110   4.216   8.922  0.4979  1.1561 -1.3314
 1690SOL    HW216530   3.103   4.334   9.007 -1.5530 -0.6266 -2.0882
 1691SOL     OW16531   4.106   4.698   9.242  0.1941  0.0095 -0.1914
 1691SOL    HW116532   4.075   0.009   9.325  1.8317  0.1589  0.3522
 1691SOL    HW216533   4.094   0.035   9.171 -2.1896  2.2749  2.2335
 1692SOL     OW16534   0.439   1.678   6.558  0.5358  0.9594 -0.0778
 1692SOL    HW116535   0.504   1.620   6.519  0.6268  1.7804 -1.1356
 1692SOL    HW216536   0.460   1.658   6.649 -1.0862  1.2112  0.3481
 1693SOL     OW16537   3.496   2.751   7.402 -0.2170  0.4319 -0.1311
 1693SOL    HW116538   3.464   2.692   7.469  3.4847 -1.7631 -0.3137
 1693SOL    HW216539   3.585   2.721   7.382  0.2722  1.2680  0.7640
 1694SOL     OW16540   1.918   0.252   6.599  0.7008 -0.4020  0.8137
 1694SOL    HW116541   1.991   0.203   6.560 -0.2716 -1.5344  0.4005
 1694SOL    HW216542   1.848   0.189   6.580  0.7679 -0.3082  0.2568
 1695SOL     OW16543   0.136   4.646  16.197 -0.1155 -0.1355  0.3039
 1695SOL    HW116544   0.060   4.590  16.180  0.9595 -1.3436 -0.5834
 1695SOL    HW216545   0.098   4.712  16.255  1.7053 -0.1944  1.5580
 1696SOL     OW16546   1.595   0.364   0.996  0.0589 -0.3450  0.2214
 1696SOL    HW116547   1.533   0.412   1.052 -0.3044 -1.1451  0.5001
 1696SOL    HW216548   1.683   0.392   1.021  0.2174  0.5353 -1.2811
 1697SOL     OW16549   0.420   2.474   9.033  0.1801 -0.6241  0.1830
 1697SOL    HW116550   0.354   2.529   9.077 -1.1304 -2.1618  0.1497
 1697SOL    HW216551   0.499   2.527   9.043 -0.3216  0.5567 -2.3241
 1698SOL     OW16552   3.459   3.059  13.856  0.2957 -0.1115 -0.7938
 1698SOL    HW116553   3.513   3.136  13.876 -0.0459 -0.2586  0.7375
 1698SOL    HW216554   3.507   2.996  13.911  1.7288  0.3190 -1.5433
 1699SOL     OW16555   3.188   3.258   7.312 -0.4237 -0.3033  0.2001
 1699SOL    HW116556   3.174   3.351   7.293 -1.1989 -0.8418 -1.8721
 1699SOL    HW216557   3.234   3.241   7.230 -2.0617 -5.0793  0.3039
 1700SOL     OW16558   3.090   2.930   6.071  0.0084  0.0837 -0.0656
 1700SOL    HW116559   3.129   3.016   6.059 -1.9295  0.8820 -0.6851
 1700SOL    HW216560   3.068   2.909   5.980  1.8226 -1.7544 -0.0934
 1701SOL     OW16561   3.848   1.389   9.295 -0.0381 -0.0162 -0.0988
 1701SOL    HW116562   3.796   1.318   9.257  0.4091  0.2217 -1.1788
 1701SOL    HW216563   3.929   1.338   9.306 -0.7200 -1.3724 -1.2640
 1702SOL     OW16564   2.810   4.242   9.005 -0.2399 -0.4923 -0.5807
 1702SOL    HW116565   2.726   4.195   9.007 -0.9793  0.8892  1.0043
 1702SOL    HW216566   2.803   4.310   9.072  1.7204  1.0681 -2.0051
 1703SOL     OW16567   3.192   4.036   2.062 -0.3987  0.4435 -0.5091
 1703SOL    HW116568   3.269   3.980   2.069 -1.1808 -0.5133  0.5212
 1703SOL    HW216569   3.131   3.970   2.096 -1.0998  1.6382  0.5453
 1704SOL     OW16570   0.922   2.424  10.321 -0.6104 -0.1105  0.1181
 1704SOL    HW116571   0.959   2.440  10.408  0.1399  0.7182 -0.3487
 1704SOL    HW216572   0.960   2.339  10.300 -1.9705 -0.7527  0.2681
 1705SOL     OW16573   1.866   3.942  12.654  0.1400  0.5624 -0.2104
 1705SOL    HW116574   1.887   4.011  12.718  1.2487 -0.2429  0.2901
 1705SOL    HW216575   1.890   3.865  12.705  0.9710  0.8953 -0.0998
 1706SOL     OW16576   1.655   1.272   7.961  0.0751  0.3996 -0.4213
 1706SOL    HW116577   1.630   1.271   8.054 -0.7384 -1.0834 -0.6531
 1706SOL    HW216578   1.703   1.189   7.952  0.3531  0.2742  2.0198
 1707SOL     OW16579   0.483   3.350   0.703 -0.6459  0.0078 -0.2846
 1707SOL    HW116580   0.417   3.311   0.645 -2.0197  0.3374  1.0775
 1707SOL    HW216581   0.555   3.288   0.692  1.0492  1.8910  0.0758
 1708SOL     OW16582   1.619   3.081   7.754 -0.2627  0.1722  0.0768
 1708SOL    HW116583   1.673   3.014   7.713 -4.0159 -1.6265 -1.9315
 1708SOL    HW216584   1.571   3.113   7.678 -1.8251 -1.3829  0.3813
 1709SOL     OW16585   2.871   3.241   0.977 -0.2839 -0.3228  0.0455
 1709SOL    HW116586   2.933   3.171   0.958  1.5946  1.0336  1.2842
 1709SOL    HW216587   2.908   3.303   0.914 -2.0702  0.8547  0.1319
 1710SOL     OW16588   1.845   2.346   8.605  0.0871 -0.4545  0.2071
 1710SOL    HW116589   1.915   2.303   8.653 -0.8926 -1.9459  0.3211
 1710SOL    HW216590   1.826   2.420   8.662  1.6295 -0.3697  0.5957
 1711SOL     OW16591   4.081   4.705   5.502 -0.1021 -0.5087 -0.0336
 1711SOL    HW116592   4.030   0.057   5.482  2.1892  1.0278  0.1181
 1711SOL    HW216593   4.146   4.715   5.432 -0.5201  1.0175 -0.2092
 1712SOL     OW16594   2.860   3.853   8.472  0.4155  0.3754  0.5157
 1712SOL    HW116595   2.944   3.887   8.443  0.7411  0.8577  2.0259
 1712SOL    HW216596   2.853   3.894   8.559 -1.2405 -1.6666  1.3559
 1713SOL     OW16597   2.415   2.636  16.468  0.3764 -0.1094  0.0009
 1713SOL    HW116598   2.423   2.702  16.537 -1.9528 -0.3177  0.4898
 1713SOL    HW216599   2.468   2.562  16.498  1.6976  0.2453 -1.4706
 1714SOL     OW16600   3.168   4.507   4.010 -0.0497 -0.1407 -0.2775
 1714SOL    HW116601   3.160   4.439   4.077 -1.1292  0.1596 -0.1078
 1714SOL    HW216602   3.259   4.496   3.982  0.5185  0.9421  1.1847
 1715SOL     OW16603   2.147   3.051   2.718 -0.0229 -0.1931 -0.0004
 1715SOL    HW116604   2.157   3.139   2.682 -2.4448 -0.2450 -0.8387
 1715SOL    HW216605   2.052   3.050   2.730 -0.3429 -2.0727 -2.7472
 1716SOL     OW16606   3.199   1.108   6.291 -0.1306  0.1196  0.3860
 1716SOL    HW116607   3.113   1.097   6.252  0.9316  1.5821 -2.3202
 1716SOL    HW216608   3.189   1.046   6.363 -0.3873  1.3833  1.4366
 1717SOL     OW16609   1.029   0.806  10.903  0.4831  0.0490 -0.4178
 1717SOL    HW116610   1.033   0.786  10.810  0.0892 -0.3489 -0.3511
 1717SOL    HW216611   1.084   0.885  10.909  0.3100  0.0886  0.7178
 1718SOL     OW16612   1.436   3.831  12.289 -0.6018  0.0858  0.1063
 1718SOL    HW116613   1.526   3.815  12.319 -0.0482  0.2438 -1.4724
 1718SOL    HW216614   1.392   3.786  12.361  1.4045  1.0432  1.9552
 1719SOL     OW16615   0.494   1.343  14.479  0.0673 -0.3388  0.1453
 1719SOL    HW116616   0.502   1.398  14.557  0.2234  2.0711 -1.5566
 1719SOL    HW216617   0.398   1.344  14.473  0.1014  2.5073  0.0724
 1720SOL     OW16618   1.570   1.003   1.212 -0.2627 -0.0944  0.1447
 1720SOL    HW116619   1.579   0.957   1.128  0.3338 -0.8892  0.6479
 1720SOL    HW216620   1.636   1.071   1.196  0.1325 -0.5845 -0.2753
 1721SOL     OW16621   1.927   4.571  17.493 -0.3951  0.3941 -0.5288
 1721SOL    HW116622   1.847   4.602  17.450 -0.0273 -0.9130 -2.1108
 1721SOL    HW216623   1.892   4.538  17.576  1.3368  0.9331  0.4283
 1722SOL     OW16624   1.105   4.157   4.520  0.3300  0.5732  0.1107
 1722SOL    HW116625   1.092   4.244   4.481  0.5653 -0.2074 -1.7332
 1722SOL    HW216626   1.071   4.097   4.453 -0.2962  1.3622 -0.2854
 1723SOL     OW16627   0.375   2.096   7.777  0.5467 -0.4070  0.2611
 1723SOL    HW116628   0.448   2.153   7.753  0.1915  0.3084  0.8695
 1723SOL    HW216629   0.360   2.041   7.700  1.4869 -1.1959  0.6474
 1724SOL     OW16630   0.760   2.498   0.162  0.1637 -0.1405  0.4854
 1724SOL    HW116631   0.735   2.580   0.205 -0.9789 -0.4743  0.4556
 1724SOL    HW216632   0.809   2.449   0.228  0.2715 -0.6188  0.0487
 1725SOL     OW16633   1.399   3.129  10.506  0.6345 -0.2271 -0.6673
 1725SOL    HW116634   1.331   3.134  10.439  0.0676  0.3945 -0.0415
 1725SOL    HW216635   1.476   3.107  10.453  1.9190 -0.1301  1.1798
 1726SOL     OW16636   0.623   0.862  15.586 -0.3321  0.0153 -0.1567
 1726SOL    HW116637   0.570   0.875  15.665 -1.5413  0.0114 -0.9660
 1726SOL    HW216638   0.557   0.830  15.524 -0.7327 -0.5395  0.5551
 1727SOL     OW16639   1.177   2.700  10.914  0.1704 -0.8861  0.5202
 1727SOL    HW116640   1.087   2.727  10.932  0.1053 -0.9839  0.3438
 1727SOL    HW216641   1.212   2.774  10.964  1.6988 -0.4804 -1.1545
 1728SOL     OW16642   2.377   3.854   2.995  0.2497  0.0909  0.1823
 1728SOL    HW116643   2.409   3.943   3.010  0.1344 -0.1915  2.0987
 1728SOL    HW216644   2.459   3.806   2.994  0.8502  1.1091  0.0608
 1729SOL     OW16645   1.898   0.425   8.382 -0.2513  0.1975  0.3779
 1729SOL    HW116646   1.848   0.453   8.306  0.2071  0.5405  0.1995
 1729SOL    HW216647   1.919   0.510   8.422 -0.6195  1.3263 -1.8323
 1730SOL     OW16648   1.945   2.259   8.078  0.7459  0.3789  0.3789
 1730SOL    HW116649   1.912   2.259   8.168 -2.1342  1.7212 -0.6856
 1730SOL    HW216650   1.917   2.347   8.055 -0.6530 -0.2408 -0.2554
 1731SOL     OW16651   0.797   0.723  17.665 -0.0046 -0.8480  0.1495
 1731SOL    HW116652   0.711   0.742  17.628  0.6995  0.2454 -0.9039
 1731SOL    HW216653   0.832   0.673  17.591 -1.7858 -2.5688  0.4374
 1732SOL     OW16654   3.978   1.041  10.437 -0.1401  0.8657 -0.9912
 1732SOL    HW116655   3.935   0.970  10.388  1.0455  0.4992 -1.5096
 1732SOL    HW216656   3.900   1.079  10.476  0.5965  1.1022  0.2312
 1733SOL     OW16657   2.447   3.794   4.552  0.0130 -0.2686  0.2890
 1733SOL    HW116658   2.424   3.754   4.468 -0.0920  0.4914 -0.0378
 1733SOL    HW216659   2.471   3.714   4.599 -3.0352 -1.2967  0.0842
 1734SOL     OW16660   0.068   0.274   2.688 -0.0489  0.2505  0.0430
 1734SOL    HW116661   0.047   0.181   2.676 -0.5120  0.0569  2.1709
 1734SOL    HW216662   0.164   0.274   2.691 -0.0536  1.3328  0.0845
 1735SOL     OW16663   0.946   3.866  13.302 -0.1910  0.5139 -0.1054
 1735SOL    HW116664   0.858   3.857  13.266  0.2836 -0.0112 -1.1497
 1735SOL    HW216665   0.985   3.951  13.282  2.2849 -0.4949  0.4182
 1736SOL     OW16666   3.231   2.726   8.912  0.1582  0.7366  0.1178
 1736SOL    HW116667   3.250   2.687   8.827 -4.7595  0.0487 -0.6673
 1736SOL    HW216668   3.141   2.753   8.893 -0.8947 -3.3163 -0.5360
 1737SOL     OW16669   2.003   0.723  12.628 -0.2200  0.3491 -0.8401
 1737SOL    HW116670   2.005   0.637  12.670  0.4179  0.2116 -1.1613
 1737SOL    HW216671   2.098   0.730  12.618  0.0588 -0.7888  1.0018
 1738SOL     OW16672   3.914   0.164   5.093 -0.2197  0.4875  0.7693
 1738SOL    HW116673   3.844   0.181   5.156 -1.0124  0.3989 -0.0814
 1738SOL    HW216674   3.883   0.220   5.021  1.9333 -1.7616 -1.9325
 1739SOL     OW16675   0.574   2.615   2.890  0.1155  0.1096  0.1252
 1739SOL    HW116676   0.661   2.653   2.891  0.5085 -0.7890 -0.0150
 1739SOL    HW216677   0.523   2.679   2.841  0.0905  1.5184  1.9890
 1740SOL     OW16678   0.925   1.020   8.398 -0.1462 -0.5297  0.1647
 1740SOL    HW116679   1.019   1.037   8.409 -0.1001 -0.5068 -0.2942
 1740SOL    HW216680   0.894   1.100   8.440 -1.9150 -1.4176  0.5321
 1741SOL     OW16681   1.854   0.125   9.090 -0.2894 -0.3707  0.2126
 1741SOL    HW116682   1.800   0.045   9.088 -0.5532 -0.1826 -0.1732
 1741SOL    HW216683   1.787   0.192   9.106 -0.9568 -0.8566 -0.5450
 1742SOL     OW16684   0.172   3.151   7.126 -0.4408  0.2120 -0.1347
 1742SOL    HW116685   0.199   3.120   7.040 -1.0655 -2.7601  0.7405
 1742SOL    HW216686   0.217   3.089   7.184  1.3694  1.0567 -0.6197
 1743SOL     OW16687   4.361   3.508   9.087 -0.0470 -0.3477  0.6356
 1743SOL    HW116688   4.352   3.527   9.180  2.4604  2.0899  0.3683
 1743SOL    HW216689   4.269   3.513   9.059 -0.0963 -0.8406  0.7070
 1744SOL     OW16690   0.067   4.292   8.139 -0.0119 -0.5106  0.1298
 1744SOL    HW116691   0.138   4.335   8.185  0.6599  1.0120 -2.3845
 1744SOL    HW216692   0.110   4.265   8.058 -2.0418 -0.5156 -0.9505
 1745SOL     OW16693   1.233   0.783   4.298 -0.2232  0.1167  0.0346
 1745SOL    HW116694   1.257   0.873   4.276  1.6254 -0.2385  0.6307
 1745SOL    HW216695   1.175   0.750   4.229 -0.4400  1.5572 -0.4889
 1746SOL     OW16696   0.364   2.215   9.127 -0.2780  0.9572 -0.2034
 1746SOL    HW116697   0.342   2.217   9.220 -0.8701 -2.0640 -0.2533
 1746SOL    HW216698   0.388   2.302   9.097  1.4401  0.0206 -1.5549
 1747SOL     OW16699   0.962   2.211   2.576  0.0444  0.2031  0.0262
 1747SOL    HW116700   0.886   2.270   2.579  0.5160  0.7713  0.8834
 1747SOL    HW216701   0.938   2.153   2.504  0.2899 -0.1195  0.2056
 1748SOL     OW16702   4.422   4.691   4.921 -0.2719  0.7340 -0.1055
 1748SOL    HW116703   4.498   4.633   4.923 -0.8082  0.0164 -1.1296
 1748SOL    HW216704   4.455   0.049   4.954  0.8817  0.2292  0.0187
 1749SOL     OW16705   0.923   2.065   3.616  0.4556  0.0793  0.4068
 1749SOL    HW116706   0.890   2.133   3.676  0.3106 -0.3923  0.8662
 1749SOL    HW216707   0.954   2.125   3.548 -3.3553  0.7181 -0.7908
 1750SOL     OW16708   1.747   0.672   6.670 -0.4499  0.3746 -0.1065
 1750SOL    HW116709   1.655   0.679   6.697 -0.1229  1.4212  0.7166
 1750SOL    HW216710   1.779   0.586   6.696  0.9863  0.9763  0.1044
 1751SOL     OW16711   3.514   0.461  10.393 -0.7656 -0.0920  0.0189
 1751SOL    HW116712   3.470   0.390  10.440  0.6129  0.0432  1.5078
 1751SOL    HW216713   3.591   0.482  10.445 -0.7584  0.3659 -0.1806
 1752SOL     OW16714   0.814   0.115   3.991  0.1333 -0.3260 -0.2158
 1752SOL    HW116715   0.777   0.033   3.958 -1.3103  1.1254 -2.2635
 1752SOL    HW216716   0.826   0.094   4.083 -0.5529  0.1012 -0.0326
 1753SOL     OW16717   0.828   1.098   5.591 -0.0552  0.3237 -0.1372
 1753SOL    HW116718   0.855   1.116   5.501  2.9982  2.2780  1.1653
 1753SOL    HW216719   0.902   1.128   5.643  0.2113  1.4368 -1.1668
 1754SOL     OW16720   3.378   4.188   9.165 -0.4707 -0.5045 -0.0372
 1754SOL    HW116721   3.311   4.209   9.101 -1.4236 -2.8050  0.1904
 1754SOL    HW216722   3.332   4.130   9.226 -0.4172  0.9987  1.4164
 1755SOL     OW16723   0.209   1.828  11.579  0.4118  0.1624  0.8340
 1755SOL    HW116724   0.152   1.904  11.571 -1.0884 -1.2863 -2.0089
 1755SOL    HW216725   0.192   1.776  11.501 -1.6796  0.1112  1.3308
 1756SOL     OW16726   3.989   1.408   5.973 -0.4209 -0.8196  0.4561
 1756SOL    HW116727   4.039   1.482   6.007  0.1087 -0.6221 -0.7761
 1756SOL    HW216728   3.923   1.398   6.042 -1.3762  1.0880 -0.1701
 1757SOL     OW16729   1.412   3.447   7.830 -0.3406  0.0668  0.9675
 1757SOL    HW116730   1.414   3.364   7.877 -0.7232  0.4503  1.6565
 1757SOL    HW216731   1.454   3.417   7.749  1.9795  2.1742  1.3979
 1758SOL     OW16732   3.911   1.354   4.998  0.3765  0.0542  0.2796
 1758SOL    HW116733   3.942   1.278   4.948  1.5155  0.4166  0.4355
 1758SOL    HW216734   3.870   1.318   5.077  0.0015  0.7631  0.4075
 1759SOL     OW16735   1.281   3.820   6.807 -0.2920  0.0569  0.1355
 1759SOL    HW116736   1.210   3.790   6.750  0.9889 -1.7232 -0.5482
 1759SOL    HW216737   1.278   3.752   6.875 -1.2836 -2.2029 -2.1462
 1760SOL     OW16738   3.549   2.816   8.562  0.0440 -0.2933  0.2004
 1760SOL    HW116739   3.520   2.725   8.565  0.3672 -0.3987  0.1579
 1760SOL    HW216740   3.641   2.793   8.576  1.4552  4.1946 -1.6303
 1761SOL     OW16741   0.859   3.887   7.038  0.2833  0.6963  0.0278
 1761SOL    HW116742   0.931   3.826   7.052 -1.9577 -2.0400 -0.3986
 1761SOL    HW216743   0.860   3.935   7.121  0.8583 -0.4871  0.6980
 1762SOL     OW16744   0.416   4.502   4.079  0.1451  0.0072  0.2609
 1762SOL    HW116745   0.409   4.471   3.989 -3.3138  1.6837 -0.0529
 1762SOL    HW216746   0.414   4.597   4.063 -1.6156  0.4281  3.0078
 1763SOL     OW16747   3.350   3.902   6.326  1.0570 -0.0896  0.2428
 1763SOL    HW116748   3.396   3.911   6.410  0.2622 -0.5994  0.7219
 1763SOL    HW216749   3.287   3.832   6.338 -0.9747  1.6014 -0.6723
 1764SOL     OW16750   3.851   3.152   7.404  0.2936 -0.2356 -0.3557
 1764SOL    HW116751   3.876   3.103   7.482  1.5454  0.2039 -0.4799
 1764SOL    HW216752   3.937   3.185   7.378 -0.4129  3.3825  1.7731
 1765SOL     OW16753   2.500   3.704   0.491 -0.6675  0.8521 -0.0269
 1765SOL    HW116754   2.581   3.747   0.519 -0.0512  0.6965 -1.5711
 1765SOL    HW216755   2.527   3.612   0.496 -1.0588  0.7464  0.1523
 1766SOL     OW16756   1.916   0.573   9.204 -0.5171  0.5669  0.1901
 1766SOL    HW116757   1.990   0.620   9.167 -1.0634  1.2105 -0.0708
 1766SOL    HW216758   1.962   0.530   9.276 -0.1115 -0.4059 -0.6481
 1767SOL     OW16759   4.045   4.049   6.744 -0.0397 -0.0332  0.2723
 1767SOL    HW116760   4.111   4.118   6.754 -0.5243  0.4558  0.0476
 1767SOL    HW216761   4.006   4.035   6.830 -0.6455  1.8490  0.3020
 1768SOL     OW16762   3.049   2.662   7.119 -0.2107  0.2312  0.0195
 1768SOL    HW116763   3.064   2.697   7.031 -0.1248  2.0507  0.7607
 1768SOL    HW216764   2.956   2.682   7.125 -0.7880 -1.9188 -1.5955
 1769SOL     OW16765   2.545   0.287  10.294  0.5308  0.2752 -0.4174
 1769SOL    HW116766   2.538   0.216  10.357  1.3951  0.6932  0.1537
 1769SOL    HW216767   2.474   0.259  10.236 -0.3362  0.7925  0.3969
 1770SOL     OW16768   3.862   1.879   4.971  0.0373 -0.7099 -0.0549
 1770SOL    HW116769   3.860   1.785   4.956  3.2465 -0.8545  0.4076
 1770SOL    HW216770   3.848   1.911   4.882  0.5035 -0.2353  0.0448
 1771SOL     OW16771   1.730   3.265   3.276  0.1742 -0.1885 -0.1971
 1771SOL    HW116772   1.685   3.274   3.192  1.1938 -1.0994 -0.8453
 1771SOL    HW216773   1.760   3.174   3.273  1.1913  0.1469 -0.4426
 1772SOL     OW16774   1.787   0.447  15.990  0.0841 -0.1503 -0.6010
 1772SOL    HW116775   1.751   0.382  16.050 -0.6382  0.8166  0.0033
 1772SOL    HW216776   1.880   0.444  16.014 -0.7410 -2.8004  2.3365
 1773SOL     OW16777   4.647   2.241  13.465 -0.2888  0.0681 -0.0767
 1773SOL    HW116778   4.641   2.152  13.499 -2.0313  0.5063  0.7931
 1773SOL    HW216779   0.009   2.238  13.428 -1.0382 -2.6497 -1.6402
 1774SOL     OW16780   1.498   0.327   6.762  0.2452  0.0019  0.2243
 1774SOL    HW116781   1.438   0.268   6.807  1.6246  0.4320  2.5969
 1774SOL    HW216782   1.433   0.392   6.734 -1.7795 -3.0758 -2.1854
 1775SOL     OW16783   4.328   3.167  10.236  0.0085 -0.4180  0.3661
 1775SOL    HW116784   4.419   3.148  10.257  0.3038  1.6900  0.9726
 1775SOL    HW216785   4.316   3.251  10.281 -1.1801 -0.5867  0.3639
 1776SOL     OW16786   2.299   2.821   2.296  0.1088 -0.2921  0.2947
 1776SOL    HW116787   2.359   2.874   2.348  0.1865  0.3704 -0.4682
 1776SOL    HW216788   2.260   2.760   2.359 -0.1346 -0.3277  0.1111
 1777SOL     OW16789   3.174   2.632   8.654 -0.0848  0.0958  0.4834
 1777SOL    HW116790   3.139   2.706   8.604 -1.2455 -1.1456 -0.5153
 1777SOL    HW216791   3.094   2.584   8.675 -0.2681 -0.6901 -1.9990
 1778SOL     OW16792   1.178   0.046   2.968 -0.5405 -0.2710 -0.4090
 1778SOL    HW116793   1.179   0.017   2.877  0.9510 -1.8843  0.1222
 1778SOL    HW216794   1.255   0.103   2.974 -0.4476 -0.3744 -0.6409
 1779SOL     OW16795   0.556   3.246   0.362 -0.3586 -0.5382  0.0952
 1779SOL    HW116796   0.478   3.255   0.417 -1.4106 -1.9671 -1.1518
 1779SOL    HW216797   0.619   3.213   0.426 -1.0185  0.2729  1.1522
 1780SOL     OW16798   0.300   1.446  13.379  0.2838 -0.0851 -0.6289
 1780SOL    HW116799   0.256   1.472  13.461  0.5112  1.9296 -1.1359
 1780SOL    HW216800   0.297   1.527  13.328  3.7327  1.1083  1.0680
 1781SOL     OW16801   3.698   2.009  10.019 -0.1631 -0.7919  0.1540
 1781SOL    HW116802   3.751   2.060   9.957  0.4014 -0.8259  0.6040
 1781SOL    HW216803   3.649   1.953   9.959  2.2126  0.1617 -2.6696
 1782SOL     OW16804   1.154   2.197   6.194  0.6050 -0.1056  0.1406
 1782SOL    HW116805   1.210   2.261   6.237 -0.2765  1.1008 -0.5352
 1782SOL    HW216806   1.151   2.132   6.265 -0.4479 -1.8498 -1.5006
 1783SOL     OW16807   2.377   4.387   2.344  0.0630 -0.0958 -0.1140
 1783SOL    HW116808   2.329   4.465   2.373  0.5107 -0.1331  0.7153
 1783SOL    HW216809   2.398   4.340   2.425  1.5049  0.9888  0.1599
 1784SOL     OW16810   3.411   3.801   7.055 -0.0054  0.3652  0.8906
 1784SOL    HW116811   3.320   3.799   7.083 -0.5598  1.1459 -0.8245
 1784SOL    HW216812   3.424   3.887   7.014 -1.7399  0.5785  0.7867
 1785SOL     OW16813   3.701   1.527  11.905  0.0937 -0.0274  0.3625
 1785SOL    HW116814   3.792   1.539  11.931  0.5822 -1.0501 -0.8491
 1785SOL    HW216815   3.660   1.573  11.978 -0.6882 -0.7189  0.3622
 1786SOL     OW16816   3.981   3.843  15.733 -0.1978 -0.0472 -0.0453
 1786SOL    HW116817   3.994   3.852  15.638  0.5927  1.6453  0.2218
 1786SOL    HW216818   3.939   3.926  15.754  1.0765  0.2103  1.4936
 1787SOL     OW16819   4.200   2.113   9.760  0.3856  0.4090 -0.2775
 1787SOL    HW116820   4.212   2.185   9.698  2.8332  1.4117  1.3785
 1787SOL    HW216821   4.285   2.070   9.749 -0.2902 -0.3542 -2.5025
 1788SOL     OW16822   0.878   2.887  14.907 -0.5050 -0.2262 -0.1844
 1788SOL    HW116823   0.933   2.860  14.834 -0.1324 -1.5512  0.5893
 1788SOL    HW216824   0.815   2.950  14.871  0.5507  0.4842 -0.7629
 1789SOL     OW16825   1.253   1.659   2.497  0.0334  0.0711  0.3616
 1789SOL    HW116826   1.228   1.615   2.578  0.3448 -0.2790  0.2674
 1789SOL    HW216827   1.235   1.594   2.428 -0.9044 -0.3777  1.0210
 1790SOL     OW16828   2.368   4.242   2.625  0.0028  0.4107 -0.0171
 1790SOL    HW116829   2.283   4.275   2.657 -0.8375 -2.2329  0.4746
 1790SOL    HW216830   2.363   4.148   2.644 -2.2508  0.4009 -0.6124
 1791SOL     OW16831   2.066   3.804   3.852 -0.5259  0.2267  0.2476
 1791SOL    HW116832   2.088   3.826   3.761  0.6108  0.0923  0.4895
 1791SOL    HW216833   1.977   3.841   3.849  0.0588  1.6550  0.4217
 1792SOL     OW16834   3.857   1.826   7.349 -0.3608  0.2865 -0.3943
 1792SOL    HW116835   3.931   1.856   7.296  1.1599 -1.4711  0.7065
 1792SOL    HW216836   3.790   1.883   7.313 -1.0831 -1.2654 -1.5122
 1793SOL     OW16837   0.109   4.439   6.769 -0.1659 -0.3484  0.2224
 1793SOL    HW116838   0.022   4.407   6.793 -0.9970  1.0510 -0.8944
 1793SOL    HW216839   0.133   4.366   6.711 -1.3484 -0.2065 -0.4541
 1794SOL     OW16840   3.665   0.979   3.437  0.3920 -0.7039 -0.0119
 1794SOL    HW116841   3.746   0.956   3.390 -0.0472 -2.0062 -0.1223
 1794SOL    HW216842   3.647   0.888   3.462 -0.6066 -0.5969 -0.3557
 1795SOL     OW16843   0.195   2.997   3.832 -0.8143  0.2441  0.0945
 1795SOL    HW116844   0.105   3.004   3.863 -0.6883 -1.4324  0.8461
 1795SOL    HW216845   0.184   2.970   3.741 -2.2298  0.4597  0.2028
 1796SOL     OW16846   0.213   2.135   9.590 -0.2461  0.2114 -0.0697
 1796SOL    HW116847   0.157   2.060   9.571  1.3044 -0.6431 -1.1920
 1796SOL    HW216848   0.162   2.176   9.660 -0.1290 -0.9649  0.6928
 1797SOL     OW16849   1.634   0.756   6.186  0.8128  0.1675 -0.0521
 1797SOL    HW116850   1.717   0.799   6.206 -0.0592  1.0246  1.7351
 1797SOL    HW216851   1.659   0.665   6.174  0.6769 -0.0475  1.2593
 1798SOL     OW16852   1.593   1.989  13.849 -0.4222 -0.0743  0.3259
 1798SOL    HW116853   1.574   1.903  13.888 -3.6668 -0.2136 -1.6175
 1798SOL    HW216854   1.678   2.008  13.890  0.2350 -0.1670 -0.9857
 1799SOL     OW16855   2.938   0.953   4.988 -0.2192 -0.3512  0.5803
 1799SOL    HW116856   2.876   0.978   5.056  2.0206  1.7046  1.8704
 1799SOL    HW216857   2.941   0.859   5.010  0.5881 -0.0489  1.7808
 1800SOL     OW16858   0.450   1.118  11.609 -0.5606 -0.3480  0.4109
 1800SOL    HW116859   0.531   1.169  11.619 -0.9088 -0.1750  2.4404
 1800SOL    HW216860   0.420   1.126  11.700 -0.4584  0.5320  0.3726
 1801SOL     OW16861   2.138   2.489  13.388 -0.2222  0.2828  0.3475
 1801SOL    HW116862   2.191   2.565  13.365  3.4170 -2.8994 -1.6927
 1801SOL    HW216863   2.049   2.521  13.372 -0.1035  0.0631 -0.7515
 1802SOL     OW16864   1.073   1.910   2.496 -0.3230 -0.4867  0.6639
 1802SOL    HW116865   1.126   1.831   2.482 -1.2617 -1.0928  0.5914
 1802SOL    HW216866   1.029   1.905   2.412  1.0796 -0.0833 -0.1021
 1803SOL     OW16867   4.011   4.111   3.423 -0.1699 -0.4630 -0.1743
 1803SOL    HW116868   3.958   4.081   3.349  0.8324  0.5345 -1.3104
 1803SOL    HW216869   3.936   4.116   3.482 -0.1590 -0.7543 -0.1355
 1804SOL     OW16870   3.894   2.462  10.620  0.2985 -0.6022 -0.1880
 1804SOL    HW116871   3.988   2.477  10.630 -0.0468  0.8684  0.8495
 1804SOL    HW216872   3.865   2.525  10.686  0.0216  0.4067 -1.2727
 1805SOL     OW16873   2.446   1.555   5.521 -0.4428 -0.5559 -0.1778
 1805SOL    HW116874   2.387   1.483   5.498  0.0612 -1.5089  1.4563
 1805SOL    HW216875   2.389   1.631   5.518  0.8231  0.2571 -3.2117
 1806SOL     OW16876   2.092   0.435   5.855  0.0918 -0.2201  0.3968
 1806SOL    HW116877   2.047   0.517   5.877 -1.5811 -0.3472 -2.5671
 1806SOL    HW216878   2.074   0.438   5.761 -0.0019  1.0694  0.4623
 1807SOL     OW16879   0.401   3.381   8.635 -0.0165 -0.1493 -0.1831
 1807SOL    HW116880   0.457   3.337   8.700  1.2760  2.1022  0.2361
 1807SOL    HW216881   0.365   3.302   8.595 -1.8616  1.1432 -1.0492
 1808SOL     OW16882   2.182   0.594  17.618 -0.1774  0.2579 -0.5382
 1808SOL    HW116883   2.244   0.585  17.691  2.1220 -0.0249 -2.5327
 1808SOL    HW216884   2.246   0.625  17.554 -0.6607  2.3890  0.0302
 1809SOL     OW16885   4.264   3.140   6.218  0.4790  0.0554  0.4418
 1809SOL    HW116886   4.273   3.224   6.264 -1.0180  0.3337  0.2366
 1809SOL    HW216887   4.352   3.127   6.183  0.2646  2.7172 -1.1539
 1810SOL     OW16888   1.877   3.163   8.411 -0.4237 -0.1768  0.3046
 1810SOL    HW116889   1.941   3.196   8.474  0.1681  1.4851 -1.1789
 1810SOL    HW216890   1.812   3.120   8.467  0.2694  0.5026  1.6220
 1811SOL     OW16891   1.244   3.335  13.998  0.2104  0.0400 -0.2095
 1811SOL    HW116892   1.240   3.431  13.997 -0.4091  0.0164 -0.2861
 1811SOL    HW216893   1.150   3.319  13.987  0.4446 -2.2585  1.1545
 1812SOL     OW16894   2.174   3.172   9.134 -0.0503  0.0455 -0.1785
 1812SOL    HW116895   2.232   3.245   9.154  0.6786 -0.5348 -0.1549
 1812SOL    HW216896   2.108   3.178   9.203 -1.6298  0.7836 -1.7696
 1813SOL     OW16897   0.950   4.148   3.030 -0.2976 -0.3690 -0.4315
 1813SOL    HW116898   0.991   4.131   2.945 -0.3360 -0.3258 -0.4583
 1813SOL    HW216899   1.013   4.102   3.086  0.2202  2.5899  1.3841
 1814SOL     OW16900   4.628   1.593  16.095  0.4672 -0.0407  0.3353
 1814SOL    HW116901   4.564   1.636  16.039  1.9533  3.0520  1.0125
 1814SOL    HW216902   4.578   1.565  16.171  0.1978 -1.2678 -0.2975
 1815SOL     OW16903   0.506   0.941   2.147  0.2859 -0.1623  0.2403
 1815SOL    HW116904   0.425   0.986   2.122 -0.4679 -2.2567 -1.0429
 1815SOL    HW216905   0.527   0.905   2.061 -1.6824 -2.6856  0.8399
 1816SOL     OW16906   3.842   1.844   6.919  0.0103 -0.2108 -0.1885
 1816SOL    HW116907   3.813   1.789   6.847  0.9038  4.0994 -3.8552
 1816SOL    HW216908   3.763   1.858   6.970 -1.3349  0.0974 -2.3503
 1817SOL     OW16909   0.313   2.208   2.446  0.1985  0.2581 -0.2683
 1817SOL    HW116910   0.265   2.221   2.527  1.1198 -0.0332  0.3298
 1817SOL    HW216911   0.326   2.113   2.448 -0.9220  0.0662 -1.7637
 1818SOL     OW16912   4.315   4.126  10.285 -0.1371 -0.0060  0.5353
 1818SOL    HW116913   4.377   4.077  10.339  1.2637 -0.7077 -1.6889
 1818SOL    HW216914   4.232   4.085  10.307 -0.3293  0.0398 -0.1260
 1819SOL     OW16915   3.007   3.362   4.351  0.4619 -0.2396  0.1485
 1819SOL    HW116916   3.059   3.420   4.295  0.4546 -0.6229 -0.2500
 1819SOL    HW216917   3.072   3.294   4.370 -1.7210 -2.2834  0.3243
 1820SOL     OW16918   2.882   1.483   0.676  0.0004 -0.4969  0.0341
 1820SOL    HW116919   2.848   1.562   0.635  1.6362  0.7137  1.0248
 1820SOL    HW216920   2.892   1.515   0.766  0.3620  1.7791 -0.8279
 1821SOL     OW16921   1.134   1.790   6.166  0.4807 -0.2269 -0.2296
 1821SOL    HW116922   1.208   1.831   6.121  1.9806 -1.0140  1.5437
 1821SOL    HW216923   1.126   1.842   6.246 -0.8810 -1.8939  0.7045
 1822SOL     OW16924   1.519   2.810  12.367 -0.3948 -0.6025  0.4970
 1822SOL    HW116925   1.510   2.737  12.306  3.7348  1.5200 -2.6624
 1822SOL    HW216926   1.614   2.814  12.375 -0.2202  1.7040 -2.7242
 1823SOL     OW16927   3.391   4.286   8.466 -0.7249  0.3147  0.2432
 1823SOL    HW116928   3.395   4.198   8.502  1.2916  0.0505 -0.6484
 1823SOL    HW216929   3.483   4.312   8.468 -0.3947 -0.7597 -1.3925
 1824SOL     OW16930   1.208   1.696   3.314  0.1963 -0.3241  0.6390
 1824SOL    HW116931   1.233   1.616   3.269 -1.4414  0.1363 -1.0931
 1824SOL    HW216932   1.136   1.720   3.256  1.6174  2.0015 -0.1420
 1825SOL     OW16933   0.518   1.241   2.101 -0.3636  0.2589 -0.2195
 1825SOL    HW116934   0.525   1.292   2.020  1.1368 -0.8300 -0.7735
 1825SOL    HW216935   0.456   1.172   2.078  1.2378 -1.3164  0.1918
 1826SOL     OW16936   0.001   0.442   1.577  0.7846  0.3149  0.1750
 1826SOL    HW116937   0.068   0.509   1.565  0.7439  0.2142 -0.6670
 1826SOL    HW216938   0.050   0.388   1.638 -1.0635  0.2199  1.5872
 1827SOL     OW16939   0.641   3.598   8.844  0.2941 -0.0678  0.2388
 1827SOL    HW116940   0.708   3.564   8.785  0.2586 -0.9619  0.7021
 1827SOL    HW216941   0.708   3.634   8.902  0.2568  0.7294 -0.2179
 1828SOL     OW16942   4.403   2.294   6.334 -1.0654  0.0966  0.5788
 1828SOL    HW116943   4.315   2.286   6.297 -1.1882 -2.5060  1.3868
 1828SOL    HW216944   4.381   2.244   6.413  0.6954  2.4613  2.5161
 1829SOL     OW16945   1.634   4.097   2.752 -0.1041 -0.1495 -0.2591
 1829SOL    HW116946   1.703   4.039   2.783 -0.0752  0.8907  1.6160
 1829SOL    HW216947   1.582   4.103   2.833  1.0090 -0.0952  0.4530
 1830SOL     OW16948   2.347   1.440   3.343 -0.3676 -0.3492  0.4891
 1830SOL    HW116949   2.415   1.504   3.362 -1.3655  1.0270 -0.5366
 1830SOL    HW216950   2.380   1.418   3.255  0.4934 -0.9457  0.9656
 1831SOL     OW16951   3.188   1.153  15.346  0.1063  0.1904  0.2846
 1831SOL    HW116952   3.174   1.247  15.331 -1.1059  0.0568  0.5320
 1831SOL    HW216953   3.107   1.133  15.392  0.0148 -3.9711 -1.6999
 1832SOL     OW16954   0.513   3.727   2.089  0.1274  0.2518  0.3785
 1832SOL    HW116955   0.531   3.643   2.132 -0.2586  1.0295  2.0840
 1832SOL    HW216956   0.424   3.717   2.055 -0.0351  0.3777  0.7607
 1833SOL     OW16957   2.878   1.119   7.013  0.5970  0.0265 -0.0630
 1833SOL    HW116958   2.803   1.138   6.957 -0.2202 -2.1141  0.2964
 1833SOL    HW216959   2.845   1.062   7.083  0.1029 -0.1994 -0.4871
 1834SOL     OW16960   1.561   0.558  14.899  0.1360 -0.7340  0.3726
 1834SOL    HW116961   1.507   0.632  14.928  0.3547 -0.4259  0.0005
 1834SOL    HW216962   1.634   0.606  14.860 -1.4057  1.2203 -0.1632
 1835SOL     OW16963   4.098   1.984  13.510  0.3167 -0.4905 -0.1308
 1835SOL    HW116964   4.071   2.024  13.593 -0.5287  1.5748 -1.4119
 1835SOL    HW216965   4.192   1.976  13.524  0.5011 -0.6288 -1.4338
 1836SOL     OW16966   0.029   0.341  14.555  0.2250  0.4007 -0.4050
 1836SOL    HW116967   4.715   0.267  14.508 -1.6568  0.0394  1.7598
 1836SOL    HW216968   0.053   0.305  14.640  0.6510 -0.7469 -1.0035
 1837SOL     OW16969   0.948   0.241   6.103  0.2444 -0.1838 -0.0231
 1837SOL    HW116970   0.892   0.307   6.143 -0.1676 -2.2300  2.8035
 1837SOL    HW216971   0.884   0.170   6.109 -0.5814  0.5205 -0.5380
 1838SOL     OW16972   3.531   4.075   4.712  0.1505  0.3054  0.1597
 1838SOL    HW116973   3.502   3.987   4.688 -1.0015  0.7373 -0.0549
 1838SOL    HW216974   3.622   4.073   4.684  0.1911 -0.4456  0.3411
 1839SOL     OW16975   3.591   0.729   4.669  0.0168  0.3295 -0.5514
 1839SOL    HW116976   3.507   0.684   4.661  1.6292 -2.5882 -1.1585
 1839SOL    HW216977   3.600   0.765   4.757 -2.0205 -2.2108  0.6754
 1840SOL     OW16978   0.438   2.403   4.313 -0.1515 -0.4057 -0.1566
 1840SOL    HW116979   0.387   2.450   4.247  1.1346  2.1843  0.6956
 1840SOL    HW216980   0.526   2.412   4.275  1.1215 -0.3168  2.8121
 1841SOL     OW16981   4.242   1.232   3.631  0.2871 -0.2157 -0.0277
 1841SOL    HW116982   4.166   1.216   3.687  0.0629  0.0311 -0.2660
 1841SOL    HW216983   4.276   1.314   3.667 -0.3642 -0.4120  1.0636
 1842SOL     OW16984   0.741   4.282   7.460 -0.1608  0.2826 -0.1763
 1842SOL    HW116985   0.736   4.263   7.367  0.0526  1.2346 -0.3885
 1842SOL    HW216986   0.687   4.210   7.491  1.0163 -1.0357 -1.1965
 1843SOL     OW16987   4.244   4.459   3.976 -0.7462 -0.1446 -0.0449
 1843SOL    HW116988   4.326   4.501   4.001 -0.0436 -0.3023 -2.1104
 1843SOL    HW216989   4.268   4.366   3.982 -0.9934 -0.3102 -1.5371
 1844SOL     OW16990   0.560   2.806   1.355  0.1436 -0.6385 -0.0689
 1844SOL    HW116991   0.656   2.807   1.361  0.0855  1.5507  0.4214
 1844SOL    HW216992   0.539   2.869   1.423  0.5538  0.6906 -1.1639
 1845SOL     OW16993   4.230   1.319   7.729  0.1588 -0.2427 -0.4703
 1845SOL    HW116994   4.174   1.305   7.805 -0.2567  0.3831 -0.6641
 1845SOL    HW216995   4.266   1.407   7.739 -0.7492 -0.1979  2.3806
 1846SOL     OW16996   3.902   1.499   3.460  0.1312 -0.0306  0.3143
 1846SOL    HW116997   3.980   1.474   3.411 -0.7907 -0.6921 -0.7977
 1846SOL    HW216998   3.838   1.467   3.397 -0.3067 -1.2718  1.3849
 1847SOL     OW16999   0.193   0.662   0.158 -0.1674  0.0468  0.5324
 1847SOL    HW117000   0.236   0.603   0.097  1.1142  0.6603  0.8408
 1847SOL    HW217001   0.141   0.720   0.103  0.0738 -0.9193 -0.6978
 1848SOL     OW17002   2.862   0.172   6.706 -0.5564 -0.2831  0.0254
 1848SOL    HW117003   2.921   0.247   6.717 -0.1755 -0.8817  2.0858
 1848SOL    HW217004   2.809   0.201   6.631 -0.1649 -2.1194 -0.9588
 1849SOL     OW17005   4.178   3.867   4.244 -0.0709  0.5736 -0.1146
 1849SOL    HW117006   4.248   3.804   4.230 -1.0681 -0.1431 -1.9124
 1849SOL    HW217007   4.104   3.845   4.187  2.8816 -2.1130 -2.8724
 1850SOL     OW17008   0.741   2.821   3.115  0.0723 -0.3736 -0.6371
 1850SOL    HW117009   0.652   2.799   3.145  1.2407 -3.8545  0.2397
 1850SOL    HW217010   0.729   2.906   3.073 -0.6602  0.1935  0.7055
 1851SOL     OW17011   0.753   3.190  13.074 -0.2547  0.0429  0.0929
 1851SOL    HW117012   0.692   3.240  13.129 -1.1197  0.7431 -1.5048
 1851SOL    HW217013   0.771   3.255  13.005 -0.1464  0.8381  0.8617
 1852SOL     OW17014   0.247   1.991   4.268  0.6126 -0.2960  0.1639
 1852SOL    HW117015   0.236   2.057   4.336 -2.4550  0.1272 -0.7207
 1852SOL    HW217016   0.316   2.037   4.220 -1.0738 -0.3008 -2.3149
 1853SOL     OW17017   1.412   0.218   9.726 -0.1865  0.8874 -0.0910
 1853SOL    HW117018   1.335   0.165   9.744  1.2799 -2.6763 -4.2677
 1853SOL    HW217019   1.461   0.202   9.807  0.1647 -0.8820 -0.6561
 1854SOL     OW17020   0.122   4.564  16.605  0.0114 -0.7706  0.0008
 1854SOL    HW117021   0.029   4.550  16.587  0.1548  0.9274 -2.1173
 1854SOL    HW217022   0.140   4.488  16.660  0.3576 -0.1016  0.8207
 1855SOL     OW17023   4.341   3.119   9.965 -0.0216 -0.1029  0.1536
 1855SOL    HW117024   4.319   3.027   9.972  1.6270 -0.5024  0.1215
 1855SOL    HW217025   4.352   3.137  10.058  1.3941  0.0242 -0.0420
 1856SOL     OW17026   0.038   0.258   8.933  0.0535  0.1013  0.1432
 1856SOL    HW117027   0.056   0.278   9.024  0.5083 -1.0343  0.3125
 1856SOL    HW217028   0.103   0.191   8.910 -1.3438 -0.8894 -0.9525
 1857SOL     OW17029   0.513   2.206  11.749  0.7084  0.1531 -0.3563
 1857SOL    HW117030   0.572   2.255  11.691 -0.7853  2.0187 -0.2610
 1857SOL    HW217031   0.451   2.176  11.682  1.4407  1.1012 -1.4614
 1858SOL     OW17032   3.534   0.467   3.316  0.5601  0.0261  0.0204
 1858SOL    HW117033   3.473   0.399   3.344  1.1697  0.5644  2.6773
 1858SOL    HW217034   3.506   0.461   3.225 -1.9144 -0.2230  0.7876
 1859SOL     OW17035   1.830   0.517   5.341  0.2274 -0.1882  0.0253
 1859SOL    HW117036   1.902   0.456   5.321 -0.4161 -0.9497  0.0276
 1859SOL    HW217037   1.764   0.482   5.281  0.5890 -0.9716  0.0785
 1860SOL     OW17038   1.158   3.303  16.331 -0.3260 -0.6306 -0.2589
 1860SOL    HW117039   1.068   3.306  16.298 -1.3085  3.5406  2.7203
 1860SOL    HW217040   1.149   3.384  16.382  0.7771 -0.1479 -0.8487
 1861SOL     OW17041   0.426   2.970   3.421 -0.0769 -0.2917 -0.0318
 1861SOL    HW117042   0.437   2.891   3.368  0.5967 -0.4790  0.3840
 1861SOL    HW217043   0.506   3.019   3.403 -0.6937  0.1658 -1.4840
 1862SOL     OW17044   2.579   2.360  16.376  0.2636  0.1350  0.0730
 1862SOL    HW117045   2.545   2.308  16.304 -0.1518 -0.5412  0.7590
 1862SOL    HW217046   2.646   2.413  16.332 -0.1609  1.8136  1.4610
 1863SOL     OW17047   3.673   1.274   9.066  0.4369  0.7400  0.6729
 1863SOL    HW117048   3.765   1.252   9.049  0.7869  2.1633  0.6808
 1863SOL    HW217049   3.620   1.234   8.998  3.6292  0.7175 -1.8084
 1864SOL     OW17050   3.375   2.654  10.285 -0.8196 -0.1875 -0.2115
 1864SOL    HW117051   3.391   2.747  10.299  3.8446 -1.2177  1.5777
 1864SOL    HW217052   3.371   2.642  10.190 -1.9070 -0.9552 -0.0618
 1865SOL     OW17053   2.473   4.276   1.100  0.1943  0.0453 -0.1329
 1865SOL    HW117054   2.474   4.234   1.014  2.1738  0.4012 -0.2958
 1865SOL    HW217055   2.565   4.276   1.128  0.9330  0.3261 -2.6134
 1866SOL     OW17056   0.852   0.074   3.039 -0.1468 -0.0711 -0.4012
 1866SOL    HW117057   0.897   0.068   3.123 -0.4113  1.3060 -0.1637
 1866SOL    HW217058   0.760   0.070   3.067 -0.4458  0.6982 -1.2846
 1867SOL     OW17059   1.452   1.672   5.993 -0.1087 -0.0130 -0.0492
 1867SOL    HW117060   1.447   1.766   5.973 -1.8961  0.3433  1.9767
 1867SOL    HW217061   1.370   1.649   5.950  0.1907  0.2717 -0.7635
 1868SOL     OW17062   4.663   4.004  16.143  0.4260  0.6378 -0.0420
 1868SOL    HW117063   4.589   4.065  16.138 -0.4382 -0.5453 -1.7714
 1868SOL    HW217064   4.675   3.992  16.237 -1.3934  0.0272  0.1237
 1869SOL     OW17065   1.804   2.474   5.395 -0.3486 -0.1140 -0.4225
 1869SOL    HW117066   1.793   2.399   5.336  0.8854  0.0788 -0.9025
 1869SOL    HW217067   1.878   2.443   5.448  0.3471 -0.2844 -1.4814
 1870SOL     OW17068   2.911   4.208   4.208  1.2501  0.1915  0.5257
 1870SOL    HW117069   2.948   4.135   4.256  1.6112  0.0604  0.0501
 1870SOL    HW217070   2.938   4.282   4.263  3.4018 -0.5950  0.5200
 1871SOL     OW17071   1.931   2.424   2.407 -0.3146  0.5751 -0.0985
 1871SOL    HW117072   1.893   2.511   2.397 -0.4809  0.6123  0.9140
 1871SOL    HW217073   1.859   2.392   2.460  0.5448  1.2897  1.5041
 1872SOL     OW17074   3.115   3.140   8.660 -0.2778  0.1079 -0.5023
 1872SOL    HW117075   3.094   3.234   8.654  1.0555  0.4481  0.1242
 1872SOL    HW217076   3.199   3.138   8.614  0.5931 -0.9278  1.1356
 1873SOL     OW17077   0.230   2.622  14.082 -0.1636 -0.4526 -0.5723
 1873SOL    HW117078   0.233   2.661  13.995 -2.4674  1.6443  0.3073
 1873SOL    HW217079   0.219   2.528  14.068 -1.9619 -0.2223 -0.6847
 1874SOL     OW17080   2.327   4.059   4.500 -0.0770  0.1002  0.1847
 1874SOL    HW117081   2.362   3.970   4.509 -2.5489 -0.9975 -1.1344
 1874SOL    HW217082   2.312   4.072   4.406 -2.2072 -3.0494  0.0971
 1875SOL     OW17083   2.113   4.242   9.152  0.0362  0.1966 -0.1492
 1875SOL    HW117084   2.047   4.245   9.221 -2.2908  2.8020 -2.4713
 1875SOL    HW217085   2.072   4.190   9.083 -2.1080  2.0985 -0.3348
 1876SOL     OW17086   2.828   4.405   2.749 -0.3807  0.2271  0.6268
 1876SOL    HW117087   2.862   4.380   2.663  0.6796  1.0213  0.8254
 1876SOL    HW217088   2.733   4.403   2.742 -0.3765 -0.1386  0.6472
 1877SOL     OW17089   0.435   3.721  16.097  0.1876  0.2660 -0.0379
 1877SOL    HW117090   0.489   3.653  16.057 -1.2865 -0.9661  0.0642
 1877SOL    HW217091   0.407   3.777  16.024  0.6493  1.0236  0.3650
 1878SOL     OW17092   0.353   1.095   3.973 -0.1790 -0.5345 -0.7206
 1878SOL    HW117093   0.328   1.175   4.021  1.3994 -0.9162  0.7489
 1878SOL    HW217094   0.281   1.039   4.000 -1.2812  0.9805 -0.4897
 1879SOL     OW17095   1.064   2.493   2.778 -0.3227 -0.3524 -0.0118
 1879SOL    HW117096   1.096   2.580   2.756  0.0107 -0.2971  0.6825
 1879SOL    HW217097   0.975   2.494   2.743  0.5751 -2.1196 -2.3243
 1880SOL     OW17098   1.600   2.525  16.072 -0.2701  0.2154  0.2146
 1880SOL    HW117099   1.552   2.460  16.021  0.0273  0.6193 -0.5775
 1880SOL    HW217100   1.576   2.593  16.009  0.6005 -1.7592 -2.2633
 1881SOL     OW17101   0.190   0.276   5.650 -0.2442 -0.6250 -0.1128
 1881SOL    HW117102   0.135   0.231   5.713 -0.4350 -1.1251 -0.6345
 1881SOL    HW217103   0.188   0.364   5.686 -4.1722  0.0469 -2.0249
 1882SOL     OW17104   3.046   1.085  17.441 -0.0389  0.4042 -0.2994
 1882SOL    HW117105   2.991   1.009  17.422 -0.5994  1.2688 -2.2545
 1882SOL    HW217106   2.981   1.154  17.457  0.7966  0.7034  1.8090
 1883SOL     OW17107   0.055   1.250   3.819 -0.3262 -0.1529 -0.3155
 1883SOL    HW117108   0.060   1.161   3.783  1.0959  0.4879 -1.6682
 1883SOL    HW217109   4.703   1.247   3.875 -0.5686  2.2046 -0.5187
 1884SOL     OW17110   1.567   1.039   8.459 -0.2856  0.2609  0.1527
 1884SOL    HW117111   1.605   0.993   8.534  0.0354  0.6170  0.2058
 1884SOL    HW217112   1.474   1.018   8.470  0.2477 -2.0992  0.0228
 1885SOL     OW17113   2.988   1.392   7.301 -0.2373 -0.3984  0.0628
 1885SOL    HW117114   2.939   1.346   7.369  0.5868 -0.7220  0.4440
 1885SOL    HW217115   3.079   1.374   7.328 -0.7067 -2.1796  0.4509
 1886SOL     OW17116   4.127   3.603   3.825  0.2267  0.4843  0.0050
 1886SOL    HW117117   4.216   3.638   3.838  0.5712  0.1284 -1.3896
 1886SOL    HW217118   4.136   3.575   3.734 -0.1627  1.0152 -0.1928
 1887SOL     OW17119   0.012   0.676   6.151  0.7386 -0.1891 -0.3658
 1887SOL    HW117120   0.073   0.605   6.130 -1.1927 -2.1571  0.6606
 1887SOL    HW217121   0.073   0.746   6.127  0.1433  0.6763  0.6425
 1888SOL     OW17122   3.080   4.386  11.971  0.1631 -0.4181  0.3529
 1888SOL    HW117123   3.053   4.450  11.904 -0.8349  1.4786  2.5696
 1888SOL    HW217124   3.093   4.444  12.046  1.2061 -0.0676 -0.0910
 1889SOL     OW17125   0.028   4.002  11.254 -0.8620  0.2161 -0.4606
 1889SOL    HW117126   4.697   4.010  11.177  0.5986  1.0194 -1.4478
 1889SOL    HW217127   4.715   3.919  11.280  1.3917 -0.7701 -0.2703
 1890SOL     OW17128   3.646   1.449  16.576  0.2025 -0.0269  0.3120
 1890SOL    HW117129   3.587   1.505  16.626 -2.6341 -0.1880 -2.9241
 1890SOL    HW217130   3.614   1.359  16.571 -1.4127  0.4410  2.4250
 1891SOL     OW17131   4.527   1.866  16.222 -0.7418 -0.0359  0.1831
 1891SOL    HW117132   4.622   1.861  16.213 -0.7257  2.4356 -1.2013
 1891SOL    HW217133   4.513   1.807  16.296 -2.4974  0.0693 -0.0635
 1892SOL     OW17134   0.827   2.939   6.670  0.2258  0.1743  0.4221
 1892SOL    HW117135   0.895   2.968   6.609  0.8624  0.7119  1.3903
 1892SOL    HW217136   0.865   2.968   6.752  0.8110 -0.9003  0.5210
 1893SOL     OW17137   2.843   0.937   4.564  0.3851 -0.3147  0.6221
 1893SOL    HW117138   2.832   0.990   4.485 -0.5516  1.1628  1.7539
 1893SOL    HW217139   2.889   0.998   4.622  0.0391  0.5371 -0.0088
 1894SOL     OW17140   0.220   1.150   9.584 -0.6166  0.9354 -0.3111
 1894SOL    HW117141   0.177   1.085   9.640  0.5561  1.1729  0.8729
 1894SOL    HW217142   0.170   1.229   9.602 -0.8944  0.7119 -0.1087
 1895SOL     OW17143   2.886   3.595  12.008  0.2725  0.8370 -0.4780
 1895SOL    HW117144   2.943   3.671  12.016  1.4913 -0.0510 -0.8417
 1895SOL    HW217145   2.812   3.622  12.062  0.6717  0.4074  0.2825
 1896SOL     OW17146   0.033   2.607   7.851 -0.4655  0.1532 -0.0320
 1896SOL    HW117147   0.029   2.650   7.766  0.3102 -0.4666 -0.3870
 1896SOL    HW217148   4.666   2.601   7.874 -0.4433  2.3428  0.5687
 1897SOL     OW17149   0.773   4.175   8.815  0.5956 -0.6953  1.1168
 1897SOL    HW117150   0.790   4.260   8.857 -2.6454 -0.2119  1.4226
 1897SOL    HW217151   0.682   4.198   8.797  1.3073  1.0399 -0.3957
 1898SOL     OW17152   3.110   3.538   2.711 -0.5161  0.4263  0.1590
 1898SOL    HW117153   3.200   3.568   2.700 -0.9683  1.9590  0.6839
 1898SOL    HW217154   3.102   3.541   2.806 -2.3108 -0.7401  0.0508
 1899SOL     OW17155   2.298   4.242   7.036  0.3212  0.4263 -0.2149
 1899SOL    HW117156   2.204   4.222   7.028  0.2978 -0.0731  1.4511
 1899SOL    HW217157   2.341   4.193   6.966  0.6883  1.6766 -0.8697
 1900SOL     OW17158   4.201   2.223   3.380 -0.2640  0.2874  0.4374
 1900SOL    HW117159   4.110   2.239   3.358 -0.0698  2.1000  0.9350
 1900SOL    HW217160   4.185   2.175   3.462 -0.4949 -1.2843 -0.5311
 1901SOL     OW17161   4.321   3.458   0.395  0.3011  0.0046 -0.1006
 1901SOL    HW117162   4.396   3.507   0.430  1.6449 -1.0578 -1.4714
 1901SOL    HW217163   4.259   3.477   0.465  1.0029  1.7637  0.0380
 1902SOL     OW17164   1.113   0.513  11.932 -0.0726 -0.3178  0.0300
 1902SOL    HW117165   1.103   0.495  11.839  0.1786  0.2561 -0.1064
 1902SOL    HW217166   1.065   0.440  11.970 -1.0067  0.9503  1.3088
 1903SOL     OW17167   1.805   3.128  15.946  0.6914  0.0573  0.2850
 1903SOL    HW117168   1.772   3.047  15.985 -1.6427  0.5099 -0.7878
 1903SOL    HW217169   1.866   3.091  15.882  0.6146  2.0194 -0.9267
 1904SOL     OW17170   1.061   1.076   6.181  0.0577  0.2193  0.1771
 1904SOL    HW117171   0.968   1.090   6.201  0.0178 -0.6340  0.5682
 1904SOL    HW217172   1.100   1.161   6.202  2.6406 -0.1067 -3.3293
 1905SOL     OW17173   0.879   3.217   5.380  0.7023  0.5004  0.0417
 1905SOL    HW117174   0.891   3.173   5.296 -0.1411 -0.0957  0.2301
 1905SOL    HW217175   0.943   3.179   5.440  0.4652 -2.2821 -1.4857
 1906SOL     OW17176   3.629   0.447  11.367 -0.4841  0.1785 -0.3983
 1906SOL    HW117177   3.561   0.396  11.411  0.8641 -3.4354 -2.4757
 1906SOL    HW217178   3.702   0.385  11.378 -2.7394 -1.6637  4.2302
 1907SOL     OW17179   1.799   0.516   1.124 -0.7728 -0.1322  0.0594
 1907SOL    HW117180   1.817   0.595   1.175  1.2150 -0.2232 -0.4771
 1907SOL    HW217181   1.812   0.454   1.196 -0.3329 -0.8691 -0.6459
 1908SOL     OW17182   1.905   2.926  14.966 -0.7826  0.4210 -0.0513
 1908SOL    HW117183   1.833   2.977  14.928 -1.4322  0.9397  1.8286
 1908SOL    HW217184   1.942   2.893  14.885 -1.4913 -1.2828  0.3290
 1909SOL     OW17185   3.574   4.265   8.764 -0.2163  0.0402  0.1588
 1909SOL    HW117186   3.527   4.332   8.715  4.2729  2.0493 -1.3851
 1909SOL    HW217187   3.658   4.311   8.770 -0.4329  0.6268 -1.3764
 1910SOL     OW17188   2.921   0.107   6.996 -0.3845  0.3992  0.1021
 1910SOL    HW117189   2.878   0.117   6.911 -0.8203  0.6926  0.3584
 1910SOL    HW217190   2.940   0.013   7.004 -0.9436 -0.1052 -4.7141
 1911SOL     OW17191   3.290   1.752   3.667 -0.7375  0.2286 -0.2072
 1911SOL    HW117192   3.358   1.707   3.717  0.7837  1.5145 -1.1117
 1911SOL    HW217193   3.319   1.841   3.689 -1.5582  0.2394  0.8093
 1912SOL     OW17194   4.377   2.531  15.114 -0.1125 -0.2696  0.1546
 1912SOL    HW117195   4.438   2.513  15.042 -0.7959  1.1389 -0.7737
 1912SOL    HW217196   4.348   2.619  15.093 -2.0633 -1.0152 -0.3026
 1913SOL     OW17197   2.021   0.796   1.428 -0.5861  0.5233  0.3415
 1913SOL    HW117198   2.011   0.861   1.359  0.3035  1.0289  0.6840
 1913SOL    HW217199   2.022   0.717   1.374  0.6512  0.8804 -0.1552
 1914SOL     OW17200   0.778   4.539  10.659  0.2293 -0.3750 -0.2673
 1914SOL    HW117201   0.804   4.555  10.569  0.2507  0.6181 -0.0778
 1914SOL    HW217202   0.755   4.625  10.694  1.8089 -0.3833  0.7960
 1915SOL     OW17203   0.186   3.308   2.536  0.0477 -0.6592  0.2452
 1915SOL    HW117204   0.154   3.280   2.450  2.0752 -0.7052 -0.4969
 1915SOL    HW217205   0.223   3.392   2.507  0.8977 -1.1015  0.0506
 1916SOL     OW17206   0.317   2.389   1.521 -0.0915  0.3312  0.1885
 1916SOL    HW117207   0.404   2.402   1.558  0.4618  0.4708 -1.1684
 1916SOL    HW217208   0.345   2.381   1.430  2.0779  0.0046  0.8731
 1917SOL     OW17209   3.867   1.483   2.035  0.4516 -0.0257  0.1958
 1917SOL    HW117210   3.930   1.497   1.964 -0.4103  1.0551 -0.3565
 1917SOL    HW217211   3.813   1.418   1.990  1.2641 -0.8627  0.4234
 1918SOL     OW17212   0.286   1.381   2.945 -0.6561  0.0408 -0.2352
 1918SOL    HW117213   0.369   1.375   2.898  0.1501 -0.1034  1.2043
 1918SOL    HW217214   0.242   1.298   2.926 -0.7608 -0.2927  1.4759
 1919SOL     OW17215   3.059   2.534   3.405 -0.2658 -0.0251  0.2939
 1919SOL    HW117216   3.065   2.525   3.310  2.7045  3.5150  0.1205
 1919SOL    HW217217   3.091   2.450   3.437  1.5509  0.4558 -0.2033
 1920SOL     OW17218   2.325   1.398  14.485 -0.0273  0.5124  0.1751
 1920SOL    HW117219   2.380   1.394  14.563  1.6368 -0.5689 -1.0797
 1920SOL    HW217220   2.270   1.470  14.519 -1.8535 -0.5762 -0.4589
 1921SOL     OW17221   3.682   3.071   7.183 -0.4706  0.1720 -0.1089
 1921SOL    HW117222   3.740   3.108   7.249 -0.2013 -0.7371  0.1501
 1921SOL    HW217223   3.701   3.136   7.115 -0.0867  0.9104  0.7048
 1922SOL     OW17224   3.545   1.734   4.571  0.4745  0.6619  0.3148
 1922SOL    HW117225   3.520   1.752   4.480 -1.2389  0.0428  0.6481
 1922SOL    HW217226   3.483   1.661   4.581 -0.8557  1.7529  0.0713
 1923SOL     OW17227   2.258   2.127  13.535  0.4061 -0.3691  0.1056
 1923SOL    HW117228   2.270   2.057  13.471 -0.6683  1.3332 -1.9570
 1923SOL    HW217229   2.221   2.089  13.615  0.7134 -1.0300 -0.0644
 1924SOL     OW17230   2.423   2.966   3.400  0.0899 -0.1081  0.3312
 1924SOL    HW117231   2.335   2.929   3.403  0.4684 -0.9997  0.4396
 1924SOL    HW217232   2.407   3.043   3.345  0.4951  0.6548  1.2755
 1925SOL     OW17233   4.058   3.681   9.144  0.0509 -0.5466 -0.2174
 1925SOL    HW117234   4.100   3.765   9.123  0.2695 -0.1955  1.5964
 1925SOL    HW217235   4.083   3.631   9.066  0.3865 -0.4644 -0.1629
 1926SOL     OW17236   0.828   4.431  15.373 -0.0432 -0.3623  0.1457
 1926SOL    HW117237   0.815   4.479  15.291 -0.9912  0.2275  0.6399
 1926SOL    HW217238   0.909   4.457  15.417 -0.6890  2.2649 -0.1810
 1927SOL     OW17239   3.318   0.505   5.358  0.1559 -0.0222 -0.4985
 1927SOL    HW117240   3.394   0.553   5.325  0.3957  1.4170  2.1294
 1927SOL    HW217241   3.358   0.470   5.437  2.5362 -0.6524 -1.9747
 1928SOL     OW17242   4.024   3.970  17.087  0.1238  0.2754  0.0821
 1928SOL    HW117243   3.974   3.900  17.129 -0.9273  0.3726 -1.0044
 1928SOL    HW217244   4.114   3.949  17.111 -0.4868 -1.5034  0.7975
 1929SOL     OW17245   0.623   0.506  13.653  0.3243  0.4360 -0.0998
 1929SOL    HW117246   0.620   0.436  13.588 -0.4058  1.7858 -1.5146
 1929SOL    HW217247   0.595   0.451  13.726 -0.1168  1.9684  0.8884
 1930SOL     OW17248   2.717   3.486  14.683  0.6352  0.4570 -0.1098
 1930SOL    HW117249   2.674   3.470  14.767  1.9210 -1.0827  0.2524
 1930SOL    HW217250   2.643   3.523  14.634 -1.1874 -3.5371 -0.4286
 1931SOL     OW17251   1.014   2.545   5.811  0.1585  0.4053 -0.1664
 1931SOL    HW117252   0.921   2.529   5.798 -0.1102  2.2835 -0.4758
 1931SOL    HW217253   1.049   2.566   5.724 -0.2889 -0.5382 -0.5797
 1932SOL     OW17254   4.495   1.712   1.792 -0.1459  0.1836 -0.4595
 1932SOL    HW117255   4.484   1.705   1.697 -0.4663 -1.5643 -0.2820
 1932SOL    HW217256   4.430   1.772   1.827 -1.3224 -0.3894 -1.6695
 1933SOL     OW17257   2.537   4.528   8.418  0.3829 -0.5870 -0.4028
 1933SOL    HW117258   2.600   4.529   8.346  0.9543 -1.1070  0.0883
 1933SOL    HW217259   2.592   4.517   8.495 -0.7111 -1.3051  0.2752
 1934SOL     OW17260   0.248   2.157   0.958 -0.3454  0.3805 -0.2674
 1934SOL    HW117261   0.219   2.082   1.009 -0.5768  0.8187  0.2532
 1934SOL    HW217262   0.226   2.114   0.875 -2.7519  1.6677 -0.2941
 1935SOL     OW17263   3.443   1.770   7.905 -0.1097  0.1360 -0.4559
 1935SOL    HW117264   3.519   1.722   7.938 -0.9319 -0.7872  0.1109
 1935SOL    HW217265   3.386   1.693   7.894 -0.5654  0.5057 -0.6767
 1936SOL     OW17266   1.257   1.177   5.274 -1.0131  0.0016  0.1494
 1936SOL    HW117267   1.185   1.117   5.297  1.1273 -2.1477  1.2878
 1936SOL    HW217268   1.277   1.223   5.356  0.8894 -0.9831  0.2503
 1937SOL     OW17269   4.476   0.196  12.721  0.3479  0.2507 -0.1605
 1937SOL    HW117270   4.400   0.197  12.779 -0.1781  0.3486 -0.8397
 1937SOL    HW217271   4.550   0.233  12.769  0.8865 -1.2477  0.1588
 1938SOL     OW17272   2.244   2.209   1.079 -0.4151  0.1343 -0.0778
 1938SOL    HW117273   2.215   2.165   0.999 -1.5689 -0.1406  0.5000
 1938SOL    HW217274   2.165   2.258   1.102 -1.6639 -1.8476 -0.1601
 1939SOL     OW17275   3.568   1.785  10.700 -0.3763  0.2927  0.2941
 1939SOL    HW117276   3.529   1.871  10.681  2.9839  1.9122  0.7508
 1939SOL    HW217277   3.639   1.795  10.636 -0.1680 -2.0261  0.1746
 1940SOL     OW17278   2.737   1.219   0.255  0.1543  0.0200  0.1026
 1940SOL    HW117279   2.760   1.290   0.314  1.2735 -0.5105  0.3036
 1940SOL    HW217280   2.755   1.144   0.311  2.6980  1.0710  0.6838
 1941SOL     OW17281   2.262   1.015   3.102  0.0447 -0.1244 -0.1334
 1941SOL    HW117282   2.176   0.984   3.128 -0.2408  0.2380 -0.6378
 1941SOL    HW217283   2.260   1.090   3.161  0.1955 -0.7602  0.6794
 1942SOL     OW17284   0.516   2.444  12.591  0.5015  0.2364  0.2075
 1942SOL    HW117285   0.532   2.505  12.664 -0.0409  1.0952 -0.3906
 1942SOL    HW217286   0.603   2.410  12.570  0.5421  0.0139  0.7159
 1943SOL     OW17287   2.261   3.405   3.236  0.1759  0.5154 -0.0079
 1943SOL    HW117288   2.169   3.380   3.228  0.2969 -0.0394  0.2776
 1943SOL    HW217289   2.256   3.499   3.221 -0.7182  0.6940  1.3279
 1944SOL     OW17290   2.611   1.064   6.407 -0.2718  0.1692 -0.4493
 1944SOL    HW117291   2.628   0.985   6.458  1.3045  0.0249 -1.2104
 1944SOL    HW217292   2.551   1.027   6.342 -0.2275 -0.8914  0.1098
 1945SOL     OW17293   2.530   2.664   3.194 -0.0923 -0.0967  0.7105
 1945SOL    HW117294   2.546   2.655   3.100  1.3053 -1.6311  1.0994
 1945SOL    HW217295   2.440   2.631   3.200 -0.1986  0.0331 -0.1339
 1946SOL     OW17296   1.712   3.611   5.706 -0.3793 -0.5513  0.5001
 1946SOL    HW117297   1.692   3.668   5.780  0.5732 -2.4250  2.2196
 1946SOL    HW217298   1.633   3.621   5.653  0.8424 -1.5490 -1.4956
 1947SOL     OW17299   0.246   3.293   4.386  0.4767 -0.6117  0.6881
 1947SOL    HW117300   0.325   3.331   4.423  0.0108 -0.7774  1.8478
 1947SOL    HW217301   0.223   3.233   4.457  1.9801 -1.6642  0.2824
 1948SOL     OW17302   2.714   1.082   0.003  0.7975 -0.0277  0.1993
 1948SOL    HW117303   2.692   1.113   0.091 -1.7798 -1.5763  0.1197
 1948SOL    HW217304   2.771   1.148  17.669  0.6637  0.0875  0.2023
 1949SOL     OW17305   0.521   0.762   7.926 -0.4422  0.1817 -0.0454
 1949SOL    HW117306   0.436   0.726   7.900 -0.8021  0.6828  0.4319
 1949SOL    HW217307   0.516   0.851   7.891 -1.2480 -0.7220 -2.2089
 1950SOL     OW17308   2.561   0.755   8.208  0.0044 -1.2901  0.1230
 1950SOL    HW117309   2.518   0.689   8.262 -0.2050 -1.9476 -0.8309
 1950SOL    HW217310   2.649   0.770   8.243 -0.0427  1.3915 -0.9259
 1951SOL     OW17311   1.516   0.491  14.306 -0.2438 -0.4970  0.3027
 1951SOL    HW117312   1.459   0.532  14.242  0.0237  0.0596  0.4211
 1951SOL    HW217313   1.462   0.515  14.382 -0.4416  1.4217 -0.4443
 1952SOL     OW17314   2.964   1.786   7.491 -0.3102 -0.1966  0.1330
 1952SOL    HW117315   3.041   1.823   7.535 -0.1171  1.9913 -2.0692
 1952SOL    HW217316   2.900   1.800   7.560  0.4577 -0.4715  0.9006
 1953SOL     OW17317   0.062   2.467  10.173 -0.2713  1.0482  0.1888
 1953SOL    HW117318   0.084   2.395  10.232  2.0515  3.2403  2.0232
 1953SOL    HW217319   0.120   2.441  10.101  0.9606 -1.1596  1.9890
 1954SOL     OW17320   3.908   3.941   6.969 -0.6157  0.0393 -0.0995
 1954SOL    HW117321   3.821   3.960   6.936 -0.0516  1.5601 -0.7560
 1954SOL    HW217322   3.885   3.881   7.039  2.9741  0.0764  1.1485
 1955SOL     OW17323   1.247   4.495  13.682 -0.2770 -0.2231  0.7881
 1955SOL    HW117324   1.316   4.430  13.692 -0.1482 -0.6628 -3.0967
 1955SOL    HW217325   1.290   4.574  13.712 -0.7922  0.9475 -1.5555
 1956SOL     OW17326   3.733   3.758   2.888 -0.5127  0.2969  0.0211
 1956SOL    HW117327   3.729   3.816   2.812  2.8572 -0.4253 -0.7080
 1956SOL    HW217328   3.677   3.693   2.846 -0.8178  0.5245  0.0725
 1957SOL     OW17329   2.715   2.852  16.953  0.0594 -0.1845 -0.3902
 1957SOL    HW117330   2.719   2.814  16.865  2.7060 -1.1385  0.1250
 1957SOL    HW217331   2.704   2.945  16.934 -1.3787 -0.4332 -0.7819
 1958SOL     OW17332   1.280   0.566   2.888  0.5199  0.6095  0.6769
 1958SOL    HW117333   1.322   0.580   2.803  1.1160  0.2224  0.9116
 1958SOL    HW217334   1.352   0.525   2.936  0.2002 -0.8490 -0.0807
 1959SOL     OW17335   0.423   4.436  11.782  0.3698 -0.3200  0.4670
 1959SOL    HW117336   0.414   4.511  11.840  2.5451  0.3334 -0.0417
 1959SOL    HW217337   0.506   4.402  11.814  0.4938 -0.6461 -0.2067
 1960SOL     OW17338   0.077   0.236   7.432 -0.8926  0.2235 -0.2921
 1960SOL    HW117339   0.149   0.241   7.494 -1.4735  0.0831  0.3921
 1960SOL    HW217340   0.070   0.325   7.398  3.2455  0.2696 -1.0148
 1961SOL     OW17341   2.103   2.172   2.093 -0.0129  0.5896 -0.0916
 1961SOL    HW117342   2.197   2.163   2.077  0.2352  1.4301  0.8285
 1961SOL    HW217343   2.104   2.262   2.127 -1.6275 -0.1873  2.0406
 1962SOL     OW17344   0.198   3.901   4.152  0.5233  0.1562  0.1950
 1962SOL    HW117345   0.200   3.825   4.093 -2.6677  0.3312 -0.1561
 1962SOL    HW217346   0.284   3.898   4.194  0.7790 -0.1952 -0.3402
 1963SOL     OW17347   0.633   0.114   4.250 -0.5247 -0.6878  0.1275
 1963SOL    HW117348   0.618   0.148   4.338 -0.9171  0.0627 -0.2323
 1963SOL    HW217349   0.726   0.094   4.258 -0.2461  1.0617  1.2070
 1964SOL     OW17350   3.800   0.470   8.685 -0.4834  0.3830  0.1863
 1964SOL    HW117351   3.770   0.385   8.654 -0.1517  0.6411 -0.8483
 1964SOL    HW217352   3.888   0.478   8.648 -0.9847  0.3098 -1.0307
 1965SOL     OW17353   0.523   2.717   7.636  0.2114 -0.2279  0.5097
 1965SOL    HW117354   0.465   2.682   7.703  1.3207  0.3982  1.8037
 1965SOL    HW217355   0.558   2.790   7.686  0.2576  1.3412 -1.8147
 1966SOL     OW17356   4.337   3.247   2.382 -0.3331  0.3194  0.7770
 1966SOL    HW117357   4.307   3.201   2.460 -1.2340  1.1030  0.8886
 1966SOL    HW217358   4.412   3.198   2.350  1.6570  2.6628  1.9003
 1967SOL     OW17359   0.749   2.052   1.017 -0.0353 -0.7452  0.2489
 1967SOL    HW117360   0.655   2.033   1.016 -0.1535 -0.1604  0.0516
 1967SOL    HW217361   0.790   1.966   1.010  0.0795 -0.7714  1.3564
 1968SOL     OW17362   1.538   0.351   7.765 -0.6233  0.3806  0.4430
 1968SOL    HW117363   1.543   0.398   7.682  0.9503  3.3548  2.2350
 1968SOL    HW217364   1.525   0.261   7.733  1.2688 -0.0168  0.7895
 1969SOL     OW17365   2.183   4.353   0.858  0.0992 -0.0631 -0.2653
 1969SOL    HW117366   2.102   4.314   0.891 -1.2429 -0.5115 -4.0998
 1969SOL    HW217367   2.215   4.400   0.935 -1.0015  1.5131 -0.7586
 1970SOL     OW17368   1.058   0.743   8.654  0.0406 -0.1304  0.0328
 1970SOL    HW117369   1.019   0.664   8.616 -0.8536  0.2517  0.1442
 1970SOL    HW217370   0.983   0.774   8.704 -0.2908 -0.3640 -0.3195
 1971SOL     OW17371   0.978   2.160   7.972 -0.0566 -0.0777 -0.0265
 1971SOL    HW117372   1.032   2.150   7.893  1.0082 -0.3642  0.7473
 1971SOL    HW217373   1.011   2.087   8.024  0.5448 -1.9431 -3.0077
 1972SOL     OW17374   1.058   1.957  15.407  0.3585 -0.5327 -0.2073
 1972SOL    HW117375   1.019   1.965  15.494  1.4844 -1.3794  0.3764
 1972SOL    HW217376   1.149   1.974  15.430  0.1787 -2.5087  1.8907
 1973SOL     OW17377   0.268   2.414  12.044 -0.3984  0.0149  0.4349
 1973SOL    HW117378   0.285   2.358  12.120 -0.6896  0.0704  0.5439
 1973SOL    HW217379   0.193   2.464  12.076  1.1855  1.6445  1.5616
 1974SOL     OW17380   3.415   0.248   4.827  0.6893 -0.8330  0.6904
 1974SOL    HW117381   3.413   0.323   4.887  1.2393 -2.5811  2.8945
 1974SOL    HW217382   3.404   0.297   4.746  0.0638  0.0924  1.3436
 1975SOL     OW17383   2.760   0.611   2.710 -0.6315 -0.4125  0.0145
 1975SOL    HW117384   2.685   0.582   2.761  0.0469  0.9210  1.7560
 1975SOL    HW217385   2.748   0.705   2.717  0.5665 -0.1673 -1.1362
 1976SOL     OW17386   3.491   3.731  13.679 -0.5967 -0.0070  0.1913
 1976SOL    HW117387   3.468   3.815  13.718  0.2570  0.5450 -0.4917
 1976SOL    HW217388   3.529   3.754  13.594  1.4374 -2.7806  0.3765
 1977SOL     OW17389   0.146   2.695   9.333 -0.2461 -0.1141 -0.6050
 1977SOL    HW117390   0.061   2.651   9.323 -0.3815  0.0553 -0.1906
 1977SOL    HW217391   0.132   2.731   9.421  2.1427 -0.9132  0.1015
 1978SOL     OW17392   1.782   3.391   5.290 -0.2905  0.3013  0.0265
 1978SOL    HW117393   1.852   3.457   5.280  0.0128 -0.0903 -0.4146
 1978SOL    HW217394   1.823   3.310   5.259  0.0493 -0.1765  1.7382
 1979SOL     OW17395   2.322   0.459   8.105 -0.0162 -0.5234 -0.5221
 1979SOL    HW117396   2.328   0.389   8.171 -0.6527  0.2203  0.3322
 1979SOL    HW217397   2.405   0.447   8.059  0.7117  2.5648 -0.0067
 1980SOL     OW17398   4.277   3.091   9.126  0.1178 -0.2897  0.1862
 1980SOL    HW117399   4.318   3.085   9.212 -2.7416  0.3154  1.5979
 1980SOL    HW217400   4.340   3.051   9.066 -1.2930 -2.8783  0.4098
 1981SOL     OW17401   3.279   2.334   8.321  0.1014  0.5021 -0.1010
 1981SOL    HW117402   3.353   2.334   8.382  1.9908 -2.0514 -2.3852
 1981SOL    HW217403   3.264   2.426   8.299  0.2703  0.7851  1.0105
 1982SOL     OW17404   1.266   2.683  11.700  0.6353  0.5987  0.0910
 1982SOL    HW117405   1.357   2.653  11.704  0.7283  0.6483 -1.7948
 1982SOL    HW217406   1.281   2.768  11.742 -0.3433  0.1683  1.3179
 1983SOL     OW17407   0.342   0.197   1.577  0.2550  0.2456 -0.1421
 1983SOL    HW117408   0.375   0.112   1.547 -0.5803 -0.9876  2.4577
 1983SOL    HW217409   0.308   0.181   1.665  3.0547 -2.1507  0.4883
 1984SOL     OW17410   3.864   4.292   2.151  0.5748  0.2680  0.1989
 1984SOL    HW117411   3.835   4.313   2.062 -2.1739  0.0189  1.0439
 1984SOL    HW217412   3.955   4.278   2.125  0.3490 -0.4332 -0.2084
 1985SOL     OW17413   4.128   4.648   3.319  0.2096  0.0413  0.5345
 1985SOL    HW117414   4.214   4.635   3.278  1.7555  0.9006  3.5257
 1985SOL    HW217415   4.077   4.580   3.275  0.8863  0.7777 -1.4086
 1986SOL     OW17416   2.982   3.139   8.391  0.0943  0.0087 -0.4095
 1986SOL    HW117417   2.993   3.140   8.296  0.4103  2.6073 -0.3263
 1986SOL    HW217418   3.032   3.062   8.417  0.0445  0.0816 -0.0980
 1987SOL     OW17419   3.257   2.605  15.467 -0.3550 -0.2686 -0.0684
 1987SOL    HW117420   3.172   2.620  15.426  0.1310  1.2831 -0.4996
 1987SOL    HW217421   3.265   2.683  15.521 -0.4107 -0.3956  0.1225
 1988SOL     OW17422   3.018   1.172  13.216  0.4390  0.3007 -0.3449
 1988SOL    HW117423   3.083   1.239  13.236 -1.5036  2.2662 -0.6356
 1988SOL    HW217424   3.051   1.099  13.269 -0.9703  0.9564  1.4256
 1989SOL     OW17425   3.760   0.561  17.598  0.0499 -0.6646 -0.3091
 1989SOL    HW117426   3.736   0.473  17.568 -0.6711  0.0289 -1.7464
 1989SOL    HW217427   3.811   0.535  17.675 -0.0465 -0.7670 -0.2793
 1990SOL     OW17428   1.482   1.658  12.817 -0.3601  0.5777  0.1950
 1990SOL    HW117429   1.528   1.574  12.822 -1.4448 -0.2636 -4.2588
 1990SOL    HW217430   1.455   1.678  12.907  0.3180  0.4545  0.4254
 1991SOL     OW17431   1.148   4.161   5.568 -0.4481  0.0876  0.2135
 1991SOL    HW117432   1.064   4.207   5.574 -1.1180 -1.1101 -0.0581
 1991SOL    HW217433   1.124   4.094   5.504  0.1829  1.0042 -0.9814
 1992SOL     OW17434   0.141   0.788   7.427 -0.3092  0.2024 -0.1725
 1992SOL    HW117435   0.184   0.865   7.464 -2.6434  1.4850 -0.1388
 1992SOL    HW217436   0.094   0.759   7.505  0.0501  1.9810  0.7042
 1993SOL     OW17437   1.073   3.715   7.012 -0.2272 -0.4681 -0.4274
 1993SOL    HW117438   1.052   3.662   6.934 -1.1046 -0.0792 -0.4495
 1993SOL    HW217439   1.138   3.658   7.053 -0.5067  0.7861  1.7531
 1994SOL     OW17440   2.103   4.277   8.799  0.3958  0.6546  0.1688
 1994SOL    HW117441   2.163   4.315   8.864  1.7999  1.1218 -1.3764
 1994SOL    HW217442   2.083   4.198   8.848  1.9836  0.9234  1.2893
 1995SOL     OW17443   1.654   2.581  10.530 -0.3633  0.4698  0.7046
 1995SOL    HW117444   1.683   2.490  10.541  0.2004  0.4339 -1.1152
 1995SOL    HW217445   1.623   2.599  10.618 -1.4821 -0.3768  0.4857
 1996SOL     OW17446   0.737   1.743   2.130 -0.0213 -0.5443 -0.3791
 1996SOL    HW117447   0.655   1.789   2.148 -0.1240 -1.1442  0.6755
 1996SOL    HW217448   0.723   1.670   2.190 -1.2713 -0.6512 -0.8107
 1997SOL     OW17449   1.287   4.720   2.717  0.1298 -0.2666  0.2597
 1997SOL    HW117450   1.249   4.672   2.644 -0.4056  1.0522 -0.3223
 1997SOL    HW217451   1.299   0.083   2.684  0.0133 -0.6988 -0.9435
 1998SOL     OW17452   1.923   4.710   4.818 -0.2668 -0.0059  0.2493
 1998SOL    HW117453   1.934   4.615   4.816  2.3745  0.2959  0.3369
 1998SOL    HW217454   1.953   0.008   4.730  1.8260 -1.5409  0.5634
 1999SOL     OW17455   1.346   2.159   5.395  0.4126 -0.4077  0.4258
 1999SOL    HW117456   1.386   2.088   5.344 -0.5833 -0.9628  0.4232
 1999SOL    HW217457   1.317   2.125   5.480  0.6211  1.4356  1.2413
 2000SOL     OW17458   1.081   3.719   4.594  0.4566  0.5159 -0.2642
 2000SOL    HW117459   1.021   3.750   4.661 -0.3694  0.7027 -1.1047
 2000SOL    HW217460   1.124   3.644   4.637 -0.0858 -0.4884 -1.4607
 2001SOL     OW17461   0.560   2.460   1.621 -0.0418 -0.1585 -0.2123
 2001SOL    HW117462   0.628   2.524   1.644 -0.7301  1.0916 -1.6456
 2001SOL    HW217463   0.610   2.402   1.565 -1.8680 -2.2364  0.3109
 2002SOL     OW17464   3.281   2.343  13.896  0.2376 -0.3615 -0.8742
 2002SOL    HW117465   3.329   2.321  13.816  1.2602 -0.3020 -0.2800
 2002SOL    HW217466   3.325   2.423  13.923 -0.0239  0.4052 -2.7760
 2003SOL     OW17467   4.065   4.383   0.763 -0.4038 -0.3744 -0.2836
 2003SOL    HW117468   4.026   4.399   0.849  0.8365 -1.2855  0.4509
 2003SOL    HW217469   4.123   4.457   0.748  1.7103 -2.1121 -0.6179
 2004SOL     OW17470   1.794   4.387   6.772 -0.4350 -0.6226 -0.4556
 2004SOL    HW117471   1.876   4.429   6.748 -0.2788 -1.2811 -1.0674
 2004SOL    HW217472   1.746   4.466   6.798  1.5402  0.5303 -0.2931
 2005SOL     OW17473   2.891   1.773   8.423 -0.2791 -0.3653 -0.4669
 2005SOL    HW117474   2.954   1.789   8.352  1.8259 -2.9928  0.8027
 2005SOL    HW217475   2.842   1.853   8.440  0.6008 -0.1417  1.1100
 2006SOL     OW17476   1.775   4.571   7.265  0.0932  0.2446 -0.0930
 2006SOL    HW117477   1.789   4.480   7.238 -0.8717 -0.8607  3.2277
 2006SOL    HW217478   1.867   4.583   7.288 -0.4380 -1.7921  3.0564
 2007SOL     OW17479   4.180   3.702  12.119 -0.5313  0.0363 -0.1255
 2007SOL    HW117480   4.100   3.749  12.145 -0.4614 -0.3947  0.8812
 2007SOL    HW217481   4.179   3.710  12.024  0.1553 -1.3049 -0.2349
 2008SOL     OW17482   1.052   3.628   9.120 -0.2484  0.2721  0.4242
 2008SOL    HW117483   1.102   3.555   9.083  0.2934  1.4318 -1.1674
 2008SOL    HW217484   1.124   3.673   9.165  1.0803 -2.2342  0.8111
 2009SOL     OW17485   0.806   0.171   7.985 -0.3878  0.2357  0.4943
 2009SOL    HW117486   0.826   0.173   8.078 -1.8231  0.1295  0.8111
 2009SOL    HW217487   0.808   0.079   7.956 -3.3117  0.2410  0.2621
 2010SOL     OW17488   4.422   2.389  15.342  0.5359 -0.1644  0.5073
 2010SOL    HW117489   4.390   2.415  15.429  0.9397  0.6364  0.4204
 2010SOL    HW217490   4.394   2.461  15.285 -2.2195 -1.8988 -0.3086
 2011SOL     OW17491   3.255   1.305   8.775 -0.2924 -0.5718 -0.0953
 2011SOL    HW117492   3.246   1.390   8.818  2.1714 -1.2045  1.6755
 2011SOL    HW217493   3.259   1.330   8.682 -0.8479 -0.1014  0.0069
 2012SOL     OW17494   0.580   0.507  12.309  0.1382  0.5839 -0.3339
 2012SOL    HW117495   0.492   0.532  12.280  0.1987 -0.2159 -1.2039
 2012SOL    HW217496   0.610   0.587  12.350  2.3967  0.7119 -2.2750
 2013SOL     OW17497   2.717   0.653  17.584 -0.3403 -0.1549 -0.6166
 2013SOL    HW117498   2.768   0.583  17.625 -1.2004 -0.2265  0.3193
 2013SOL    HW217499   2.680   0.686  17.666 -1.3188 -1.0018 -0.7254
 2014SOL     OW17500   2.545   2.963   4.130  0.0157 -0.4517 -0.0376
 2014SOL    HW117501   2.569   3.056   4.135  0.3924 -0.5988  0.7276
 2014SOL    HW217502   2.473   2.975   4.067 -1.7748  0.5659  2.2174
 2015SOL     OW17503   4.644   0.597   9.172  0.1059 -0.0185  0.3956
 2015SOL    HW117504   4.633   0.682   9.214 -0.8529  0.3954 -0.7066
 2015SOL    HW217505   0.002   0.617   9.130 -0.1526 -1.6044 -0.8712
 2016SOL     OW17506   0.103   0.465   8.203  0.1311 -0.5584  0.3343
 2016SOL    HW117507   0.051   0.385   8.193  0.8389 -1.0353  0.4727
 2016SOL    HW217508   0.095   0.475   8.298 -3.0920 -0.2922  0.0435
 2017SOL     OW17509   4.363   3.375   6.273 -0.4367 -0.2047 -0.3425
 2017SOL    HW117510   4.446   3.336   6.303  0.1326  1.5151  0.3031
 2017SOL    HW217511   4.337   3.407   6.360 -0.2482 -0.2078 -0.2842
 2018SOL     OW17512   4.140   1.859   8.228 -0.4190 -0.6083  0.2404
 2018SOL    HW117513   4.090   1.937   8.253 -1.5768 -1.4831  0.6486
 2018SOL    HW217514   4.186   1.899   8.155  0.2576  0.8706  1.4685
 2019SOL     OW17515   3.100   3.786  11.963  0.3796 -0.3006 -0.5888
 2019SOL    HW117516   3.161   3.723  11.925  1.1106  1.2565 -2.0168
 2019SOL    HW217517   3.142   3.871  11.945 -1.5185  0.3598 -1.8544
 2020SOL     OW17518   1.644   4.632   6.725 -0.1139  0.3960  0.6248
 2020SOL    HW117519   1.691   4.696   6.672 -0.2881  1.5318  1.8438
 2020SOL    HW217520   1.672   4.652   6.814  0.2983 -0.4156  0.6792
 2021SOL     OW17521   2.920   2.322  11.225 -0.2754  0.6634 -0.1869
 2021SOL    HW117522   2.987   2.254  11.219 -0.1316  0.8062 -0.2016
 2021SOL    HW217523   2.970   2.387  11.274 -0.6918  1.0621 -0.2918
 2022SOL     OW17524   3.356   0.633  16.744 -0.3256  0.5369  0.6061
 2022SOL    HW117525   3.443   0.648  16.707  0.8109 -0.3916  2.9221
 2022SOL    HW217526   3.308   0.670  16.670  1.8755  2.5238  0.1404
 2023SOL     OW17527   0.995   4.355   4.049  0.2695  0.5313  0.0402
 2023SOL    HW117528   0.922   4.336   3.990 -0.9557  0.1743  1.6742
 2023SOL    HW217529   1.048   4.276   4.035 -1.0989 -0.1148 -1.4599
 2024SOL     OW17530   0.504   1.875   9.484  0.1700  0.6766 -0.0693
 2024SOL    HW117531   0.545   1.860   9.569 -1.7959 -1.9744  0.4095
 2024SOL    HW217532   0.530   1.794   9.439  0.9829 -0.8657  3.2050
 2025SOL     OW17533   0.067   2.684   7.592 -0.4706 -0.0625 -0.0457
 2025SOL    HW117534   0.064   2.737   7.512 -1.1303  0.0832  0.0767
 2025SOL    HW217535   0.162   2.675   7.585 -0.3865  0.1333  0.8268
 2026SOL     OW17536   1.995   4.058   6.102  0.3702  0.3486  0.1052
 2026SOL    HW117537   1.937   4.121   6.143 -0.5113  0.0590 -0.6896
 2026SOL    HW217538   2.002   3.991   6.170 -0.3855  1.2794  1.0963
 2027SOL     OW17539   0.695   1.430   0.545  0.0852 -0.0470  0.1656
 2027SOL    HW117540   0.691   1.335   0.535  4.2951 -0.3024  1.0683
 2027SOL    HW217541   0.787   1.454   0.544 -0.0809  0.4985 -1.3989
 2028SOL     OW17542   0.147   1.207   1.812  0.1840  0.0361  0.5996
 2028SOL    HW117543   0.063   1.160   1.817 -0.7962  2.0075  2.4816
 2028SOL    HW217544   0.121   1.291   1.774  0.2061 -0.9537 -1.6135
 2029SOL     OW17545   0.883   4.255  16.899 -0.5036  0.2229 -0.3538
 2029SOL    HW117546   0.821   4.243  16.971  2.0373  1.1425  1.9865
 2029SOL    HW217547   0.932   4.173  16.894 -0.2425  0.5021 -2.3999
 2030SOL     OW17548   2.673   2.370  16.079  0.2199  0.1417 -0.4800
 2030SOL    HW117549   2.608   2.368  16.009 -0.9964  3.5268  0.5736
 2030SOL    HW217550   2.655   2.283  16.116 -1.1946  1.3154  1.5530
 2031SOL     OW17551   1.645   3.915  15.948  0.2307 -0.3922  0.4875
 2031SOL    HW117552   1.563   3.877  15.978 -0.0442  2.0135  2.7374
 2031SOL    HW217553   1.680   3.847  15.889 -1.8473  0.3842 -1.6435
 2032SOL     OW17554   4.089   0.456   4.006 -0.3837 -0.0666  0.7504
 2032SOL    HW117555   4.151   0.528   4.011 -0.3035 -0.3068  3.3001
 2032SOL    HW217556   4.122   0.406   3.931 -0.3693  0.0685  0.6674
 2033SOL     OW17557   3.972   2.989   5.434 -0.0134  0.3588 -0.0843
 2033SOL    HW117558   3.971   2.917   5.497  1.2870 -0.2794 -0.8137
 2033SOL    HW217559   3.998   3.056   5.498 -3.6915  2.6488 -0.9846
 2034SOL     OW17560   4.534   2.495   8.840 -0.4498  0.1097  0.4279
 2034SOL    HW117561   4.468   2.461   8.901 -0.5815 -0.4778 -0.0395
 2034SOL    HW217562   4.611   2.473   8.892  0.0056  0.5778 -0.0584
 2035SOL     OW17563   1.879   2.417   6.596 -0.4444  0.1721 -0.0214
 2035SOL    HW117564   1.785   2.408   6.615 -0.2799  1.3284  1.3347
 2035SOL    HW217565   1.900   2.502   6.635 -0.1295 -0.0800  0.3541
 2036SOL     OW17566   3.604   2.901   8.964 -0.7657 -0.1668  0.0668
 2036SOL    HW117567   3.539   2.900   9.034 -3.0274 -1.4081 -2.0594
 2036SOL    HW217568   3.558   2.935   8.887 -1.4607 -0.9026  0.1548
 2037SOL     OW17569   4.622   0.887   6.817 -0.8695 -0.1053  0.1441
 2037SOL    HW117570   4.597   0.797   6.839  1.2562 -0.2802  1.8463
 2037SOL    HW217571   4.698   0.864   6.765 -1.1320  0.0963 -0.3267
 2038SOL     OW17572   4.311   4.022  11.314  0.0887 -0.2278  0.1383
 2038SOL    HW117573   4.281   4.111  11.296 -0.4108 -0.3230  0.5222
 2038SOL    HW217574   4.381   4.034  11.378  1.0719  1.4175 -1.2397
 2039SOL     OW17575   0.293   3.041  14.498 -0.2298  0.3637 -0.2607
 2039SOL    HW117576   0.297   3.085  14.413  1.0583 -1.6422 -1.2304
 2039SOL    HW217577   0.355   3.100  14.540 -0.0412 -0.3861  0.5074
 2040SOL     OW17578   2.687   0.693   0.166  0.0830 -0.3488  0.3640
 2040SOL    HW117579   2.611   0.737   0.203 -0.6386  1.4199 -3.1862
 2040SOL    HW217580   2.753   0.736   0.220 -0.3624  0.2378  0.4425
 2041SOL     OW17581   3.405   0.945  16.436 -0.5500 -0.1817  0.1232
 2041SOL    HW117582   3.413   1.019  16.376  0.7555  0.6712  1.3524
 2041SOL    HW217583   3.358   0.985  16.509  0.0727 -2.6945  1.8944
 2042SOL     OW17584   0.596   0.072   1.292 -0.6251  0.3956  0.1185
 2042SOL    HW117585   0.652   0.012   1.241  0.2458  0.3964  1.0806
 2042SOL    HW217586   0.590   0.147   1.233  1.9177  1.8029  1.6736
 2043SOL     OW17587   2.647   4.401   5.916  0.1041 -0.6680  0.2225
 2043SOL    HW117588   2.571   4.346   5.933  1.1735 -1.9732  0.7293
 2043SOL    HW217589   2.707   4.343   5.963  2.4589  1.1975 -0.4184
 2044SOL     OW17590   3.473   3.005   2.960 -0.1574 -0.9008  0.7986
 2044SOL    HW117591   3.405   2.954   3.004 -0.0121 -1.7597  0.0368
 2044SOL    HW217592   3.493   2.951   2.883  0.3778  1.4759 -0.7425
 2045SOL     OW17593   3.384   0.016   7.671  0.4594  0.3138 -0.2449
 2045SOL    HW117594   3.380   4.653   7.635  2.4753  1.1300 -2.4964
 2045SOL    HW217595   3.428   0.060   7.598  1.9349  0.6801  0.8587
 2046SOL     OW17596   0.298   2.893   4.627  0.2839 -0.0313 -0.6498
 2046SOL    HW117597   0.366   2.856   4.570 -2.2420 -1.1834 -2.8835
 2046SOL    HW217598   0.276   2.812   4.674  0.7285  0.5954  0.6506
 2047SOL     OW17599   3.774   4.258   5.647 -0.2830 -0.0636 -0.1631
 2047SOL    HW117600   3.791   4.347   5.616  0.4931 -0.1405  0.0476
 2047SOL    HW217601   3.831   4.218   5.582  0.8643  0.4089  0.5554
 2048SOL     OW17602   3.147   2.265   8.977 -0.0360 -0.3407 -0.0532
 2048SOL    HW117603   3.216   2.308   9.028 -1.6024  0.6643  1.2588
 2048SOL    HW217604   3.191   2.181   8.969 -2.6465 -1.9736  2.6847
 2049SOL     OW17605   1.505   2.407   4.755 -0.0574  0.0312 -0.1530
 2049SOL    HW117606   1.496   2.328   4.807 -0.9631  0.1292 -0.1623
 2049SOL    HW217607   1.521   2.373   4.667 -1.5523 -0.8777 -0.0651
 2050SOL     OW17608   3.973   2.151   8.623 -0.1578 -0.4276  0.1104
 2050SOL    HW117609   3.924   2.140   8.705  0.2244 -1.3874  0.2081
 2050SOL    HW217610   4.061   2.146   8.659 -1.1550 -0.3273  2.5575
 2051SOL     OW17611   4.489   4.645   5.218 -0.4280 -0.0911 -0.3411
 2051SOL    HW117612   4.524   0.008   5.230  0.0525 -0.3181 -0.0331
 2051SOL    HW217613   4.556   4.582   5.247  1.7030  1.4539 -1.8693
 2052SOL     OW17614   0.326   4.132   7.298  0.1929 -0.4460  0.0332
 2052SOL    HW117615   0.389   4.097   7.361  1.0865 -1.8166 -1.5995
 2052SOL    HW217616   0.328   4.059   7.237  1.4956 -0.2532 -0.1673
 2053SOL     OW17617   0.286   0.689   2.099 -0.1672  0.0953  0.5793
 2053SOL    HW117618   0.217   0.629   2.126  1.6310 -2.2919 -0.1457
 2053SOL    HW217619   0.247   0.770   2.132 -0.7847 -0.0645  0.2273
 2054SOL     OW17620   1.880   2.742  15.188  0.4778 -0.6377  0.0737
 2054SOL    HW117621   1.840   2.683  15.124  1.1811 -1.0007 -0.0344
 2054SOL    HW217622   1.866   2.823  15.139  0.1309 -0.9820 -0.4015
 2055SOL     OW17623   4.569   0.901   7.532 -0.2322 -0.9884 -0.6942
 2055SOL    HW117624   4.653   0.874   7.567 -0.5469 -0.4699  0.4482
 2055SOL    HW217625   4.533   0.934   7.614  2.8041  0.8307 -0.0930
 2056SOL     OW17626   1.860   0.439  13.756 -0.7199  0.5775  0.2040
 2056SOL    HW117627   1.804   0.392  13.818 -2.6691  3.9258  0.9951
 2056SOL    HW217628   1.904   0.496  13.818 -0.2331  1.1890 -0.7079
 2057SOL     OW17629   0.598   0.230   7.828  0.4956  0.1602  0.0208
 2057SOL    HW117630   0.670   0.194   7.879  0.6890  0.2081 -0.2223
 2057SOL    HW217631   0.562   0.154   7.782  1.5541 -1.0793  1.2243
 2058SOL     OW17632   2.732   0.059   3.587 -0.1683 -0.3943  0.3311
 2058SOL    HW117633   2.740   0.148   3.623 -0.4576  0.3379 -1.3632
 2058SOL    HW217634   2.784   0.001   3.641  1.3522  0.3028 -0.3597
 2059SOL     OW17635   4.257   0.355   0.485 -0.2372 -0.7022 -0.5903
 2059SOL    HW117636   4.174   0.364   0.437 -0.0627  0.9245 -0.6017
 2059SOL    HW217637   4.324   0.412   0.448 -2.3797  1.2061 -1.5989
 2060SOL     OW17638   2.496   0.352   1.015 -0.0412  0.2746  0.1464
 2060SOL    HW117639   2.517   0.277   1.071 -0.9508 -0.2413 -0.2154
 2060SOL    HW217640   2.427   0.318   0.959 -0.0997  0.3905  0.1499
 2061SOL     OW17641   3.629   2.340  10.676 -0.2654  0.0301  0.0405
 2061SOL    HW117642   3.711   2.383  10.652 -0.9700  0.7570 -1.0455
 2061SOL    HW217643   3.568   2.370  10.609 -1.2812  0.2637  1.0660
 2062SOL     OW17644   1.037   1.258   2.390  0.0941 -0.6424  0.6894
 2062SOL    HW117645   1.041   1.177   2.338 -1.7450  0.7700 -1.6526
 2062SOL    HW217646   1.093   1.319   2.341 -0.5317 -1.2128 -0.7428
 2063SOL     OW17647   1.437   2.984   7.203  0.6255  0.8752 -0.5568
 2063SOL    HW117648   1.478   2.938   7.276 -0.4837 -1.3482 -1.3286
 2063SOL    HW217649   1.355   2.935   7.193  1.0433  0.3501 -1.3641
 2064SOL     OW17650   1.529   0.966  12.769  0.0507 -0.5369 -0.1687
 2064SOL    HW117651   1.562   1.048  12.806  1.3127 -0.6757 -0.9725
 2064SOL    HW217652   1.538   0.979  12.675  1.7327 -0.5060 -0.0046
 2065SOL     OW17653   3.005   4.191   5.641 -0.3506  0.3115 -0.0478
 2065SOL    HW117654   2.950   4.266   5.619 -2.1337 -1.1265 -0.5099
 2065SOL    HW217655   3.001   4.211   5.734 -2.1355 -1.5346  0.2757
 2066SOL     OW17656   3.743   3.378   2.852  0.3566 -0.0725 -0.8056
 2066SOL    HW117657   3.800   3.399   2.777  2.2747 -0.5213  0.5151
 2066SOL    HW217658   3.767   3.446   2.916 -0.9063  0.1647 -0.5889
 2067SOL     OW17659   4.039   2.029   5.367  0.4144  0.1647 -0.8959
 2067SOL    HW117660   4.020   1.972   5.293 -0.2439 -1.0327  0.2011
 2067SOL    HW217661   3.961   2.009   5.419  0.2431  0.8971 -0.8624
 2068SOL     OW17662   0.765   4.031  17.283 -0.0215  0.1952  0.2513
 2068SOL    HW117663   0.766   4.100  17.216 -0.2807  2.0238  2.1339
 2068SOL    HW217664   0.768   3.947  17.238  0.7689 -0.1512  0.9561
 2069SOL     OW17665   1.290   3.188   2.930  0.1769  0.2010 -0.1813
 2069SOL    HW117666   1.288   3.171   2.836  1.0848  0.0063 -0.1690
 2069SOL    HW217667   1.339   3.269   2.919  1.0545 -0.6287 -2.2539
 2070SOL     OW17668   1.862   2.651  14.786  0.8816 -0.0362  0.0315
 2070SOL    HW117669   1.916   2.730  14.780 -0.6657  1.0631  0.7037
 2070SOL    HW217670   1.797   2.672  14.718  0.3246 -0.4085  0.4522
 2071SOL     OW17671   4.461   2.104   8.920 -0.2220 -0.3478  0.7539
 2071SOL    HW117672   4.530   2.037   8.926  0.2009 -0.1012 -1.4879
 2071SOL    HW217673   4.503   2.171   8.867 -1.6422 -0.3556 -0.3819
 2072SOL     OW17674   3.027   2.801   9.693  0.3042 -0.2864  0.1182
 2072SOL    HW117675   2.977   2.788   9.613 -1.3319  1.8658  0.7728
 2072SOL    HW217676   3.102   2.743   9.683  0.2298 -0.4456  0.4989
 2073SOL     OW17677   2.491   3.705   4.280 -0.6323 -0.0002  0.5008
 2073SOL    HW117678   2.503   3.615   4.249 -0.0447 -0.6142  2.4727
 2073SOL    HW217679   2.584   3.712   4.302 -0.6325  0.1477  0.4550
 2074SOL     OW17680   1.673   0.778  12.898 -0.2067 -0.6378 -0.1990
 2074SOL    HW117681   1.713   0.847  12.949 -1.3963 -0.1998  0.1459
 2074SOL    HW217682   1.589   0.816  12.871  0.0581  0.6147  0.7594
 2075SOL     OW17683   2.169   4.380   0.061 -0.1271  0.1519 -0.2596
 2075SOL    HW117684   2.175   4.298   0.012  0.9817  0.3689 -0.4976
 2075SOL    HW217685   2.126   4.350   0.140  0.1039 -1.2886 -0.6768
 2076SOL     OW17686   0.437   2.338   6.415  0.1915  0.1142 -0.7080
 2076SOL    HW117687   0.400   2.270   6.360  1.4955  0.7491 -2.3759
 2076SOL    HW217688   0.369   2.346   6.482  1.9480  0.2946  1.0842
 2077SOL     OW17689   4.095   1.013   7.274 -0.3067 -0.1127  0.1600
 2077SOL    HW117690   4.158   0.972   7.332  1.0746 -0.4697 -1.5950
 2077SOL    HW217691   4.085   1.099   7.316  0.0474  0.8074 -1.6356
 2078SOL     OW17692   0.243   2.228  14.756  0.4409  0.3523 -0.3484
 2078SOL    HW117693   0.280   2.233  14.668  0.9336 -1.3141 -0.2375
 2078SOL    HW217694   0.232   2.133  14.758 -0.6687  0.4662 -0.8489
 2079SOL     OW17695   4.455   4.101   6.496 -0.0289  0.2370  0.8196
 2079SOL    HW117696   4.464   4.104   6.592 -1.3486  2.5622  0.8671
 2079SOL    HW217697   4.376   4.048   6.488 -1.6158  2.5900  0.6590
 2080SOL     OW17698   3.029   1.226   8.321 -0.7983 -0.3182 -0.2883
 2080SOL    HW117699   3.034   1.321   8.334 -1.9282 -0.2004 -0.7171
 2080SOL    HW217700   2.957   1.213   8.383 -0.1082  0.3093  0.6441
 2081SOL     OW17701   4.642   4.626  17.285 -0.0562  0.7669  0.0169
 2081SOL    HW117702   4.677   4.667  17.205  0.8018  1.2285  0.6340
 2081SOL    HW217703   4.724   4.614  17.332 -0.2653 -0.3632  0.0796
 2082SOL     OW17704   4.642   3.806   4.176  0.2470 -0.2199  0.0056
 2082SOL    HW117705   4.634   3.795   4.081 -0.0516 -1.0509  0.1297
 2082SOL    HW217706   4.693   3.886   4.188 -2.9278  1.9118 -0.5223
 2083SOL     OW17707   0.778   2.300   3.685 -0.4329  0.2478 -1.2463
 2083SOL    HW117708   0.810   2.375   3.736 -1.3028  0.9357 -1.7029
 2083SOL    HW217709   0.723   2.334   3.614 -2.2981 -0.1830  0.0104
 2084SOL     OW17710   0.221   1.276  15.107 -0.2846  0.3671  0.3440
 2084SOL    HW117711   0.277   1.297  15.182  0.5673  0.6874 -0.3787
 2084SOL    HW217712   0.204   1.182  15.106 -0.9596  0.4904 -0.0855
 2085SOL     OW17713   2.087   0.246  11.085  0.6158  0.0382 -0.0567
 2085SOL    HW117714   2.105   0.182  11.016  0.6690 -0.3668  0.3359
 2085SOL    HW217715   2.133   0.323  11.050  1.0842  1.0613  2.8286
 2086SOL     OW17716   2.880   3.861  15.208 -0.4124  0.0663 -0.5765
 2086SOL    HW117717   2.854   3.787  15.153  0.3929  0.2177 -1.1458
 2086SOL    HW217718   2.829   3.924  15.157  0.5492  0.5479 -0.9442
 2087SOL     OW17719   1.246   0.972   0.474  0.0203  0.2042 -0.7134
 2087SOL    HW117720   1.266   0.930   0.557 -0.0572  1.1529 -0.2099
 2087SOL    HW217721   1.156   0.943   0.460  0.6046 -2.1619  0.3779
 2088SOL     OW17722   4.323   1.894  10.544  0.3472  0.0307 -0.1344
 2088SOL    HW117723   4.314   1.986  10.568  2.1201  0.2620 -0.3473
 2088SOL    HW217724   4.418   1.886  10.542  0.5691  2.3441  1.5089
 2089SOL     OW17725   1.699   2.794   9.047  0.0814  0.3098  0.1455
 2089SOL    HW117726   1.753   2.848   8.989 -1.7370  2.7762  0.7547
 2089SOL    HW217727   1.622   2.850   9.056  0.6843  1.1868 -0.1826
 2090SOL     OW17728   2.923   3.986   0.524 -0.0536 -0.5238 -0.6537
 2090SOL    HW117729   2.981   4.058   0.502 -1.7162  0.7424 -0.9450
 2090SOL    HW217730   2.945   3.929   0.450 -2.7693  0.2153 -2.0648
 2091SOL     OW17731   4.484   3.417   5.131  0.1014 -0.3454  0.1499
 2091SOL    HW117732   4.476   3.442   5.223  1.4659  2.5181 -0.5046
 2091SOL    HW217733   4.515   3.500   5.094  0.7743  0.4407  2.4817
 2092SOL     OW17734   2.545   3.136   5.413  0.0041  0.1138 -0.2834
 2092SOL    HW117735   2.559   3.197   5.485  0.7582  1.4707 -1.5824
 2092SOL    HW217736   2.635   3.104   5.403 -1.1960 -2.9515 -1.4426
 2093SOL     OW17737   2.062   0.393   0.755 -0.2747 -0.6037 -0.0490
 2093SOL    HW117738   1.996   0.345   0.804 -2.0861  0.4112 -1.4981
 2093SOL    HW217739   2.077   0.466   0.815  0.7783 -0.2562 -0.7354
 2094SOL     OW17740   3.291   1.337   5.697 -0.8779  0.2147  0.8468
 2094SOL    HW117741   3.346   1.355   5.620 -1.1526 -2.2214  0.0899
 2094SOL    HW217742   3.230   1.278   5.653 -1.6298  0.4850  1.5309
 2095SOL     OW17743   2.135   0.806  10.544  0.3055 -0.1653  0.1716
 2095SOL    HW117744   2.121   0.884  10.490  0.6691  0.2255  0.6489
 2095SOL    HW217745   2.122   0.727  10.491  0.8414  1.3018 -2.1349
 2096SOL     OW17746   1.101   4.366   5.867 -0.1059  0.4706  0.6762
 2096SOL    HW117747   1.041   4.435   5.839  0.3560  0.8479  0.6115
 2096SOL    HW217748   1.147   4.415   5.935 -0.4034  0.6190  0.7701
 2097SOL     OW17749   1.657   2.361  16.893  0.4102  0.3385  0.1234
 2097SOL    HW117750   1.651   2.384  16.800  0.4539 -3.0133 -0.7182
 2097SOL    HW217751   1.593   2.423  16.929 -2.9928 -3.0857  0.0015
 2098SOL     OW17752   0.472   1.838   5.426 -0.5066 -0.3568  0.1837
 2098SOL    HW117753   0.484   1.750   5.463 -0.1349  0.4231  1.9350
 2098SOL    HW217754   0.410   1.869   5.492  0.9890  0.3328  1.2522
 2099SOL     OW17755   0.860   2.990   8.858  0.0163  0.7674 -0.1285
 2099SOL    HW117756   0.808   3.067   8.833 -2.1170 -0.6021  0.1037
 2099SOL    HW217757   0.926   3.019   8.922 -2.4219 -2.1510  3.6570
 2100SOL     OW17758   0.819   3.531   8.662 -0.3615  0.5388 -0.3626
 2100SOL    HW117759   0.871   3.452   8.670 -0.1052  0.4351 -3.0891
 2100SOL    HW217760   0.888   3.594   8.641 -0.4546  1.2704  1.5106
 2101SOL     OW17761   1.320   4.117   4.219 -0.1430  0.2666  0.6311
 2101SOL    HW117762   1.330   4.056   4.292 -0.5994  0.2348  0.6683
 2101SOL    HW217763   1.368   4.073   4.149 -0.3124  0.1244  0.6054
 2102SOL     OW17764   2.066   0.492   5.559  0.1561 -0.6775  0.6084
 2102SOL    HW117765   2.114   0.548   5.498  1.1210 -0.5135  1.5223
 2102SOL    HW217766   2.022   0.436   5.495  2.3125 -1.7682  0.0711
 2103SOL     OW17767   2.693   0.586   3.468  0.0018  0.0590 -0.0613
 2103SOL    HW117768   2.657   0.660   3.419 -1.6026  0.2422  1.3582
 2103SOL    HW217769   2.619   0.542   3.511 -1.8904  3.1106 -0.1742
 2104SOL     OW17770   0.906   2.446  10.605  0.2113  0.3776  0.2750
 2104SOL    HW117771   0.884   2.488  10.688 -2.8903 -1.9696  0.6359
 2104SOL    HW217772   0.957   2.374  10.641 -0.5618  0.0364  0.6840
 2105SOL     OW17773   3.850   0.306   6.836 -0.2457  0.0097  0.2592
 2105SOL    HW117774   3.911   0.361   6.885 -0.6309  0.4746  0.2216
 2105SOL    HW217775   3.837   0.356   6.755 -1.0467 -2.1571 -0.9514
 2106SOL     OW17776   3.179   3.204   6.037  0.3442 -0.2777  1.0902
 2106SOL    HW117777   3.172   3.235   5.947  0.6635 -0.8431  0.8680
 2106SOL    HW217778   3.247   3.262   6.071 -1.3828  2.2546  0.1805
 2107SOL     OW17779   2.840   4.547   4.839 -0.5127 -0.4805 -0.6939
 2107SOL    HW117780   2.770   4.612   4.844  0.8275  0.9799 -0.9487
 2107SOL    HW217781   2.807   4.473   4.890 -1.4630  0.3502 -0.0962
 2108SOL     OW17782   1.023   3.481   6.858  0.9432  0.0354 -0.2929
 2108SOL    HW117783   1.110   3.449   6.832  0.8923 -0.8350  0.5833
 2108SOL    HW217784   0.965   3.449   6.789  2.0003 -2.9380  0.1931
 2109SOL     OW17785   1.352   1.200   7.621  0.0762 -0.4042 -0.0833
 2109SOL    HW117786   1.394   1.279   7.656  0.1224 -1.0232  1.2458
 2109SOL    HW217787   1.284   1.241   7.569  0.2439  0.3382  0.2853
 2110SOL     OW17788   2.348   0.211   2.188 -0.2414 -0.4786 -0.4387
 2110SOL    HW117789   2.405   0.288   2.192 -0.5793 -0.1315 -2.2526
 2110SOL    HW217790   2.347   0.207   2.284  0.3301  0.0964 -0.4099
 2111SOL     OW17791   2.231   1.229  17.044 -1.2334  0.0279  0.4562
 2111SOL    HW117792   2.275   1.274  17.116  2.5170 -0.9739 -1.1856
 2111SOL    HW217793   2.298   1.225  16.975  1.1166 -0.4790  2.7921
 2112SOL     OW17794   2.316   1.183   8.899  0.3841  0.5771  0.2816
 2112SOL    HW117795   2.270   1.199   8.817  3.2550 -2.0742 -1.8644
 2112SOL    HW217796   2.247   1.145   8.953 -0.4940 -1.2509 -2.0958
 2113SOL     OW17797   3.626   1.084  14.886 -0.4774 -0.1569 -0.1479
 2113SOL    HW117798   3.695   1.104  14.822  0.4667  0.5565  1.0947
 2113SOL    HW217799   3.644   1.143  14.959 -0.7672 -0.7036  0.3577
 2114SOL     OW17800   3.721   3.900   2.659 -0.3586 -0.0872 -0.8314
 2114SOL    HW117801   3.742   3.851   2.579  1.5601 -0.6857  0.0309
 2114SOL    HW217802   3.721   3.991   2.630 -2.1076  0.7086  1.6486
 2115SOL     OW17803   0.307   1.130  14.008 -0.8223 -0.5375 -0.1098
 2115SOL    HW117804   0.363   1.094  13.940 -1.4601  1.1666 -1.5382
 2115SOL    HW217805   0.257   1.054  14.037  0.7193 -0.4229  2.8460
 2116SOL     OW17806   3.446   2.396   5.698  0.5357 -0.5127  0.3988
 2116SOL    HW117807   3.483   2.359   5.777  0.2653 -0.8568  0.3645
 2116SOL    HW217808   3.354   2.369   5.704 -0.2957  2.5244  1.3681
 2117SOL     OW17809   2.296   0.852   1.588  0.1526 -0.5002 -0.4245
 2117SOL    HW117810   2.383   0.836   1.625  0.0988 -0.6628 -0.3723
 2117SOL    HW217811   2.256   0.888   1.667  0.9100 -1.9804  0.6231
 2118SOL     OW17812   4.115   3.312   8.553 -0.3776  0.0283  0.1282
 2118SOL    HW117813   4.172   3.324   8.477  1.2980 -2.7488  0.9259
 2118SOL    HW217814   4.178   3.320   8.625  0.7435  2.0045 -1.0757
 2119SOL     OW17815   4.600   2.848   5.246  0.3850 -0.4156  0.2740
 2119SOL    HW117816   4.684   2.872   5.208  1.3683 -2.3467  1.2323
 2119SOL    HW217817   4.568   2.772   5.197  0.6733 -0.8864  0.8067
 2120SOL     OW17818   1.874   0.769  17.576  0.4123  0.1349  0.2425
 2120SOL    HW117819   1.920   0.851  17.560  0.0231 -0.0965 -2.0547
 2120SOL    HW217820   1.817   0.802  17.646 -0.1467  1.5602 -0.8863
 2121SOL     OW17821   2.016   4.354   1.142 -0.4945  0.3997  0.0591
 2121SOL    HW117822   2.087   4.418   1.135 -0.9022  1.0833  2.2151
 2121SOL    HW217823   2.043   4.292   1.209 -0.2716 -0.2130 -0.5957
 2122SOL     OW17824   0.037   2.989  15.486  0.7322 -0.5288 -0.2360
 2122SOL    HW117825   0.096   3.056  15.453  0.1870 -0.6862 -1.5354
 2122SOL    HW217826   0.089   2.928  15.539  1.6771 -0.6195 -1.2770
 2123SOL     OW17827   2.925   1.855   7.977  0.0459 -0.3460  0.2905
 2123SOL    HW117828   2.973   1.807   8.045  0.3505 -1.6271 -0.8197
 2123SOL    HW217829   2.927   1.940   8.020 -1.0790 -1.5276  2.7174
 2124SOL     OW17830   2.314   0.206   2.462 -0.3682  0.3251  0.1708
 2124SOL    HW117831   2.391   0.262   2.451 -1.1077  1.2229 -0.4238
 2124SOL    HW217832   2.266   0.227   2.542 -0.9132  3.6710 -1.0459
 2125SOL     OW17833   4.593   0.856  16.967  0.4120 -0.1331  0.5276
 2125SOL    HW117834   4.548   0.939  16.949  0.2234 -0.9030 -2.6137
 2125SOL    HW217835   4.684   0.873  16.944  0.9307 -1.1128  1.9037
 2126SOL     OW17836   3.041   2.003   3.773  0.0036 -0.3594 -0.0876
 2126SOL    HW117837   3.131   2.030   3.793 -0.1316 -0.5827  0.8265
 2126SOL    HW217838   3.022   2.059   3.698  2.2121  0.1942 -0.2255
 2127SOL     OW17839   0.985   0.852   4.568  0.1230 -0.1261 -0.7544
 2127SOL    HW117840   0.958   0.855   4.477 -1.2401  1.9928 -0.2765
 2127SOL    HW217841   0.962   0.762   4.591 -1.3825  0.1297 -1.2091
 2128SOL     OW17842   1.039   1.322   8.199 -0.2224 -0.2491  0.4789
 2128SOL    HW117843   1.020   1.416   8.197 -2.0489 -0.6266 -0.0122
 2128SOL    HW217844   1.134   1.316   8.191 -0.0626 -0.8384  2.5955
 2129SOL     OW17845   3.759   2.922   2.506 -0.0865  0.4283  0.3649
 2129SOL    HW117846   3.814   2.922   2.427 -1.3853 -0.1671 -0.5246
 2129SOL    HW217847   3.703   2.994   2.478 -0.9833 -1.2547 -2.1227
 2130SOL     OW17848   1.736   0.521  17.667 -0.3450 -0.6657 -0.0221
 2130SOL    HW117849   1.770   0.557   0.044 -1.3027 -0.9133  0.4801
 2130SOL    HW217850   1.673   0.459  17.704  0.6342 -0.6273  1.7232
 2131SOL     OW17851   3.190   3.046   8.941 -0.0075  0.5643  0.0190
 2131SOL    HW117852   3.169   2.952   8.943 -0.9414  0.7885  0.8026
 2131SOL    HW217853   3.245   3.052   8.863  1.5137  2.1286  1.2214
 2132SOL     OW17854   3.488   3.402   1.550  0.1316  0.3694  0.2501
 2132SOL    HW117855   3.459   3.488   1.581 -3.1460 -0.9015  0.6950
 2132SOL    HW217856   3.401   3.364   1.533 -0.2834  2.2097 -1.7667
 2133SOL     OW17857   0.967   3.306   7.058  0.0761 -0.4157  0.1334
 2133SOL    HW117858   0.996   3.373   6.996 -0.6810 -0.1236  0.0920
 2133SOL    HW217859   1.007   3.321   7.144  1.0171 -0.8011 -0.2420
 2134SOL     OW17860   3.639   2.154   9.364 -0.5749 -0.2521 -0.1237
 2134SOL    HW117861   3.609   2.063   9.359  1.7849 -0.9839 -1.3193
 2134SOL    HW217862   3.662   2.173   9.455  2.1399 -2.2768 -0.3593
 2135SOL     OW17863   1.824   3.585  16.700  0.1624  0.1156 -0.1144
 2135SOL    HW117864   1.729   3.597  16.704  0.2985  0.8402  0.9413
 2135SOL    HW217865   1.840   3.492  16.688  0.9745  0.3342 -0.7403
 2136SOL     OW17866   0.013   2.647   6.805 -0.1322 -0.3220  0.1808
 2136SOL    HW117867   0.006   2.579   6.737 -0.8729 -0.8881  0.8295
 2136SOL    HW217868   0.104   2.640   6.834 -0.1259 -2.4290 -0.3149
 2137SOL     OW17869   4.362   0.880  13.844  0.1383 -0.4551 -0.3645
 2137SOL    HW117870   4.445   0.893  13.797  0.8370 -0.7607  0.7849
 2137SOL    HW217871   4.390   0.879  13.936  0.9202 -1.3029 -0.6043
 2138SOL     OW17872   1.778   4.008   0.843 -0.2191 -0.3059  0.0400
 2138SOL    HW117873   1.784   4.020   0.937  1.7432  1.3555 -0.2802
 2138SOL    HW217874   1.823   3.924   0.832  0.3224  0.0559 -0.5587
 2139SOL     OW17875   1.625   1.674   4.587  1.2025  0.3590  0.0110
 2139SOL    HW117876   1.535   1.694   4.560  1.1409  1.1823  0.8305
 2139SOL    HW217877   1.648   1.756   4.629 -1.9101  1.3416 -0.2181
 2140SOL     OW17878   1.001   4.606  13.737  0.2841 -0.2038 -0.3004
 2140SOL    HW117879   1.028   4.696  13.756 -1.2493  0.2498 -0.1844
 2140SOL    HW217880   1.082   4.564  13.709  0.3127 -0.3091 -0.0601
 2141SOL     OW17881   0.784   3.922   5.858  0.7015 -0.1184 -0.4946
 2141SOL    HW117882   0.827   4.007   5.860  2.2071 -0.8952  0.1972
 2141SOL    HW217883   0.729   3.929   5.780 -1.0438  0.5284  0.7851
 2142SOL     OW17884   2.873   4.336   5.016  0.4629 -0.9565 -0.6407
 2142SOL    HW117885   2.958   4.376   5.033  1.1041 -3.1963  1.4046
 2142SOL    HW217886   2.884   4.283   4.937 -0.0892  1.4894 -2.3864
 2143SOL     OW17887   4.032   2.195   4.711 -0.3199  0.7852 -0.5483
 2143SOL    HW117888   4.112   2.159   4.673  0.1334 -0.4178  1.5269
 2143SOL    HW217889   3.968   2.125   4.723  1.7322 -1.1087 -0.7846
 2144SOL     OW17890   1.810   1.633   4.844 -0.4384  0.4080  0.0068
 2144SOL    HW117891   1.843   1.681   4.769  0.6290  0.9905  0.8540
 2144SOL    HW217892   1.768   1.702   4.895  0.0767  1.1116 -0.5212
 2145SOL     OW17893   2.728   2.471   1.404  0.1300  0.0411 -0.2600
 2145SOL    HW117894   2.757   2.397   1.350 -2.4191 -0.4180 -1.0252
 2145SOL    HW217895   2.713   2.424   1.487  0.7325 -2.0460 -1.3223
 2146SOL     OW17896   4.624   0.612  10.215 -0.0651 -0.7735 -0.0106
 2146SOL    HW117897   4.617   0.517  10.220 -0.6706 -0.7361 -0.2215
 2146SOL    HW217898   4.629   0.631  10.121 -0.0386 -1.0434 -0.0631
 2147SOL     OW17899   1.656   3.760  11.092 -0.6331  0.0896 -0.0101
 2147SOL    HW117900   1.588   3.701  11.125 -1.9000  1.4698 -0.1319
 2147SOL    HW217901   1.688   3.712  11.016 -3.1674 -1.1868 -0.2667
 2148SOL     OW17902   2.154   2.804   5.079  0.1474  0.1315 -0.2331
 2148SOL    HW117903   2.194   2.764   5.002  0.4975  1.6663 -0.8380
 2148SOL    HW217904   2.161   2.737   5.147 -0.2557  2.1231  1.7892
 2149SOL     OW17905   3.640   0.762   7.165 -0.1770  0.1776  0.1257
 2149SOL    HW117906   3.706   0.757   7.233  2.5429 -0.4699 -2.5802
 2149SOL    HW217907   3.658   0.855   7.149  3.0318 -0.6320 -0.7761
 2150SOL     OW17908   3.552   0.654   5.273  0.0737  0.1582 -0.0005
 2150SOL    HW117909   3.586   0.671   5.361  0.8426  1.2762 -0.5070
 2150SOL    HW217910   3.543   0.746   5.249  0.1074  0.2442  0.3045
 2151SOL     OW17911   1.628   1.202   8.245 -0.1329 -0.0689  0.2849
 2151SOL    HW117912   1.609   1.150   8.323 -1.0908  0.5966  0.4928
 2151SOL    HW217913   1.691   1.141   8.207 -0.9074  1.2728 -3.1816
 2152SOL     OW17914   4.325   2.738  12.293  0.0098  0.5361 -0.4712
 2152SOL    HW117915   4.362   2.777  12.372 -1.6669 -0.9289  1.0555
 2152SOL    HW217916   4.232   2.745  12.316  0.1823  0.0259  0.3948
 2153SOL     OW17917   4.602   4.048   6.050  0.1658  0.1405 -0.7087
 2153SOL    HW117918   4.579   3.989   6.122 -0.8366  0.5173 -0.7164
 2153SOL    HW217919   4.517   4.074   6.013 -0.2775 -1.1790 -0.6088
 2154SOL     OW17920   4.269   1.478   3.519 -0.4345  0.0050 -0.0370
 2154SOL    HW117921   4.311   1.393   3.503 -0.3979 -0.3653  2.0170
 2154SOL    HW217922   4.194   1.458   3.463 -1.0277  2.0360  0.0298
 2155SOL     OW17923   0.187   1.602  16.183 -0.2733 -0.1959 -0.5002
 2155SOL    HW117924   0.244   1.677  16.169 -1.7904  1.2107  0.8766
 2155SOL    HW217925   0.106   1.635  16.144 -0.3337 -0.9249 -0.9974
 2156SOL     OW17926   1.654   4.664   8.323 -0.8826 -0.0726  0.0416
 2156SOL    HW117927   1.630   4.572   8.335 -0.9578  0.0450  0.7718
 2156SOL    HW217928   1.692   4.667   8.235 -0.3731  0.7583  0.2976
 2157SOL     OW17929   1.114   1.301   7.505 -0.5943 -0.0540  0.4449
 2157SOL    HW117930   1.027   1.290   7.467 -0.5787 -0.6868  0.5883
 2157SOL    HW217931   1.149   1.379   7.461 -1.5027  0.4956  0.6962
 2158SOL     OW17932   3.243   4.096  13.618  0.2227  0.1330  0.3874
 2158SOL    HW117933   3.308   4.059  13.677 -2.2236 -0.9621  2.3449
 2158SOL    HW217934   3.301   4.162  13.579 -1.6016  2.3021  1.3653
 2159SOL     OW17935   4.386   2.838  11.814  0.1168  0.0935 -0.1924
 2159SOL    HW117936   4.311   2.790  11.850 -0.2046  0.7217 -0.0198
 2159SOL    HW217937   4.338   2.903  11.762 -0.2723  0.1908  0.2843
 2160SOL     OW17938   3.524   4.313  15.483 -0.0892  0.1277  0.3744
 2160SOL    HW117939   3.596   4.307  15.546  1.8159  1.8231 -1.6335
 2160SOL    HW217940   3.556   4.291  15.396  0.9165  0.9107  0.5392
 2161SOL     OW17941   0.415   3.987  16.941 -0.0887  0.0422 -0.1991
 2161SOL    HW117942   0.456   3.942  17.015 -0.5146  2.0764  1.2807
 2161SOL    HW217943   0.488   3.997  16.880 -1.6005  2.0679 -1.6898
 2162SOL     OW17944   2.794   0.885  13.261 -0.1176  0.8542 -0.4583
 2162SOL    HW117945   2.813   0.843  13.177 -2.1326  0.3679 -0.6746
 2162SOL    HW217946   2.872   0.937  13.278  1.4084 -0.7729 -2.4564
 2163SOL     OW17947   2.849   3.408  16.986  0.5541 -0.0144 -0.2826
 2163SOL    HW117948   2.831   3.488  16.937 -1.2784 -0.5530 -0.4980
 2163SOL    HW217949   2.889   3.442  17.066  1.7972  0.3615 -1.0607
 2164SOL     OW17950   4.589   0.095   0.200 -0.8211 -0.3336  0.7942
 2164SOL    HW117951   4.550   0.074   0.115  1.1041  2.1417 -0.7122
 2164SOL    HW217952   4.656   0.029   0.219  1.0848  1.6203  0.7667
 2165SOL     OW17953   2.385   1.777  17.602 -0.1607 -0.1106  0.1597
 2165SOL    HW117954   2.462   1.721  17.602 -0.8179 -1.0120  0.1014
 2165SOL    HW217955   2.331   1.734  17.669 -0.8267  0.7742  0.1953
 2166SOL     OW17956   0.546   4.598  15.440 -0.3860 -0.1227 -0.2681
 2166SOL    HW117957   0.559   4.524  15.381 -0.6693  0.7381 -1.4002
 2166SOL    HW217958   0.453   4.596  15.461 -0.3304 -1.9708 -0.2206
 2167SOL     OW17959   0.802   1.224   4.648  0.4031 -0.3187 -0.0788
 2167SOL    HW117960   0.729   1.271   4.608  1.1916  0.1906 -0.8984
 2167SOL    HW217961   0.778   1.234   4.741 -4.1791 -1.0630 -1.1836
 2168SOL     OW17962   2.484   4.486  16.173 -0.6849 -0.6981  0.0698
 2168SOL    HW117963   2.536   4.556  16.214 -1.0507  0.7252 -1.8803
 2168SOL    HW217964   2.416   4.535  16.128  0.9181 -0.3719 -1.9974
 2169SOL     OW17965   0.840   2.191   0.305 -0.2204 -0.0120 -0.1211
 2169SOL    HW117966   0.759   2.237   0.327  1.0100  2.4689 -0.8763
 2169SOL    HW217967   0.895   2.233   0.372 -2.4587  1.8314  0.5447
 2170SOL     OW17968   1.090   0.732   4.068 -0.5908 -0.2983 -0.1779
 2170SOL    HW117969   1.010   0.729   4.017 -0.3892 -1.3710 -0.4238
 2170SOL    HW217970   1.145   0.726   3.990 -1.0080 -0.7746 -0.4351
 2171SOL     OW17971   2.470   1.119   1.126 -0.2607 -0.1690 -0.0747
 2171SOL    HW117972   2.435   1.084   1.208  0.6383  0.8409  0.7423
 2171SOL    HW217973   2.525   1.051   1.088 -0.4466 -0.8986  0.9547
 2172SOL     OW17974   1.836   4.712   2.480  0.1653 -0.6646 -0.4048
 2172SOL    HW117975   1.801   0.006   2.567 -0.4737 -1.4423 -0.4863
 2172SOL    HW217976   1.909   4.650   2.484  1.2024  0.5637 -0.1059
 2173SOL     OW17977   1.066   1.519   3.503 -0.1183  0.1147 -0.4257
 2173SOL    HW117978   1.115   1.588   3.459 -1.4712  1.0378 -0.4763
 2173SOL    HW217979   1.131   1.457   3.536  0.9157  1.0623 -0.6937
 2174SOL     OW17980   1.178   2.319  14.568 -0.5608 -0.4329 -0.0011
 2174SOL    HW117981   1.245   2.270  14.521  1.3484  1.8531  0.2997
 2174SOL    HW217982   1.146   2.258  14.635  0.2460  0.1517  0.9207
 2175SOL     OW17983   2.373   2.738   9.245 -0.5267 -0.3821  0.2777
 2175SOL    HW117984   2.384   2.786   9.327  1.5218 -1.8191  0.8307
 2175SOL    HW217985   2.336   2.800   9.183  1.0996  0.4477  0.1501
 2176SOL     OW17986   0.596   0.506  17.697  0.1973 -0.5638 -0.2147
 2176SOL    HW117987   0.592   0.582  17.638 -0.4039  0.3780  1.0457
 2176SOL    HW217988   0.689   0.488  17.687  0.1484  0.2344 -2.1243
 2177SOL     OW17989   4.573   4.550   6.472  0.4740  0.3315  0.4279
 2177SOL    HW117990   4.515   4.573   6.400 -0.3494  1.3063  1.4019
 2177SOL    HW217991   4.653   4.594   6.443  0.8009 -0.4456  0.1528
 2178SOL     OW17992   1.441   3.557   4.741  0.0192  0.2836 -0.0543
 2178SOL    HW117993   1.530   3.532   4.718 -0.2474 -0.0325 -0.7286
 2178SOL    HW217994   1.427   3.623   4.673  2.1061 -0.6631 -1.3964
 2179SOL     OW17995   2.472   2.692   4.210  0.2423  0.1819 -0.0960
 2179SOL    HW117996   2.531   2.766   4.195 -0.7412  1.5239  2.5468
 2179SOL    HW217997   2.392   2.744   4.199  0.3021  0.1102 -0.8825
 2180SOL     OW17998   1.324   1.055   8.651  0.2798 -0.7413  0.4493
 2180SOL    HW117999   1.340   1.094   8.737 -1.3855 -0.7337  0.7565
 2180SOL    HW218000   1.329   0.963   8.678  1.1438 -1.7511 -3.1693
 2181SOL     OW18001   2.012   2.269   7.008 -0.1283  0.4257 -0.2389
 2181SOL    HW118002   2.101   2.300   6.993 -0.9506  2.3720 -1.0233
 2181SOL    HW218003   1.962   2.350   7.002  1.3542  1.3990  0.8898
 2182SOL     OW18004   3.541   2.148  14.400 -0.0728 -0.4314 -0.1988
 2182SOL    HW118005   3.568   2.056  14.407 -2.5829 -1.1147  0.5085
 2182SOL    HW218006   3.600   2.179  14.331 -3.4121  3.7707 -1.1562
 2183SOL     OW18007   1.694   2.055   1.897  0.1426 -0.2529  0.4952
 2183SOL    HW118008   1.776   2.027   1.857  1.1331 -0.0600  2.4149
 2183SOL    HW218009   1.715   2.066   1.990 -0.2932 -0.1107  0.5777
 2184SOL     OW18010   3.897   0.289  15.498  0.0143  0.3740  0.5002
 2184SOL    HW118011   3.849   0.367  15.471  0.2085 -0.2010 -1.4907
 2184SOL    HW218012   3.983   0.305  15.458 -0.4949  1.1936 -0.2531
 2185SOL     OW18013   0.148   2.143  11.344  0.2360  0.0953 -0.0025
 2185SOL    HW118014   0.233   2.132  11.386 -0.7211 -2.4291  1.2247
 2185SOL    HW218015   0.096   2.121  11.421  1.2770 -1.5558  0.2248
 2186SOL     OW18016   3.513   1.544   6.413 -0.0279  0.2245  0.4006
 2186SOL    HW118017   3.450   1.474   6.398  0.8657  0.1358 -2.7866
 2186SOL    HW218018   3.487   1.572   6.501  0.9169 -1.2647  1.1595
 2187SOL     OW18019   4.590   3.212   6.375  0.6683  0.1835 -0.4078
 2187SOL    HW118020   4.531   3.138   6.384 -0.3693  1.0888  0.2063
 2187SOL    HW218021   4.649   3.195   6.449  2.6080  0.7891 -1.8160
 2188SOL     OW18022   2.538   2.837  10.808 -0.6341  0.3956  0.3914
 2188SOL    HW118023   2.600   2.764  10.816 -0.7361  0.1822 -0.7044
 2188SOL    HW218024   2.570   2.876  10.726  1.7626  1.2014  1.7174
 2189SOL     OW18025   1.809   2.974  13.776 -0.0557  0.0619 -0.7858
 2189SOL    HW118026   1.804   2.906  13.843 -1.6919  0.9125 -0.0501
 2189SOL    HW218027   1.741   2.943  13.715 -1.9696  1.0702  0.8421
 2190SOL     OW18028   2.566   2.741   8.252 -0.2906 -0.0413 -0.4317
 2190SOL    HW118029   2.543   2.657   8.293 -1.9733  0.2356 -0.8189
 2190SOL    HW218030   2.530   2.806   8.312  2.4665  0.8422  0.2779
 2191SOL     OW18031   2.018   0.574  10.114 -0.2573  0.3166  0.3846
 2191SOL    HW118032   1.933   0.609  10.141 -0.7305 -0.1050 -0.5391
 2191SOL    HW218033   2.068   0.586  10.194  0.8665  1.6979 -0.5137
 2192SOL     OW18034   4.256   1.603   5.114 -0.6026  0.4583 -0.2205
 2192SOL    HW118035   4.345   1.631   5.136 -0.5641  0.6209 -0.5769
 2192SOL    HW218036   4.226   1.677   5.060  0.4780  0.8822 -0.2555
 2193SOL     OW18037   3.100   2.507   1.094  0.1314 -0.3048  0.1148
 2193SOL    HW118038   3.042   2.469   1.028  0.3072  0.7703 -0.6524
 2193SOL    HW218039   3.044   2.580   1.122  0.7323 -0.1620  0.9558
 2194SOL     OW18040   4.078   4.051  16.476  0.4795 -0.1825 -0.4317
 2194SOL    HW118041   4.006   3.989  16.484 -0.1009  0.6038  0.5500
 2194SOL    HW218042   4.078   4.088  16.565  0.9043  1.2888 -1.0502
 2195SOL     OW18043   4.589   3.115   5.407  0.1517 -0.4946 -0.1271
 2195SOL    HW118044   4.600   3.121   5.312  0.7158  0.6096  0.0192
 2195SOL    HW218045   4.535   3.035   5.413  1.6290 -1.4475  0.3461
 2196SOL     OW18046   2.121   0.734   6.229 -0.1387 -0.2273  0.2221
 2196SOL    HW118047   2.163   0.714   6.313 -0.0576 -1.9400 -0.2275
 2196SOL    HW218048   2.161   0.667   6.173 -1.4371 -1.4040  0.6908
 2197SOL     OW18049   4.528   2.219   4.477 -0.3328 -0.2654  0.1343
 2197SOL    HW118050   4.506   2.257   4.392  3.0583 -0.3757 -0.7791
 2197SOL    HW218051   4.588   2.152   4.446 -2.5054 -1.6159 -1.1724
 2198SOL     OW18052   2.356   4.609   1.319 -0.7215 -0.2678 -0.6039
 2198SOL    HW118053   2.398   4.599   1.405 -3.8575 -1.8760  0.7341
 2198SOL    HW218054   2.329   4.700   1.315 -0.6723 -0.2336 -0.1866
 2199SOL     OW18055   1.857   2.073   2.164 -0.2766 -0.6678 -0.0057
 2199SOL    HW118056   1.925   2.125   2.122 -0.6750 -0.5825 -0.5498
 2199SOL    HW218057   1.815   2.133   2.227  2.2505  1.3597 -0.2469
 2200SOL     OW18058   4.539   0.770   7.290 -0.1475 -0.4112 -0.5866
 2200SOL    HW118059   4.625   0.796   7.256 -0.2424 -0.8024 -1.1276
 2200SOL    HW218060   4.548   0.806   7.378  0.0149  1.6635 -1.4306
 2201SOL     OW18061   3.956   1.125  15.217  0.0757  0.5390  0.5950
 2201SOL    HW118062   3.977   1.205  15.265  4.0411  0.2668 -0.7065
 2201SOL    HW218063   4.011   1.127  15.139  0.8886 -1.5032  1.1228
 2202SOL     OW18064   0.907   4.715   4.232  0.1253 -0.1718  0.3475
 2202SOL    HW118065   0.990   0.035   4.242  0.0018  0.5806 -2.1328
 2202SOL    HW218066   0.922   4.630   4.273  2.1572 -0.0945 -0.2383
 2203SOL     OW18067   2.462   3.942   6.600  0.2558  0.4865 -0.1315
 2203SOL    HW118068   2.449   3.978   6.512  4.6470 -1.5280 -1.6407
 2203SOL    HW218069   2.434   3.851   6.591 -1.4110  0.9034  0.8082
 2204SOL     OW18070   4.298   4.163  10.920 -0.4522  0.3084 -0.3918
 2204SOL    HW118071   4.205   4.182  10.906 -0.9516 -0.9743  1.1326
 2204SOL    HW218072   4.290   4.067  10.922 -1.4300  0.3592 -1.6469
 2205SOL     OW18073   1.543   3.952   8.807 -0.4901  0.3112 -0.7589
 2205SOL    HW118074   1.629   3.983   8.780 -0.4120  0.6198 -0.1442
 2205SOL    HW218075   1.555   3.863   8.841 -1.1273  0.3221 -0.4888
 2206SOL     OW18076   0.099   4.304   0.857 -0.2703 -0.6981 -1.0704
 2206SOL    HW118077   0.029   4.370   0.858  1.4990  1.1590  0.9007
 2206SOL    HW218078   0.171   4.366   0.852 -1.3429  0.8222  2.0422
 2207SOL     OW18079   4.599   2.781   9.775 -0.0676 -0.1422  0.3878
 2207SOL    HW118080   4.585   2.876   9.780 -0.4673 -0.2113  0.5790
 2207SOL    HW218081   4.544   2.759   9.699  1.4144  1.1855 -1.0670
 2208SOL     OW18082   1.066   1.574   8.278 -0.0439 -0.4671 -0.1357
 2208SOL    HW118083   1.139   1.625   8.242 -0.0035 -1.0490 -0.8856
 2208SOL    HW218084   1.038   1.631   8.350 -0.0325 -0.8085  0.1418
 2209SOL     OW18085   0.645   3.319   9.596  0.1412  0.1267  0.7175
 2209SOL    HW118086   0.585   3.268   9.542  1.0870  0.1356 -0.3383
 2209SOL    HW218087   0.726   3.280   9.563  0.1934  1.0040 -0.1896
 2210SOL     OW18088   2.770   3.720   2.091 -0.2902 -0.1786 -0.5956
 2210SOL    HW118089   2.698   3.667   2.125  0.6424  0.3204  2.1936
 2210SOL    HW218090   2.816   3.645   2.052 -0.1547  1.0347 -2.7426
 2211SOL     OW18091   1.933   4.524   8.869  0.5632  0.1191  0.1966
 2211SOL    HW118092   1.944   4.553   8.960 -2.8096  2.2925 -0.0641
 2211SOL    HW218093   1.994   4.451   8.868  0.6117  0.1307  3.3454
 2212SOL     OW18094   0.115   2.274  14.152  0.2138 -0.0430 -0.1964
 2212SOL    HW118095   0.019   2.271  14.155  0.2658  1.1233  3.0846
 2212SOL    HW218096   0.140   2.318  14.070  0.8088  0.0868  0.0612
 2213SOL     OW18097   3.861   1.768   3.533 -0.4160  0.1660 -1.0676
 2213SOL    HW118098   3.880   1.676   3.512 -0.8787 -0.7384  2.3939
 2213SOL    HW218099   3.951   1.800   3.533 -0.2055 -0.4128 -1.6180
 2214SOL     OW18100   0.790   0.600   2.635 -0.4580  0.1253 -0.0022
 2214SOL    HW118101   0.721   0.545   2.599 -1.0486 -1.2752  3.3625
 2214SOL    HW218102   0.769   0.688   2.603 -1.5113  0.5152  1.7944
 2215SOL     OW18103   0.570   3.138   2.434 -0.0285 -0.8567  0.4506
 2215SOL    HW118104   0.510   3.114   2.505  0.7634  1.5867  1.9343
 2215SOL    HW218105   0.604   3.218   2.474 -0.7875  0.5646 -1.7389
 2216SOL     OW18106   0.520   3.225   9.363  0.2096  0.2905  0.3369
 2216SOL    HW118107   0.549   3.296   9.304  0.5705 -0.2684 -0.1550
 2216SOL    HW218108   0.436   3.268   9.381 -0.5087 -0.6918 -0.6937
 2217SOL     OW18109   4.624   1.006   5.643 -0.3119  0.7743 -0.1421
 2217SOL    HW118110   4.625   1.094   5.606  0.1693  0.4878 -0.7962
 2217SOL    HW218111   4.564   1.023   5.716  1.1698 -2.6383  1.8653
 2218SOL     OW18112   1.682   4.437   8.093  0.1617 -0.1674  0.6391
 2218SOL    HW118113   1.671   4.412   8.185  2.9400  0.0002  1.0200
 2218SOL    HW218114   1.626   4.374   8.048  0.8849 -0.6428  0.4042
 2219SOL     OW18115   1.264   0.699   5.009  0.1007  0.3664 -0.5249
 2219SOL    HW118116   1.357   0.676   5.013 -0.3221 -1.2780 -0.2936
 2219SOL    HW218117   1.271   0.760   4.936 -1.7412  1.7212  0.4252
 2220SOL     OW18118   0.931   1.447   0.856 -0.2348  0.3013  0.5569
 2220SOL    HW118119   1.010   1.395   0.840 -0.5601  0.7256 -2.3238
 2220SOL    HW218120   0.874   1.382   0.898  0.1415  1.0736  2.2760
 2221SOL     OW18121   2.737   0.788  16.715  0.7205  0.4991 -0.1938
 2221SOL    HW118122   2.731   0.882  16.734  0.9946 -0.1873  3.3233
 2221SOL    HW218123   2.692   0.790  16.630  1.4783  0.5919 -0.5879
 2222SOL     OW18124   3.205   2.836   3.922 -0.2724  0.5868  0.0768
 2222SOL    HW118125   3.211   2.806   4.012  1.6798  2.1021  0.4462
 2222SOL    HW218126   3.285   2.888   3.918 -0.1475  0.3486 -0.4793
 2223SOL     OW18127   1.381   2.961   6.279  0.2295 -0.3238  0.4215
 2223SOL    HW118128   1.448   2.985   6.215  0.2286 -2.6695 -0.4333
 2223SOL    HW218129   1.339   3.047   6.282 -1.3773 -1.0963 -0.0887
 2224SOL     OW18130   2.368   4.604   6.069 -0.5410 -0.5919  0.0403
 2224SOL    HW118131   2.407   4.623   6.155  0.2376 -0.6301 -0.3067
 2224SOL    HW218132   2.446   4.635   6.023 -0.0512  1.0197  1.9587
 2225SOL     OW18133   0.530   0.257   0.300  0.3261 -0.0908 -0.1266
 2225SOL    HW118134   0.450   0.257   0.351  1.1467  1.1933  1.1634
 2225SOL    HW218135   0.511   0.183   0.242 -0.5813  0.5012 -0.5778
 2226SOL     OW18136   2.096   1.878   7.908  0.4530  0.2966  0.1962
 2226SOL    HW118137   2.111   1.871   7.814 -1.1059 -1.4130  0.0785
 2226SOL    HW218138   2.036   1.807   7.933 -0.4190  0.6639 -0.8728
 2227SOL     OW18139   3.744   2.470   5.204 -0.5926  0.5144 -0.3425
 2227SOL    HW118140   3.830   2.431   5.188 -0.5201 -0.1951  1.7486
 2227SOL    HW218141   3.690   2.395   5.230 -1.7025  1.3407 -0.2380
 2228SOL     OW18142   3.900   2.142   1.524 -0.4522 -0.3736 -0.5020
 2228SOL    HW118143   3.991   2.148   1.494 -0.6205  0.9230 -0.7513
 2228SOL    HW218144   3.923   2.109   1.610  0.6407  2.3285  0.2720
 2229SOL     OW18145   1.814   3.886   3.024 -0.0685 -0.1029 -0.2292
 2229SOL    HW118146   1.893   3.894   3.079 -0.3151  2.3992 -0.2360
 2229SOL    HW218147   1.844   3.918   2.939  1.0453  2.3752  1.0914
 2230SOL     OW18148   2.600   3.972   6.111  0.4642 -0.4438 -0.3032
 2230SOL    HW118149   2.653   3.952   6.188 -1.5838 -2.1614  0.6422
 2230SOL    HW218150   2.577   3.887   6.071 -1.3057 -0.7564  1.3900
 2231SOL     OW18151   0.249   0.438   4.345 -0.7587  0.0497  0.1069
 2231SOL    HW118152   0.294   0.499   4.403 -0.1302  0.0424 -0.3851
 2231SOL    HW218153   0.171   0.408   4.392 -1.4767  2.6430  0.5694
 2232SOL     OW18154   3.431   1.493   4.621  0.0309 -0.5732 -0.3246
 2232SOL    HW118155   3.356   1.514   4.566 -1.9196  3.0858  3.6657
 2232SOL    HW218156   3.385   1.494   4.705 -0.8957  1.0618 -0.8372
 2233SOL     OW18157   1.278   2.083  12.988  0.1918 -0.2946 -0.3519
 2233SOL    HW118158   1.272   2.007  12.930 -4.3896 -1.4794  1.7060
 2233SOL    HW218159   1.281   2.030  13.067 -0.6165 -0.1247 -0.2118
 2234SOL     OW18160   4.531   4.575   2.230  0.0217  0.1993  0.0735
 2234SOL    HW118161   4.623   4.593   2.210 -0.0487 -0.5230 -0.9245
 2234SOL    HW218162   4.493   4.659   2.207  0.9183  0.3971 -0.6917
 2235SOL     OW18163   0.703   0.632   5.848 -0.1551  0.4880  0.5132
 2235SOL    HW118164   0.738   0.700   5.790  0.4529 -1.5912 -1.5678
 2235SOL    HW218165   0.705   0.549   5.800 -0.4878  0.0291  1.2840
 2236SOL     OW18166   1.646   4.510  11.499  0.1170 -0.4550  0.2642
 2236SOL    HW118167   1.557   4.495  11.533 -0.1538  1.0109  0.2093
 2236SOL    HW218168   1.699   4.508  11.578  0.1696  1.6488  0.2671
 2237SOL     OW18169   0.272   4.078   5.342 -0.3895 -0.1496 -0.1272
 2237SOL    HW118170   0.291   4.166   5.311  0.7738 -0.8777 -1.5005
 2237SOL    HW218171   0.197   4.089   5.401 -0.1594 -1.5678  0.4391
 2238SOL     OW18172   0.564   0.950   1.156  0.0187 -0.4388  0.1993
 2238SOL    HW118173   0.557   0.880   1.221 -0.5890 -0.4194  0.1587
 2238SOL    HW218174   0.592   1.029   1.202 -2.3122  1.4911 -1.7135
 2239SOL     OW18175   3.427   0.876   8.661  0.5269 -0.0896  0.4132
 2239SOL    HW118176   3.354   0.886   8.721 -0.0303  0.5544 -0.3778
 2239SOL    HW218177   3.421   0.782   8.647 -0.4419  0.2110 -1.2139
 2240SOL     OW18178   3.870   3.035   1.718  0.3873  0.3283 -0.1831
 2240SOL    HW118179   3.811   2.971   1.758 -0.0825 -0.0036 -1.3880
 2240SOL    HW218180   3.813   3.070   1.649 -0.0330 -0.7189 -0.3735
 2241SOL     OW18181   0.299   2.812   4.134  0.1422 -0.1035  0.1295
 2241SOL    HW118182   0.268   2.855   4.054 -0.3967  0.4488  0.6305
 2241SOL    HW218183   0.252   2.858   4.203  2.2747  0.2659  1.3527
 2242SOL     OW18184   4.676   2.396   4.020 -0.3232  0.1074 -0.6455
 2242SOL    HW118185   0.025   2.395   3.960  1.0649 -0.5166  1.0825
 2242SOL    HW218186   4.715   2.384   4.106 -1.4453  0.6633 -0.0608
 2243SOL     OW18187   3.805   0.674   4.232  0.5382  0.2635 -0.2538
 2243SOL    HW118188   3.778   0.667   4.140  1.4130 -0.4977 -0.4570
 2243SOL    HW218189   3.790   0.769   4.236 -0.2927  0.0558  1.2142
 2244SOL     OW18190   2.153   0.956  17.296 -0.3977  0.4140  0.1197
 2244SOL    HW118191   2.114   0.949  17.383 -2.9439  0.2738 -1.0162
 2244SOL    HW218192   2.129   0.870  17.262  0.1216 -0.0400  0.9041
 2245SOL     OW18193   4.531   2.223  11.210  0.1875  0.1927 -0.3095
 2245SOL    HW118194   4.539   2.145  11.265 -1.3761  1.4203  1.6382
 2245SOL    HW218195   4.562   2.185  11.127 -0.9021 -3.0472  0.7909
 2246SOL     OW18196   1.724   2.466  15.266  0.3671  0.0205  0.8530
 2246SOL    HW118197   1.762   2.455  15.179 -1.4082  1.4782 -0.1074
 2246SOL    HW218198   1.675   2.544  15.239  0.9622 -0.4267 -1.5381
 2247SOL     OW18199   0.376   0.646   3.075  0.2204 -0.0118 -0.3060
 2247SOL    HW118200   0.429   0.661   3.154  0.0411 -0.2996 -0.1322
 2247SOL    HW218201   0.340   0.733   3.057  2.1497  0.5939 -1.3237
 2248SOL     OW18202   1.807   4.123   6.960 -0.4133  0.2121 -0.1968
 2248SOL    HW118203   1.737   4.059   6.949 -0.7494  0.3982  0.8940
 2248SOL    HW218204   1.794   4.172   6.879 -1.5928  0.3541  0.0741
 2249SOL     OW18205   1.240   0.444   6.662  0.6250  0.0650 -0.2845
 2249SOL    HW118206   1.263   0.363   6.616 -1.3733  0.0387 -1.2542
 2249SOL    HW218207   1.212   0.512   6.601  1.3485  0.5857 -0.0314
 2250SOL     OW18208   1.492   4.145   9.643  0.0887  0.1416 -0.0353
 2250SOL    HW118209   1.549   4.152   9.567  0.8770 -2.2117  0.3429
 2250SOL    HW218210   1.416   4.146   9.584  1.2604 -2.2814 -1.6060
 2251SOL     OW18211   0.418   0.305  12.383 -0.1670  0.3189 -0.2625
 2251SOL    HW118212   0.390   0.330  12.295 -2.1787 -1.4032 -0.0980
 2251SOL    HW218213   0.489   0.369  12.395 -1.8889  2.1008  0.3169
 2252SOL     OW18214   0.559   1.555  14.272  0.3771  0.1393  0.2843
 2252SOL    HW118215   0.573   1.501  14.350  1.6577 -0.5917 -0.4448
 2252SOL    HW218216   0.484   1.514  14.228  0.1624 -0.2760  1.0334
 2253SOL     OW18217   0.554   3.222  16.557  0.3652 -0.3238  0.3120
 2253SOL    HW118218   0.485   3.189  16.499 -0.2432  0.7591  0.4196
 2253SOL    HW218219   0.536   3.313  16.532  0.3795 -0.6787 -1.0235
 2254SOL     OW18220   1.921   3.526  15.303  0.6361  0.3363 -0.3130
 2254SOL    HW118221   1.850   3.589  15.285 -0.8896 -1.5194 -0.8113
 2254SOL    HW218222   1.982   3.576  15.357  0.0277  0.8026 -0.0595
 2255SOL     OW18223   0.465   4.638   8.399  0.2822  0.0562 -0.1015
 2255SOL    HW118224   0.545   4.649   8.346 -0.9252  2.6999 -1.3948
 2255SOL    HW218225   0.406   4.640   8.324  0.2179 -1.1931 -0.0799
 2256SOL     OW18226   0.396   1.754   4.227  0.0641 -0.0521  0.5892
 2256SOL    HW118227   0.357   1.833   4.266 -0.3441  1.0653 -2.0760
 2256SOL    HW218228   0.421   1.786   4.140  0.6173 -2.7393 -0.2184
 2257SOL     OW18229   0.211   1.851   2.438 -0.1893  0.1052  0.3342
 2257SOL    HW118230   0.155   1.775   2.455  1.8703 -1.3928  0.3825
 2257SOL    HW218231   0.165   1.911   2.497 -1.7475 -1.7690  1.0309
 2258SOL     OW18232   3.987   0.686   0.015  0.1828 -0.2283  0.4050
 2258SOL    HW118233   4.050   0.617  17.700 -0.2337  0.2391 -2.6098
 2258SOL    HW218234   3.965   0.709  17.629 -0.5927  0.3605  0.7481
 2259SOL     OW18235   2.010   2.669   3.857 -0.2424  0.1275 -0.3595
 2259SOL    HW118236   2.055   2.707   3.781  0.8759 -0.8223 -0.1841
 2259SOL    HW218237   1.919   2.670   3.828 -0.3908 -0.0210  0.1153
 2260SOL     OW18238   4.069   3.450   4.469 -0.2626 -0.0390  0.3106
 2260SOL    HW118239   4.122   3.421   4.395  2.0241  1.0581  1.5405
 2260SOL    HW218240   4.038   3.363   4.495  1.5916 -0.8283 -0.1756
 2261SOL     OW18241   0.273   1.594   4.701 -0.3658  0.6161  0.1221
 2261SOL    HW118242   0.308   1.590   4.790 -1.8761 -1.6011  0.6256
 2261SOL    HW218243   0.274   1.503   4.671  0.4261  1.6879 -3.0434
 2262SOL     OW18244   4.042   2.699   2.301  0.0730 -1.0696 -0.1132
 2262SOL    HW118245   4.060   2.722   2.210 -0.3288  0.4640  0.1854
 2262SOL    HW218246   3.993   2.617   2.297 -0.0337 -0.9074 -2.1634
 2263SOL     OW18247   1.015   2.238  10.714 -0.3580 -0.2370 -0.8152
 2263SOL    HW118248   0.960   2.186  10.772  0.4995  0.2710  0.4404
 2263SOL    HW218249   1.046   2.171  10.652  0.1452 -1.7918  1.1175
 2264SOL     OW18250   2.353   1.731  12.130 -0.2638 -0.3408  0.1325
 2264SOL    HW118251   2.332   1.661  12.068 -0.1146  0.9888 -1.4064
 2264SOL    HW218252   2.283   1.792  12.105 -1.1102 -1.2803  0.1959
 2265SOL     OW18253   2.282   4.507   8.506 -0.4344 -0.2088  0.0935
 2265SOL    HW118254   2.267   4.574   8.573  1.6080  0.5941 -0.2614
 2265SOL    HW218255   2.372   4.524   8.479 -1.4108  3.0149 -1.1419
 2266SOL     OW18256   1.511   0.664  16.628  0.2094  0.3566 -0.1728
 2266SOL    HW118257   1.427   0.623  16.644  1.3404 -1.8240  0.1478
 2266SOL    HW218258   1.496   0.754  16.656 -0.4707  0.4486 -0.8427
 2267SOL     OW18259   3.902   2.758   2.664  0.1752 -0.6778 -0.5410
 2267SOL    HW118260   3.849   2.820   2.614  0.7595 -1.2031 -1.8174
 2267SOL    HW218261   3.922   2.797   2.749  0.6204 -1.1435 -0.4291
 2268SOL     OW18262   3.654   2.172   9.014 -0.6426 -0.0608  0.9281
 2268SOL    HW118263   3.678   2.096   9.067  2.3291 -0.5253 -1.0943
 2268SOL    HW218264   3.624   2.239   9.076 -0.9511 -0.3843  1.1283
 2269SOL     OW18265   1.045   1.756   7.780 -0.6068  0.1448  0.0581
 2269SOL    HW118266   1.100   1.831   7.803 -1.0539  0.6190 -0.4337
 2269SOL    HW218267   1.021   1.715   7.864 -1.2868  1.3914  0.4699
 2270SOL     OW18268   3.502   2.066   9.808  0.3803  0.1689  0.8970
 2270SOL    HW118269   3.432   2.106   9.859 -0.7319 -1.0319  0.2961
 2270SOL    HW218270   3.452   2.047   9.729  1.5778  0.4411  0.0695
 2271SOL     OW18271   2.750   3.907  11.980 -0.0618 -0.4714 -0.0970
 2271SOL    HW118272   2.806   3.951  11.915  0.2628  0.7351  0.9875
 2271SOL    HW218273   2.717   3.979  12.034  0.5194  0.9700 -1.6440
 2272SOL     OW18274   2.893   1.677   0.192  0.3696 -0.5064  0.6072
 2272SOL    HW118275   2.960   1.738   0.222  1.2840 -0.1017 -2.2684
 2272SOL    HW218276   2.807   1.709   0.220  0.3840 -0.9143  1.1146
 2273SOL     OW18277   0.624   2.318   0.391  0.1582  0.0718 -0.0173
 2273SOL    HW118278   0.556   2.323   0.324  2.5924  2.0559 -2.3642
 2273SOL    HW218279   0.601   2.381   0.459 -0.0390 -1.5925  1.4637
 2274SOL     OW18280   0.333   1.881  16.154  0.2789 -0.6316 -0.2086
 2274SOL    HW118281   0.370   1.944  16.091  1.2442  0.7224  1.7046
 2274SOL    HW218282   0.408   1.885  16.214  0.8617 -2.0767 -0.8297
 2275SOL     OW18283   4.276   0.240  15.483  0.0509 -0.2376  0.1606
 2275SOL    HW118284   4.210   0.204  15.542  0.9834 -2.5848 -0.2272
 2275SOL    HW218285   4.255   0.332  15.498  0.4962  0.4612 -3.3836
 2276SOL     OW18286   2.831   2.405   9.379 -0.3654  0.0327 -0.2422
 2276SOL    HW118287   2.769   2.468   9.341  0.1083  0.6159 -0.0346
 2276SOL    HW218288   2.899   2.415   9.312  0.9100 -0.8389  0.9407
 2277SOL     OW18289   0.905   1.660  10.643  0.3177 -0.1201 -0.2956
 2277SOL    HW118290   0.880   1.612  10.564 -1.3761 -1.8147  1.2605
 2277SOL    HW218291   0.855   1.742  10.636  0.1385 -0.4650 -2.9392
 2278SOL     OW18292   2.053   1.984   1.886  0.1406  0.0004  0.1208
 2278SOL    HW118293   2.083   2.007   1.974 -0.8975 -1.6298  0.9137
 2278SOL    HW218294   2.095   2.056   1.839  0.9560 -0.2680  0.4457
 2279SOL     OW18295   4.424   4.631  12.850  0.4897 -0.8846 -0.3941
 2279SOL    HW118296   4.478   4.710  12.848  1.1871 -1.3587 -0.1984
 2279SOL    HW218297   4.407   4.608  12.759  1.0413 -2.9013  0.0148
 2280SOL     OW18298   2.973   2.202   5.740  0.2213  0.3909  0.3276
 2280SOL    HW118299   2.940   2.112   5.745  2.6850 -0.6049 -1.1082
 2280SOL    HW218300   2.901   2.258   5.712 -0.7255 -1.1630 -0.3586
 2281SOL     OW18301   2.648   3.249   9.676 -0.2553  0.2662 -0.5754
 2281SOL    HW118302   2.646   3.165   9.721  0.6025  0.4140 -0.2629
 2281SOL    HW218303   2.701   3.299   9.738  2.4819 -1.0984 -1.7803
 2282SOL     OW18304   2.108   3.750   2.971 -0.3953 -0.2389 -0.0936
 2282SOL    HW118305   2.200   3.777   2.966 -0.8404  1.2873  0.0666
 2282SOL    HW218306   2.070   3.824   3.018 -0.1914  0.3221 -0.8103
 2283SOL     OW18307   0.560   1.757   0.844  0.1650  0.6441  0.0929
 2283SOL    HW118308   0.561   1.808   0.925  0.0576  0.8383 -0.0272
 2283SOL    HW218309   0.652   1.731   0.846  0.4998  1.8448  0.2543
 2284SOL     OW18310   4.544   2.198   7.101 -0.5483 -0.2774  0.1601
 2284SOL    HW118311   4.562   2.274   7.156 -0.1785  0.5916 -1.1869
 2284SOL    HW218312   4.618   2.145   7.129 -1.6474 -0.8996  1.9021
 2285SOL     OW18313   2.749   0.506   2.460 -0.6985  0.1867 -0.1223
 2285SOL    HW118314   2.759   0.508   2.555 -0.8041 -0.3256 -0.1013
 2285SOL    HW218315   2.835   0.481   2.428 -0.3506  2.5346 -1.0369
 2286SOL     OW18316   1.932   4.195   0.739 -0.3528  0.2187  0.2319
 2286SOL    HW118317   1.880   4.138   0.795 -0.7041  0.0954 -0.2208
 2286SOL    HW218318   1.939   4.145   0.658  0.1155 -0.1058  0.4720
 2287SOL     OW18319   0.644   2.358  15.500 -0.7946 -0.2414  0.1496
 2287SOL    HW118320   0.665   2.367  15.407 -1.1762  2.9621  0.3734
 2287SOL    HW218321   0.550   2.344  15.510 -0.2299 -2.5851  2.0992
 2288SOL     OW18322   0.970   4.344   8.104  0.0606 -0.1110  0.2996
 2288SOL    HW118323   0.986   4.394   8.024 -0.2338  1.5533  1.2721
 2288SOL    HW218324   0.898   4.396   8.142 -0.5664 -0.3367 -0.5875
 2289SOL     OW18325   4.239   1.795   5.373  0.4713  0.3585 -0.2243
 2289SOL    HW118326   4.164   1.755   5.328 -0.6370  1.7871  0.3681
 2289SOL    HW218327   4.273   1.840   5.296  0.9628  2.1363  1.0452
 2290SOL     OW18328   0.122   1.748   7.634 -0.3077 -0.0520 -0.4110
 2290SOL    HW118329   0.192   1.809   7.613  0.9561 -1.1976  0.5445
 2290SOL    HW218330   0.161   1.664   7.611 -0.8927 -0.4326 -0.0322
 2291SOL     OW18331   4.547   0.635  16.817  0.3860 -0.3282 -0.0978
 2291SOL    HW118332   4.546   0.687  16.736 -2.9181 -1.1288 -0.5558
 2291SOL    HW218333   4.515   0.698  16.881 -0.3980  1.9992 -2.7829
 2292SOL     OW18334   1.103   0.518   2.576  0.7361  0.3875  0.4419
 2292SOL    HW118335   1.136   0.608   2.570  0.2173  0.5848  0.5546
 2292SOL    HW218336   1.051   0.520   2.656  1.5520  0.9201  0.9643
 2293SOL     OW18337   3.173   0.761   3.668  0.1173  0.4931 -0.1428
 2293SOL    HW118338   3.220   0.764   3.751  0.2205 -0.1966 -0.1759
 2293SOL    HW218339   3.218   0.837   3.632 -1.3556  0.9465 -1.0618
 2294SOL     OW18340   2.001   3.931   0.086  0.7092 -0.3487 -0.0212
 2294SOL    HW118341   1.960   3.880   0.016 -0.2490 -1.2962  1.2220
 2294SOL    HW218342   1.932   3.971   0.139  1.8880  0.0329  1.2297
 2295SOL     OW18343   1.347   0.761   2.137  0.3262 -0.7165  0.2645
 2295SOL    HW118344   1.383   0.757   2.048 -0.2280  2.5123 -0.1024
 2295SOL    HW218345   1.290   0.837   2.126  2.0191  0.6231  0.7933
 2296SOL     OW18346   4.274   2.008   2.865  0.0065  0.3493 -0.5789
 2296SOL    HW118347   4.356   2.040   2.827 -0.9024  0.6707 -2.2618
 2296SOL    HW218348   4.209   2.049   2.808  1.4368  0.1979 -2.3012
 2297SOL     OW18349   0.852   2.345   7.751 -0.7477 -0.3562 -0.3223
 2297SOL    HW118350   0.942   2.316   7.735 -0.9889 -1.4888  0.3278
 2297SOL    HW218351   0.815   2.340   7.663 -3.0059 -2.0841  0.7318
 2298SOL     OW18352   0.582   3.221   4.963 -0.1453  0.0557  0.3520
 2298SOL    HW118353   0.576   3.310   4.927 -0.6853 -0.5004 -0.9119
 2298SOL    HW218354   0.614   3.161   4.895 -0.9823 -0.0219  0.0320
 2299SOL     OW18355   1.191   4.085   5.852 -0.4050 -0.5284 -0.2396
 2299SOL    HW118356   1.175   4.175   5.822  0.6992 -0.4175 -0.5116
 2299SOL    HW218357   1.166   4.039   5.771  1.2094  1.0691 -1.6625
 2300SOL     OW18358   0.542   3.300   6.700 -0.4171 -0.7283 -0.0108
 2300SOL    HW118359   0.572   3.253   6.778  0.5123  0.0882  0.1254
 2300SOL    HW218360   0.558   3.391   6.723  1.0506 -1.0611  0.2991
 2301SOL     OW18361   2.082   4.284   2.524 -0.2994  0.0255 -0.4607
 2301SOL    HW118362   2.010   4.226   2.548 -0.7256 -0.0324 -1.8349
 2301SOL    HW218363   2.140   4.237   2.464  0.1466 -1.5984  1.2366
 2302SOL     OW18364   3.454   3.328   4.507 -0.7741  0.7288  0.7713
 2302SOL    HW118365   3.516   3.359   4.441 -1.8956  4.1964  1.3495
 2302SOL    HW218366   3.516   3.297   4.573  1.8826  3.5597 -0.4081
 2303SOL     OW18367   0.066   2.058  10.887 -0.3077 -0.5131 -0.1557
 2303SOL    HW118368   0.073   2.013  10.971  0.6481 -0.3376 -0.1487
 2303SOL    HW218369   0.141   2.116  10.896 -1.1962  0.6281 -0.0928
 2304SOL     OW18370   3.148   4.726   6.765 -0.3080  0.2305 -0.1026
 2304SOL    HW118371   3.177   0.079   6.810 -1.1848 -0.0637  0.9692
 2304SOL    HW218372   3.177   4.667   6.835 -0.2084 -1.0425 -1.1959
 2305SOL     OW18373   1.175   2.491   8.276  0.6267 -0.3940  0.5302
 2305SOL    HW118374   1.149   2.400   8.282  0.2087 -0.2943  0.2113
 2305SOL    HW218375   1.257   2.488   8.227  1.4272  2.3180  1.6870
 2306SOL     OW18376   0.253   1.638  11.778  0.4306 -0.5879 -0.5103
 2306SOL    HW118377   0.255   1.689  11.860 -0.6791 -1.0422 -0.2066
 2306SOL    HW218378   0.237   1.707  11.714  1.5016 -0.2980 -0.4716
 2307SOL     OW18379   4.457   1.990   8.640  0.0586 -0.4970  0.1523
 2307SOL    HW118380   4.428   2.012   8.551  2.9619 -0.7376 -0.8465
 2307SOL    HW218381   4.401   1.913   8.654 -0.3567  0.0685  1.6527
 2308SOL     OW18382   1.788   1.385   5.216 -0.1385  0.6724 -0.5618
 2308SOL    HW118383   1.789   1.297   5.252  0.9195  0.6763 -0.5857
 2308SOL    HW218384   1.809   1.435   5.295 -0.6359  2.2046 -1.3996
 2309SOL     OW18385   0.003   3.903  17.604  0.4201  0.2137  0.1183
 2309SOL    HW118386   0.043   3.853  17.532 -2.5406  0.1288 -1.4483
 2309SOL    HW218387   0.074   3.931  17.662 -1.2077 -0.6539  2.5115
 2310SOL     OW18388   4.550   4.451   4.173 -0.6594 -0.2437 -0.1035
 2310SOL    HW118389   4.527   4.452   4.266  0.6677 -1.4650  0.2373
 2310SOL    HW218390   4.585   4.362   4.164 -2.2259 -0.9110  0.2727
 2311SOL     OW18391   2.074   4.474   3.466 -0.2597 -0.0718 -0.0747
 2311SOL    HW118392   2.026   4.421   3.402  0.7591 -1.3682  0.2336
 2311SOL    HW218393   2.005   4.509   3.523 -0.2244 -0.6244  0.3100
 2312SOL     OW18394   4.120   1.353   6.943  0.2476  0.2750  1.1188
 2312SOL    HW118395   4.065   1.387   7.014 -0.6401  4.9244 -1.7741
 2312SOL    HW218396   4.100   1.259   6.939 -0.0834  0.3688  0.5104
 2313SOL     OW18397   0.687   0.764   6.821 -0.4264  0.4397  0.1397
 2313SOL    HW118398   0.739   0.747   6.743  0.5517 -1.5641  1.2474
 2313SOL    HW218399   0.728   0.847   6.847 -0.1088  0.5379 -0.6947
 2314SOL     OW18400   1.407   4.548  10.387  0.2592 -0.7657  0.3672
 2314SOL    HW118401   1.474   4.568  10.322  0.9254 -1.2722  0.8981
 2314SOL    HW218402   1.452   4.586  10.462 -1.1200 -3.2785  2.5027
 2315SOL     OW18403   3.405   2.932   0.421  0.1623 -0.3797  0.0628
 2315SOL    HW118404   3.489   2.887   0.413  0.1435 -0.8100  2.3250
 2315SOL    HW218405   3.425   2.995   0.352  2.2531  0.1804  1.1914
 2316SOL     OW18406   3.856   3.327  14.688  0.4063  0.1103  0.4964
 2316SOL    HW118407   3.828   3.362  14.604  0.5522  2.4020  1.3992
 2316SOL    HW218408   3.873   3.235  14.668 -0.5020 -0.2238  1.2157
 2317SOL     OW18409   4.406   1.983  13.532 -0.7387  0.0711 -0.1893
 2317SOL    HW118410   4.481   1.987  13.473 -1.1734 -2.3944 -0.9172
 2317SOL    HW218411   4.443   1.916  13.590 -0.2192 -1.9014 -2.7957
 2318SOL     OW18412   3.306   1.600   3.151 -0.1128  0.5705  0.4909
 2318SOL    HW118413   3.314   1.621   3.244  0.3686 -0.2298  0.6346
 2318SOL    HW218414   3.394   1.620   3.120  0.1571 -2.1552 -0.5261
 2319SOL     OW18415   3.862   3.468   5.767 -1.0110 -0.1837 -0.6053
 2319SOL    HW118416   3.830   3.541   5.714 -1.4419  0.4880  0.5919
 2319SOL    HW218417   3.954   3.485   5.787 -0.3155 -3.3936 -1.0832
 2320SOL     OW18418   4.623   3.388   1.709  0.1555 -0.5049  0.3421
 2320SOL    HW118419   4.529   3.382   1.721  0.4577 -1.4875  2.2220
 2320SOL    HW218420   4.636   3.476   1.745 -2.0670  0.6822 -1.7494
 2321SOL     OW18421   3.470   2.056  17.494 -0.6352 -0.2290 -0.1587
 2321SOL    HW118422   3.410   2.052  17.568 -0.2141  2.4299  0.3087
 2321SOL    HW218423   3.511   2.142  17.501 -1.6987  0.1708  1.2082
 2322SOL     OW18424   4.468   0.691  13.359 -0.0900  0.4803 -0.1811
 2322SOL    HW118425   4.480   0.773  13.406 -0.0282  0.2326  0.2348
 2322SOL    HW218426   4.508   0.630  13.421 -0.7823  0.9018  0.6846
 2323SOL     OW18427   3.582   2.150   0.340  0.2434 -0.4160 -0.3824
 2323SOL    HW118428   3.620   2.150   0.252  1.6460  0.3077  0.2324
 2323SOL    HW218429   3.659   2.118   0.387  2.1792  0.2014 -3.0792
 2324SOL     OW18430   2.093   0.493   7.141 -0.7078 -0.6770  0.1604
 2324SOL    HW118431   2.030   0.420   7.141  1.8689 -2.9174 -1.9085
 2324SOL    HW218432   2.060   0.540   7.217 -2.1327 -0.7801 -0.3866
 2325SOL     OW18433   4.592   1.020   3.172 -0.0783  0.1778 -0.2680
 2325SOL    HW118434   4.551   1.083   3.113 -2.0514  0.9138  1.9067
 2325SOL    HW218435   4.636   0.954   3.118 -0.6470 -0.5804  0.2066
 2326SOL     OW18436   4.351   3.185  16.185 -0.3557 -0.6741  0.2417
 2326SOL    HW118437   4.392   3.252  16.130  2.8617 -1.1223  2.0714
 2326SOL    HW218438   4.262   3.215  16.202 -0.5277  0.7330 -3.1529
 2327SOL     OW18439   3.179   1.053   4.937 -0.3263 -0.2989  0.3499
 2327SOL    HW118440   3.217   0.973   4.972  1.1730  0.6801  0.9250
 2327SOL    HW218441   3.088   1.030   4.956 -0.0210  0.4661  2.6720
 2328SOL     OW18442   4.461   2.626   6.838 -0.1749  0.0577 -0.3703
 2328SOL    HW118443   4.553   2.637   6.816 -0.3358  0.1023 -1.0343
 2328SOL    HW218444   4.417   2.657   6.758 -2.0791 -2.7962 -0.4443
 2329SOL     OW18445   4.535   0.836  16.617  0.0714 -0.2823  0.0258
 2329SOL    HW118446   4.610   0.880  16.658 -1.0956 -0.3176  2.2276
 2329SOL    HW218447   4.481   0.915  16.606  0.5332  0.1929  1.1610
 2330SOL     OW18448   4.288   0.698  16.151  0.4733  0.2505 -0.0380
 2330SOL    HW118449   4.379   0.681  16.125  0.4434  0.8032 -0.4848
 2330SOL    HW218450   4.284   0.792  16.169  3.3767  0.1615  1.2335
 2331SOL     OW18451   4.672   1.921   3.899 -0.4558  0.4306 -0.4208
 2331SOL    HW118452   4.696   1.959   3.983  1.0574 -0.1669 -0.5985
 2331SOL    HW218453   0.012   1.853   3.895 -1.5007 -0.7741  2.6145
 2332SOL     OW18454   0.266   3.975   5.877 -0.1091 -0.1667 -0.0874
 2332SOL    HW118455   0.177   3.939   5.874 -0.8792  1.7759 -0.7824
 2332SOL    HW218456   0.241   4.066   5.893 -1.1658 -0.3460 -0.6720
 2333SOL     OW18457   1.981   1.974   5.292 -0.2975 -0.1741  0.0586
 2333SOL    HW118458   2.070   2.006   5.276 -0.3439 -0.1956 -0.2434
 2333SOL    HW218459   1.957   2.011   5.377  0.6091  1.4960 -0.4244
 2334SOL     OW18460   2.744   3.476   4.459 -0.5744  0.1842  0.0807
 2334SOL    HW118461   2.696   3.518   4.530  1.6579  1.9557  0.5475
 2334SOL    HW218462   2.838   3.477   4.478 -0.4796  0.0225 -0.3627
 2335SOL     OW18463   2.173   0.278   1.571 -0.5663  0.1155 -0.2533
 2335SOL    HW118464   2.251   0.275   1.516 -1.2800 -0.7636 -1.2250
 2335SOL    HW218465   2.125   0.206   1.528 -1.8907  0.5679  0.4562
 2336SOL     OW18466   4.257   2.098   3.628  0.5441  0.0882  0.4662
 2336SOL    HW118467   4.329   2.151   3.663  0.8602 -0.2275  0.3036
 2336SOL    HW218468   4.236   2.043   3.704  1.4088  0.0153  0.6512
 2337SOL     OW18469   1.175   0.845  15.667  0.3792 -0.7041  0.1527
 2337SOL    HW118470   1.208   0.930  15.639  0.8497 -1.6679 -2.1754
 2337SOL    HW218471   1.155   0.807  15.582  0.7010 -0.9081  0.1677
 2338SOL     OW18472   1.707   0.056   9.636 -0.2347  0.2258  0.3234
 2338SOL    HW118473   1.721   4.722   9.710 -2.3777  1.8525  2.0670
 2338SOL    HW218474   1.694   4.724   9.561 -3.6403  2.8248 -1.0884
 2339SOL     OW18475   3.137   4.224  16.719  0.0920 -0.5582  0.4732
 2339SOL    HW118476   3.231   4.238  16.708 -0.0585 -1.3784 -1.8448
 2339SOL    HW218477   3.126   4.298  16.779  0.4178  0.1723 -0.3454
 2340SOL     OW18478   0.386   2.637   1.046  0.5467  0.8235 -0.4116
 2340SOL    HW118479   0.457   2.580   1.017  0.1498  1.0441 -1.8183
 2340SOL    HW218480   0.318   2.591   0.996  1.5271 -1.4604  0.3701
 2341SOL     OW18481   1.168   0.184  14.877 -0.0099  0.2914  0.5355
 2341SOL    HW118482   1.110   0.141  14.814  0.6123  0.5822 -0.2265
 2341SOL    HW218483   1.135   0.273  14.867 -1.5844 -0.4945 -1.2260
 2342SOL     OW18484   0.920   3.781   1.918 -0.4357  0.5450  0.1208
 2342SOL    HW118485   0.923   3.845   1.989 -0.4222  0.7599 -0.0735
 2342SOL    HW218486   1.005   3.738   1.929 -0.6955 -0.2906 -1.1693
 2343SOL     OW18487   3.273   0.598   9.103  0.2090 -0.4616 -0.0974
 2343SOL    HW118488   3.276   0.541   9.179 -1.4372  1.2044  1.2034
 2343SOL    HW218489   3.187   0.574   9.067  0.6871 -1.4570 -0.5596
 2344SOL     OW18490   2.451   0.599  11.589  0.7602 -0.2607 -0.3246
 2344SOL    HW118491   2.469   0.691  11.572  1.0493 -0.3039 -0.2518
 2344SOL    HW218492   2.411   0.579  11.504  1.9157  0.5184 -1.0459
 2345SOL     OW18493   0.817   1.196   2.085 -0.0025 -1.1493  0.5130
 2345SOL    HW118494   0.731   1.228   2.058  0.7328  0.8502  0.5324
 2345SOL    HW218495   0.801   1.101   2.090  0.9638 -1.2534  1.5986
 2346SOL     OW18496   2.579   1.953   4.946  0.5293 -0.6206 -0.0264
 2346SOL    HW118497   2.597   1.878   4.890  0.9305 -0.7419  0.2693
 2346SOL    HW218498   2.637   2.020   4.908  0.0428 -0.0678  0.2022
 2347SOL     OW18499   1.674   3.149  10.878 -0.1998  0.1758 -0.0433
 2347SOL    HW118500   1.692   3.220  10.940 -1.2981 -1.7975  2.5524
 2347SOL    HW218501   1.583   3.130  10.899 -0.5367  4.2035  2.1963
 2348SOL     OW18502   1.708   2.335  11.737 -0.2256  0.2196  0.1915
 2348SOL    HW118503   1.787   2.383  11.761 -1.2850  1.3003  1.4884
 2348SOL    HW218504   1.660   2.381  11.668 -2.8222  1.6865  2.9735
 2349SOL     OW18505   1.519   1.872  16.087  0.1309 -0.1628  0.2299
 2349SOL    HW118506   1.553   1.868  15.997  1.4319 -0.3534  0.7331
 2349SOL    HW218507   1.597   1.896  16.136  0.2078  0.7201 -0.3326
 2350SOL     OW18508   0.872   2.929  14.222 -0.3738  0.1049  0.1583
 2350SOL    HW118509   0.921   3.004  14.256 -0.5394  0.1416  0.3143
 2350SOL    HW218510   0.945   2.868  14.216  0.0302  0.7977 -2.0183
 2351SOL     OW18511   0.666   0.397   2.482  0.4972  0.3669 -0.3416
 2351SOL    HW118512   0.751   0.386   2.441 -0.3655 -1.0988 -1.7594
 2351SOL    HW218513   0.663   0.322   2.542  1.1263 -0.1986 -1.0171
 2352SOL     OW18514   1.768   3.586  10.893  0.4376 -0.0804 -0.0019
 2352SOL    HW118515   1.722   3.647  10.835 -0.1690 -0.5774 -0.0418
 2352SOL    HW218516   1.782   3.509  10.839 -0.8981 -0.2162 -0.1495
 2353SOL     OW18517   0.996   0.635   2.794 -0.1791 -0.0542  0.6615
 2353SOL    HW118518   0.929   0.608   2.731  1.3909  2.3137 -2.0283
 2353SOL    HW218519   0.997   0.724   2.759 -0.6460 -1.4037 -2.7289
 2354SOL     OW18520   0.116   4.422   0.491  0.0237 -0.1736  0.0599
 2354SOL    HW118521   0.143   4.350   0.548  2.7265 -0.1032 -1.1457
 2354SOL    HW218522   0.055   4.472   0.545 -0.9258  1.1687 -2.2599
 2355SOL     OW18523   4.029   0.859   3.797  0.1099  0.1320  0.2915
 2355SOL    HW118524   3.971   0.784   3.782 -1.1586  0.9943  0.8897
 2355SOL    HW218525   4.091   0.859   3.724 -0.9469  2.1635 -0.6284
 2356SOL     OW18526   2.633   0.812   3.631 -0.0843 -0.3271  0.0103
 2356SOL    HW118527   2.617   0.721   3.606 -0.2899 -0.2397 -0.1811
 2356SOL    HW218528   2.727   0.817   3.618 -0.0290 -1.8783 -0.1757
 2357SOL     OW18529   4.156   0.989  16.527  0.0831 -0.3433 -0.8184
 2357SOL    HW118530   4.124   0.947  16.447 -0.4920 -0.5094 -0.5014
 2357SOL    HW218531   4.120   0.927  16.591 -3.3210 -0.2214 -2.6380
 2358SOL     OW18532   0.205   3.517   0.433 -0.1840  0.0657  0.2378
 2358SOL    HW118533   0.248   3.551   0.354  0.8252 -2.1469 -0.1642
 2358SOL    HW218534   0.228   3.593   0.485  0.6415 -0.1357  0.1639
 2359SOL     OW18535   2.382   3.152   9.562 -0.1026  0.5229  0.1771
 2359SOL    HW118536   2.472   3.140   9.593 -0.2466  0.6510  0.6467
 2359SOL    HW218537   2.409   3.200   9.484 -0.0612 -1.2390 -0.8974
 2360SOL     OW18538   4.490   0.796   5.934  0.4482  0.1712 -0.1001
 2360SOL    HW118539   4.445   0.768   5.854  1.4728  0.7088 -0.8667
 2360SOL    HW218540   4.410   0.829   5.975  0.1666 -0.1905 -0.3490
 2361SOL     OW18541   1.165   1.023   2.002  0.1285  0.4451 -0.3312
 2361SOL    HW118542   1.132   1.109   1.975  2.0429  1.2934  0.0345
 2361SOL    HW218543   1.145   0.972   1.923 -2.7836 -1.2237  1.4850
 2362SOL     OW18544   0.951   2.891   7.934 -0.2878  0.0277 -0.1177
 2362SOL    HW118545   1.033   2.882   7.982 -1.2238  0.0623  1.5036
 2362SOL    HW218546   0.993   2.885   7.849  2.0463  0.9523  0.9848
 2363SOL     OW18547   0.475   0.965   3.011  0.4709  0.0756  0.2861
 2363SOL    HW118548   0.401   1.026   3.016 -1.2086 -2.1213  2.5095
 2363SOL    HW218549   0.456   0.929   2.925  1.2644  1.8799 -0.6533
 2364SOL     OW18550   1.951   0.033   5.800  0.1421 -0.2570  0.0294
 2364SOL    HW118551   1.887   0.094   5.836 -0.1383 -0.7610  0.3815
 2364SOL    HW218552   1.948   0.042   5.705  0.1850 -1.9303 -0.1374
 2365SOL     OW18553   0.989   0.464   8.247 -0.1207 -0.6392 -0.6701
 2365SOL    HW118554   0.903   0.441   8.213  0.3169 -1.5073 -1.2012
 2365SOL    HW218555   0.995   0.554   8.215  0.6864 -0.8901 -1.2296
 2366SOL     OW18556   3.702   4.524   2.443 -0.1398 -0.1254 -0.4898
 2366SOL    HW118557   3.745   4.548   2.361  0.3395 -0.2158 -0.2610
 2366SOL    HW218558   3.700   4.614   2.475 -1.4029 -0.8811  1.5708
 2367SOL     OW18559   4.568   1.256  16.335  0.4270 -0.2712  0.7290
 2367SOL    HW118560   4.503   1.218  16.393  0.8130 -0.3289  1.1189
 2367SOL    HW218561   4.582   1.185  16.272 -4.4216 -0.0136 -0.6448
 2368SOL     OW18562   4.531   1.628   7.392 -1.1260  0.1394 -0.3044
 2368SOL    HW118563   4.479   1.579   7.456  0.3876 -2.2383 -0.8841
 2368SOL    HW218564   4.577   1.557   7.347  0.9039  0.7366  0.8591
 2369SOL     OW18565   0.542   2.562  10.491 -0.3722  0.3742 -0.1343
 2369SOL    HW118566   0.605   2.631  10.511  0.4462 -0.0234 -1.3159
 2369SOL    HW218567   0.576   2.536  10.405 -0.3640  0.7472 -0.2405
 2370SOL     OW18568   0.808   0.783   8.336  0.5218 -0.2918  0.2414
 2370SOL    HW118569   0.845   0.866   8.365  0.4981  0.1242 -0.9094
 2370SOL    HW218570   0.813   0.738   8.420 -0.9560 -0.1379  0.3983
 2371SOL     OW18571   4.368   3.799   2.717  0.1065  0.4225  0.1279
 2371SOL    HW118572   4.393   3.886   2.686 -0.3298  0.1515 -0.9712
 2371SOL    HW218573   4.350   3.757   2.633  0.8147  1.4536 -0.5307
 2372SOL     OW18574   3.168   3.198   5.536  0.9431 -0.3259 -0.0640
 2372SOL    HW118575   3.238   3.217   5.473  0.1971  0.7429 -0.5725
 2372SOL    HW218576   3.138   3.117   5.496  0.8915  0.6194 -1.9758
 2373SOL     OW18577   2.817   0.906   7.709 -0.6598  0.4253  0.4664
 2373SOL    HW118578   2.815   0.912   7.613  0.0631 -1.2520  0.3399
 2373SOL    HW218579   2.867   0.829   7.737  1.4388  1.4914 -0.3933
 2374SOL     OW18580   0.115   0.328   9.194 -0.4797  0.1320 -0.8944
 2374SOL    HW118581   0.109   0.419   9.223  1.3877  0.4349 -1.4906
 2374SOL    HW218582   0.185   0.291   9.249 -1.3283  0.6508  0.5574
 2375SOL     OW18583   3.685   3.267   8.421  0.1989 -0.1362 -0.9737
 2375SOL    HW118584   3.626   3.213   8.368  1.0741 -1.8442 -0.2047
 2375SOL    HW218585   3.771   3.231   8.400 -0.2354 -1.6779 -0.1672
 2376SOL     OW18586   3.436   2.648   9.084  0.3648  0.6732 -0.4695
 2376SOL    HW118587   3.365   2.678   9.028 -0.7217 -0.4759  0.2844
 2376SOL    HW218588   3.444   2.719   9.149  0.4048  0.4800 -0.2620
 2377SOL     OW18589   3.779   2.708  10.729  0.1596 -0.0105 -0.5116
 2377SOL    HW118590   3.845   2.773  10.755  1.8444 -1.9425  0.1289
 2377SOL    HW218591   3.705   2.726  10.786  0.0876  1.6330 -1.1431
 2378SOL     OW18592   0.792   3.481   0.292 -0.2333 -0.1154  0.0831
 2378SOL    HW118593   0.867   3.529   0.329 -0.0397  0.0599 -0.5397
 2378SOL    HW218594   0.805   3.390   0.320  3.1646  0.9140  1.8749
 2379SOL     OW18595   3.469   2.985  13.232  0.2628 -0.3385 -0.0249
 2379SOL    HW118596   3.438   3.038  13.158  1.2459  1.1705  0.6507
 2379SOL    HW218597   3.456   2.895  13.203  0.5034 -0.3403 -0.1234
 2380SOL     OW18598   1.413   2.847   2.844  0.2157  0.6263 -0.0123
 2380SOL    HW118599   1.378   2.843   2.755 -2.6435  2.2685  1.0236
 2380SOL    HW218600   1.335   2.820   2.893 -0.1514  0.7604 -0.5272
 2381SOL     OW18601   1.233   4.038  16.362 -0.2976  0.2804 -0.1342
 2381SOL    HW118602   1.327   4.055  16.363  0.0580 -1.7149  0.0175
 2381SOL    HW218603   1.203   4.050  16.272 -1.0236 -0.0043  0.0621
 2382SOL     OW18604   2.623   4.245   9.997  0.5459  0.3226 -0.4765
 2382SOL    HW118605   2.633   4.339   9.984  0.4875  0.3350 -0.4280
 2382SOL    HW218606   2.624   4.208   9.908 -1.1959 -0.4324 -0.1732
 2383SOL     OW18607   3.000   2.118  15.549  0.3792 -0.1827 -0.3446
 2383SOL    HW118608   3.002   2.050  15.481  0.5500  0.1650 -0.6935
 2383SOL    HW218609   2.914   2.107  15.588  1.7415  1.7598  3.1279
 2384SOL     OW18610   3.602   4.721   7.846  0.0653 -0.5272 -0.2846
 2384SOL    HW118611   3.528   4.713   7.787  0.2306  2.0060 -0.8440
 2384SOL    HW218612   3.630   4.629   7.841  0.7634 -0.3279 -0.0633
 2385SOL     OW18613   2.122   3.706   8.046  0.3133 -0.1188  0.2988
 2385SOL    HW118614   2.196   3.677   7.993 -0.0326 -0.6291  0.0942
 2385SOL    HW218615   2.117   3.796   8.016 -2.4302 -0.9341 -1.6548
 2386SOL     OW18616   3.924   3.562  11.758 -0.6337 -0.0138  0.0838
 2386SOL    HW118617   3.875   3.618  11.818 -0.0644 -1.7464  2.1860
 2386SOL    HW218618   4.013   3.586  11.783 -0.3036 -2.5329  1.3185
 2387SOL     OW18619   1.024   0.711   8.119 -0.0299 -0.3155 -0.2408
 2387SOL    HW118620   0.997   0.745   8.033  0.0488  0.8711  0.1934
 2387SOL    HW218621   0.964   0.766   8.170  0.7912  1.4130 -1.1277
 2388SOL     OW18622   3.171   0.046   4.535  0.0664  0.4849 -0.4078
 2388SOL    HW118623   3.121   4.690   4.530  1.4062 -0.2781 -1.0406
 2388SOL    HW218624   3.255   0.003   4.549  0.7683  1.5343 -1.3521
 2389SOL     OW18625   3.710   0.213   5.269 -0.0937  0.4976  0.1017
 2389SOL    HW118626   3.690   0.306   5.264 -1.5512  0.0962 -1.4267
 2389SOL    HW218627   3.620   0.186   5.288 -0.1684  1.3774  1.0535
 2390SOL     OW18628   3.453   0.154  11.812 -0.2563  0.5366 -0.4190
 2390SOL    HW118629   3.397   0.176  11.737  0.0334  2.5637 -0.0495
 2390SOL    HW218630   3.539   0.148  11.770 -0.2178 -0.5335 -0.1641
 2391SOL     OW18631   4.143   3.469   4.976  0.2191 -0.0434 -0.1061
 2391SOL    HW118632   4.174   3.552   5.012  1.2647  0.2118 -1.6005
 2391SOL    HW218633   4.109   3.505   4.895 -0.1050  0.6794  0.3513
 2392SOL     OW18634   1.654   3.134   4.193  0.0980 -0.2911  0.1297
 2392SOL    HW118635   1.749   3.124   4.182  0.5035  3.5169  0.1815
 2392SOL    HW218636   1.647   3.125   4.288  0.1026  0.1389  0.1705
 2393SOL     OW18637   2.083   1.385   2.740  0.1070  0.4177 -0.0718
 2393SOL    HW118638   1.994   1.356   2.764  0.0991 -0.0749 -0.6953
 2393SOL    HW218639   2.090   1.347   2.653 -2.9028 -2.4178  0.8662
 2394SOL     OW18640   2.469   1.899   3.840 -0.3342  0.1280  0.1299
 2394SOL    HW118641   2.524   1.824   3.861  0.7307  0.9218  0.2068
 2394SOL    HW218642   2.385   1.865   3.871  1.2494 -2.7468  1.2537
 2395SOL     OW18643   0.108   2.048   3.231  0.1183 -0.0153 -0.1455
 2395SOL    HW118644   0.164   2.011   3.299 -0.0448  1.1510  0.6159
 2395SOL    HW218645   0.048   2.100   3.285  0.3074 -0.0753  0.1221
 2396SOL     OW18646   1.827   1.241   9.216  0.4453  0.0207  0.1967
 2396SOL    HW118647   1.771   1.317   9.231  0.1390 -0.6423  2.4117
 2396SOL    HW218648   1.786   1.207   9.136  0.0828  2.9889 -0.9029
 2397SOL     OW18649   1.152   3.827   5.110 -0.0219 -0.4859 -1.3160
 2397SOL    HW118650   1.229   3.813   5.165 -1.6044 -0.6731  0.8407
 2397SOL    HW218651   1.134   3.735   5.090 -0.3303 -0.8138  0.5220
 2398SOL     OW18652   3.026   3.665   9.359 -0.2604  0.1777 -0.0312
 2398SOL    HW118653   3.101   3.610   9.381 -0.6843 -0.2684  0.2992
 2398SOL    HW218654   2.970   3.601   9.316 -2.3351  1.1659  1.1938
 2399SOL     OW18655   1.039   4.574   8.491  0.2784  0.6010 -0.1009
 2399SOL    HW118656   0.998   4.488   8.505  1.4296 -0.0396 -0.7054
 2399SOL    HW218657   1.021   4.610   8.577 -0.0036  2.1511 -0.8160
 2400SOL     OW18658   2.876   2.254   9.597 -0.8307 -0.4253 -0.3819
 2400SOL    HW118659   2.844   2.337   9.631 -0.1257 -0.5186  0.5253
 2400SOL    HW218660   2.862   2.276   9.505  0.0556 -1.5963 -0.8080
 2401SOL     OW18661   3.791   2.538  12.460 -0.2313  0.1162 -0.2248
 2401SOL    HW118662   3.707   2.567  12.427 -0.8328 -0.8368  0.4665
 2401SOL    HW218663   3.807   2.610  12.521 -0.6279 -0.4523  0.5395
 2402SOL     OW18664   1.758   0.216   8.054  0.0972 -0.1435  0.0900
 2402SOL    HW118665   1.772   0.130   8.014 -0.3598 -0.8281  1.4016
 2402SOL    HW218666   1.762   0.273   7.977  0.9380 -3.0427 -2.0657
 2403SOL     OW18667   3.529   1.977   5.898 -0.3562  0.3461  0.0616
 2403SOL    HW118668   3.521   1.911   5.967  1.2439  0.8232  0.7094
 2403SOL    HW218669   3.611   1.956   5.853 -1.2675  0.0002 -1.4422
 2404SOL     OW18670   1.630   0.142   1.927 -0.5773 -0.7092  0.3404
 2404SOL    HW118671   1.698   0.208   1.917 -0.2853 -0.6574  2.5771
 2404SOL    HW218672   1.608   0.155   2.020 -1.6447  3.3588 -0.4793
 2405SOL     OW18673   2.957   2.852  10.644  0.5738 -0.9490  0.7623
 2405SOL    HW118674   2.882   2.846  10.704 -2.5517  2.1595 -2.7966
 2405SOL    HW218675   3.023   2.811  10.700  0.9397 -3.1891 -1.3327
 2406SOL     OW18676   3.920   1.630  13.246  0.2649  0.0873 -0.0272
 2406SOL    HW118677   3.925   1.724  13.261 -1.5991  0.2480 -0.4415
 2406SOL    HW218678   3.828   1.619  13.222  0.7735  1.1249 -2.4346
 2407SOL     OW18679   0.188   0.081  14.407 -0.1352  0.0777 -0.3333
 2407SOL    HW118680   0.144   0.133  14.341 -2.9977 -0.2839  1.2875
 2407SOL    HW218681   0.187   0.138  14.484  1.7627 -0.7600  0.3303
 2408SOL     OW18682   2.544   3.600   9.127  0.6494  0.2267 -0.4518
 2408SOL    HW118683   2.484   3.582   9.199 -0.5517 -0.0078 -1.5097
 2408SOL    HW218684   2.600   3.661   9.175  0.5585 -0.1832  0.1709
 2409SOL     OW18685   2.365   0.708   0.912 -0.4887 -0.4676 -0.4421
 2409SOL    HW118686   2.439   0.681   0.857 -0.7118  2.0234 -1.9779
 2409SOL    HW218687   2.389   0.673   0.998  2.0531  0.4732 -0.7747
 2410SOL     OW18688   0.658   1.336   9.536  0.2957  0.4435 -0.0555
 2410SOL    HW118689   0.597   1.268   9.507 -0.5422  0.8284  0.7926
 2410SOL    HW218690   0.685   1.371   9.452 -0.0219  0.8662  0.0160
 2411SOL     OW18691   2.854   1.244  11.361 -0.1065  0.7168 -0.0392
 2411SOL    HW118692   2.796   1.320  11.350 -1.1376 -0.0378  0.1841
 2411SOL    HW218693   2.894   1.253  11.447 -0.4129  0.3932  0.1379
 2412SOL     OW18694   3.860   3.155   2.117 -0.0486  0.4151  0.2419
 2412SOL    HW118695   3.770   3.177   2.092  0.0060  0.7706  0.3562
 2412SOL    HW218696   3.851   3.075   2.169 -3.2026 -0.2966 -1.3947
 2413SOL     OW18697   4.031   0.596   8.803  0.3185 -0.4288  0.6424
 2413SOL    HW118698   4.058   0.504   8.807 -1.7931 -1.0183  1.4936
 2413SOL    HW218699   3.944   0.598   8.764  0.5331  0.1222  0.1868
 2414SOL     OW18700   2.194   2.036   4.104  0.7000 -0.2528  0.3316
 2414SOL    HW118701   2.221   2.080   4.185 -1.4432  2.0587 -0.2058
 2414SOL    HW218702   2.260   2.048   4.035 -0.5440  1.5020 -0.5563
 2415SOL     OW18703   3.064   4.031   9.587 -0.2898 -0.0491 -0.2343
 2415SOL    HW118704   3.018   4.022   9.670 -0.4743  2.5541 -0.0681
 2415SOL    HW218705   3.084   4.124   9.587  0.2034 -0.1577 -1.6696
 2416SOL     OW18706   3.933   0.064   2.216 -0.3084  0.6158  0.3705
 2416SOL    HW118707   3.903   4.699   2.208  0.2353  0.2795  2.0307
 2416SOL    HW218708   3.860   0.114   2.181  0.4844  2.9457  2.0385
 2417SOL     OW18709   2.568   2.700   4.538 -0.3560 -0.1476  0.2104
 2417SOL    HW118710   2.624   2.778   4.546 -0.5234  0.0620 -0.6544
 2417SOL    HW218711   2.490   2.738   4.578 -0.6774 -0.8734  0.2668
 2418SOL     OW18712   3.378   2.151   5.544  0.1974 -0.2623  0.1852
 2418SOL    HW118713   3.340   2.122   5.461 -0.7049 -0.8002  0.7990
 2418SOL    HW218714   3.322   2.228   5.558  2.5593  1.1774  1.8521
 2419SOL     OW18715   0.576   1.027   4.875 -0.2296  0.5004  0.1171
 2419SOL    HW118716   0.656   1.078   4.883 -1.6432  2.8030 -0.4798
 2419SOL    HW218717   0.567   0.994   4.964 -1.1885 -1.1475 -0.5855
 2420SOL     OW18718   3.834   3.615   7.517  0.2613  0.2288  0.3431
 2420SOL    HW118719   3.757   3.586   7.468 -0.1399  0.5698  0.7694
 2420SOL    HW218720   3.898   3.544   7.511 -0.4431 -0.4147  0.3940
 2421SOL     OW18721   2.140   2.405  15.219 -0.6981 -0.0204  0.5566
 2421SOL    HW118722   2.063   2.443  15.261 -2.2472 -1.9606 -0.5424
 2421SOL    HW218723   2.203   2.388  15.290 -0.8940  1.5274  1.0976
 2422SOL     OW18724   3.312   3.985  10.720 -0.5842  0.1344 -0.1127
 2422SOL    HW118725   3.271   4.008  10.804  0.9747  0.3216  0.5883
 2422SOL    HW218726   3.236   3.949  10.674 -0.4643 -2.3519  1.6158
 2423SOL     OW18727   2.767   3.119   5.067 -0.2257  0.1641  0.1584
 2423SOL    HW118728   2.673   3.138   5.063 -0.5461 -1.5333 -0.7669
 2423SOL    HW218729   2.796   3.190   5.123  1.4104  0.0474 -0.5284
 2424SOL     OW18730   2.352   1.046   6.951  0.4700 -0.5818 -0.3596
 2424SOL    HW118731   2.391   0.959   6.939  2.8006  0.2296  1.2516
 2424SOL    HW218732   2.343   1.058   7.046  0.7938 -0.5956 -0.3270
 2425SOL     OW18733   0.092   0.345   4.895  0.0944  0.5081 -0.2682
 2425SOL    HW118734   0.005   0.383   4.905  0.4364  0.6154  2.1633
 2425SOL    HW218735   0.129   0.372   4.979  0.3319  2.0037 -0.8592
 2426SOL     OW18736   3.404   2.909   5.828 -0.5715  0.3558  0.4564
 2426SOL    HW118737   3.330   2.884   5.883  0.5058 -0.8628  1.3524
 2426SOL    HW218738   3.421   2.832   5.773 -1.4316  0.6309 -0.1953
 2427SOL     OW18739   1.441   2.771   5.661  0.2830 -0.5433  0.0904
 2427SOL    HW118740   1.414   2.683   5.634  2.6594 -2.0087  2.3757
 2427SOL    HW218741   1.520   2.772   5.607  0.2796  1.7407  0.1250
 2428SOL     OW18742   2.602   1.681  11.821  0.2795 -0.1170 -0.6375
 2428SOL    HW118743   2.580   1.762  11.774  4.9553  2.1734  1.1083
 2428SOL    HW218744   2.614   1.714  11.910  1.5997 -1.2831 -0.3736
 2429SOL     OW18745   2.785   1.444  11.782  0.6876 -0.0732 -0.1109
 2429SOL    HW118746   2.703   1.492  11.766  1.6423  0.4276 -3.5956
 2429SOL    HW218747   2.808   1.502  11.854 -1.8046  1.1390 -0.2762
 2430SOL     OW18748   3.715   2.089   8.556  0.1856  0.5783  0.5087
 2430SOL    HW118749   3.785   2.117   8.615  0.1664  1.6389  0.0301
 2430SOL    HW218750   3.768   2.080   8.477  1.0526  0.4345  1.1025
 2431SOL     OW18751   2.181   1.409   5.515 -0.1530  0.3448  0.2916
 2431SOL    HW118752   2.130   1.488   5.498  0.0874  0.7321  1.4037
 2431SOL    HW218753   2.115   1.341   5.527  0.2710 -0.2515 -0.6498
 2432SOL     OW18754   0.455   4.289   6.402 -0.2228  0.6476  0.4975
 2432SOL    HW118755   0.536   4.268   6.355  0.8092  0.6511  2.2762
 2432SOL    HW218756   0.438   4.380   6.376  0.4080  1.2893  2.3306
 2433SOL     OW18757   2.006   2.628  13.769 -0.6689 -0.1255 -0.0724
 2433SOL    HW118758   1.919   2.602  13.738 -1.0777 -0.2054  1.1527
 2433SOL    HW218759   2.024   2.697  13.705  1.9967  0.8494  1.7308
 2434SOL     OW18760   2.010   4.089   5.088  0.1087  0.1554  0.2199
 2434SOL    HW118761   2.051   4.165   5.047  0.9318 -0.8621 -0.8670
 2434SOL    HW218762   2.032   4.097   5.181 -0.5158 -0.4619  0.4204
 2435SOL     OW18763   1.200   1.375   3.694 -0.3094  0.2619 -0.9600
 2435SOL    HW118764   1.289   1.411   3.684 -0.1547  0.1515  0.0329
 2435SOL    HW218765   1.227   1.286   3.669  0.9914  0.1903  0.6774
 2436SOL     OW18766   0.811   3.306   3.561 -0.0797 -0.0116 -0.3291
 2436SOL    HW118767   0.744   3.373   3.577  0.1406 -0.8601  4.2306
 2436SOL    HW218768   0.851   3.340   3.481 -2.7223  0.5503 -1.4108
 2437SOL     OW18769   0.882   1.377   4.336 -0.7166 -0.2462 -0.3796
 2437SOL    HW118770   0.813   1.368   4.402 -0.1914  3.2667  0.6451
 2437SOL    HW218771   0.852   1.312   4.273 -1.3199 -0.7630  0.4337
 2438SOL     OW18772   1.506   1.384   7.785 -0.0324 -0.4146  0.5122
 2438SOL    HW118773   1.559   1.344   7.854  0.9262  0.7507  0.4409
 2438SOL    HW218774   1.426   1.399   7.836  0.4894 -0.7253  1.4241
 2439SOL     OW18775   3.639   3.265  15.113 -1.0203  0.2988 -0.0763
 2439SOL    HW118776   3.655   3.330  15.182  0.9271  0.8685 -1.0656
 2439SOL    HW218777   3.711   3.205  15.132 -0.6422  0.0808 -2.2153
 2440SOL     OW18778   0.728   3.101   7.269  0.4762 -0.3516 -0.5025
 2440SOL    HW118779   0.694   3.189   7.254  0.2694 -0.3066  0.2449
 2440SOL    HW218780   0.700   3.080   7.358  1.5859 -0.6174 -0.2211
 2441SOL     OW18781   1.704   1.473   9.274  0.6172 -0.0704  0.0290
 2441SOL    HW118782   1.670   1.562   9.270 -0.2290 -0.3276  1.9436
 2441SOL    HW218783   1.778   1.496   9.331 -0.3693  0.4444  1.0800
 2442SOL     OW18784   1.674   3.214  14.589 -0.3957 -0.1797  0.1242
 2442SOL    HW118785   1.630   3.232  14.506 -2.3590 -1.0507  0.9819
 2442SOL    HW218786   1.725   3.134  14.576 -1.3128 -0.8753  0.8453
 2443SOL     OW18787   3.906   0.299   4.147 -0.0793 -0.1692 -0.4062
 2443SOL    HW118788   3.954   0.223   4.178  0.0162  0.3231  0.6871
 2443SOL    HW218789   3.970   0.351   4.098 -0.5457 -0.1228 -0.9596
 2444SOL     OW18790   2.838   0.349   3.569 -0.0749 -0.0253  0.2242
 2444SOL    HW118791   2.798   0.424   3.522  0.3738  0.4097  0.5398
 2444SOL    HW218792   2.920   0.393   3.592 -1.8428  4.2280 -1.4214
 2445SOL     OW18793   4.024   4.543   6.251 -0.6552 -0.0817 -0.5250
 2445SOL    HW118794   4.049   4.510   6.338  1.5857  1.0293 -0.7486
 2445SOL    HW218795   3.929   4.530   6.263 -0.3030 -1.3392  0.9873
 2446SOL     OW18796   0.935   4.598   5.120 -0.2620 -0.2337 -0.3564
 2446SOL    HW118797   0.953   4.576   5.028 -0.8611 -0.4103 -0.4374
 2446SOL    HW218798   0.913   4.691   5.119 -0.2907 -0.2315  1.5018
 2447SOL     OW18799   3.520   4.359   9.344  0.0246  0.2056 -0.4951
 2447SOL    HW118800   3.554   4.388   9.260 -1.6949 -3.3327 -2.4102
 2447SOL    HW218801   3.460   4.293   9.308  0.2663  0.7196 -1.8427
 2448SOL     OW18802   4.393   1.122  17.285  0.1075  0.2645 -0.0964
 2448SOL    HW118803   4.317   1.160  17.241  0.2660  0.2056 -0.4221
 2448SOL    HW218804   4.447   1.197  17.258  0.6179  0.5179  1.6418
 2449SOL     OW18805   3.683   3.909  12.881  0.0284  0.0402  0.4594
 2449SOL    HW118806   3.766   3.951  12.902  0.9420 -2.0077  0.9082
 2449SOL    HW218807   3.646   3.973  12.821  0.8656 -0.5674 -0.6950
 2450SOL     OW18808   0.681   2.259  10.574  0.3805 -0.0110  0.0468
 2450SOL    HW118809   0.614   2.325  10.592  0.2340 -0.7725  2.2866
 2450SOL    HW218810   0.758   2.304  10.541 -0.1019 -0.8019 -2.1741
 2451SOL     OW18811   1.580   4.347  17.381 -0.6581 -0.1110 -0.6936
 2451SOL    HW118812   1.654   4.296  17.347 -1.2542 -0.6297 -1.2065
 2451SOL    HW218813   1.545   4.302  17.458 -0.5371  0.6639 -0.1887
 2452SOL     OW18814   0.789   1.075   7.434 -0.1762 -0.1206 -0.2428
 2452SOL    HW118815   0.841   1.144   7.393  0.2769 -1.0501 -1.2343
 2452SOL    HW218816   0.834   0.996   7.405 -0.1988 -1.0030  2.1676
 2453SOL     OW18817   1.647   1.445   3.407 -0.2890  0.1240 -0.7649
 2453SOL    HW118818   1.643   1.351   3.427 -2.8017  0.4873  0.4354
 2453SOL    HW218819   1.555   1.468   3.419 -0.5152 -1.7829  1.3360
 2454SOL     OW18820   4.527   0.147   8.434 -0.5292  0.2348  0.3857
 2454SOL    HW118821   4.586   0.205   8.483  0.6968 -0.1380 -0.6784
 2454SOL    HW218822   4.548   0.065   8.478 -0.8162  0.9369  1.8607
 2455SOL     OW18823   3.039   3.916   9.138  0.7783 -0.1263 -0.2936
 2455SOL    HW118824   3.060   3.874   9.222  1.5932  0.3156 -0.2841
 2455SOL    HW218825   3.005   3.999   9.172  1.1338 -0.5945  1.1928
 2456SOL     OW18826   1.479   1.007  11.226  0.3489 -0.3220  0.1037
 2456SOL    HW118827   1.560   1.041  11.186  0.4113  1.4800  1.7486
 2456SOL    HW218828   1.488   1.031  11.318 -1.7838  3.3463 -0.6217
 2457SOL     OW18829   3.552   4.496   6.280  0.0479 -0.6456 -0.5028
 2457SOL    HW118830   3.461   4.514   6.258 -0.8582 -0.9663  3.0002
 2457SOL    HW218831   3.581   4.500   6.189 -1.1776  0.6178 -0.8211
 2458SOL     OW18832   2.829   0.770  14.624 -0.4882  0.3040  0.5806
 2458SOL    HW118833   2.763   0.771  14.693 -0.3354  1.1755  0.7118
 2458SOL    HW218834   2.776   0.731  14.555 -0.7861 -1.7016  1.9174
 2459SOL     OW18835   3.886   1.070   0.175 -0.2134  0.5562 -0.2652
 2459SOL    HW118836   3.970   1.034   0.147 -0.7327 -0.5018 -0.4636
 2459SOL    HW218837   3.918   1.145   0.225 -1.4536 -0.5029  2.0900
 2460SOL     OW18838   2.122   3.290   1.650 -0.0801  0.2669  0.0061
 2460SOL    HW118839   2.201   3.237   1.649 -0.4141 -0.2760  1.3468
 2460SOL    HW218840   2.110   3.311   1.558 -0.3193  0.3160  0.0469
 2461SOL     OW18841   1.415   0.905  16.739  0.5662  0.1416 -0.0667
 2461SOL    HW118842   1.370   0.929  16.820 -0.6333 -0.2506 -0.6073
 2461SOL    HW218843   1.362   0.952  16.674  1.6445  0.6368 -0.5751
 2462SOL     OW18844   1.233   2.845   8.654  0.7065 -0.5155  0.2062
 2462SOL    HW118845   1.309   2.858   8.711  1.5550  0.1330 -1.0610
 2462SOL    HW218846   1.268   2.774   8.600 -0.0748 -0.0696 -0.8825
 2463SOL     OW18847   4.706   4.156   0.430  0.3740 -0.4296  0.3215
 2463SOL    HW118848   4.612   4.154   0.413  0.7333  1.8412 -1.8515
 2463SOL    HW218849   0.022   4.187   0.350  1.4922  0.5549  1.2788
 2464SOL     OW18850   3.577   4.161   1.894 -0.5722 -0.2462 -0.7493
 2464SOL    HW118851   3.630   4.231   1.858 -0.0489  0.1538  0.8087
 2464SOL    HW218852   3.563   4.178   1.987 -0.8831  1.1197 -1.0531
 2465SOL     OW18853   4.247   0.454   5.269 -0.1162  0.0430  0.4261
 2465SOL    HW118854   4.301   0.375   5.259 -0.0916 -0.0022  0.9338
 2465SOL    HW218855   4.318   0.518   5.271  0.0102 -0.1372  1.4335
 2466SOL     OW18856   1.507   1.856  12.596  0.3077 -0.3516  0.5930
 2466SOL    HW118857   1.577   1.919  12.612  0.0276  0.4706 -1.3539
 2466SOL    HW218858   1.493   1.812  12.680 -0.8839 -0.1830  0.4875
 2467SOL     OW18859   1.029   4.354   2.500 -0.0649 -0.0076 -0.4083
 2467SOL    HW118860   1.119   4.362   2.467  0.7381  0.6454  1.9074
 2467SOL    HW218861   1.026   4.258   2.503  1.7707 -0.1370 -2.4813
 2468SOL     OW18862   4.594   4.476  16.559 -0.6099  0.7320 -0.3893
 2468SOL    HW118863   4.619   4.386  16.578 -2.9176  0.4155  1.1614
 2468SOL    HW218864   4.560   4.466  16.470  0.2647  1.1121 -0.7655
 2469SOL     OW18865   0.462   3.892   6.886  0.2104 -0.1703  0.0572
 2469SOL    HW118866   0.432   3.882   6.795  2.5172 -0.1754 -0.7086
 2469SOL    HW218867   0.556   3.877   6.878  0.4932  1.3737  0.4275
 2470SOL     OW18868   0.637   4.681   0.511  0.2491  0.2598  0.2907
 2470SOL    HW118869   0.598   0.037   0.544 -0.3257  0.2898 -0.4345
 2470SOL    HW218870   0.682   4.715   0.433 -0.8970 -0.3866 -0.6554
 2471SOL     OW18871   2.801   3.575   3.078 -0.4413 -0.5000 -0.0055
 2471SOL    HW118872   2.864   3.513   3.042  2.4224  2.6643 -0.4129
 2471SOL    HW218873   2.814   3.561   3.172 -1.4540 -1.5019 -0.0105
 2472SOL     OW18874   3.189   3.710   4.616 -0.3896 -0.2310 -0.3416
 2472SOL    HW118875   3.205   3.774   4.685 -1.9839  0.9814 -1.0801
 2472SOL    HW218876   3.191   3.625   4.660 -4.6846  0.1303  0.5675
 2473SOL     OW18877   3.089   3.429   5.291  0.4905  0.3011  1.0744
 2473SOL    HW118878   3.108   3.456   5.202 -0.0113 -1.1076  0.5423
 2473SOL    HW218879   3.175   3.393   5.313  2.0637  0.9544 -4.0251
 2474SOL     OW18880   1.545   3.944   7.962  0.6440  0.0955  0.4441
 2474SOL    HW118881   1.630   3.961   8.002  1.1030 -2.1250  0.4223
 2474SOL    HW218882   1.492   3.891   8.023 -1.3998  1.8238  0.1762
 2475SOL     OW18883   3.215   4.008   9.342 -0.2374 -0.2134  0.1291
 2475SOL    HW118884   3.286   3.944   9.354 -0.1848 -0.7234 -2.9120
 2475SOL    HW218885   3.160   3.982   9.416  1.3954 -0.9777  1.0980
 2476SOL     OW18886   0.264   0.640   0.409 -0.8078  0.1013  0.3607
 2476SOL    HW118887   0.239   0.641   0.316  2.1923  0.1067 -0.4617
 2476SOL    HW218888   0.256   0.733   0.431 -1.1573  0.3356 -0.7373
 2477SOL     OW18889   2.194   1.161  14.536  0.4298 -0.3217  0.1424
 2477SOL    HW118890   2.110   1.187  14.574 -0.0939  1.3121 -2.1283
 2477SOL    HW218891   2.236   1.239  14.498  1.0091 -0.2505  0.9411
 2478SOL     OW18892   0.782   0.011   5.609  0.4884  0.2391  0.6664
 2478SOL    HW118893   0.706   0.012   5.551 -0.6387  1.0218  2.1313
 2478SOL    HW218894   0.847   0.057   5.557 -1.1411  1.0871 -0.6262
 2479SOL     OW18895   3.995   3.550   9.623  0.0586 -0.0867 -0.1879
 2479SOL    HW118896   3.931   3.558   9.553  0.9310 -0.6338 -1.0470
 2479SOL    HW218897   3.940   3.531   9.700 -0.2860  1.6940 -0.0021
 2480SOL     OW18898   1.900   2.408  12.457  0.7432  0.4823 -0.3156
 2480SOL    HW118899   1.984   2.367  12.436  1.1029  0.7684  0.5289
 2480SOL    HW218900   1.891   2.469  12.384 -0.6008 -0.9459 -1.3468
 2481SOL     OW18901   3.796   1.119  14.237 -0.2004 -0.0881  0.1385
 2481SOL    HW118902   3.753   1.073  14.310  1.3592 -0.7933  0.6102
 2481SOL    HW218903   3.805   1.046  14.175 -0.3278  1.8725 -2.1612
 2482SOL     OW18904   3.797   0.512   4.719  0.3693 -0.4782  0.1628
 2482SOL    HW118905   3.703   0.527   4.709  0.6852  0.6219 -1.2188
 2482SOL    HW218906   3.810   0.593   4.769  1.2438  0.2135 -1.1937
 2483SOL     OW18907   0.094   0.797   6.652  0.2033 -0.5742  0.0907
 2483SOL    HW118908   0.036   0.769   6.582  0.6229 -2.1766  0.3766
 2483SOL    HW218909   0.143   0.716   6.664  0.2684 -0.8066 -1.7566
 2484SOL     OW18910   3.164   3.141  11.868  0.1015  0.1825 -0.1059
 2484SOL    HW118911   3.115   3.145  11.786  0.9103  0.2596 -0.5812
 2484SOL    HW218912   3.127   3.215  11.916  2.6239 -0.8270  3.3821
 2485SOL     OW18913   4.416   4.634  17.437  0.3812 -0.4056  0.1095
 2485SOL    HW118914   4.502   4.630  17.394  0.3833  1.0916 -0.0155
 2485SOL    HW218915   4.399   4.545  17.467 -0.0007 -0.9634 -1.7331
 2486SOL     OW18916   1.685   1.582   8.121  0.0510  0.3757  0.2860
 2486SOL    HW118917   1.639   1.569   8.204 -0.8131  1.2327 -0.0593
 2486SOL    HW218918   1.610   1.576   8.061 -0.2890 -1.2438  0.8554
 2487SOL     OW18919   2.466   0.181   1.745 -0.4608 -0.7122  0.0199
 2487SOL    HW118920   2.447   0.179   1.651  0.0412  2.0201 -0.1317
 2487SOL    HW218921   2.507   0.267   1.754 -0.7129 -0.5158 -0.7246
 2488SOL     OW18922   2.826   3.532   7.581  1.1105 -0.7332 -0.3545
 2488SOL    HW118923   2.892   3.462   7.574  1.2138 -0.7362  0.7297
 2488SOL    HW218924   2.751   3.476   7.602 -0.0651  0.3940 -1.5195
 2489SOL     OW18925   4.163   4.441   2.139 -0.0725  0.1405 -0.5468
 2489SOL    HW118926   4.146   4.357   2.097  0.9306 -1.7033  2.7696
 2489SOL    HW218927   4.139   4.502   2.069  2.8790  0.6173 -1.1340
 2490SOL     OW18928   4.327   4.409   2.866 -0.3487 -0.2807 -0.0923
 2490SOL    HW118929   4.326   4.479   2.800  1.4423  0.1016  0.2981
 2490SOL    HW218930   4.261   4.345   2.839 -2.1600  2.4262 -2.0514
 2491SOL     OW18931   0.875   2.437  10.915  0.2259 -0.3880 -0.5632
 2491SOL    HW118932   0.814   2.363  10.915  0.5463 -0.6655  2.4447
 2491SOL    HW218933   0.863   2.470  11.004 -3.0906 -1.2617 -0.6621
 2492SOL     OW18934   0.049   1.105   0.088  0.0233 -0.4021 -0.3601
 2492SOL    HW118935   4.692   1.153   0.093 -0.7196 -1.5860 -1.3087
 2492SOL    HW218936   0.115   1.174   0.084 -2.4676  1.9680 -0.7958
 2493SOL     OW18937   4.475   3.745   7.042 -0.3866  0.6499 -0.0894
 2493SOL    HW118938   4.559   3.700   7.047 -0.3817  0.5841 -0.7265
 2493SOL    HW218939   4.417   3.692   7.097  2.3908 -1.2763  0.9980
 2494SOL     OW18940   4.544   0.105  10.131  0.6839 -0.0184 -0.2805
 2494SOL    HW118941   4.542   0.010  10.121  0.8211  0.0782 -1.1664
 2494SOL    HW218942   4.481   0.109  10.204  2.1314 -0.6965  1.0021
 2495SOL     OW18943   1.381   2.426   4.346  0.8228  0.1145  0.5369
 2495SOL    HW118944   1.331   2.355   4.387  0.0353  0.1548 -0.3573
 2495SOL    HW218945   1.356   2.403   4.256 -1.1666  1.7317  0.6756
 2496SOL     OW18946   3.792   3.469   6.584  0.2011 -0.4176 -0.3952
 2496SOL    HW118947   3.712   3.497   6.538 -0.5213  1.6679  2.1283
 2496SOL    HW218948   3.819   3.557   6.612  0.1945 -0.3423 -0.6211
 2497SOL     OW18949   2.777   2.176  16.649  0.3538  0.0916 -0.9528
 2497SOL    HW118950   2.746   2.223  16.726 -0.3811  0.6558 -1.5823
 2497SOL    HW218951   2.845   2.238  16.621 -0.4173  1.3971  0.0659
 2498SOL     OW18952   0.911   1.625   2.385  0.4260  0.1162 -0.1502
 2498SOL    HW118953   0.852   1.557   2.352 -1.3831  0.3439  2.6722
 2498SOL    HW218954   0.967   1.635   2.308  2.0610  2.8268  1.3942
 2499SOL     OW18955   0.415   4.692   4.992 -0.4886  0.2339  0.3059
 2499SOL    HW118956   0.372   4.614   5.028 -1.3272  0.7776  0.5139
 2499SOL    HW218957   0.337   0.014   4.961 -1.5273 -0.3267  2.0431
 2500SOL     OW18958   0.058   0.882   3.592 -0.5944 -0.6286  0.2163
 2500SOL    HW118959   0.122   0.940   3.634  0.5172 -0.9326 -1.0584
 2500SOL    HW218960   0.108   0.802   3.579 -1.0045 -0.8155 -0.2214
 2501SOL     OW18961   4.677   4.487   2.530  0.1743 -0.1671  0.6520
 2501SOL    HW118962   4.683   4.400   2.570  1.4973  0.1849  1.1976
 2501SOL    HW218963   4.583   4.491   2.512  0.0323 -4.0048  0.4801
 2502SOL     OW18964   2.160   1.308   4.562 -0.4797  0.2376  0.3536
 2502SOL    HW118965   2.180   1.280   4.472 -2.4896 -3.0741  0.9503
 2502SOL    HW218966   2.172   1.403   4.558 -1.1150  0.2471 -1.9200
 2503SOL     OW18967   1.859   3.393   7.157 -0.0757 -0.2131 -0.0758
 2503SOL    HW118968   1.828   3.481   7.178  2.6742  0.9231 -0.8117
 2503SOL    HW218969   1.922   3.402   7.087  1.1973  0.1886  1.1195
 2504SOL     OW18970   2.435   3.657   6.911  0.0978 -0.3159 -0.0790
 2504SOL    HW118971   2.483   3.576   6.927  1.0909  0.4902  1.0349
 2504SOL    HW218972   2.499   3.728   6.925 -0.9032  0.1631  1.9754
 2505SOL     OW18973   4.118   4.503   3.533 -0.3329 -0.1531  0.0072
 2505SOL    HW118974   4.091   4.580   3.483 -1.5517 -0.1791  0.6226
 2505SOL    HW218975   4.201   4.496   3.487 -0.2907  1.3732 -0.1258
 2506SOL     OW18976   3.667   2.136   7.593 -0.6432  0.1566 -0.2850
 2506SOL    HW118977   3.760   2.155   7.590 -0.9908  2.0889  1.4017
 2506SOL    HW218978   3.678   2.041   7.597  1.9331  0.4407 -1.1840
 2507SOL     OW18979   3.284   0.312   6.240 -0.2638  0.0919 -0.4985
 2507SOL    HW118980   3.253   0.310   6.149  0.8268  0.1705 -0.8641
 2507SOL    HW218981   3.201   0.340   6.279 -0.7107  1.3292 -2.3586
 2508SOL     OW18982   0.199   4.689   6.117  0.6794 -0.5121  0.2588
 2508SOL    HW118983   0.278   0.016   6.129 -0.6666  1.2299  1.5328
 2508SOL    HW218984   0.139   0.024   6.073 -0.9141 -2.1092  0.2455
 2509SOL     OW18985   2.029   2.853  10.976  0.8420 -0.4840  0.1070
 2509SOL    HW118986   2.104   2.895  11.017  0.9620 -1.8773  1.3419
 2509SOL    HW218987   2.028   2.770  11.025 -1.5890  0.1030  1.0702
 2510SOL     OW18988   1.163   1.017   8.042 -0.4372 -0.3036 -0.2943
 2510SOL    HW118989   1.199   0.957   8.108 -1.6210 -0.3743  0.2841
 2510SOL    HW218990   1.070   1.005   8.062 -0.3749 -1.1230 -0.5137
 2511SOL     OW18991   0.461   0.238   5.048  0.2470 -0.1856  0.4129
 2511SOL    HW118992   0.430   0.150   5.025  0.1184 -0.5553  1.9996
 2511SOL    HW218993   0.497   0.263   4.963  1.4390 -0.8953  0.7121
 2512SOL     OW18994   2.859   2.540  10.299 -0.3860 -0.3450  0.4050
 2512SOL    HW118995   2.914   2.590  10.358 -0.7493 -1.2606  1.5126
 2512SOL    HW218996   2.863   2.452  10.337 -1.5756  0.0727  1.5011
 2513SOL     OW18997   4.271   0.408  12.226 -0.5839 -0.0650  0.3973
 2513SOL    HW118998   4.321   0.330  12.203  1.1613  1.1025  0.2327
 2513SOL    HW218999   4.335   0.475  12.201 -0.7131 -0.0569  0.0893
 2514SOL     OW19000   4.450   3.643  16.157 -0.7024  0.0915  0.1539
 2514SOL    HW119001   4.457   3.722  16.104 -1.4896 -1.4176 -2.2070
 2514SOL    HW219002   4.400   3.667  16.235 -1.1281 -1.6451  0.4295
 2515SOL     OW19003   3.840   1.559  16.961  0.2907 -0.1291 -0.3321
 2515SOL    HW119004   3.801   1.631  16.911 -0.6003  0.4430  1.1797
 2515SOL    HW219005   3.877   1.610  17.033 -0.7699  1.2358 -0.7480
 2516SOL     OW19006   4.205   0.366   9.876  0.1365  0.6216  0.7335
 2516SOL    HW119007   4.123   0.355   9.924 -0.3269  1.3068  0.1010
 2516SOL    HW219008   4.235   0.282   9.911  0.8983  0.0160 -1.3923
 2517SOL     OW19009   2.168   0.019   3.740 -0.9349  0.1773  0.3412
 2517SOL    HW119010   2.148   4.681   3.671  0.8433 -0.1947  0.1879
 2517SOL    HW219011   2.252   4.712   3.769 -0.5247  0.1828 -0.8291
 2518SOL     OW19012   2.747   3.521   4.986  0.4885 -0.0764 -0.1250
 2518SOL    HW119013   2.695   3.514   5.066 -0.1365 -1.4953 -0.6519
 2518SOL    HW219014   2.774   3.612   4.980 -0.4920  0.2729  0.7581
 2519SOL     OW19015   1.388   1.639   6.391  0.2109 -0.3328  0.0244
 2519SOL    HW119016   1.386   1.727   6.352  0.5646  1.1328  3.2960
 2519SOL    HW219017   1.406   1.666   6.481 -2.7391 -0.5496  0.6582
 2520SOL     OW19018   0.077   4.605   2.127 -0.2488  0.4581 -0.1181
 2520SOL    HW119019   0.051   4.626   2.037 -0.2395 -0.3488 -0.3132
 2520SOL    HW219020   0.137   4.678   2.142  3.0083 -2.6975  2.0284
 2521SOL     OW19021   2.340   0.235   5.380 -0.2537 -0.0358 -0.4947
 2521SOL    HW119022   2.283   0.162   5.403 -0.9487  1.0652  1.3124
 2521SOL    HW219023   2.418   0.193   5.343 -1.8090 -3.0537 -0.2984
 2522SOL     OW19024   2.091   0.822   4.772 -0.0343  0.2667 -0.7047
 2522SOL    HW119025   2.089   0.917   4.761  1.2181  0.2416 -1.1454
 2522SOL    HW219026   2.171   0.798   4.726 -0.0153 -1.0191  0.0002
 2523SOL     OW19027   4.702   3.995   2.537 -0.2457  0.2906 -0.0477
 2523SOL    HW119028   4.608   3.977   2.537 -0.4542  1.4497 -1.7749
 2523SOL    HW219029   4.706   4.067   2.475  2.3300  0.7190  0.6146
 2524SOL     OW19030   3.205   2.397   4.118 -0.0276  0.4981 -0.0371
 2524SOL    HW119031   3.149   2.371   4.191  1.1950  2.5297  1.6180
 2524SOL    HW219032   3.136   2.416   4.055 -0.1586 -0.1752 -0.1034
 2525SOL     OW19033   1.105   0.354   6.884  0.1060  0.0677 -0.6249
 2525SOL    HW119034   1.150   0.382   6.804  0.4923  0.2727 -0.3326
 2525SOL    HW219035   1.058   0.437   6.898  2.1216  0.3566  4.1651
 2526SOL     OW19036   4.299   1.618  11.188  0.0312  0.4228  0.1910
 2526SOL    HW119037   4.216   1.666  11.187 -0.6251 -0.7266 -0.8181
 2526SOL    HW219038   4.315   1.635  11.095  0.8911  1.5933  0.5563
 2527SOL     OW19039   1.703   3.738  12.216 -0.0119 -0.2979 -0.1227
 2527SOL    HW119040   1.792   3.711  12.195 -0.2241 -1.2155  0.1553
 2527SOL    HW219041   1.714   3.813  12.275 -1.2341 -0.3665  0.1970
 2528SOL     OW19042   0.996   3.672   3.818 -0.0454  0.5341  0.0897
 2528SOL    HW119043   1.061   3.634   3.878 -0.9101  1.6095  1.7111
 2528SOL    HW219044   0.920   3.616   3.832  0.5036 -0.9730 -2.9987
 2529SOL     OW19045   2.601   1.956   3.569 -0.5295  0.4234  0.3981
 2529SOL    HW119046   2.695   1.935   3.563 -0.7023 -0.5796  1.1622
 2529SOL    HW219047   2.583   1.912   3.652 -0.8651 -0.4910 -0.1608
 2530SOL     OW19048   2.432   1.662   8.336 -0.3245  0.3990  0.3822
 2530SOL    HW119049   2.355   1.696   8.291 -1.7666 -0.1938  2.4211
 2530SOL    HW219050   2.483   1.741   8.319 -0.8024  0.1415 -2.2032
 2531SOL     OW19051   2.874   3.557   7.214  0.2805  0.1651 -0.1631
 2531SOL    HW119052   2.813   3.501   7.165 -0.4056 -1.5314  2.5534
 2531SOL    HW219053   2.814   3.615   7.261 -1.5597  0.1984 -2.5589
 2532SOL     OW19054   1.303   2.335   6.436  0.0869 -0.5017 -0.3231
 2532SOL    HW119055   1.397   2.344   6.450 -0.4264  1.0502  2.0257
 2532SOL    HW219056   1.276   2.426   6.443  0.6789 -0.1604 -2.2214
 2533SOL     OW19057   4.537   4.571   5.966 -0.4927  0.0331  0.0075
 2533SOL    HW119058   4.514   4.478   5.974  0.2788 -0.1584 -0.0214
 2533SOL    HW219059   4.598   4.571   6.040 -0.4892  0.6578  0.0022
 2534SOL     OW19060   0.835   3.426   3.885 -0.4149  0.1717  0.3541
 2534SOL    HW119061   0.794   3.343   3.910  1.6466 -0.4201  1.8340
 2534SOL    HW219062   0.814   3.480   3.962  1.3700 -1.5478  2.0504
 2535SOL     OW19063   1.589   3.006   6.588  0.1356  0.5324 -0.3342
 2535SOL    HW119064   1.602   2.929   6.533 -0.7528 -0.9301  1.5076
 2535SOL    HW219065   1.587   3.070   6.517  1.2774 -1.7069 -2.4035
 2536SOL     OW19066   1.295   1.546   5.596  0.1991  0.4659  0.4197
 2536SOL    HW119067   1.229   1.547   5.665  1.3349  0.5019  1.5058
 2536SOL    HW219068   1.271   1.612   5.531 -2.3777  0.0617  0.9707
 2537SOL     OW19069   3.332   2.397   9.127  0.4964 -0.5144  0.0685
 2537SOL    HW119070   3.383   2.478   9.119  0.8742 -0.7621 -0.0230
 2537SOL    HW219071   3.369   2.373   9.212  3.2750 -0.8033 -1.2152
 2538SOL     OW19072   0.682   3.219   3.941  0.2476 -0.2259  0.3059
 2538SOL    HW119073   0.734   3.155   3.892  0.5311  0.6432 -0.5131
 2538SOL    HW219074   0.597   3.212   3.896 -0.0176 -2.8090  1.1526
 2539SOL     OW19075   2.431   2.774   0.384  0.1006 -0.3809  0.3387
 2539SOL    HW119076   2.409   2.701   0.442  0.0383 -0.0187  0.7630
 2539SOL    HW219077   2.525   2.766   0.367  0.5325  0.1464  2.5269
 2540SOL     OW19078   0.443   2.656  15.143  0.5870 -0.2849 -0.2857
 2540SOL    HW119079   0.368   2.677  15.088  0.2522  1.4166  0.8156
 2540SOL    HW219080   0.511   2.716  15.112 -0.0397  0.5368 -0.0665
 2541SOL     OW19081   4.562   1.597   3.333  0.0097  0.0298  0.7282
 2541SOL    HW119082   4.628   1.663   3.353 -1.7605  1.2635  2.4626
 2541SOL    HW219083   4.621   1.531   3.296 -2.4064 -1.1832 -0.9289
 2542SOL     OW19084   3.027   3.681   8.286 -0.1449 -0.6376  0.0969
 2542SOL    HW119085   3.099   3.688   8.348  1.4753  1.8403 -2.1015
 2542SOL    HW219086   2.951   3.699   8.342  0.3805  2.9644 -0.4090
 2543SOL     OW19087   4.099   3.726   5.342  0.7029  0.5906  0.0422
 2543SOL    HW119088   4.145   3.669   5.281 -2.6112 -1.2870 -0.7248
 2543SOL    HW219089   4.031   3.762   5.285  2.6890 -1.0269 -3.3049
 2544SOL     OW19090   1.874   0.789   1.159 -0.4843 -0.2088 -0.3749
 2544SOL    HW119091   1.814   0.829   1.096 -1.4230 -0.1938  0.5079
 2544SOL    HW219092   1.948   0.850   1.160  1.1982 -2.2741  0.3029
 2545SOL     OW19093   1.380   0.333  15.034 -1.0852  0.2750  0.6606
 2545SOL    HW119094   1.350   0.276  14.963 -1.6159 -0.9650  1.8686
 2545SOL    HW219095   1.297   0.371  15.063 -1.0956  1.3266 -0.7745
 2546SOL     OW19096   3.594   2.729   6.711  0.4498  0.5348 -0.2640
 2546SOL    HW119097   3.620   2.812   6.672  1.3430  0.1991 -0.3685
 2546SOL    HW219098   3.667   2.670   6.693 -0.0617 -0.0977 -0.2555
 2547SOL     OW19099   2.788   3.233  11.829  0.3865 -0.6906  0.3751
 2547SOL    HW119100   2.808   3.190  11.912 -0.0131 -2.4897 -0.4592
 2547SOL    HW219101   2.857   3.200  11.771 -1.4487 -2.7358 -0.6502
 2548SOL     OW19102   2.539   2.132  15.080 -0.3375 -0.3475 -0.2513
 2548SOL    HW119103   2.613   2.191  15.074 -0.0685 -0.8237 -1.7154
 2548SOL    HW219104   2.469   2.188  15.048 -0.3363 -0.8487 -1.1303
 2549SOL     OW19105   0.697   2.409   4.234  0.7246  0.1212 -1.1157
 2549SOL    HW119106   0.772   2.423   4.291  0.7261 -2.5729 -0.4692
 2549SOL    HW219107   0.739   2.370   4.158  2.0803 -1.5360  0.4765
 2550SOL     OW19108   4.493   1.266   4.018 -0.2930  0.0720 -0.0086
 2550SOL    HW119109   4.410   1.253   4.064 -0.8297  0.3463 -0.8821
 2550SOL    HW219110   4.477   1.290   3.926 -3.7392 -0.8309  0.3750
 2551SOL     OW19111   1.888   2.372  15.755 -0.2014 -0.0225  0.0419
 2551SOL    HW119112   1.873   2.384  15.662 -0.8071 -0.4361  0.0903
 2551SOL    HW219113   1.799   2.373  15.791 -0.6130 -0.5667 -0.9750
 2552SOL     OW19114   3.720   2.840  13.304 -0.2516 -0.1117 -0.1002
 2552SOL    HW119115   3.778   2.825  13.229  2.1839  0.4697  1.6886
 2552SOL    HW219116   3.641   2.851  13.251 -0.6674 -0.8877  0.3611
 2553SOL     OW19117   2.331   4.221   4.711 -0.6726 -0.8304  0.1510
 2553SOL    HW119118   2.361   4.152   4.652  1.1160  0.6533 -0.6559
 2553SOL    HW219119   2.248   4.235   4.665 -0.3605  0.1236 -0.1073
 2554SOL     OW19120   2.867   2.121   8.093  0.1457  0.0419 -0.5998
 2554SOL    HW119121   2.934   2.148   8.155 -2.2564 -0.1181  2.0235
 2554SOL    HW219122   2.919   2.129   8.012  0.7427  0.0817 -0.2115
 2555SOL     OW19123   3.673   4.718   3.472  0.5345 -0.3641 -0.1592
 2555SOL    HW119124   3.741   0.059   3.457 -0.2453  0.6256  0.6873
 2555SOL    HW219125   3.718   4.637   3.450  0.9771 -0.0305 -0.4974
 2556SOL     OW19126   0.788   1.535  16.443  0.2824 -0.1005  0.2665
 2556SOL    HW119127   0.748   1.529  16.356 -0.8119  2.1838  0.6004
 2556SOL    HW219128   0.755   1.622  16.464  0.1449  0.4999 -2.4286
 2557SOL     OW19129   3.044   2.043   3.395 -0.2683  0.6212  0.4799
 2557SOL    HW119130   2.965   2.040   3.341  0.7726 -0.3782 -0.9918
 2557SOL    HW219131   3.086   1.959   3.375  0.2902  0.9908  0.1006
 2558SOL     OW19132   2.532   2.227  12.786 -0.2144 -0.4858  0.3221
 2558SOL    HW119133   2.544   2.172  12.864 -1.5407  1.0170  1.5892
 2558SOL    HW219134   2.618   2.256  12.755 -0.6616  1.7814  1.1664
 2559SOL     OW19135   2.911   1.176   2.705  0.3835  0.0929 -0.4748
 2559SOL    HW119136   2.831   1.193   2.756  1.2021  2.1733  0.1289
 2559SOL    HW219137   2.960   1.129   2.772 -1.0147 -0.8668 -0.1310
 2560SOL     OW19138   2.634   4.166   6.643 -0.4296  0.6254  0.0784
 2560SOL    HW119139   2.619   4.071   6.640  0.0842  0.5211  0.7748
 2560SOL    HW219140   2.582   4.198   6.570  0.4866 -0.5135 -1.0716
 2561SOL     OW19141   3.322   0.557   5.861  0.1065 -0.0595 -0.0768
 2561SOL    HW119142   3.304   0.466   5.840 -1.4985  0.2086  0.1282
 2561SOL    HW219143   3.375   0.552   5.940 -0.0039 -1.1980 -0.0734
 2562SOL     OW19144   0.579   2.246   8.552 -0.3770  0.0216 -0.7459
 2562SOL    HW119145   0.621   2.206   8.628  0.2924 -1.5427 -1.9571
 2562SOL    HW219146   0.495   2.200   8.551 -1.5475  2.2196 -3.9083
 2563SOL     OW19147   4.327   4.024   7.215 -0.3900  0.3500 -0.7590
 2563SOL    HW119148   4.280   4.108   7.211 -0.3330  0.4907  1.2873
 2563SOL    HW219149   4.274   3.960   7.168  2.2256 -0.4041 -2.6695
 2564SOL     OW19150   2.053   4.342   1.862 -0.0270 -0.0972  0.2972
 2564SOL    HW119151   2.078   4.290   1.938  0.4477 -0.3948 -0.0641
 2564SOL    HW219152   2.136   4.355   1.817  1.1410 -1.4438  2.0617
 2565SOL     OW19153   4.312   0.253   0.133 -0.3296 -0.0838 -0.2984
 2565SOL    HW119154   4.375   0.198   0.180 -0.6884  1.1722  1.6640
 2565SOL    HW219155   4.331   0.217   0.046 -0.0074 -2.3777  0.7114
 2566SOL     OW19156   2.329   4.026   4.954  0.3821  0.5879 -0.3346
 2566SOL    HW119157   2.317   3.984   5.040 -0.7132  0.0770 -0.7376
 2566SOL    HW219158   2.244   4.070   4.946  0.4766  0.6879 -0.7869
 2567SOL     OW19159   2.818   4.304   6.089  0.0071  0.0486 -0.1913
 2567SOL    HW119160   2.907   4.334   6.107  0.4909 -0.5740 -1.4864
 2567SOL    HW219161   2.794   4.274   6.176  0.8545 -0.6323 -0.1881
 2568SOL     OW19162   2.180   1.972   3.116  0.5992 -0.3929 -0.1307
 2568SOL    HW119163   2.213   1.964   3.205  1.3948 -1.1785 -0.4952
 2568SOL    HW219164   2.103   1.915   3.116 -0.1879  0.6673  0.0889
 2569SOL     OW19165   3.129   4.415   7.799 -0.1570  0.6991 -0.3960
 2569SOL    HW119166   3.133   4.328   7.761  1.1326  2.1807 -3.6208
 2569SOL    HW219167   3.208   4.417   7.854 -1.2778  0.7965  1.2119
 2570SOL     OW19168   0.226   3.029  16.695  0.3719 -0.2240  0.2948
 2570SOL    HW119169   0.194   3.112  16.658 -0.9809 -1.3200 -1.0052
 2570SOL    HW219170   0.193   3.036  16.785 -0.2338 -2.0246  0.2122
 2571SOL     OW19171   1.340   0.272  14.421 -0.2071 -0.4350  0.0612
 2571SOL    HW119172   1.381   0.339  14.366  0.4900 -0.7399  0.2039
 2571SOL    HW219173   1.409   0.205  14.416  1.0858  0.7357  2.2461
 2572SOL     OW19174   0.785   3.347  15.844  0.1950 -0.8772 -0.1371
 2572SOL    HW119175   0.835   3.267  15.860 -0.6275 -0.9706  2.0290
 2572SOL    HW219176   0.857   3.408  15.829  0.1991 -1.1019 -1.0532
 2573SOL     OW19177   2.591   2.851   2.705 -0.3965 -0.4315 -0.1739
 2573SOL    HW119178   2.612   2.944   2.696  2.2290 -1.2001 -2.1813
 2573SOL    HW219179   2.504   2.857   2.744 -0.0937 -1.3288  0.6451
 2574SOL     OW19180   3.024   2.614   4.925 -0.5954 -0.4513  0.3154
 2574SOL    HW119181   3.112   2.651   4.934 -0.6547  0.3149 -2.0859
 2574SOL    HW219182   2.984   2.681   4.869 -0.1955 -0.0233  0.5403
 2575SOL     OW19183   1.202   4.685  10.687  0.2546  0.3752  0.4855
 2575SOL    HW119184   1.217   4.715  10.777  0.0688 -1.4530  1.1182
 2575SOL    HW219185   1.208   4.592  10.707  1.7665  0.4869  0.5061
 2576SOL     OW19186   1.915   0.018   5.291  0.5389  0.3424  0.1626
 2576SOL    HW119187   1.875   4.681   5.230  0.9924  1.5320 -1.3600
 2576SOL    HW219188   2.002   0.035   5.256 -0.3826  3.3567 -0.6006
 2577SOL     OW19189   1.650   0.968  12.400  0.2393 -0.2553  0.4116
 2577SOL    HW119190   1.724   0.973  12.339  0.6212  2.1971  1.0813
 2577SOL    HW219191   1.656   1.056  12.436  1.9051  0.9140 -2.6645
 2578SOL     OW19192   2.197   4.254   4.277  0.1106  0.4113 -0.1715
 2578SOL    HW119193   2.176   4.268   4.370 -1.8708  4.5544 -1.2452
 2578SOL    HW219194   2.231   4.343   4.265  1.5177 -0.2183 -0.9187
 2579SOL     OW19195   0.219   1.648   1.743 -0.4614  0.4960 -0.0600
 2579SOL    HW119196   0.286   1.676   1.680 -0.6511 -1.1971 -0.9996
 2579SOL    HW219197   0.145   1.703   1.715  0.2468  0.8123 -1.3503
 2580SOL     OW19198   3.325   0.958  10.572 -0.1465 -0.4602  0.2448
 2580SOL    HW119199   3.255   1.024  10.568 -1.4116 -1.8080  0.3809
 2580SOL    HW219200   3.343   0.967  10.666  0.2702 -0.3626  0.1544
 2581SOL     OW19201   3.016   1.030   2.892 -0.1536  0.6167  0.6082
 2581SOL    HW119202   3.023   1.037   2.987 -0.9579  1.5601  0.5918
 2581SOL    HW219203   3.103   0.995   2.871  0.1919  1.5197  0.5103
 2582SOL     OW19204   0.576   1.541   1.575 -0.0079  0.4675 -0.6429
 2582SOL    HW119205   0.667   1.555   1.600 -0.6066  2.3448  0.5213
 2582SOL    HW219206   0.563   1.448   1.559 -2.1334  0.4860  0.8278
 2583SOL     OW19207   1.317   3.956  10.137 -0.5108 -0.0924 -0.3420
 2583SOL    HW119208   1.250   4.022  10.118 -0.4441 -0.0004 -0.2544
 2583SOL    HW219209   1.316   3.950  10.233 -1.8784  0.8755 -0.2860
 2584SOL     OW19210   0.105   0.514   9.978  0.2823  0.3308  0.6694
 2584SOL    HW119211   0.040   0.456  10.017  2.0729 -1.6410  0.6843
 2584SOL    HW219212   0.046   0.574   9.931  0.1139  0.1977  0.7106
 2585SOL     OW19213   2.474   4.559   5.544 -0.6840 -0.0433  0.0002
 2585SOL    HW119214   2.520   4.480   5.515  0.7259  0.4928  0.7855
 2585SOL    HW219215   2.411   4.571   5.473  1.1231  2.3176 -1.2070
 2586SOL     OW19216   0.278   3.817  15.892 -0.4755  0.1318  0.1380
 2586SOL    HW119217   0.240   3.887  15.945 -2.0097  1.1991 -2.3875
 2586SOL    HW219218   0.346   3.866  15.846 -0.2461 -0.4648 -0.1725
 2587SOL     OW19219   0.596   3.132  14.723 -0.3301  0.2197  0.1948
 2587SOL    HW119220   0.653   3.187  14.777 -1.2289  1.9388 -0.6334
 2587SOL    HW219221   0.574   3.191  14.651 -2.2753 -1.0143 -0.2321
 2588SOL     OW19222   1.436   0.468   5.715  0.4060  0.1578 -0.2011
 2588SOL    HW119223   1.370   0.475   5.785 -1.1708  0.5907 -1.7210
 2588SOL    HW219224   1.394   0.534   5.660  1.7374 -0.2718 -1.7312
 2589SOL     OW19225   0.758   3.507   3.181 -0.3719 -0.0858 -0.1014
 2589SOL    HW119226   0.776   3.565   3.106 -2.2030 -0.0155 -0.4710
 2589SOL    HW219227   0.731   3.573   3.244 -0.0953 -0.9478  0.9268
 2590SOL     OW19228   0.800   1.991   6.269  0.0324 -0.2276 -0.6299
 2590SOL    HW119229   0.750   1.948   6.338 -0.3709  0.7203 -0.3252
 2590SOL    HW219230   0.893   1.974   6.287 -0.2506  0.1099  1.1987
 2591SOL     OW19231   2.616   1.201   4.842  0.1078 -0.6150  0.3407
 2591SOL    HW119232   2.635   1.168   4.930 -1.4247 -1.4898  0.3480
 2591SOL    HW219233   2.553   1.135   4.815  0.3018 -0.0728 -1.4576
 2592SOL     OW19234   1.823   4.530   5.747  0.1559 -0.0949  0.6489
 2592SOL    HW119235   1.828   4.470   5.821  1.8418 -0.8472 -0.0944
 2592SOL    HW219236   1.861   4.613   5.776 -0.4953  0.5060 -0.2171
 2593SOL     OW19237   3.266   3.910   9.949 -0.0307  0.0882  0.1528
 2593SOL    HW119238   3.254   3.995   9.905 -0.3738 -0.6286 -1.1278
 2593SOL    HW219239   3.359   3.918   9.970 -0.7493  1.2110  3.0234
 2594SOL     OW19240   0.566   3.895  14.965 -0.4714 -0.9431  0.1847
 2594SOL    HW119241   0.611   3.905  14.881 -3.2654 -0.1467 -1.1967
 2594SOL    HW219242   0.473   3.915  14.960 -0.4632 -1.1657 -0.8853
 2595SOL     OW19243   2.893   1.279  17.585 -0.1126 -0.2145 -0.0620
 2595SOL    HW119244   2.927   1.349  17.641  0.7378 -0.0395 -0.7956
 2595SOL    HW219245   2.880   1.339  17.511 -1.0863 -0.4040 -0.0485
 2596SOL     OW19246   4.654   0.975  17.494  0.0282  0.0801 -0.1773
 2596SOL    HW119247   4.606   0.945  17.417 -0.6689  2.3882 -0.6314
 2596SOL    HW219248   4.586   0.974  17.560  0.0437 -1.8993 -0.1978
 2597SOL     OW19249   4.044   2.137  10.443 -0.8986  0.5247  0.1311
 2597SOL    HW119250   4.037   2.074  10.514 -0.1579  0.3251  0.0293
 2597SOL    HW219251   4.131   2.167  10.468 -0.1243  0.5996 -2.5708
 2598SOL     OW19252   3.923   0.843   6.068 -0.0009 -0.8249  0.2645
 2598SOL    HW119253   3.953   0.929   6.039 -1.9424 -0.0195  0.5935
 2598SOL    HW219254   3.828   0.846   6.061  0.1109  0.6380 -0.5682
 2599SOL     OW19255   2.889   4.119  12.213 -0.0465  0.1491 -0.4064
 2599SOL    HW119256   2.802   4.133  12.176  0.1148  1.7505 -0.1926
 2599SOL    HW219257   2.859   4.097  12.301  0.8857 -0.0313 -0.1374
 2600SOL     OW19258   3.301   1.529   6.135 -0.3259  0.6284  0.4718
 2600SOL    HW119259   3.233   1.489   6.082  0.2835  0.0937  0.0875
 2600SOL    HW219260   3.321   1.459   6.198  0.7866 -0.3858 -1.0213
 2601SOL     OW19261   3.614   3.919   1.773  0.0208 -0.0506 -0.2804
 2601SOL    HW119262   3.622   4.001   1.821 -1.3155  0.5709 -1.0977
 2601SOL    HW219263   3.531   3.936   1.726 -0.5308  0.8534  1.0150
 2602SOL     OW19264   2.678   4.094   3.541  0.3955  0.4495 -0.0764
 2602SOL    HW119265   2.673   4.173   3.487 -3.4858  0.0373 -0.3243
 2602SOL    HW219266   2.618   4.112   3.613 -0.6158  1.7634 -1.2360
 2603SOL     OW19267   1.899   2.041   7.366  0.0751 -0.5864  0.0683
 2603SOL    HW119268   1.970   2.021   7.305 -0.3137 -0.3164 -0.4716
 2603SOL    HW219269   1.842   2.086   7.303 -0.0411  0.1650  0.7084
 2604SOL     OW19270   3.664   3.690   3.338  0.6221  0.5039 -0.5206
 2604SOL    HW119271   3.628   3.621   3.281  2.0385 -1.3525  0.8299
 2604SOL    HW219272   3.681   3.755   3.270  4.2335 -1.3038 -1.3754
 2605SOL     OW19273   0.547   3.427   1.964  0.2737  0.1863 -0.7468
 2605SOL    HW119274   0.502   3.464   1.888  0.2861  2.7209  0.4734
 2605SOL    HW219275   0.486   3.369   2.008 -0.7018  0.2002 -2.0979
 2606SOL     OW19276   0.623   4.044  16.083 -0.5713  0.4271  0.2877
 2606SOL    HW119277   0.597   3.999  16.002  1.0706  1.4851 -0.8360
 2606SOL    HW219278   0.541   4.075  16.120 -1.0013  0.4654 -0.6845
 2607SOL     OW19279   1.345   0.724   2.507  0.1875 -0.1967  0.1320
 2607SOL    HW119280   1.329   0.686   2.421  0.1841 -0.7851  0.3961
 2607SOL    HW219281   1.303   0.810   2.504 -0.5955 -0.5132  2.2315
 2608SOL     OW19282   0.369   2.676   7.854 -0.0449 -0.4992 -0.2688
 2608SOL    HW119283   0.427   2.688   7.929  3.0926 -1.2036 -2.6021
 2608SOL    HW219284   0.294   2.733   7.874  0.8355  0.8457 -0.8505
 2609SOL     OW19285   2.463   3.022  10.995  0.2595 -0.5449  0.4401
 2609SOL    HW119286   2.485   2.960  10.926 -0.5407 -1.0825  0.6761
 2609SOL    HW219287   2.547   3.069  10.994  1.1168 -2.0821  0.1016
 2610SOL     OW19288   3.738   3.396  14.447 -0.0483 -0.0523 -0.1786
 2610SOL    HW119289   3.781   3.463  14.394 -2.0266  2.1125  0.9856
 2610SOL    HW219290   3.666   3.448  14.481  2.3719  3.4119 -0.3730
 2611SOL     OW19291   3.670   3.953   6.822  0.5070 -0.1798  0.4222
 2611SOL    HW119292   3.607   3.930   6.754  0.0303  1.8027  0.2012
 2611SOL    HW219293   3.653   4.047   6.817 -1.5223 -0.6206 -0.7361
 2612SOL     OW19294   4.469   3.188   8.239  0.4994  0.0304  0.2776
 2612SOL    HW119295   4.556   3.221   8.262  1.1804 -0.9313 -0.8984
 2612SOL    HW219296   4.452   3.141   8.321 -0.4217  0.0952  0.1229
 2613SOL     OW19297   1.472   1.649  14.959 -0.4809  0.3495 -0.8413
 2613SOL    HW119298   1.438   1.708  14.891 -2.4177  0.7102  0.4500
 2613SOL    HW219299   1.413   1.574  14.954 -0.2202  0.0358  0.8181
 2614SOL     OW19300   4.198   1.087  10.903  0.1108 -0.3390 -0.2012
 2614SOL    HW119301   4.185   1.061  10.812 -0.7755  0.2167 -0.2365
 2614SOL    HW219302   4.293   1.075  10.906  0.1698 -0.3101 -2.0743
 2615SOL     OW19303   4.037   4.451   4.405  1.1587  0.1271 -0.2344
 2615SOL    HW119304   3.947   4.477   4.426  1.3390 -0.4391  1.2762
 2615SOL    HW219305   4.026   4.359   4.431 -0.5969  0.3262 -0.2184
 2616SOL     OW19306   0.205   2.185   6.906  0.3949 -0.6270  0.2132
 2616SOL    HW119307   0.171   2.130   6.976 -1.6302  0.9904  0.4916
 2616SOL    HW219308   0.174   2.135   6.830 -2.5550  1.0992  0.2762
 2617SOL     OW19309   4.204   2.033  12.064  0.3898  0.0563  0.1822
 2617SOL    HW119310   4.281   2.072  12.024  0.8671  0.5965  1.6171
 2617SOL    HW219311   4.139   2.103  12.065  0.5819  0.2358 -0.6580
 2618SOL     OW19312   0.281   1.642  14.670 -0.2314 -0.1069  0.7169
 2618SOL    HW119313   0.263   1.553  14.700 -1.0498  0.2701  1.3398
 2618SOL    HW219314   0.376   1.632  14.676 -0.3800 -0.7931  1.9282
 2619SOL     OW19315   3.809   3.241   6.087 -0.1303 -0.4174  0.1117
 2619SOL    HW119316   3.821   3.281   6.173 -0.5189 -1.9944  0.8949
 2619SOL    HW219317   3.897   3.237   6.048  0.2350  3.8206  0.4969
 2620SOL     OW19318   4.694   3.626   8.605  0.4060  0.8221  0.2376
 2620SOL    HW119319   0.046   3.583   8.642  0.6852  1.5446  0.4930
 2620SOL    HW219320   4.633   3.623   8.678 -0.2428 -0.0559 -0.3437
 2621SOL     OW19321   0.988   2.719   3.607  0.9083 -0.9511 -0.0691
 2621SOL    HW119322   0.945   2.757   3.684  1.1774 -1.5259  0.3632
 2621SOL    HW219323   1.007   2.807   3.575  0.9126 -1.2368 -0.8537
 2622SOL     OW19324   1.357   0.071   4.635  0.1727 -0.0453  0.4649
 2622SOL    HW119325   1.418   0.107   4.570 -0.5560  2.7613  1.3238
 2622SOL    HW219326   1.274   0.090   4.593  1.0153 -0.3538 -1.3285
 2623SOL     OW19327   2.343   3.706   6.643 -0.1724 -0.1019  0.9580
 2623SOL    HW119328   2.352   3.706   6.738 -0.0772 -1.7760  0.9497
 2623SOL    HW219329   2.382   3.622   6.620 -1.4996  0.0099 -1.7769
 2624SOL     OW19330   2.261   0.873   6.547  0.1231 -0.4496  0.1128
 2624SOL    HW119331   2.252   0.840   6.637  1.8496  1.2744  0.9023
 2624SOL    HW219332   2.277   0.783   6.517  1.9650 -0.3208  0.7096
 2625SOL     OW19333   1.233   1.494   7.351 -0.3808 -0.1698  0.1067
 2625SOL    HW119334   1.228   1.566   7.414 -0.3799 -0.6050  0.6110
 2625SOL    HW219335   1.326   1.469   7.353  0.3546  2.3185 -3.6040
 2626SOL     OW19336   3.706   3.074   9.593  0.1195  0.3375  0.6491
 2626SOL    HW119337   3.697   2.979   9.584  0.9283  0.3380 -0.1587
 2626SOL    HW219338   3.780   3.065   9.654  0.0245  0.3811  0.7699
 2627SOL     OW19339   2.933   0.404  15.071 -0.0102 -0.4158 -0.2379
 2627SOL    HW119340   2.908   0.475  15.130 -0.1155 -0.1100 -0.6523
 2627SOL    HW219341   2.891   0.332  15.117 -0.3354 -0.5695 -0.7777
 2628SOL     OW19342   1.664   2.026   9.588 -0.3526 -0.2486  0.1646
 2628SOL    HW119343   1.758   2.029   9.573 -0.0365  1.8784  2.7398
 2628SOL    HW219344   1.636   1.940   9.556  1.0340 -1.4747  2.3114
 2629SOL     OW19345   2.397   2.652  16.179 -0.1669 -0.3014  0.0398
 2629SOL    HW119346   2.387   2.580  16.117 -0.6316 -0.9693  0.8883
 2629SOL    HW219347   2.373   2.612  16.263  0.0965  1.8689  1.1478
 2630SOL     OW19348   3.218   2.619   9.661 -0.4417 -0.0454 -0.3203
 2630SOL    HW119349   3.298   2.652   9.703  0.1929 -0.1681 -1.4402
 2630SOL    HW219350   3.209   2.527   9.684 -1.0650  0.3032  0.8362
 2631SOL     OW19351   2.183   0.286   6.348 -0.6093  0.5434 -0.0225
 2631SOL    HW119352   2.126   0.361   6.362 -2.2963 -1.2433  2.6325
 2631SOL    HW219353   2.125   0.212   6.331 -2.1729  1.5340  1.0236
 2632SOL     OW19354   1.891   4.109   9.252 -0.0690 -0.8422 -0.2703
 2632SOL    HW119355   1.906   4.017   9.273 -3.3085 -1.2265  0.3813
 2632SOL    HW219356   1.844   4.097   9.170 -0.4853 -1.0778  0.0039
 2633SOL     OW19357   3.535   2.932   5.382 -0.3749 -0.0572  0.8847
 2633SOL    HW119358   3.444   2.903   5.386 -0.0409 -1.1920  0.4487
 2633SOL    HW219359   3.583   2.857   5.347  0.8545  1.4521 -0.6227
 2634SOL     OW19360   1.819   4.047   8.282 -0.3707 -0.5826  0.3363
 2634SOL    HW119361   1.815   4.012   8.192  0.2677  0.6849 -0.1870
 2634SOL    HW219362   1.912   4.069   8.285 -0.4151 -0.1432 -1.4797
 2635SOL     OW19363   3.449   0.147   5.332 -0.0292 -0.4518 -0.2773
 2635SOL    HW119364   3.353   0.145   5.328 -0.0800  0.7082  0.5507
 2635SOL    HW219365   3.456   0.114   5.422  0.0038  0.3914  0.0262
 2636SOL     OW19366   4.626   2.221   9.293 -0.3849 -0.0749  0.0688
 2636SOL    HW119367   4.613   2.204   9.386 -0.4170 -1.0143 -0.1102
 2636SOL    HW219368   4.541   2.260   9.274 -0.8741 -1.0855  0.1682
 2637SOL     OW19369   2.932   4.707   8.831 -0.1289  0.1548  0.0872
 2637SOL    HW119370   2.937   4.700   8.926 -1.5952  0.0221  0.1599
 2637SOL    HW219371   2.840   0.006   8.822 -0.1568  0.9886  2.9511
 2638SOL     OW19372   0.851   0.804   5.675  0.3118  0.2249  0.0925
 2638SOL    HW119373   0.863   0.897   5.662  2.2401 -0.1952 -1.0338
 2638SOL    HW219374   0.833   0.779   5.584 -0.3769 -0.8018  0.5059
 2639SOL     OW19375   2.327   3.952   3.905 -0.4748  0.2221  0.6483
 2639SOL    HW119376   2.236   3.966   3.877 -0.5196  1.4488  1.4025
 2639SOL    HW219377   2.351   3.891   3.836 -2.8546  0.5141 -0.4499
 2640SOL     OW19378   3.669   1.134   8.569  0.0629 -0.2135  0.5837
 2640SOL    HW119379   3.678   1.051   8.616 -1.2716 -0.7819 -0.1730
 2640SOL    HW219380   3.743   1.128   8.508  0.2376  0.7135  0.6966
 2641SOL     OW19381   1.545   0.523   3.491 -0.1969  0.1513 -0.0030
 2641SOL    HW119382   1.475   0.458   3.495 -0.6157  0.5152 -1.1910
 2641SOL    HW219383   1.588   0.505   3.574 -3.4091 -1.6970  1.2638
 2642SOL     OW19384   1.034   0.605  12.525 -0.2212  0.2910 -0.1626
 2642SOL    HW119385   0.995   0.692  12.531  0.6380  0.6162  0.7544
 2642SOL    HW219386   0.953   0.555  12.523  1.3013 -2.2976  2.4134
 2643SOL     OW19387   3.269   3.203   6.362  0.3300  0.2358 -0.2968
 2643SOL    HW119388   3.278   3.134   6.428  1.1933  0.6293  0.0085
 2643SOL    HW219389   3.333   3.182   6.294 -1.1776 -0.8250 -1.3693
 2644SOL     OW19390   3.465   0.032  15.812  0.2713  0.4619  0.8522
 2644SOL    HW119391   3.421   4.673  15.804 -0.4162  0.9146 -0.0848
 2644SOL    HW219392   3.525   0.027  15.737  0.6648 -1.8862  1.3157
 2645SOL     OW19393   0.275   3.106   7.918 -0.2697 -0.0335  0.1356
 2645SOL    HW119394   0.260   3.127   8.010 -0.1341 -1.5266  0.4904
 2645SOL    HW219395   0.225   3.024   7.915 -0.3993  0.0157  1.0619
 2646SOL     OW19396   2.498   4.199  14.681 -0.0736 -0.1183  0.5918
 2646SOL    HW119397   2.527   4.291  14.686 -1.9247  0.5995 -2.0253
 2646SOL    HW219398   2.570   4.166  14.628  0.5215  2.0300  0.0331
 2647SOL     OW19399   1.104   2.599   7.625 -0.4016  0.0480  0.3125
 2647SOL    HW119400   1.123   2.666   7.690 -0.9850 -0.0699  0.5968
 2647SOL    HW219401   1.115   2.524   7.684 -0.7124 -0.5525 -0.3924
 2648SOL     OW19402   3.141   0.216  11.149  0.0789  0.0470  0.5264
 2648SOL    HW119403   3.197   0.139  11.157  0.3734  0.3745  1.6408
 2648SOL    HW219404   3.190   0.272  11.090  0.4067  0.6088  1.3281
 2649SOL     OW19405   2.993   1.666  17.504 -0.1844 -0.3863 -0.0867
 2649SOL    HW119406   3.015   1.617  17.584 -0.9124  0.8418  0.8758
 2649SOL    HW219407   2.928   1.609  17.463  0.9264  0.0954 -2.4728
 2650SOL     OW19408   4.011   0.581  10.497  0.3189  0.1704 -0.4534
 2650SOL    HW119409   3.919   0.598  10.513  0.2752 -0.1438 -0.3685
 2650SOL    HW219410   4.043   0.641  10.429 -0.9821  1.1159 -0.2386
 2651SOL     OW19411   1.180   3.163   3.355  0.5808 -0.1284  0.4752
 2651SOL    HW119412   1.114   3.220   3.316  1.4833 -0.3283 -1.3789
 2651SOL    HW219413   1.211   3.108   3.283  0.8419 -0.1404  0.5965
 2652SOL     OW19414   4.461   0.295   3.540  0.0714 -0.0445  0.1100
 2652SOL    HW119415   4.423   0.331   3.621  1.9192  3.1442 -0.4154
 2652SOL    HW219416   4.553   0.317   3.552 -0.0695  1.3664 -1.3992
 2653SOL     OW19417   2.628   1.298  17.352  0.2383 -0.3448  0.2444
 2653SOL    HW119418   2.606   1.214  17.310  3.4372 -0.6231 -0.8819
 2653SOL    HW219419   2.599   1.276  17.441 -0.4064  0.5909  0.2596
 2654SOL     OW19420   0.497   3.598   0.804  0.4790  0.4545  0.1237
 2654SOL    HW119421   0.474   3.509   0.776 -0.5700 -0.2534  3.1622
 2654SOL    HW219422   0.531   3.583   0.892  1.1545 -2.3583 -0.6025
 2655SOL     OW19423   1.011   1.172   2.801 -0.4210 -0.3955  0.2211
 2655SOL    HW119424   1.093   1.221   2.793  0.1612 -1.3855  0.0765
 2655SOL    HW219425   0.965   1.234   2.857 -0.7092  0.2467 -0.7326
 2656SOL     OW19426   1.168   3.951   8.255  0.0566 -0.0121 -0.3281
 2656SOL    HW119427   1.086   4.002   8.256  1.1976  1.8664 -1.3302
 2656SOL    HW219428   1.199   3.964   8.344  1.0925 -0.0453 -0.6830
 2657SOL     OW19429   2.445   0.837   0.226  0.5343 -0.4793  0.3572
 2657SOL    HW119430   2.421   0.910   0.283 -2.2631 -0.5171 -0.7295
 2657SOL    HW219431   2.357   0.798   0.221 -1.0169  3.0605 -0.0864
 2658SOL     OW19432   2.481   4.100   0.887  0.0276 -0.0636 -0.2224
 2658SOL    HW119433   2.419   4.041   0.930 -0.4496  0.4979 -0.1341
 2658SOL    HW219434   2.468   4.065   0.799 -2.2723  2.5135 -0.9269
 2659SOL     OW19435   4.154   0.555   0.959  0.5593 -0.4865 -0.1302
 2659SOL    HW119436   4.204   0.616   1.015  0.6181 -0.2878 -0.4004
 2659SOL    HW219437   4.202   0.474   0.974  1.5597  0.1268  0.0245
 2660SOL     OW19438   4.563   3.372   6.716 -0.0396  0.0981  0.3961
 2660SOL    HW119439   4.500   3.324   6.662 -3.3138  2.1140  2.4436
 2660SOL    HW219440   4.521   3.456   6.698 -0.0155 -0.3916 -1.8698
 2661SOL     OW19441   1.128   0.331  13.053  0.5788 -0.5652  0.1027
 2661SOL    HW119442   1.159   0.411  13.011 -2.1244  0.7891  0.7358
 2661SOL    HW219443   1.061   0.374  13.106 -0.1788 -1.2061 -0.3257
 2662SOL     OW19444   0.879   0.617   3.576 -0.0274 -0.6431  0.0783
 2662SOL    HW119445   0.799   0.578   3.610  0.9474 -1.5865  1.2750
 2662SOL    HW219446   0.847   0.635   3.487  0.0175  0.6923  0.3310
 2663SOL     OW19447   0.999   3.336   2.082  0.0688 -0.0773 -0.2710
 2663SOL    HW119448   0.941   3.261   2.074 -0.3844  0.1950  0.4488
 2663SOL    HW219449   0.945   3.408   2.049 -1.2918 -1.1208 -0.2903
 2664SOL     OW19450   2.407   3.227  14.457 -0.3031 -0.0634 -0.2670
 2664SOL    HW119451   2.476   3.290  14.479 -0.6253 -0.4205  1.7808
 2664SOL    HW219452   2.457   3.148  14.433 -0.0063 -0.2416  0.9269
 2665SOL     OW19453   0.839   4.258   3.328 -0.2364  0.5379 -0.4158
 2665SOL    HW119454   0.795   4.299   3.254 -1.1894 -0.2134 -0.2695
 2665SOL    HW219455   0.833   4.319   3.402  2.5994  0.5005 -0.1648
 2666SOL     OW19456   3.656   0.813  14.748  0.5526  0.2908 -0.1166
 2666SOL    HW119457   3.742   0.849  14.771  0.6161  0.4938 -0.6619
 2666SOL    HW219458   3.657   0.721  14.774  0.4627  0.6961  1.2935
 2667SOL     OW19459   2.031   1.525  14.437 -0.8108 -0.0237  0.1318
 2667SOL    HW119460   2.094   1.493  14.502  0.3338 -0.2219 -1.0794
 2667SOL    HW219461   1.966   1.556  14.500 -0.1498  1.1117  0.2566
 2668SOL     OW19462   1.401   4.118   1.739  0.6139 -0.0709  0.1998
 2668SOL    HW119463   1.384   4.151   1.651 -1.0064  0.8403  0.8477
 2668SOL    HW219464   1.457   4.190   1.769 -0.4843  1.1654 -0.7707
 2669SOL     OW19465   2.467   3.914   5.715 -0.3421 -0.1999  0.1354
 2669SOL    HW119466   2.538   3.939   5.656  1.5341 -3.4455  1.0061
 2669SOL    HW219467   2.387   3.946   5.674 -1.0943 -1.2621  0.7553
 2670SOL     OW19468   4.158   2.560   5.190 -0.5485  0.4019  0.7285
 2670SOL    HW119469   4.184   2.632   5.133 -1.4765  0.7008  0.6765
 2670SOL    HW219470   4.110   2.506   5.128 -0.3706 -1.1008  1.8915
 2671SOL     OW19471   4.262   2.176   2.499  0.3782  0.4529  0.3466
 2671SOL    HW119472   4.201   2.181   2.572  1.9726 -2.6192  1.9091
 2671SOL    HW219473   4.246   2.266   2.472 -1.2351  0.0826  0.0391
 2672SOL     OW19474   4.024   3.992  11.032 -0.1261 -0.1329  0.0244
 2672SOL    HW119475   4.014   4.081  11.001 -0.7020  0.0437  0.7053
 2672SOL    HW219476   4.038   4.013  11.124 -2.3981  0.3892  0.2478
 2673SOL     OW19477   1.500   0.346  14.660  0.4089  0.0169  0.5082
 2673SOL    HW119478   1.546   0.314  14.582  0.1205 -1.0226  0.7555
 2673SOL    HW219479   1.421   0.386  14.624  0.9881 -0.3560 -1.2222
 2674SOL     OW19480   0.166   0.053   7.777  0.6140 -0.4424  0.3718
 2674SOL    HW119481   0.176   0.147   7.761 -1.4233  0.1027  2.2779
 2674SOL    HW219482   0.179   0.058   7.871  0.0615 -0.9313  0.4750
 2675SOL     OW19483   4.090   2.114   8.375  0.5587  0.2730  0.1214
 2675SOL    HW119484   4.024   2.168   8.332 -0.1377 -0.2255  0.5596
 2675SOL    HW219485   4.062   2.133   8.465  3.0560  0.9292  0.7804
 2676SOL     OW19486   0.456   2.357   7.699  0.6747 -0.1282 -0.0748
 2676SOL    HW119487   0.451   2.447   7.667 -2.3501 -0.4968 -0.6014
 2676SOL    HW219488   0.384   2.315   7.652  1.0119 -1.3117  0.4664
 2677SOL     OW19489   0.789   1.947   8.196 -0.0571  0.1421  0.8801
 2677SOL    HW119490   0.853   1.935   8.266  0.3498 -1.2844  0.2725
 2677SOL    HW219491   0.716   2.004   8.219 -0.8085 -0.3108 -0.3456
 2678SOL     OW19492   2.963   1.537  13.734 -0.2365 -0.4929  0.3735
 2678SOL    HW119493   2.960   1.460  13.677 -1.0475 -0.6198  0.5878
 2678SOL    HW219494   3.037   1.583  13.695 -0.0014  0.0255  1.4267
 2679SOL     OW19495   3.186   2.088  14.569  0.2490 -0.0895  0.1846
 2679SOL    HW119496   3.096   2.120  14.562  0.2935  0.4112  1.7618
 2679SOL    HW219497   3.185   2.021  14.501 -1.1421  0.4050 -0.2872
 2680SOL     OW19498   0.612   2.787   8.599 -0.1388  0.3116  0.1562
 2680SOL    HW119499   0.563   2.724   8.546  0.2672 -1.2681  1.6582
 2680SOL    HW219500   0.630   2.740   8.680  0.4123 -1.3894 -0.9479
 2681SOL     OW19501   2.335   0.765   4.669  0.3042 -0.3533  0.1498
 2681SOL    HW119502   2.366   0.839   4.723  2.4655 -2.3182  1.6234
 2681SOL    HW219503   2.399   0.783   4.600 -0.9745 -1.2641 -1.2466
 2682SOL     OW19504   4.684   2.480   0.326  0.4858  0.5772  0.4493
 2682SOL    HW119505   4.677   2.516   0.238  2.3284  0.2520  0.1489
 2682SOL    HW219506   0.049   2.449   0.336  1.0447  1.8202 -0.7564
 2683SOL     OW19507   4.210   2.657   5.473 -0.2188  0.0265 -0.4205
 2683SOL    HW119508   4.191   2.578   5.422 -0.0850 -0.7469  0.7252
 2683SOL    HW219509   4.291   2.634   5.520 -0.2886 -2.7551 -1.6584
 2684SOL     OW19510   2.189   0.719   2.375 -0.2561  0.3344  0.3555
 2684SOL    HW119511   2.199   0.626   2.392 -4.2683 -0.1600 -0.0977
 2684SOL    HW219512   2.104   0.718   2.331 -0.7208 -1.4994  1.2990
 2685SOL     OW19513   1.623   3.672   0.893 -0.3989 -0.1461  0.1094
 2685SOL    HW119514   1.589   3.657   0.805 -1.5177  1.2007  0.3193
 2685SOL    HW219515   1.709   3.714   0.884 -0.6445  0.0796 -1.1824
 2686SOL     OW19516   4.202   2.312  15.167 -0.0557 -0.0090 -0.3653
 2686SOL    HW119517   4.271   2.377  15.157  2.1662 -2.3508 -0.0128
 2686SOL    HW219518   4.191   2.309  15.262 -3.0344 -2.2648 -0.7955
 2687SOL     OW19519   0.739   4.484  12.596 -0.1495 -0.3331  0.3227
 2687SOL    HW119520   0.729   4.414  12.531 -0.0313  0.5210 -0.6099
 2687SOL    HW219521   0.825   4.472  12.637  0.0217  0.7347  0.2637
 2688SOL     OW19522   1.277   0.432   8.666 -0.0219  0.1642  0.9485
 2688SOL    HW119523   1.343   0.424   8.596 -0.9166 -1.2025  0.2510
 2688SOL    HW219524   1.196   0.433   8.615 -1.0467 -0.5948  2.5409
 2689SOL     OW19525   3.185   4.133   7.890 -0.1451  0.4025  0.2892
 2689SOL    HW119526   3.168   4.046   7.926  1.6074 -0.4121 -0.8899
 2689SOL    HW219527   3.275   4.144   7.923  0.3041  0.2866 -0.8877
 2690SOL     OW19528   0.380   1.393  11.837 -0.4119 -0.3288 -0.2754
 2690SOL    HW119529   0.460   1.342  11.826 -0.3247 -0.5493  1.4788
 2690SOL    HW219530   0.406   1.476  11.796  1.3254 -1.6904 -1.9121
 2691SOL     OW19531   4.608   4.497   8.081 -0.5260 -0.6597 -0.1324
 2691SOL    HW119532   4.531   4.455   8.042 -2.5110  0.3210  2.7451
 2691SOL    HW219533   4.676   4.430   8.081  1.2915  1.2241 -1.6058
 2692SOL     OW19534   1.450   1.733   5.033  0.3004  0.1463  0.4048
 2692SOL    HW119535   1.534   1.774   5.053  0.0890  0.2940  0.9843
 2692SOL    HW219536   1.472   1.642   5.017  0.6144  0.1682  0.6962
 2693SOL     OW19537   2.191   2.188   8.374 -1.0824 -0.6400  0.2000
 2693SOL    HW119538   2.181   2.181   8.469 -1.2043  0.3937  0.2620
 2693SOL    HW219539   2.104   2.226   8.361 -0.5929  0.4618  0.1990
 2694SOL     OW19540   3.777   4.349   4.216  0.0555  0.1626  0.3117
 2694SOL    HW119541   3.804   4.418   4.155  0.6267  1.4048  1.9480
 2694SOL    HW219542   3.764   4.400   4.296 -0.5392 -1.9684  1.5710
 2695SOL     OW19543   4.375   2.811   9.592 -0.1673  0.0475 -0.1337
 2695SOL    HW119544   4.282   2.792   9.602 -0.0385  0.1938  1.3480
 2695SOL    HW219545   4.364   2.868   9.515  0.2839  0.8297  0.3719
 2696SOL     OW19546   3.529   1.189   3.486  0.1796 -0.1498  0.0582
 2696SOL    HW119547   3.562   1.110   3.443  0.2674 -0.5208  0.7937
 2696SOL    HW219548   3.461   1.215   3.424  1.0775 -1.3210 -1.4148
 2697SOL     OW19549   4.527   3.935   9.516  0.0546  0.6808 -0.9870
 2697SOL    HW119550   4.618   3.943   9.546 -0.7897 -0.3867  1.7774
 2697SOL    HW219551   4.529   3.840   9.509 -0.5240  0.6210 -0.2561
 2698SOL     OW19552   3.557   3.523   5.488  0.2905 -0.8822  0.2895
 2698SOL    HW119553   3.540   3.471   5.566  0.3268  1.4046  1.8206
 2698SOL    HW219554   3.621   3.467   5.444  0.8444 -1.0322  1.2727
 2699SOL     OW19555   0.683   3.216  17.605  0.8429  0.2878 -0.0090
 2699SOL    HW119556   0.619   3.253  17.666 -0.3568  2.7098 -2.7640
 2699SOL    HW219557   0.734   3.172  17.674  1.0798 -0.1627 -0.4754
 2700SOL     OW19558   4.429   2.363   7.475  0.6334 -0.9967  0.7494
 2700SOL    HW119559   4.462   2.453   7.465  1.0483 -0.8535  3.5407
 2700SOL    HW219560   4.496   2.312   7.519 -1.5612 -1.1247  3.9240
 2701SOL     OW19561   2.010   1.028  17.539 -0.9898 -0.4112 -0.3366
 2701SOL    HW119562   1.916   1.037  17.525 -1.0775 -1.6701 -0.5346
 2701SOL    HW219563   2.032   1.118  17.513  0.0268 -0.3125  0.8358
 2702SOL     OW19564   1.831   2.479   6.983 -0.0459  0.2409 -0.5834
 2702SOL    HW119565   1.834   2.493   7.078  0.3327  0.1160 -0.5736
 2702SOL    HW219566   1.801   2.566   6.958  0.3011  0.8217  0.9926
 2703SOL     OW19567   4.560   2.794  12.420  0.7110  0.4239 -0.0334
 2703SOL    HW119568   4.591   2.760  12.336  0.0178 -1.9496  0.6792
 2703SOL    HW219569   4.600   2.734  12.483 -0.3219  0.2908  0.4910
 2704SOL     OW19570   4.723   3.668  16.325 -0.7273 -0.1481  0.3268
 2704SOL    HW119571   4.652   3.652  16.262 -0.3629  1.7060 -0.5648
 2704SOL    HW219572   4.678   3.730  16.382  1.6948  0.9788  1.0159
 2705SOL     OW19573   1.175   2.885   8.087  0.1462  0.2601 -0.0155
 2705SOL    HW119574   1.261   2.918   8.060 -0.0105  0.7217  0.0488
 2705SOL    HW219575   1.194   2.887   8.181 -0.6636 -2.0491  0.1790
 2706SOL     OW19576   4.253   0.542   5.975 -0.3975 -0.1278 -0.8022
 2706SOL    HW119577   4.301   0.578   5.900  2.3242 -0.9983  0.5534
 2706SOL    HW219578   4.160   0.560   5.960 -0.9884 -1.1448  1.6589
 2707SOL     OW19579   4.469   4.067   6.792 -0.5952 -0.1024  0.0526
 2707SOL    HW119580   4.435   3.978   6.801 -0.2853  0.0327  2.4958
 2707SOL    HW219581   4.399   4.125   6.823 -0.9462  1.2591 -3.2829
 2708SOL     OW19582   0.103   3.186  10.155 -0.6467 -0.0826  0.2657
 2708SOL    HW119583   0.041   3.127  10.111 -1.2140  0.1885  0.6936
 2708SOL    HW219584   0.058   3.204  10.237 -0.0262 -1.4427  0.8998
 2709SOL     OW19585   2.781   0.026  12.890  0.0685 -0.1352 -0.4932
 2709SOL    HW119586   2.802   4.658  12.894  1.3822  0.3380  3.5332
 2709SOL    HW219587   2.861   0.067  12.924 -0.0390  0.4469 -0.9482
 2710SOL     OW19588   1.688   4.263  11.332 -0.3308 -0.2436 -0.0563
 2710SOL    HW119589   1.673   4.342  11.384  3.0018 -0.3051  1.0261
 2710SOL    HW219590   1.758   4.216  11.377  1.7561 -1.0255 -4.1508
 2711SOL     OW19591   2.734   4.427   7.406  0.1456 -0.1884 -0.1865
 2711SOL    HW119592   2.710   4.408   7.497  2.2197  1.1400  0.6438
 2711SOL    HW219593   2.661   4.388   7.358 -0.0506  0.0755 -0.0986
 2712SOL     OW19594   0.696   3.624   7.089 -0.2244 -0.0217 -0.3125
 2712SOL    HW119595   0.682   3.654   7.000  0.5653 -2.1160 -1.1400
 2712SOL    HW219596   0.785   3.660   7.091 -0.0089 -0.6407  1.3310
 2713SOL     OW19597   1.101   3.873   3.053 -0.1835  0.4105  0.0465
 2713SOL    HW119598   1.076   3.856   2.962  2.6847 -2.5519 -0.2209
 2713SOL    HW219599   1.149   3.795   3.082 -1.4537  0.5573  2.5367
 2714SOL     OW19600   3.442   2.280   6.616 -0.0365 -0.1468 -0.3251
 2714SOL    HW119601   3.451   2.243   6.704 -1.5591 -0.4003 -0.2700
 2714SOL    HW219602   3.504   2.353   6.620  0.6119 -0.7372  0.3080
 2715SOL     OW19603   3.637   2.451   6.600 -0.3894  0.1556  0.3863
 2715SOL    HW119604   3.715   2.506   6.610  0.2857 -0.5176 -1.1223
 2715SOL    HW219605   3.579   2.515   6.559 -0.5954 -0.3806 -0.1473
 2716SOL     OW19606   3.361   0.036   5.810 -0.5122  0.5931 -0.2464
 2716SOL    HW119607   3.300   0.057   5.740  0.4492 -2.1987 -1.9002
 2716SOL    HW219608   3.303   4.707   5.863 -0.1293  1.5514  1.1611
 2717SOL     OW19609   2.011   4.601   6.761 -0.3370 -0.1989  1.0925
 2717SOL    HW119610   1.985   4.676   6.813 -3.5835 -1.9245  1.9804
 2717SOL    HW219611   2.107   4.602   6.762 -0.3428  0.5521  0.8039
 2718SOL     OW19612   0.013   0.679   5.826 -0.2197 -0.8126 -0.4180
 2718SOL    HW119613   0.017   0.741   5.754  1.1310 -2.5783 -1.8425
 2718SOL    HW219614   4.672   0.729   5.873  1.5594 -0.1080  1.4183
 2719SOL     OW19615   3.077   2.281   2.863  0.1823  0.0194 -0.1564
 2719SOL    HW119616   3.103   2.276   2.954 -0.4646  3.9977  0.2537
 2719SOL    HW219617   2.986   2.308   2.874  0.3001  0.5806 -0.5520
 2720SOL     OW19618   2.428   0.710  17.489  0.0085  0.6079 -0.0703
 2720SOL    HW119619   2.504   0.718  17.431  0.2740 -0.1840  0.1622
 2720SOL    HW219620   2.448   0.751  17.573 -0.4337 -0.5001  0.5835
 2721SOL     OW19621   0.240   4.698   2.715  0.6435  0.0919  0.4154
 2721SOL    HW119622   0.165   4.717   2.659  0.9631 -1.3415 -0.5226
 2721SOL    HW219623   0.275   0.059   2.733  0.2792  0.0653  1.2291
 2722SOL     OW19624   2.000   0.476   6.467 -0.1336  0.2011  0.2609
 2722SOL    HW119625   1.919   0.517   6.436 -1.1114 -1.9519 -0.0681
 2722SOL    HW219626   1.962   0.405   6.519 -1.2653  1.3961  1.0565
 2723SOL     OW19627   2.966   0.986   3.873  0.5617  0.3611 -0.2646
 2723SOL    HW119628   3.027   0.914   3.855 -0.4265  0.1492 -2.8201
 2723SOL    HW219629   2.909   0.977   3.797  0.1710 -0.1070  0.0870
 2724SOL     OW19630   1.350   1.177   4.623  0.0930  0.2173  0.1537
 2724SOL    HW119631   1.256   1.164   4.608  0.0094  1.8004 -0.7724
 2724SOL    HW219632   1.393   1.157   4.540 -1.0584 -1.9554  0.0912
 2725SOL     OW19633   4.484   0.951   0.136 -0.2911 -0.2217 -0.7056
 2725SOL    HW119634   4.482   1.028   0.192  0.1233 -1.6864  1.3436
 2725SOL    HW219635   4.511   0.884   0.200 -1.0192 -1.2387 -1.4535
 2726SOL     OW19636   4.242   4.182  16.309  0.6329  0.6199  0.5931
 2726SOL    HW119637   4.221   4.143  16.225 -0.7450  2.1574  0.2436
 2726SOL    HW219638   4.181   4.135  16.366 -0.2845  0.8695 -0.1966
 2727SOL     OW19639   1.653   3.529   8.629  0.5093  0.1120 -0.0292
 2727SOL    HW119640   1.600   3.458   8.666 -1.8697  1.7811 -0.2621
 2727SOL    HW219641   1.579   3.569   8.582  0.2684 -0.0575  0.2083
 2728SOL     OW19642   2.305   4.723   6.415  0.6143 -0.3493  0.2334
 2728SOL    HW119643   2.217   0.026   6.395  0.9292  0.3763 -0.0938
 2728SOL    HW219644   2.323   0.053   6.491 -2.2731  0.9719 -0.0631
 2729SOL     OW19645   3.654   1.514   2.500  0.2643  0.5066  0.1444
 2729SOL    HW119646   3.707   1.473   2.568 -1.1498 -1.3886  0.1257
 2729SOL    HW219647   3.706   1.505   2.420 -2.4606 -0.3062 -1.5512
 2730SOL     OW19648   0.814   4.164   3.939 -0.2759  0.5243  0.5894
 2730SOL    HW119649   0.818   4.127   3.851  0.3635  0.3530  0.6900
 2730SOL    HW219650   0.814   4.084   3.993 -1.6174  0.8955  1.1238
 2731SOL     OW19651   2.494   1.446   8.106 -0.1947 -0.0545  0.1161
 2731SOL    HW119652   2.472   1.534   8.077 -0.5459  0.2829  1.4167
 2731SOL    HW219653   2.433   1.402   8.046  1.5173 -1.2988 -0.7120
 2732SOL     OW19654   2.700   3.137   2.058 -0.3208 -0.8010 -0.2100
 2732SOL    HW119655   2.754   3.072   2.014 -0.3735 -0.6990 -0.4267
 2732SOL    HW219656   2.683   3.198   1.986  0.7182 -1.5181 -1.0576
 2733SOL     OW19657   2.945   2.306  10.421 -0.4534 -0.0327 -0.7116
 2733SOL    HW119658   3.007   2.255  10.473  0.2864  3.1588  1.5174
 2733SOL    HW219659   2.969   2.275  10.334 -2.0837 -2.2329 -0.4037
 2734SOL     OW19660   3.894   3.283   9.388 -0.0484  0.1723  0.3120
 2734SOL    HW119661   3.809   3.304   9.427 -1.8602 -2.2280 -2.3488
 2734SOL    HW219662   3.887   3.194   9.352  0.0452  1.0103 -1.7450
 2735SOL     OW19663   0.929   2.549   8.402 -0.2533  0.3186 -0.0906
 2735SOL    HW119664   0.865   2.494   8.355  0.3457  0.8236 -1.5156
 2735SOL    HW219665   1.018   2.529   8.370 -0.2969 -0.0683  0.0266
 2736SOL     OW19666   2.726   3.901   4.564 -0.0127  0.1741 -0.2483
 2736SOL    HW119667   2.646   3.921   4.613 -0.6854 -1.4379 -0.7064
 2736SOL    HW219668   2.690   3.949   4.490 -2.8143  1.2890  1.8312
 2737SOL     OW19669   0.255   1.220   2.419 -0.4161 -0.4395 -0.2373
 2737SOL    HW119670   0.233   1.306   2.383 -0.5261 -1.0813 -1.6897
 2737SOL    HW219671   0.172   1.192   2.458  0.4740 -1.4292  0.9205
 2738SOL     OW19672   0.964   0.703  12.880 -0.7847  0.2751  0.2906
 2738SOL    HW119673   0.948   0.629  12.821 -0.5458 -2.3500  3.5320
 2738SOL    HW219674   0.891   0.760  12.857 -1.3638 -0.3616  0.5335
 2739SOL     OW19675   1.498   3.910   7.692 -0.1136  0.7360  0.2632
 2739SOL    HW119676   1.495   3.903   7.787 -1.5508  1.0539  0.2370
 2739SOL    HW219677   1.427   3.850   7.667 -0.4900  1.4806 -0.4474
 2740SOL     OW19678   1.870   2.639   1.950 -0.4431  0.4497 -0.6730
 2740SOL    HW119679   1.922   2.593   1.884  0.0155 -0.7579  0.5260
 2740SOL    HW219680   1.822   2.564   1.986 -0.1327  1.9000  2.7422
 2741SOL     OW19681   0.796   4.577   6.732  0.0163  0.1108  0.1601
 2741SOL    HW119682   0.720   4.545   6.683 -0.2748  0.3984  0.4250
 2741SOL    HW219683   0.755   4.637   6.795  3.0274  3.3579 -0.9333
 2742SOL     OW19684   3.140   2.254  12.741  0.1618  0.0685  0.2154
 2742SOL    HW119685   3.220   2.225  12.785  1.2849  3.1715  0.2106
 2742SOL    HW219686   3.078   2.290  12.804 -1.4295 -0.8349 -0.8217
 2743SOL     OW19687   1.252   0.911   3.394 -0.0730 -0.1272 -0.2158
 2743SOL    HW119688   1.337   0.904   3.351 -0.3111 -2.3132 -0.3529
 2743SOL    HW219689   1.191   0.928   3.322  0.2329 -0.6727 -0.6079
 2744SOL     OW19690   3.958   0.778  17.397 -0.2285  0.3440 -0.1269
 2744SOL    HW119691   4.046   0.798  17.430  0.3151 -0.0699 -1.3177
 2744SOL    HW219692   3.958   0.838  17.322  1.9212  0.9956  0.3811
 2745SOL     OW19693   1.204   4.690   5.323  0.2957 -0.2955  0.8266
 2745SOL    HW119694   1.167   4.606   5.297  1.9980 -1.4171  2.0149
 2745SOL    HW219695   1.238   4.720   5.239 -1.4692  0.0347  0.2408
 2746SOL     OW19696   1.972   0.034   3.953 -0.5812  0.0864  0.2022
 2746SOL    HW119697   2.027   0.007   3.879  1.3747  0.9978  1.3149
 2746SOL    HW219698   1.952   0.123   3.925  2.4111  0.6266 -0.1949
 2747SOL     OW19699   1.434   0.983   2.790 -0.1570 -0.5703 -0.5459
 2747SOL    HW119700   1.503   0.945   2.843  1.9474 -1.9262 -4.2194
 2747SOL    HW219701   1.452   0.929   2.713 -0.5783  1.7947 -2.3035
 2748SOL     OW19702   1.134   0.905   6.380  0.0163 -0.0540  0.6865
 2748SOL    HW119703   1.112   0.927   6.290 -0.3204  0.4360  0.8844
 2748SOL    HW219704   1.173   0.987   6.410 -0.5189  0.0453  1.1071
 2749SOL     OW19705   3.809   0.145   7.576  0.0976  0.5524  0.3428
 2749SOL    HW119706   3.743   0.077   7.589 -1.8656  2.8245  2.1210
 2749SOL    HW219707   3.848   0.136   7.664  1.8086  0.1102 -0.4552
 2750SOL     OW19708   2.058   4.659  11.761  0.5732 -0.2489  0.0751
 2750SOL    HW119709   2.131   4.645  11.701 -1.0714 -0.7138 -1.8422
 2750SOL    HW219710   2.067   0.028  11.751  1.7375 -0.4419 -0.6756
 2751SOL     OW19711   0.236   2.983  12.026 -0.1591  0.1857 -0.2575
 2751SOL    HW119712   0.301   3.050  12.046 -1.2287  1.3946 -0.7997
 2751SOL    HW219713   0.206   2.957  12.113 -1.0433  1.4797 -0.1749
 2752SOL     OW19714   3.951   4.302   1.415  0.2194  0.0001  0.4031
 2752SOL    HW119715   3.962   4.230   1.353  1.4202  1.2122 -0.7779
 2752SOL    HW219716   3.893   4.259   1.478 -0.3849 -0.6497 -0.5992
 2753SOL     OW19717   1.644   2.049   6.475  0.3280  0.0381 -0.1921
 2753SOL    HW119718   1.669   1.966   6.516 -0.4352 -0.3802 -0.5769
 2753SOL    HW219719   1.693   2.107   6.532 -0.6963 -0.5313  1.2679
 2754SOL     OW19720   4.347   4.322   0.910 -0.2164  0.0815 -0.5662
 2754SOL    HW119721   4.357   4.417   0.900 -1.0436  0.3045  0.6841
 2754SOL    HW219722   4.439   4.305   0.929 -0.1447  0.4113 -0.6129
 2755SOL     OW19723   0.714   3.817   6.851  1.2895 -0.4073  0.7010
 2755SOL    HW119724   0.775   3.850   6.917  0.2111 -1.6475  2.3332
 2755SOL    HW219725   0.769   3.807   6.774 -0.4936  0.5382 -0.6689
 2756SOL     OW19726   1.838   0.787  10.362 -0.1947 -0.9198  0.3734
 2756SOL    HW119727   1.799   0.761  10.278 -1.3392  2.2603 -0.0850
 2756SOL    HW219728   1.827   0.715  10.424  3.0671 -1.8842 -0.1841
 2757SOL     OW19729   2.852   4.414  11.720 -0.2037  0.0489  0.5837
 2757SOL    HW119730   2.922   4.474  11.694  0.7265 -1.4884 -0.5378
 2757SOL    HW219731   2.893   4.328  11.711 -1.9283 -0.7410  0.2773
 2758SOL     OW19732   0.857   0.032   2.765  0.1912  0.5666  0.2752
 2758SOL    HW119733   0.908   4.677   2.752  0.7438  1.1067 -0.8918
 2758SOL    HW219734   0.844   0.037   2.859  2.4172 -2.0410  0.7416
 2759SOL     OW19735   1.381   1.820   7.516  0.4366  0.3111 -0.6631
 2759SOL    HW119736   1.326   1.753   7.557  1.5653  0.6953  1.4758
 2759SOL    HW219737   1.470   1.786   7.526  0.1925  0.2991  1.4702
 2760SOL     OW19738   0.226   4.205   0.067  0.4897 -0.5017  0.5520
 2760SOL    HW119739   0.258   4.189   0.156  1.8836  0.8312  0.2811
 2760SOL    HW219740   0.231   4.122   0.021 -2.1998 -0.0647 -0.5322
 2761SOL     OW19741   1.375   4.676   8.163 -0.0630 -0.3952  0.1873
 2761SOL    HW119742   1.443   0.007   8.196  0.2323 -0.0103 -1.0696
 2761SOL    HW219743   1.346   4.638   8.246 -0.9501  1.3818  0.6784
 2762SOL     OW19744   3.671   2.749  11.384 -0.1166 -0.1978  0.0262
 2762SOL    HW119745   3.756   2.783  11.412  0.0833 -0.9734  0.3533
 2762SOL    HW219746   3.646   2.818  11.322 -2.2520 -1.9032 -0.9936
 2763SOL     OW19747   3.267   4.378  15.389  0.6021 -0.5702  0.3504
 2763SOL    HW119748   3.347   4.361  15.437  0.5189  0.2161  0.7494
 2763SOL    HW219749   3.260   4.291  15.348  0.2323 -0.5519  0.3725
 2764SOL     OW19750   4.208   3.712   9.607  0.1001 -0.7439 -0.6855
 2764SOL    HW119751   4.168   3.625   9.602  0.0740 -0.7390 -0.5645
 2764SOL    HW219752   4.153   3.754   9.673  0.5422  1.2339 -1.5634
 2765SOL     OW19753   0.180   0.226   3.688 -0.1062  0.3064 -0.2081
 2765SOL    HW119754   0.232   0.272   3.753 -1.7757  1.6358  0.1889
 2765SOL    HW219755   0.248   0.176   3.644  1.0100  0.8947  0.8523
 2766SOL     OW19756   3.102   3.643   1.093 -0.6618  0.6113 -0.3265
 2766SOL    HW119757   3.151   3.561   1.099  1.6524  2.1314  1.3278
 2766SOL    HW219758   3.056   3.649   1.177  1.7266  0.1761  1.0338
 2767SOL     OW19759   2.219   2.608   2.459 -0.8369  0.2299 -0.3396
 2767SOL    HW119760   2.173   2.577   2.538 -2.1783  2.1967 -0.3363
 2767SOL    HW219761   2.222   2.519   2.425  1.4094  0.4892 -0.7734
 2768SOL     OW19762   4.389   0.826   6.399 -1.0036 -0.2005  1.3407
 2768SOL    HW119763   4.325   0.876   6.349  1.6688  1.6939 -0.1663
 2768SOL    HW219764   4.419   0.759   6.337  0.3302  0.2646  1.4821
 2769SOL     OW19765   3.808   4.551  12.362 -0.1536  0.2642 -0.2479
 2769SOL    HW119766   3.880   4.524  12.305  0.4423 -0.8295  1.0451
 2769SOL    HW219767   3.844   4.634  12.394 -1.5037  0.3232  1.1209
 2770SOL     OW19768   4.307   2.085   4.614  0.3089 -0.8972  0.1387
 2770SOL    HW119769   4.253   2.095   4.536  0.3095 -2.3829 -0.0489
 2770SOL    HW219770   4.383   2.130   4.579 -0.9800 -0.3168 -1.8885
 2771SOL     OW19771   0.991   4.263   6.651 -0.4349  0.1680  0.6421
 2771SOL    HW119772   1.058   4.212   6.696  0.6565 -0.1443 -1.3266
 2771SOL    HW219773   1.015   4.236   6.562 -0.5925  2.0673  0.0258
 2772SOL     OW19774   4.635   1.573  13.599  0.3195 -0.1952 -0.2806
 2772SOL    HW119775   4.712   1.604  13.551 -0.5659  0.6336 -1.1624
 2772SOL    HW219776   4.674   1.504  13.652  0.9351 -0.2332 -0.7778
 2773SOL     OW19777   3.516   2.898   7.988  0.0501  0.8321 -0.8799
 2773SOL    HW119778   3.573   2.923   7.915  0.9002 -0.1765 -0.5502
 2773SOL    HW219779   3.582   2.879   8.055 -0.4538  1.4233 -0.2096
 2774SOL     OW19780   4.569   0.790   1.921 -0.1945 -0.7056 -1.0861
 2774SOL    HW119781   4.541   0.847   1.849  0.4263  1.6380  0.5333
 2774SOL    HW219782   4.529   0.839   1.992  1.3198 -2.6929  1.1436
 2775SOL     OW19783   4.181   3.307   9.461  0.5006 -0.4453  0.2037
 2775SOL    HW119784   4.151   3.360   9.536 -0.0691 -0.7976  0.2293
 2775SOL    HW219785   4.103   3.274   9.417  1.5684 -1.0931 -1.2042
 2776SOL     OW19786   2.944   0.715   1.675  0.2978 -0.0035  0.5220
 2776SOL    HW119787   2.907   0.692   1.590  0.0908 -1.3677  0.9770
 2776SOL    HW219788   2.985   0.635   1.707 -2.6144 -2.1503 -1.0564
 2777SOL     OW19789   3.332   4.453   3.557 -0.3968 -0.0000  0.0679
 2777SOL    HW119790   3.265   4.442   3.625  1.9158  0.3162  2.4014
 2777SOL    HW219791   3.400   4.491   3.614 -0.6862  0.6271  0.0013
 2778SOL     OW19792   1.578   2.615   6.617  0.7751 -0.7280 -0.5995
 2778SOL    HW119793   1.635   2.646   6.687  0.9279  0.9786 -1.4967
 2778SOL    HW219794   1.591   2.679   6.547 -0.2265 -0.0657 -0.1787
 2779SOL     OW19795   3.370   2.505  11.766 -0.3506 -0.5420  0.2012
 2779SOL    HW119796   3.291   2.559  11.761 -0.9896 -1.4007  1.0869
 2779SOL    HW219797   3.366   2.474  11.856 -0.8080 -2.1950 -0.3882
 2780SOL     OW19798   1.779   4.336   9.054 -0.2850 -0.3675  0.1029
 2780SOL    HW119799   1.788   4.431   9.061  0.3154 -0.3816 -0.5024
 2780SOL    HW219800   1.748   4.316   9.142 -0.8855 -1.4477 -0.3389
 2781SOL     OW19801   1.298   0.257   2.594  0.1884  0.1296  0.6350
 2781SOL    HW119802   1.362   0.323   2.619  0.3144 -0.4972  1.9698
 2781SOL    HW219803   1.221   0.312   2.611  1.7012  1.5958  2.6746
 2782SOL     OW19804   4.397   1.197   7.197 -0.1586  0.9109 -0.6378
 2782SOL    HW119805   4.469   1.138   7.218 -2.7829 -1.8466  0.6787
 2782SOL    HW219806   4.392   1.168   7.106  0.9991  5.4361 -2.1204
 2783SOL     OW19807   1.030   3.005   6.499 -0.1622  0.2182  0.8813
 2783SOL    HW119808   1.060   2.942   6.433  0.4179  0.0856  1.2762
 2783SOL    HW219809   0.985   3.076   6.452  1.9348 -0.4505 -2.1232
 2784SOL     OW19810   2.387   0.720  10.599 -0.0377  0.4815 -0.0307
 2784SOL    HW119811   2.293   0.737  10.609 -0.0512  0.8590 -0.8375
 2784SOL    HW219812   2.432   0.792  10.644 -0.0901  0.3448  0.2411
 2785SOL     OW19813   1.402   2.867   4.978 -0.3510  0.7865  0.1821
 2785SOL    HW119814   1.460   2.807   4.932 -1.6186  0.0295 -0.4329
 2785SOL    HW219815   1.440   2.950   4.951 -0.3168  1.0635  1.0940
 2786SOL     OW19816   1.432   3.010   6.794  0.3849  0.4624 -0.5636
 2786SOL    HW119817   1.483   3.001   6.714 -0.7867  1.1450 -1.3816
 2786SOL    HW219818   1.447   2.927   6.840  1.0916  1.1045  0.3695
 2787SOL     OW19819   2.499   2.170   8.234  0.0081  0.0214  0.7291
 2787SOL    HW119820   2.414   2.185   8.276 -0.1068  1.3665 -0.0031
 2787SOL    HW219821   2.533   2.259   8.230  2.0471 -0.8269 -0.5153
 2788SOL     OW19822   3.308   1.925   8.103 -0.0623  0.0563 -0.2655
 2788SOL    HW119823   3.347   1.895   8.021  0.6190  2.0995 -0.6962
 2788SOL    HW219824   3.385   1.945   8.156 -1.4438  1.4805  1.2396
 2789SOL     OW19825   1.428   0.301   8.866 -1.0269  0.0581 -0.0137
 2789SOL    HW119826   1.399   0.336   8.781  2.7786  0.4402 -1.1187
 2789SOL    HW219827   1.478   0.377   8.894 -0.1531 -0.1575 -1.0006
 2790SOL     OW19828   3.206   1.850  15.197 -0.7322  0.6153 -0.3972
 2790SOL    HW119829   3.271   1.813  15.257  0.2040 -1.1037 -2.5077
 2790SOL    HW219830   3.241   1.934  15.166  1.3851 -0.2335 -0.3072
 2791SOL     OW19831   2.635   2.013   7.952  0.0466 -0.0452  0.2321
 2791SOL    HW119832   2.717   2.039   7.995  0.0489  0.2347  0.0584
 2791SOL    HW219833   2.578   1.975   8.019  0.5542 -0.8286  0.2195
 2792SOL     OW19834   4.244   0.502   3.413  0.2327  0.4378 -0.0592
 2792SOL    HW119835   4.299   0.425   3.429 -2.3561 -1.2112  0.8936
 2792SOL    HW219836   4.281   0.556   3.483 -2.4275  1.7498  0.3241
 2793SOL     OW19837   1.532   1.458   5.449  0.2216 -0.4058  0.2127
 2793SOL    HW119838   1.481   1.476   5.370  0.7347 -1.4723 -0.3449
 2793SOL    HW219839   1.468   1.464   5.520 -0.7624  0.8474 -0.7617
 2794SOL     OW19840   3.344   2.422   4.991 -0.2270 -0.0173 -0.0256
 2794SOL    HW119841   3.276   2.403   5.055  0.1598 -1.0921  0.0672
 2794SOL    HW219842   3.409   2.471   5.041  0.7480 -0.4383 -0.8852
 2795SOL     OW19843   2.880   0.696   3.102 -0.3360 -0.0510 -0.3967
 2795SOL    HW119844   2.863   0.643   3.180 -2.9248  0.5397 -0.5435
 2795SOL    HW219845   2.966   0.674   3.067  0.0072 -2.1032  1.7551
 2796SOL     OW19846   3.335   0.267  16.700  0.0592  0.2765  0.3819
 2796SOL    HW119847   3.347   0.313  16.616 -2.2530 -0.6497 -0.4508
 2796SOL    HW219848   3.260   0.321  16.724  2.3978  2.0323  3.5975
 2797SOL     OW19849   2.875   4.183   8.175 -0.2546 -0.5298  0.0544
 2797SOL    HW119850   2.844   4.174   8.085 -1.0090 -1.2370  0.3842
 2797SOL    HW219851   2.808   4.137   8.227 -1.1216 -2.2047 -2.5401
 2798SOL     OW19852   4.389   3.936  16.281 -0.0175 -0.3795  0.1839
 2798SOL    HW119853   4.355   3.847  16.283  0.6983 -0.6583 -0.0775
 2798SOL    HW219854   4.387   3.955  16.188 -0.8578 -1.3848 -0.0017
 2799SOL     OW19855   2.255   1.193  10.870  0.2045  0.5088 -0.6171
 2799SOL    HW119856   2.214   1.270  10.910 -0.2280 -0.3074  0.4961
 2799SOL    HW219857   2.263   1.210  10.776 -0.6906 -1.5734 -1.0710
 2800SOL     OW19858   4.532   3.551   8.864 -0.3138 -0.1280  0.1276
 2800SOL    HW119859   4.464   3.547   8.932  1.1888 -0.5186  1.5960
 2800SOL    HW219860   4.566   3.638   8.883 -0.3868 -0.3415  1.1995
 2801SOL     OW19861   0.817   2.874   6.289 -0.1187  0.6995  0.4063
 2801SOL    HW119862   0.909   2.885   6.262 -0.3390  0.3091 -0.5187
 2801SOL    HW219863   0.790   2.812   6.220  0.9659  1.5650 -0.8024
 2802SOL     OW19864   3.125   2.256   6.050  0.2574  0.4452 -0.3204
 2802SOL    HW119865   3.142   2.227   6.140  0.6840  1.3963 -0.0970
 2802SOL    HW219866   3.161   2.183   5.998  0.6519  1.0825 -0.9337
 2803SOL     OW19867   2.150   2.275   3.601 -0.1516  0.2167  0.5876
 2803SOL    HW119868   2.227   2.221   3.583 -1.2716 -1.5262  0.9717
 2803SOL    HW219869   2.190   2.360   3.619 -0.8482  0.3932  1.3443
 2804SOL     OW19870   2.950   4.151   1.147  0.1865 -0.0146  0.1998
 2804SOL    HW119871   2.876   4.210   1.161  2.5953  2.4747  2.3833
 2804SOL    HW219872   3.004   4.186   1.218 -1.3087 -0.0992  1.3721
 2805SOL     OW19873   1.817   4.409  16.553 -0.2574 -0.3707  0.0235
 2805SOL    HW119874   1.801   4.358  16.473 -0.3750 -1.9818  1.0853
 2805SOL    HW219875   1.810   4.337  16.616  0.3642 -1.1155 -0.7564
 2806SOL     OW19876   3.716   4.680   9.238  0.3620  0.0249  0.3213
 2806SOL    HW119877   3.641   0.014   9.245  0.9137  0.7148  0.3221
 2806SOL    HW219878   3.682   4.596   9.208 -4.3262  0.7490  3.4642
 2807SOL     OW19879   3.245   0.600   3.412 -0.1169  0.5910 -0.0633
 2807SOL    HW119880   3.299   0.538   3.461 -1.7300 -0.1523  0.7417
 2807SOL    HW219881   3.159   0.590   3.452 -0.8680  0.5030 -1.6971
 2808SOL     OW19882   1.548   2.712  11.726 -0.2095  0.0316 -0.1855
 2808SOL    HW119883   1.606   2.776  11.686 -0.7005  0.0385 -0.8804
 2808SOL    HW219884   1.574   2.648  11.660 -1.5343 -0.9453  0.2239
 2809SOL     OW19885   4.705   4.003   6.358  0.0091  1.0638  0.1272
 2809SOL    HW119886   4.624   4.055   6.360 -0.3479  0.4847  0.7259
 2809SOL    HW219887   4.680   3.918   6.322 -1.6361  1.5134  0.1964
 2810SOL     OW19888   0.716   3.601  12.784 -0.2751  0.5069 -0.6264
 2810SOL    HW119889   0.700   3.512  12.815 -0.2614  1.1378  1.1905
 2810SOL    HW219890   0.788   3.579  12.725  1.3078  0.4665  1.2961
 2811SOL     OW19891   1.842   2.332   3.774 -0.2819  0.0436  0.5798
 2811SOL    HW119892   1.928   2.305   3.805 -1.6600 -2.0675  2.6631
 2811SOL    HW219893   1.790   2.302   3.849  0.0522 -3.0916 -0.4221
 2812SOL     OW19894   2.361   0.749   3.088 -0.0595 -0.0817 -0.2543
 2812SOL    HW119895   2.400   0.774   3.172  2.1283  0.3102 -1.3790
 2812SOL    HW219896   2.347   0.837   3.054 -0.2538  0.2778  0.7777
 2813SOL     OW19897   3.929   3.216   4.494 -0.6076 -1.0183 -0.3249
 2813SOL    HW119898   3.901   3.218   4.402 -1.1744  0.3884 -0.1244
 2813SOL    HW219899   3.892   3.134   4.525  0.3910 -1.2022  0.3763
 2814SOL     OW19900   0.619   0.772   2.369  0.4163 -0.0685 -0.0708
 2814SOL    HW119901   0.583   0.836   2.307 -0.2263  0.2797  0.6645
 2814SOL    HW219902   0.664   0.830   2.430  0.5674 -0.3003  0.0395
 2815SOL     OW19903   3.568   3.035   7.556 -0.3555 -0.5284  0.0311
 2815SOL    HW119904   3.649   3.083   7.537 -1.2406 -0.3067 -3.2484
 2815SOL    HW219905   3.604   2.947   7.547  1.3437  0.3794 -2.0949
 2816SOL     OW19906   1.164   1.980   6.379 -0.1123 -0.1007 -0.2092
 2816SOL    HW119907   1.154   1.924   6.456 -1.5324 -0.3455 -0.5765
 2816SOL    HW219908   1.258   1.966   6.367  0.1237 -0.8382  2.4024
 2817SOL     OW19909   3.543   0.080   8.875 -0.2108  0.4227 -0.0864
 2817SOL    HW119910   3.514   0.169   8.897 -0.2443 -0.0252  1.7282
 2817SOL    HW219911   3.634   0.071   8.902  0.3117 -1.6510 -2.5979
 2818SOL     OW19912   0.106   0.322   9.667  0.3793 -0.2310 -0.5527
 2818SOL    HW119913   0.053   0.267   9.725 -0.2866  0.4201 -0.5449
 2818SOL    HW219914   0.191   0.279   9.667  0.5431  0.0574  1.7939
 2819SOL     OW19915   0.348   0.830   6.778  0.1503  0.2431 -0.4561
 2819SOL    HW119916   0.269   0.863   6.736 -0.3200 -0.7476 -0.3375
 2819SOL    HW219917   0.340   0.735   6.769  2.6750 -0.1061  0.9615
 2820SOL     OW19918   1.942   4.365   7.573  0.0857  0.0755  0.3360
 2820SOL    HW119919   1.890   4.287   7.553  1.6503 -0.5615 -1.3203
 2820SOL    HW219920   1.955   4.393   7.482 -1.2571 -1.8295 -0.4531
 2821SOL     OW19921   3.875   3.067   5.194 -0.2036 -0.2177  0.2979
 2821SOL    HW119922   3.948   3.111   5.152 -0.2284 -0.0958  0.3856
 2821SOL    HW219923   3.904   3.046   5.283 -1.7608 -1.0645  0.6179
 2822SOL     OW19924   0.258   1.749   9.304 -0.6981  0.1709  0.4844
 2822SOL    HW119925   0.176   1.799   9.299 -0.1870  0.8509 -1.0053
 2822SOL    HW219926   0.327   1.806   9.271  1.0829 -1.0077  2.1325
 2823SOL     OW19927   2.386   4.093   7.272  0.1463  0.5289 -0.3200
 2823SOL    HW119928   2.312   4.036   7.254  0.1696  0.2796  0.3699
 2823SOL    HW219929   2.362   4.174   7.226  0.2844  0.8745  0.2090
 2824SOL     OW19930   3.543   4.241   9.583 -1.0156  0.1529 -0.0757
 2824SOL    HW119931   3.560   4.294   9.506  3.3107 -0.6541  0.3290
 2824SOL    HW219932   3.592   4.160   9.566 -1.2149  0.0635 -0.2310
 2825SOL     OW19933   3.316   0.433   5.037 -0.3727  0.5331 -0.2733
 2825SOL    HW119934   3.246   0.379   5.074  0.1413 -0.9145 -1.4221
 2825SOL    HW219935   3.269   0.513   5.014  0.4159  0.9229 -0.5240
 2826SOL     OW19936   1.462   2.983   8.006  0.3060 -0.0358  0.2085
 2826SOL    HW119937   1.531   2.952   8.064 -0.5128  1.4143  1.9505
 2826SOL    HW219938   1.508   3.044   7.948  1.3233 -0.6427  0.3734
 2827SOL     OW19939   2.994   2.771   7.502  0.2100  0.5194 -0.1455
 2827SOL    HW119940   3.027   2.693   7.459 -0.9426  0.1187 -0.2926
 2827SOL    HW219941   2.991   2.750   7.596  1.7139  0.0244 -0.2101
 2828SOL     OW19942   1.542   0.226   9.478  0.5506 -0.6095 -0.4834
 2828SOL    HW119943   1.500   0.219   9.564  1.2603  0.8051 -0.0334
 2828SOL    HW219944   1.627   0.189   9.500  1.0285 -0.2334 -1.7338
 2829SOL     OW19945   4.404   0.400   8.012  0.3582 -0.2125  0.5971
 2829SOL    HW119946   4.331   0.355   7.971  0.5019  0.5784 -0.5498
 2829SOL    HW219947   4.407   0.359   8.098 -0.8140  1.2083  1.3228
 2830SOL     OW19948   0.721   4.610  16.869  0.2346 -0.0171  0.7523
 2830SOL    HW119949   0.740   4.681  16.931 -0.3280  0.4204  0.4294
 2830SOL    HW219950   0.749   4.645  16.785 -2.3050  3.4751  1.3669
 2831SOL     OW19951   0.268   4.301   4.639  0.3363 -0.1582 -0.1017
 2831SOL    HW119952   0.332   4.335   4.702 -0.7743  0.7315  0.5420
 2831SOL    HW219953   0.191   4.263   4.682  0.2846  0.9572  0.7883
 2832SOL     OW19954   1.861   3.224   9.982  0.4500 -0.3872  0.0867
 2832SOL    HW119955   1.826   3.280  10.052  0.9380 -1.3535  1.1003
 2832SOL    HW219956   1.858   3.136  10.018  3.5394 -0.1075  1.0093
 2833SOL     OW19957   4.305   0.908   6.089 -0.4862 -0.0283 -0.2504
 2833SOL    HW119958   4.265   0.846   6.150 -0.8562  0.6502  0.1996
 2833SOL    HW219959   4.234   0.970   6.069 -1.8802 -1.1307  1.2755
 2834SOL     OW19960   3.628   2.469  15.388 -0.1255  0.2159  0.4588
 2834SOL    HW119961   3.572   2.466  15.466 -1.7990  0.2233 -0.7446
 2834SOL    HW219962   3.677   2.386  15.392 -0.5683 -0.0909 -0.3984
 2835SOL     OW19963   0.832   1.157   5.313  0.0390 -0.0543 -0.5943
 2835SOL    HW119964   0.844   1.251   5.328  2.1598 -0.4694  0.3766
 2835SOL    HW219965   0.749   1.159   5.265 -1.3424 -0.8942  1.7822
 2836SOL     OW19966   2.652   1.891   2.640 -0.6108  0.0892  0.0697
 2836SOL    HW119967   2.622   1.884   2.549  0.1850  0.3343 -0.2123
 2836SOL    HW219968   2.716   1.820   2.643 -0.7544 -0.0905 -1.0129
 2837SOL     OW19969   0.771   4.232   0.854 -0.2203  0.0305 -0.3478
 2837SOL    HW119970   0.679   4.234   0.883  0.0502 -0.3828  0.5468
 2837SOL    HW219971   0.797   4.324   0.850 -0.6616  0.2736  2.0856
 2838SOL     OW19972   1.688   3.973   3.316 -0.0179 -0.3126 -0.4858
 2838SOL    HW119973   1.675   4.028   3.239 -1.9548  2.6459  1.9638
 2838SOL    HW219974   1.783   3.962   3.316  0.0576  0.2861 -1.5069
 2839SOL     OW19975   2.419   0.165   0.016  0.1190 -0.2071  0.6334
 2839SOL    HW119976   2.325   0.168   0.028  0.3103 -0.6851  2.2671
 2839SOL    HW219977   2.434   0.073   0.038 -2.1834 -0.4545  1.1488
 2840SOL     OW19978   2.169   1.711   9.537 -0.2269 -0.2031 -0.2399
 2840SOL    HW119979   2.135   1.622   9.545  0.2620 -0.3169  0.6569
 2840SOL    HW219980   2.252   1.705   9.584  0.5499  0.6692 -1.5023
 2841SOL     OW19981   2.829   0.318   8.768  0.2708  0.6453  0.4902
 2841SOL    HW119982   2.766   0.307   8.697  0.6526 -1.4347  0.4724
 2841SOL    HW219983   2.911   0.282   8.734  0.0377  1.0593 -0.5135
 2842SOL     OW19984   1.190   3.430  16.689  0.1207  0.4782  0.2089
 2842SOL    HW119985   1.235   3.508  16.721 -0.1143  0.8571 -0.3942
 2842SOL    HW219986   1.148   3.466  16.611  0.3077 -1.1912 -0.6635
 2843SOL     OW19987   1.670   0.123   6.532 -0.1009 -0.2431  0.0220
 2843SOL    HW119988   1.618   0.187   6.580  1.3924  1.8392 -1.1033
 2843SOL    HW219989   1.618   0.118   6.451  1.4949 -5.0418 -0.6831
 2844SOL     OW19990   1.693   3.400   7.756 -0.5150 -0.1560  0.0343
 2844SOL    HW119991   1.714   3.322   7.807  0.2530  0.4382  0.6378
 2844SOL    HW219992   1.688   3.471   7.821  0.0236 -0.4911  0.4395
 2845SOL     OW19993   0.928   2.905   1.904  0.2083 -0.2529 -0.3311
 2845SOL    HW119994   0.848   2.918   1.852  1.4231  0.8750 -1.8833
 2845SOL    HW219995   0.995   2.919   1.838 -0.7269  3.6238 -0.4353
 2846SOL     OW19996   0.509   0.375  10.200  0.1108 -0.1031  0.3132
 2846SOL    HW119997   0.427   0.327  10.188  0.7205 -1.0228 -0.1548
 2846SOL    HW219998   0.481   0.447  10.257 -1.6796  0.1621 -0.9121
 2847SOL     OW19999   3.266   3.147   7.790  0.1404 -0.6202 -0.2355
 2847SOL    HW120000   3.268   3.143   7.694 -1.1507 -1.7368 -0.2268
 2847SOL    HW220001   3.265   3.241   7.808  1.5116 -0.9902  1.7759
 2848SOL     OW20002   3.327   1.471   3.839 -0.6023 -0.2320  0.4372
 2848SOL    HW120003   3.303   1.504   3.753  0.4151 -0.0700  0.2076
 2848SOL    HW220004   3.397   1.409   3.820  0.0582  1.6496 -3.2239
 2849SOL     OW20005   3.775   2.648   8.700 -0.5825 -0.1546  0.5995
 2849SOL    HW120006   3.797   2.565   8.657 -1.5351 -0.3520  0.5009
 2849SOL    HW220007   3.737   2.622   8.783 -2.0160 -3.1139 -0.9778
 2850SOL     OW20008   3.270   1.510   7.003 -1.0703 -0.8613 -0.2180
 2850SOL    HW120009   3.228   1.505   7.089 -1.7898  2.0440 -0.4070
 2850SOL    HW220010   3.305   1.421   6.996 -0.0905 -0.6822  2.4424
 2851SOL     OW20011   3.237   3.555   9.518  0.2657  0.3995 -0.3389
 2851SOL    HW120012   3.209   3.525   9.605  2.4037  1.6944  0.8004
 2851SOL    HW220013   3.258   3.648   9.521 -2.3626  0.9227  1.5020
 2852SOL     OW20014   4.363   0.455  13.262  0.4698 -0.3606  0.0484
 2852SOL    HW120015   4.378   0.541  13.301 -2.5281 -0.3984  1.2797
 2852SOL    HW220016   4.447   0.430  13.223  2.4881  3.0394  2.2610
 2853SOL     OW20017   3.516   4.157  11.741  0.1013 -0.0872  0.1569
 2853SOL    HW120018   3.508   4.158  11.646  1.6868 -0.5671  0.0263
 2853SOL    HW220019   3.433   4.200  11.764  0.5198  0.4338  0.6827
 2854SOL     OW20020   2.838   3.144   9.493 -0.1935  0.6961 -0.1067
 2854SOL    HW120021   2.900   3.216   9.505  1.5162 -0.4096 -2.2316
 2854SOL    HW220022   2.761   3.193   9.521 -1.0126 -0.2313 -0.7497
 2855SOL     OW20023   3.740   2.151  14.681 -0.0679 -0.0607 -0.5718
 2855SOL    HW120024   3.663   2.195  14.645 -1.1830 -0.9753  0.6518
 2855SOL    HW220025   3.713   2.157  14.773 -2.6853  0.2829 -1.3677
 2856SOL     OW20026   0.674   0.280  15.655  0.1033 -0.3488 -0.1961
 2856SOL    HW120027   0.731   0.326  15.593  3.6851 -1.7351  2.0848
 2856SOL    HW220028   0.718   0.195  15.661  0.6706 -0.0779 -0.4511
 2857SOL     OW20029   1.744   2.877  17.033  0.2089  0.2444 -0.2318
 2857SOL    HW120030   1.681   2.825  17.083  1.2070 -0.7082  0.0355
 2857SOL    HW220031   1.776   2.946  17.092  0.3880  1.9280 -2.2977
 2858SOL     OW20032   2.394   0.155   8.530 -0.7944  0.2892 -0.3881
 2858SOL    HW120033   2.355   0.069   8.546  1.6049 -1.0122 -1.4893
 2858SOL    HW220034   2.354   0.198   8.606 -0.4830 -0.8611  0.4195
 2859SOL     OW20035   0.317   3.462  14.719  0.1269 -0.2763 -0.1023
 2859SOL    HW120036   0.299   3.443  14.627 -0.8698  1.3734 -0.2544
 2859SOL    HW220037   0.321   3.372  14.751  1.3395 -0.5747 -1.0724
 2860SOL     OW20038   4.577   0.389  13.106  0.8139 -0.5763 -0.1353
 2860SOL    HW120039   4.543   0.301  13.092  2.8392 -1.4758  0.4774
 2860SOL    HW220040   4.666   0.366  13.076  0.8720 -1.6943  0.8789
 2861SOL     OW20041   3.021   0.183  15.869 -0.2338 -0.1386  0.9974
 2861SOL    HW120042   3.001   0.122  15.940 -2.2338 -0.2980  0.2976
 2861SOL    HW220043   3.105   0.217  15.901 -0.5278  1.3264  0.1865
 2862SOL     OW20044   2.062   4.280  10.506 -0.0960  0.1720  1.1425
 2862SOL    HW120045   1.969   4.259  10.512 -0.4004  0.6758 -1.6220
 2862SOL    HW220046   2.110   4.211  10.551  0.0993  0.2723  1.0923
 2863SOL     OW20047   3.733   2.648   8.088  0.6268  0.5928 -0.3653
 2863SOL    HW120048   3.760   2.556   8.088  0.7933  0.6398 -0.7889
 2863SOL    HW220049   3.644   2.644   8.124  0.7292  1.4287 -0.0136
 2864SOL     OW20050   1.429   3.168   5.557 -0.4102  0.5418  0.4463
 2864SOL    HW120051   1.474   3.253   5.566 -2.6170  1.9864 -2.1254
 2864SOL    HW220052   1.443   3.156   5.463 -0.0768 -0.5612  0.6432
 2865SOL     OW20053   1.707   1.359   7.123 -0.1598  0.3392 -0.6183
 2865SOL    HW120054   1.744   1.361   7.211 -0.3947 -1.5791 -0.4824
 2865SOL    HW220055   1.774   1.308   7.078  0.7326 -0.5356  1.7108
 2866SOL     OW20056   1.079   1.605   3.938  0.0431  0.3202  0.1113
 2866SOL    HW120057   1.024   1.627   4.014  0.1792  3.1471 -0.6191
 2866SOL    HW220058   1.097   1.516   3.969 -2.1685 -0.0506  0.3595
 2867SOL     OW20059   2.205   0.413  12.336 -0.0113  0.1790  0.6601
 2867SOL    HW120060   2.256   0.334  12.316 -2.1782 -0.6570 -1.4813
 2867SOL    HW220061   2.217   0.463  12.255  1.4304  1.9749  1.9910
 2868SOL     OW20062   3.749   2.197   7.902  0.1768 -0.1261 -0.0111
 2868SOL    HW120063   3.657   2.190   7.875  1.0157 -0.6514 -2.7831
 2868SOL    HW220064   3.767   2.287   7.874  1.9546 -0.9360 -1.5248
 2869SOL     OW20065   0.619   4.492   9.154 -0.8336  0.2540 -0.0254
 2869SOL    HW120066   0.691   4.510   9.214 -0.7421 -1.7971  0.4739
 2869SOL    HW220067   0.671   4.447   9.088 -1.1215 -0.1555  0.0253
 2870SOL     OW20068   0.135   0.232   8.617  0.2623  0.1772 -0.6398
 2870SOL    HW120069   0.049   0.272   8.625  0.1415 -0.1092 -0.5152
 2870SOL    HW220070   0.198   0.301   8.597 -0.1446  0.8529  0.4480
 2871SOL     OW20071   1.999   1.662   2.799 -0.2350  0.2093  0.4551
 2871SOL    HW120072   2.012   1.580   2.751 -4.6529 -0.3101  0.0945
 2871SOL    HW220073   2.004   1.623   2.886 -1.5925 -1.0830 -0.0375
 2872SOL     OW20074   3.463   4.470   0.321  0.1821 -0.1054 -0.3365
 2872SOL    HW120075   3.375   4.508   0.318 -0.3618 -1.5500 -2.3014
 2872SOL    HW220076   3.513   4.541   0.361  1.0522 -0.8601 -0.0711
 2873SOL     OW20077   1.013   1.351   7.076 -0.2349  0.1104 -0.0828
 2873SOL    HW120078   1.007   1.266   7.032  2.5779 -0.9282  1.5112
 2873SOL    HW220079   1.013   1.407   6.999  0.0527 -1.6112 -1.3384
 2874SOL     OW20080   2.219   2.774   8.283 -0.2853  0.5335 -0.1503
 2874SOL    HW120081   2.234   2.829   8.360 -0.3892 -0.1014  0.3301
 2874SOL    HW220082   2.234   2.685   8.315  0.4252  0.2480 -1.2852
 2875SOL     OW20083   0.045   4.503   3.999  0.1187  0.0559  0.0727
 2875SOL    HW120084   0.112   4.442   4.032  0.8036 -0.1866 -1.7771
 2875SOL    HW220085   4.695   4.471   4.049 -0.7013  1.4127 -0.3273
 2876SOL     OW20086   0.824   2.029   5.674  0.3500 -0.1670  0.0742
 2876SOL    HW120087   0.837   1.951   5.619  2.8033  0.4130 -0.1711
 2876SOL    HW220088   0.828   2.094   5.603  0.3900  0.6628  0.8455
 2877SOL     OW20089   4.126   4.447  11.687  0.3384 -0.1279 -0.1512
 2877SOL    HW120090   4.183   4.469  11.760  1.6011 -1.1748 -0.8296
 2877SOL    HW220091   4.040   4.477  11.715  1.6125  3.1519  0.1708
 2878SOL     OW20092   1.696   2.556   5.157  0.3429  0.1289  0.6010
 2878SOL    HW120093   1.609   2.517   5.168  0.2811 -0.1292 -0.8435
 2878SOL    HW220094   1.722   2.536   5.247  0.6922  0.0667  0.4868
 2879SOL     OW20095   2.148   0.752   6.772 -0.8281 -0.3329  0.5578
 2879SOL    HW120096   2.171   0.766   6.864  1.1673 -0.9602  0.1735
 2879SOL    HW220097   2.169   0.659   6.759  0.8521  0.0001  0.8778
 2880SOL     OW20098   0.442   0.137  12.117  0.1054  0.0227  0.2518
 2880SOL    HW120099   0.404   0.221  12.090  1.1757  0.2282 -0.5799
 2880SOL    HW220100   0.363   0.085  12.135 -0.1426  0.2383 -0.2154
 2881SOL     OW20101   0.435   4.680  10.680  0.7616  0.2617  0.4066
 2881SOL    HW120102   0.448   4.618  10.752 -0.7811  0.6949  1.0557
 2881SOL    HW220103   0.342   4.703  10.685  0.6095 -0.8093  2.7683
 2882SOL     OW20104   3.795   4.352   1.888  0.2363  0.1123 -0.2025
 2882SOL    HW120105   3.850   4.292   1.838 -1.2843 -1.5044  0.0528
 2882SOL    HW220106   3.772   4.414   1.819  2.5466  3.1794  1.8045
 2883SOL     OW20107   4.708   0.969   7.989 -0.0908 -0.3862  0.1433
 2883SOL    HW120108   0.006   0.877   8.001  1.1621 -0.0268  0.3512
 2883SOL    HW220109   0.064   1.017   7.995  0.7416 -1.5151 -2.0634
 2884SOL     OW20110   4.432   1.992   3.407 -0.6594 -0.0701 -0.1648
 2884SOL    HW120111   4.432   1.903   3.441  0.4244  0.0333  0.1079
 2884SOL    HW220112   4.365   2.029   3.465 -0.3270  1.1343 -0.5472
 2885SOL     OW20113   3.357   1.086   4.535  0.2685 -0.3593 -0.1360
 2885SOL    HW120114   3.443   1.062   4.501 -0.1686 -1.2446 -0.6031
 2885SOL    HW220115   3.374   1.092   4.629  1.5217 -0.1453 -0.3755
 2886SOL     OW20116   1.836   1.193  16.598 -0.2115  0.0640  0.3899
 2886SOL    HW120117   1.826   1.271  16.653 -1.0345 -2.2077  3.4084
 2886SOL    HW220118   1.766   1.137  16.632  0.0866  0.5101  1.7167
 2887SOL     OW20119   1.270   0.209   6.506  0.1987 -0.3004 -0.1429
 2887SOL    HW120120   1.200   0.149   6.479  0.9748 -1.6055  0.7589
 2887SOL    HW220121   1.339   0.152   6.473  0.6937 -0.0236  0.4272
 2888SOL     OW20122   1.194   1.978   7.814 -1.0742  0.3895  0.3024
 2888SOL    HW120123   1.257   2.049   7.805  1.1245 -1.7921 -1.6133
 2888SOL    HW220124   1.175   1.989   7.907 -0.2011 -1.2141  0.6786
 2889SOL     OW20125   4.398   3.292   4.137  0.5057  0.3015  0.0682
 2889SOL    HW120126   4.327   3.243   4.094 -0.1292  2.6460 -1.5684
 2889SOL    HW220127   4.458   3.307   4.064  0.0740 -1.7196 -0.7124
 2890SOL     OW20128   4.161   0.496  15.095  0.2317 -0.2022  0.4601
 2890SOL    HW120129   4.127   0.448  15.020  1.9909 -0.1049 -0.3933
 2890SOL    HW220130   4.249   0.458  15.095  0.0597 -0.6028 -3.5030
 2891SOL     OW20131   2.949   3.478  14.823  0.1861 -0.6491 -0.0824
 2891SOL    HW120132   3.002   3.544  14.779 -0.9091  0.8748  0.8875
 2891SOL    HW220133   2.868   3.502  14.777 -0.8456 -0.4172  1.8148
 2892SOL     OW20134   4.576   4.648   8.570 -0.2849 -0.2588  0.3782
 2892SOL    HW120135   4.624   4.583   8.622 -0.3596 -0.5243  0.1132
 2892SOL    HW220136   4.585   4.722   8.630 -0.6052  0.6578 -0.6927
 2893SOL     OW20137   0.056   1.892   7.894  0.1354  0.0719 -0.5988
 2893SOL    HW120138   0.067   1.827   7.825  2.2067  2.9571 -2.9671
 2893SOL    HW220139   0.140   1.880   7.939 -0.6944  1.1767  1.2553
 2894SOL     OW20140   2.832   4.132   7.204 -0.7852 -0.3701 -0.3227
 2894SOL    HW120141   2.741   4.131   7.174 -0.1450  1.5665 -2.3711
 2894SOL    HW220142   2.837   4.056   7.261  0.9545 -0.7844 -1.0213
 2895SOL     OW20143   0.878   0.698   0.309 -0.2982  0.7043  0.0496
 2895SOL    HW120144   0.951   0.665   0.361  1.4364 -0.1746 -2.9614
 2895SOL    HW220145   0.838   0.619   0.272  2.1432 -0.3447 -0.3065
 2896SOL     OW20146   3.411   4.350   2.287 -0.0086 -0.1078 -0.4574
 2896SOL    HW120147   3.377   4.418   2.229  1.3874  0.3067 -0.8079
 2896SOL    HW220148   3.484   4.311   2.239 -3.5883 -3.0740 -3.5131
 2897SOL     OW20149   0.230   2.448   7.508 -0.2044 -0.3986  0.4643
 2897SOL    HW120150   0.191   2.479   7.426 -0.3872 -0.1927  0.6321
 2897SOL    HW220151   0.168   2.375   7.510  1.4705 -1.8899 -1.3097
 2898SOL     OW20152   4.668   3.971  17.319  0.2503  0.1982 -0.2878
 2898SOL    HW120153   4.629   3.908  17.379  0.8055  0.2145  0.0907
 2898SOL    HW220154   4.639   4.057  17.348 -0.0918 -1.0375  2.9917
 2899SOL     OW20155   3.148   4.211  13.349  0.1938 -0.1166 -0.1802
 2899SOL    HW120156   3.170   4.140  13.289  2.3943  1.0372 -0.7464
 2899SOL    HW220157   3.194   4.198  13.432 -0.5865 -2.2026 -0.0878
 2900SOL     OW20158   4.174   0.186  14.883  0.1761 -0.5113  0.2243
 2900SOL    HW120159   4.180   0.224  14.795  1.2859  0.0687  0.5477
 2900SOL    HW220160   4.173   0.093  14.862 -0.2646 -0.6628  0.9067
 2901SOL     OW20161   0.411   3.927   1.238 -0.4153  0.2577 -0.2169
 2901SOL    HW120162   0.419   3.834   1.216  0.9736  0.4150 -0.4083
 2901SOL    HW220163   0.397   3.904   1.329 -2.2736  0.1653 -0.5198
 2902SOL     OW20164   3.840   2.735   3.805  0.2137  0.0266 -0.2161
 2902SOL    HW120165   3.906   2.757   3.740  2.0110 -1.7894  0.9675
 2902SOL    HW220166   3.758   2.734   3.755 -0.6374 -0.3707  1.1728
 2903SOL     OW20167   2.804   1.167   6.233 -0.3160  0.2004 -0.1090
 2903SOL    HW120168   2.747   1.119   6.292  0.6538  1.6744  2.0469
 2903SOL    HW220169   2.802   1.254   6.273 -1.5377  0.6683 -1.1928
 2904SOL     OW20170   1.893   2.297   8.342  0.4755 -0.2555 -0.1112
 2904SOL    HW120171   1.871   2.318   8.433  0.0984  0.4584 -0.3592
 2904SOL    HW220172   1.811   2.257   8.313 -0.5544  1.5580  0.2858
 2905SOL     OW20173   0.166   3.791   8.815  0.3016 -0.1191 -0.2626
 2905SOL    HW120174   0.228   3.774   8.887 -0.8510  0.1652  0.7989
 2905SOL    HW220175   0.162   3.706   8.772 -0.0145 -0.7494  1.0004
 2906SOL     OW20176   1.090   1.503  16.389 -0.1064 -0.0254  0.3056
 2906SOL    HW120177   0.998   1.488  16.369 -0.3413  1.0170  0.6133
 2906SOL    HW220178   1.103   1.597  16.396 -0.0569 -0.0446  0.4643
 2907SOL     OW20179   2.550   4.701   4.559  0.0351  0.4209  0.8322
 2907SOL    HW120180   2.535   4.607   4.565 -1.4425  0.6603  1.0799
 2907SOL    HW220181   2.470   4.724   4.512  1.2705 -1.0039 -1.8990
 2908SOL     OW20182   3.283   2.043   5.783 -0.2086 -1.0533  0.2600
 2908SOL    HW120183   3.348   1.991   5.832  1.3507  2.1143  1.5268
 2908SOL    HW220184   3.341   2.072   5.713 -0.3612  0.5646  0.8197
 2909SOL     OW20185   3.784   3.119  12.826  0.1444 -0.3435  0.4273
 2909SOL    HW120186   3.785   3.025  12.811 -0.4832  0.0096 -1.7220
 2909SOL    HW220187   3.734   3.128  12.908 -0.0726 -1.2239  0.3907
 2910SOL     OW20188   1.946   2.025   9.557 -0.1580  0.3171  0.1475
 2910SOL    HW120189   2.036   1.994   9.555 -0.4793 -0.6474  0.8052
 2910SOL    HW220190   1.961   2.090   9.488 -1.7057  0.1523 -0.3514
 2911SOL     OW20191   0.991   2.786   6.997 -0.3987  0.2197 -0.4003
 2911SOL    HW120192   0.972   2.878   6.979 -2.2451  0.1979  1.3874
 2911SOL    HW220193   0.904   2.763   7.029 -0.0749 -0.0444  0.2759
 2912SOL     OW20194   4.149   2.993  11.736 -0.0766  0.4508 -0.3695
 2912SOL    HW120195   4.079   3.024  11.794  1.4830 -0.4082  1.9818
 2912SOL    HW220196   4.108   2.909  11.714  1.4987 -0.3092 -0.4290
 2913SOL     OW20197   4.423   2.849   5.454  0.2326 -0.3558 -0.3761
 2913SOL    HW120198   4.334   2.816   5.444 -0.1367 -0.2721  2.8672
 2913SOL    HW220199   4.457   2.823   5.368  0.8747 -1.5203  0.2218
 2914SOL     OW20200   0.683   2.868   2.478  0.3435  0.1052 -0.0331
 2914SOL    HW120201   0.640   2.949   2.450 -0.0186 -0.8250 -2.1624
 2914SOL    HW220202   0.777   2.886   2.490  0.8197 -0.3562 -3.1045
 2915SOL     OW20203   4.426   2.503  16.904 -0.1727  0.2263  0.6622
 2915SOL    HW120204   4.334   2.479  16.904  0.1155 -0.7858  2.8440
 2915SOL    HW220205   4.467   2.460  16.978  1.1911  0.6576  0.1729
 2916SOL     OW20206   4.718   4.057  15.203 -0.4247  0.6552  0.2536
 2916SOL    HW120207   4.627   4.066  15.230 -1.1645  1.1404 -2.3912
 2916SOL    HW220208   0.013   3.972  15.242 -2.0385  0.1173 -0.0582
 2917SOL     OW20209   3.570   0.933   4.446  0.1613 -0.3042 -0.1619
 2917SOL    HW120210   3.514   0.908   4.373 -1.8814  3.1016  0.2423
 2917SOL    HW220211   3.559   0.866   4.514 -1.2771 -1.2802 -1.3741
 2918SOL     OW20212   2.023   0.718  17.276 -0.1416  0.3964  0.5667
 2918SOL    HW120213   2.017   0.638  17.329 -1.7514 -0.5071 -0.9693
 2918SOL    HW220214   1.937   0.722  17.233 -0.1850  0.5297  0.6666
 2919SOL     OW20215   4.300   1.397   7.346  0.2261  0.2508 -0.2175
 2919SOL    HW120216   4.338   1.329   7.291 -2.1955  0.0045 -1.5613
 2919SOL    HW220217   4.293   1.472   7.286 -1.5424 -0.0863 -0.4216
 2920SOL     OW20218   3.462   2.619   9.807 -0.0323  0.0221  0.5305
 2920SOL    HW120219   3.540   2.670   9.828 -0.8109  0.9050  1.2856
 2920SOL    HW220220   3.501   2.534   9.826 -0.5523  0.1463  2.1843
 2921SOL     OW20221   4.230   2.718   4.962  0.1533  0.8340 -0.5676
 2921SOL    HW120222   4.239   2.684   4.873 -1.7163 -0.8211 -0.1270
 2921SOL    HW220223   4.163   2.784   4.945 -1.3565 -1.1491 -2.3093
 2922SOL     OW20224   3.703   0.372   1.232 -0.5308 -0.6206  0.1255
 2922SOL    HW120225   3.653   0.453   1.224  1.6065  0.6999  0.1300
 2922SOL    HW220226   3.778   0.397   1.178 -0.8416  1.0294  0.4512
 2923SOL     OW20227   0.030   0.037   4.085 -0.1777  0.2647  0.2039
 2923SOL    HW120228   0.040   4.668   4.072 -3.3958 -0.2238  1.4067
 2923SOL    HW220229   0.101   0.067   4.142  0.3743  0.5944 -0.6473
 2924SOL     OW20230   2.241   0.289  14.563 -0.7676  0.6433 -0.1188
 2924SOL    HW120231   2.223   0.273  14.656 -0.3940 -1.2659 -0.3924
 2924SOL    HW220232   2.300   0.364  14.575  0.8295 -0.3886 -1.5742
 2925SOL     OW20233   4.469   0.879  14.097  0.2592 -0.8370  0.0497
 2925SOL    HW120234   4.493   0.881  14.189  0.5400 -1.1022 -0.0162
 2925SOL    HW220235   4.550   0.898  14.049  0.0543  0.2074  0.1374
 2926SOL     OW20236   2.180   3.877   9.350  0.1033 -0.5460  0.4783
 2926SOL    HW120237   2.229   3.870   9.431  0.7593  0.3417  0.1662
 2926SOL    HW220238   2.217   3.957   9.311 -1.0241  0.6212  1.7925
 2927SOL     OW20239   1.163   1.888   4.132  0.7001 -0.0460  0.3119
 2927SOL    HW120240   1.118   1.875   4.216  0.0713 -0.7222 -0.1301
 2927SOL    HW220241   1.248   1.920   4.162  0.7990 -0.3113  0.3120
 2928SOL     OW20242   4.339   3.444  10.354 -0.0505  0.4932  0.2966
 2928SOL    HW120243   4.313   3.510  10.419 -2.0791  0.2817 -0.3047
 2928SOL    HW220244   4.412   3.494  10.318  0.7069 -0.9248 -0.1398
 2929SOL     OW20245   4.282   3.788   4.499  0.0723  0.0264 -0.4742
 2929SOL    HW120246   4.259   3.796   4.406 -2.9227  0.5636  0.3153
 2929SOL    HW220247   4.333   3.866   4.520 -2.2306  1.3519  0.1590
 2930SOL     OW20248   2.550   3.399   6.942 -0.5805 -0.0852  0.2702
 2930SOL    HW120249   2.630   3.392   6.994  0.5643 -2.2626 -1.7985
 2930SOL    HW220250   2.507   3.316   6.962  1.3395 -1.4658 -1.3888
 2931SOL     OW20251   4.017   3.852  16.199  0.0658 -0.7727 -0.7198
 2931SOL    HW120252   4.029   3.813  16.285  1.8244  2.2539  0.4266
 2931SOL    HW220253   3.938   3.907  16.200  1.3056  0.9530  2.0788
 2932SOL     OW20254   1.663   4.195   7.798  0.0682  0.1285 -0.1657
 2932SOL    HW120255   1.759   4.191   7.797  0.0683 -0.1615  1.4838
 2932SOL    HW220256   1.636   4.112   7.760  2.6317 -1.5767  1.7972
 2933SOL     OW20257   4.540   2.057   0.316 -0.3255 -0.1627  0.2097
 2933SOL    HW120258   4.475   1.987   0.311 -0.4254 -0.1224  0.8702
 2933SOL    HW220259   4.548   2.056   0.412  0.0004 -0.8735  0.1783
 2934SOL     OW20260   0.140   3.279   5.883 -0.0414  0.1048  0.2899
 2934SOL    HW120261   0.219   3.264   5.832 -0.8446 -0.7507 -0.7007
 2934SOL    HW220262   0.169   3.356   5.932  1.4892  0.0124 -0.5045
 2935SOL     OW20263   4.473   2.680   5.062  0.2984  0.4354 -0.1756
 2935SOL    HW120264   4.502   2.675   4.971 -1.0033  0.1893 -0.5713
 2935SOL    HW220265   4.379   2.685   5.043  0.3157  2.7168  0.2737
 2936SOL     OW20266   3.010   1.800  14.994  0.1932  0.4620 -0.0061
 2936SOL    HW120267   3.048   1.820  14.908  0.9090 -0.6197  0.0592
 2936SOL    HW220268   3.083   1.778  15.052 -0.5039  2.0949  1.4558
 2937SOL     OW20269   1.197   3.224   6.299 -0.0935  0.4480  0.3998
 2937SOL    HW120270   1.159   3.253   6.382  0.3639 -0.8413  1.0622
 2937SOL    HW220271   1.116   3.202   6.255 -1.1952  1.5025  1.9129
 2938SOL     OW20272   0.514   0.320  11.207  0.2718 -0.0657  0.2479
 2938SOL    HW120273   0.531   0.371  11.128  1.0641  1.4347  1.3834
 2938SOL    HW220274   0.479   0.244  11.161 -0.3345 -0.0230  0.6332
 2939SOL     OW20275   3.194   4.346   2.647  0.2286 -0.1568  0.1783
 2939SOL    HW120276   3.278   4.349   2.693 -0.7710 -1.1929  2.0848
 2939SOL    HW220277   3.199   4.265   2.595 -1.9887  0.1512 -0.5200
 2940SOL     OW20278   0.339   3.651   0.231 -0.1121  0.1032  0.2989
 2940SOL    HW120279   0.365   3.688   0.146 -0.8941  0.9663  0.4274
 2940SOL    HW220280   0.269   3.709   0.262 -3.0059 -2.5923 -1.1505
 2941SOL     OW20281   1.983   4.439   4.846 -0.2978  0.2919 -0.0989
 2941SOL    HW120282   1.918   4.388   4.894 -0.8535  0.2872 -0.8451
 2941SOL    HW220283   2.047   4.369   4.857 -0.9854 -0.0021  1.9897
 2942SOL     OW20284   0.680   4.343   4.658  0.0376  0.7570  0.0257
 2942SOL    HW120285   0.594   4.376   4.681  0.2202 -0.4161  2.3333
 2942SOL    HW220286   0.664   4.251   4.682  0.1068  0.4719 -0.9890
 2943SOL     OW20287   2.881   3.333  11.150 -0.2219  0.4224 -0.1664
 2943SOL    HW120288   2.940   3.379  11.210  1.4103 -1.4300 -0.3665
 2943SOL    HW220289   2.802   3.325  11.203  0.4158 -0.0495  0.7002
 2944SOL     OW20290   2.070   3.624   8.352  0.0405 -0.1922 -0.5748
 2944SOL    HW120291   2.111   3.538   8.344 -0.8539 -0.5774 -1.0151
 2944SOL    HW220292   2.089   3.669   8.269  0.2036 -1.4276 -1.2129
 2945SOL     OW20293   4.546   2.013   4.814  0.0612 -0.4679  0.3994
 2945SOL    HW120294   4.533   1.933   4.865 -1.7449 -0.7881 -0.5648
 2945SOL    HW220295   4.485   2.000   4.742 -1.3571 -0.0381  1.5389
 2946SOL     OW20296   0.034   3.456   0.780 -0.6846 -0.1793 -0.1449
 2946SOL    HW120297   4.710   3.427   0.856 -0.2262 -0.2288  0.1343
 2946SOL    HW220298   0.029   3.551   0.787 -0.0268 -0.0493 -1.2592
 2947SOL     OW20299   4.266   0.650   4.023  1.0850  0.0314 -0.5043
 2947SOL    HW120300   4.336   0.686   4.077 -0.2782  2.3090 -0.2569
 2947SOL    HW220301   4.217   0.730   4.002  0.8901  0.0986  0.2175
 2948SOL     OW20302   4.125   2.626   7.544  0.4622 -0.2596  0.5901
 2948SOL    HW120303   4.142   2.703   7.599 -1.8880  0.0674  0.8690
 2948SOL    HW220304   4.147   2.656   7.456 -0.9506  0.3622  0.4515
 2949SOL     OW20305   2.311   3.662  15.830  0.6852  0.5466 -0.1460
 2949SOL    HW120306   2.269   3.743  15.859 -1.4523  0.6775 -3.5465
 2949SOL    HW220307   2.388   3.665  15.887  1.4384 -1.4609 -1.0705
 2950SOL     OW20308   2.450   2.008  16.914  0.0167 -0.5741  0.1348
 2950SOL    HW120309   2.447   2.048  17.001 -1.6786  0.1338 -0.2535
 2950SOL    HW220310   2.383   1.940  16.912  0.6528 -1.1908 -0.0715
 2951SOL     OW20311   3.916   2.679   9.189  0.2953  0.3037  0.0302
 2951SOL    HW120312   3.898   2.748   9.125 -1.7771 -1.5887 -1.4570
 2951SOL    HW220313   3.831   2.676   9.233 -1.2052  3.3388 -2.6586
 2952SOL     OW20314   4.325   0.141   2.640 -0.5261 -0.1389 -0.1850
 2952SOL    HW120315   4.389   0.151   2.569  0.4274  1.6323  0.9281
 2952SOL    HW220316   4.367   0.190   2.710 -2.5592  1.7263 -0.2696
 2953SOL     OW20317   2.686   3.493   0.195 -0.6132  0.0873 -0.2842
 2953SOL    HW120318   2.767   3.471   0.148 -0.8935 -4.4926  1.3871
 2953SOL    HW220319   2.724   3.554   0.258 -1.0560  0.1145 -0.0498
 2954SOL     OW20320   2.845   1.478  17.397  0.4024  0.0421 -0.8132
 2954SOL    HW120321   2.854   1.436  17.311  1.3806 -2.7352  0.6422
 2954SOL    HW220322   2.757   1.448  17.421  0.3470  2.6840  2.2528
 2955SOL     OW20323   3.920   0.504   3.402  0.4604 -0.2531 -0.3475
 2955SOL    HW120324   4.012   0.519   3.426  1.0128 -1.3989 -1.7536
 2955SOL    HW220325   3.922   0.508   3.307  2.7167  1.1797 -0.2286
 2956SOL     OW20326   1.034   3.986   5.368 -0.1761  0.0118 -0.4694
 2956SOL    HW120327   1.002   3.922   5.432  0.6171 -0.5044 -0.5739
 2956SOL    HW220328   1.117   3.944   5.342  0.2625  0.3217  0.4206
 2957SOL     OW20329   0.132   2.676   0.432  0.4927  0.3016  0.0185
 2957SOL    HW120330   0.086   2.605   0.388 -1.8618  0.8831  1.5432
 2957SOL    HW220331   0.086   2.674   0.516 -0.5364  2.2590 -0.4850
 2958SOL     OW20332   2.910   0.865   0.489 -0.1256 -0.2670 -0.8398
 2958SOL    HW120333   2.847   0.934   0.509 -2.8939 -3.3393  0.9672
 2958SOL    HW220334   2.940   0.900   0.405  1.1264  0.8173  0.0564
 2959SOL     OW20335   0.096   4.432   8.671  0.7478 -0.0200  0.4918
 2959SOL    HW120336   0.160   4.476   8.614 -0.3966  0.0417 -0.7509
 2959SOL    HW220337   0.135   4.345   8.669 -0.4143 -0.5093 -0.9703
 2960SOL     OW20338   1.118   2.327  16.736 -0.3827 -0.0224  0.0284
 2960SOL    HW120339   1.076   2.270  16.673 -1.0289  2.2615 -1.6263
 2960SOL    HW220340   1.154   2.262  16.796  2.2987 -0.7219 -2.3871
 2961SOL     OW20341   1.826   2.329   5.933 -0.6205  0.2445  0.3816
 2961SOL    HW120342   1.757   2.347   5.870 -1.3564  0.1931  1.1854
 2961SOL    HW220343   1.789   2.356   6.016  0.7456 -2.0722  1.7544
 2962SOL     OW20344   2.789   4.435   5.649  0.4137  0.3557  0.2455
 2962SOL    HW120345   2.707   4.389   5.632  0.5557  0.0048  0.5215
 2962SOL    HW220346   2.783   4.436   5.745  1.2274 -2.3777  0.3282
 2963SOL     OW20347   0.169   0.792   9.553 -0.1039 -0.1600 -0.1981
 2963SOL    HW120348   0.144   0.843   9.630  0.4003 -1.2316  0.6632
 2963SOL    HW220349   0.115   0.828   9.482  0.0647  0.1685 -0.1590
 2964SOL     OW20350   0.218   4.339   4.133 -0.9380 -0.3645 -0.0684
 2964SOL    HW120351   0.212   4.295   4.218 -1.8811 -0.6900 -0.3039
 2964SOL    HW220352   0.299   4.388   4.140 -0.3617 -1.1261 -1.5525
 2965SOL     OW20353   0.951   3.927   6.380 -0.2945  0.2150 -0.1333
 2965SOL    HW120354   0.900   3.902   6.303 -1.8362  1.1115  0.5876
 2965SOL    HW220355   1.015   3.984   6.338 -0.8862  0.9867  0.0084
 2966SOL     OW20356   1.292   0.619  15.732  0.0834  0.1224 -0.2480
 2966SOL    HW120357   1.267   0.706  15.702  2.5388  0.4250 -1.4647
 2966SOL    HW220358   1.224   0.573  15.684  0.0274 -0.9831  0.9134
 2967SOL     OW20359   1.464   3.052   8.748  0.3510  0.0373  0.1103
 2967SOL    HW120360   1.517   2.973   8.743  1.4949  0.8021  0.1086
 2967SOL    HW220361   1.421   3.044   8.833  2.6049  0.7573  1.3160
 2968SOL     OW20362   1.312   1.674  10.796 -0.6523 -0.1529 -0.3022
 2968SOL    HW120363   1.255   1.744  10.828 -0.5529 -0.8206  1.3016
 2968SOL    HW220364   1.397   1.717  10.803 -0.2999 -0.8399 -0.3351
 2969SOL     OW20365   1.356   2.462  16.772  0.2553 -0.7728  0.0612
 2969SOL    HW120366   1.285   2.450  16.709  0.0485  2.3553 -0.3049
 2969SOL    HW220367   1.335   2.385  16.825 -0.5114 -1.2228 -0.8982
 2970SOL     OW20368   0.036   0.981   4.275  0.0358  0.0321 -0.2833
 2970SOL    HW120369   0.008   1.073   4.280 -0.2722 -0.0970  0.3930
 2970SOL    HW220370   0.099   0.970   4.346 -0.3137 -1.7189 -0.2380
 2971SOL     OW20371   1.736   4.657   0.352  0.1706  0.1341  0.1685
 2971SOL    HW120372   1.645   4.627   0.345 -0.0026  1.0623 -1.6592
 2971SOL    HW220373   1.781   4.582   0.314 -0.6241  0.3477 -1.2066
 2972SOL     OW20374   0.343   3.775   8.339  0.0118  0.6564  0.0628
 2972SOL    HW120375   0.375   3.688   8.317 -1.3114  0.4440 -0.9926
 2972SOL    HW220376   0.361   3.763   8.432 -1.0691 -1.2891  0.0056
 2973SOL     OW20377   4.508   0.261   5.272 -0.0723  0.2141  0.0873
 2973SOL    HW120378   4.587   0.301   5.309 -0.5904  1.6290 -0.3696
 2973SOL    HW220379   4.468   0.216   5.347 -0.8180 -0.0549 -0.4714
 2974SOL     OW20380   4.005   3.426   7.439  0.0216 -0.3991  0.0715
 2974SOL    HW120381   4.055   3.393   7.365 -2.0058 -1.2199 -0.9356
 2974SOL    HW220382   4.073   3.418   7.506 -0.9346 -2.3194  0.7894
 2975SOL     OW20383   4.354   0.191   3.324 -0.5455 -0.0433  0.7404
 2975SOL    HW120384   4.441   0.226   3.303 -1.7775  2.4540 -0.1629
 2975SOL    HW220385   4.354   0.205   3.419 -0.4505 -2.3543  1.0752
 2976SOL     OW20386   1.735   2.435   2.086  0.3284 -0.7357 -0.1135
 2976SOL    HW120387   1.648   2.475   2.089  0.7534  0.0246  2.1722
 2976SOL    HW220388   1.732   2.377   2.162 -0.3957 -1.0387 -0.3673
 2977SOL     OW20389   3.917   1.688   2.749 -0.0985  0.5736  0.0042
 2977SOL    HW120390   3.837   1.705   2.798  0.2914  0.3540  0.7129
 2977SOL    HW220391   3.954   1.776   2.733  2.0269 -0.4634 -0.8597
 2978SOL     OW20392   2.360   1.071   2.741  0.0950 -0.5977  0.1689
 2978SOL    HW120393   2.370   0.983   2.704  0.7988 -0.7563  0.7409
 2978SOL    HW220394   2.354   1.057   2.835  1.8936 -2.1057  0.0729
 2979SOL     OW20395   2.083   1.236   1.019 -0.7103 -0.0550  0.5132
 2979SOL    HW120396   2.074   1.331   1.011  1.1588 -0.0413 -1.4773
 2979SOL    HW220397   2.156   1.235   0.957 -0.2853  4.2843  0.9118
 2980SOL     OW20398   3.995   2.223   3.975 -0.0719  0.1308  0.5342
 2980SOL    HW120399   4.081   2.263   3.985 -0.2236  0.2248  1.4372
 2980SOL    HW220400   3.941   2.287   4.021 -1.0585 -0.0340 -0.3962
 2981SOL     OW20401   3.236   3.873  12.950 -0.4848  0.1384 -0.1387
 2981SOL    HW120402   3.276   3.927  12.882  0.1649 -1.4288 -1.0087
 2981SOL    HW220403   3.297   3.799  12.956  0.5823  0.9832 -0.4289
 2982SOL     OW20404   0.085   2.432   3.027  0.3604 -0.1467 -0.4236
 2982SOL    HW120405   0.073   2.522   3.056  1.7043  0.1846 -0.8695
 2982SOL    HW220406   4.721   2.401   3.013  1.7744 -2.9928 -3.0880
 2983SOL     OW20407   4.424   1.593   0.232  0.9312 -0.8500  0.0723
 2983SOL    HW120408   4.474   1.542   0.168  3.1513 -0.1201  1.2407
 2983SOL    HW220409   4.352   1.533   0.254 -1.3188  1.7759 -0.1266
 2984SOL     OW20410   0.988   2.864   3.203 -0.2065  0.6496  0.0384
 2984SOL    HW120411   1.021   2.942   3.158  2.9177 -0.0251  1.1314
 2984SOL    HW220412   0.903   2.848   3.162 -1.3427 -0.4607  2.8810
 2985SOL     OW20413   3.593   2.394  17.690  0.5357 -0.1185  0.0980
 2985SOL    HW120414   3.606   2.489  17.692 -0.8533  0.0016  2.7748
 2985SOL    HW220415   3.537   2.376   0.061 -0.4707 -0.5237 -0.7395
 2986SOL     OW20416   0.492   1.017   7.845 -0.0986 -0.1985  0.5210
 2986SOL    HW120417   0.583   1.042   7.826 -0.3297  0.9450  0.9438
 2986SOL    HW220418   0.480   1.040   7.937 -0.3644  1.7118  0.0167
 2987SOL     OW20419   3.739   1.669   6.751  0.1047  0.3158  0.0701
 2987SOL    HW120420   3.789   1.589   6.736  0.5565  0.1529  2.4841
 2987SOL    HW220421   3.658   1.651   6.704  1.6570 -2.2489 -1.6578
 2988SOL     OW20422   3.479   2.691   8.212  0.1685  0.5875 -0.1040
 2988SOL    HW120423   3.451   2.772   8.170 -1.6010  1.6460  3.1292
 2988SOL    HW220424   3.397   2.644   8.227 -1.1886  3.4387  1.5971
 2989SOL     OW20425   4.112   2.382  15.905  0.4332 -0.0995 -0.3937
 2989SOL    HW120426   4.088   2.340  15.988  3.7065  1.3861  1.3050
 2989SOL    HW220427   4.027   2.403  15.866  0.8358  0.4044 -0.9990
 2990SOL     OW20428   3.664   3.264   3.847  0.2834  0.0735  0.0668
 2990SOL    HW120429   3.701   3.335   3.794  2.7199 -0.7249  0.6878
 2990SOL    HW220430   3.728   3.246   3.915 -0.4497  0.4289  0.8509
 2991SOL     OW20431   1.583   1.405   4.602  0.2980  0.1116  0.3229
 2991SOL    HW120432   1.614   1.491   4.630 -0.4824  0.3305  0.5295
 2991SOL    HW220433   1.658   1.376   4.551  0.0580 -0.6342  0.4012
 2992SOL     OW20434   1.439   1.221   6.054 -0.2217  0.0462 -0.0311
 2992SOL    HW120435   1.414   1.205   6.145  1.4211 -0.1124  0.3895
 2992SOL    HW220436   1.463   1.314   6.058  0.8479 -0.2508  0.5858
 2993SOL     OW20437   3.900   4.323  16.108 -0.2835 -0.3481  0.4165
 2993SOL    HW120438   3.810   4.335  16.140 -0.5660  1.6685 -1.1547
 2993SOL    HW220439   3.902   4.231  16.081 -0.4430 -1.0128  2.6631
 2994SOL     OW20440   1.888   0.296   7.156  0.0799  0.6038  0.7457
 2994SOL    HW120441   1.870   0.226   7.219 -1.4552 -1.6312 -2.2171
 2994SOL    HW220442   1.804   0.342   7.151 -0.4231 -0.1959  1.7993
 2995SOL     OW20443   0.263   4.399   3.618 -0.1425 -0.2566 -0.0869
 2995SOL    HW120444   0.177   4.408   3.660  1.1125 -2.3595  2.8672
 2995SOL    HW220445   0.248   4.402   3.523 -4.1522  3.1446  0.6467
 2996SOL     OW20446   3.534   3.628   6.814 -0.1080  0.9608  0.0483
 2996SOL    HW120447   3.470   3.558   6.825 -0.2765  0.9374 -1.0500
 2996SOL    HW220448   3.491   3.704   6.854 -0.3292  2.0568 -2.2234
 2997SOL     OW20449   2.570   4.238   4.867  0.7618 -0.2654 -0.0480
 2997SOL    HW120450   2.616   4.156   4.886  0.4899 -0.4904 -0.3688
 2997SOL    HW220451   2.497   4.207   4.814 -1.0793  1.4808  1.4230
 2998SOL     OW20452   2.854   2.265   6.059  0.0136 -0.0712  0.9100
 2998SOL    HW120453   2.854   2.226   6.147  0.0071  0.4381  1.1307
 2998SOL    HW220454   2.948   2.282   6.049 -0.4263  1.2659 -0.8510
 2999SOL     OW20455   0.554   3.273  14.465 -0.4341 -0.3543 -0.2835
 2999SOL    HW120456   0.624   3.323  14.422 -1.1190 -0.3426 -1.3926
 2999SOL    HW220457   0.476   3.323  14.441 -0.1297 -0.7661 -2.1099
 3000SOL     OW20458   0.728   4.205  16.673  0.6653 -0.0689 -0.0161
 3000SOL    HW120459   0.778   4.151  16.610  0.5654 -0.0168 -0.1395
 3000SOL    HW220460   0.786   4.205  16.749  1.9552  1.6480 -0.9972
 3001SOL     OW20461   4.648   3.277   4.854 -0.5001  0.1889  0.2918
 3001SOL    HW120462   4.553   3.275   4.859 -0.5021  1.6135  0.8069
 3001SOL    HW220463   4.678   3.243   4.769  0.7981  0.1525  0.7656
 3002SOL     OW20464   0.911   4.405   5.566  0.5830  0.2565  0.4531
 3002SOL    HW120465   0.817   4.392   5.569  0.3332  1.9059  0.1667
 3002SOL    HW220466   0.929   4.394   5.472  0.1791 -3.1285  0.7814
 3003SOL     OW20467   2.825   0.651   8.469 -0.2212  0.5856 -0.2380
 3003SOL    HW120468   2.743   0.605   8.452  0.2081  0.0195 -0.7398
 3003SOL    HW220469   2.839   0.694   8.385 -0.4346  1.9092  0.4072
 3004SOL     OW20470   4.490   2.739  13.107 -0.2976  0.5211 -0.0800
 3004SOL    HW120471   4.502   2.803  13.177 -2.0122  1.7311 -0.8679
 3004SOL    HW220472   4.582   2.717  13.100  0.3301  2.7677  0.9518
 3005SOL     OW20473   0.198   2.766  14.430 -0.8937  0.1665  0.8903
 3005SOL    HW120474   0.182   2.747  14.338 -1.2952  0.7235  0.8419
 3005SOL    HW220475   0.229   2.857  14.439  0.5685 -0.4697  2.3594
 3006SOL     OW20476   3.122   3.741   9.767  0.2462  0.2470 -0.1514
 3006SOL    HW120477   3.169   3.777   9.842 -0.3294 -2.6616  1.6203
 3006SOL    HW220478   3.096   3.654   9.798 -1.3744  0.5836 -0.5689
 3007SOL     OW20479   3.670   4.004  12.094  0.0849  0.0217 -0.0661
 3007SOL    HW120480   3.612   3.974  12.164 -1.2815 -1.0474 -1.6589
 3007SOL    HW220481   3.703   4.091  12.116 -2.6525  0.5295  2.1057
 3008SOL     OW20482   2.397   4.401   5.057  0.0996  0.2780 -0.5911
 3008SOL    HW120483   2.457   4.344   5.008  0.6525 -0.5473  1.0584
 3008SOL    HW220484   2.386   4.349   5.137 -1.0860 -0.0435 -0.9659
 3009SOL     OW20485   0.866   2.118   8.893 -0.3091 -0.1094  0.2123
 3009SOL    HW120486   0.948   2.069   8.884 -0.1150 -0.0175  1.4082
 3009SOL    HW220487   0.862   2.112   8.989 -1.3257 -0.5244  0.1429
 3010SOL     OW20488   3.920   4.614   5.051 -0.2864 -0.1360  0.1373
 3010SOL    HW120489   3.923   4.703   5.088  2.0487  0.5781 -1.7634
 3010SOL    HW220490   4.004   4.595   5.011  0.4377  0.4267  1.3759
 3011SOL     OW20491   2.728   1.909  16.634  0.3156 -1.2318  0.7675
 3011SOL    HW120492   2.756   2.000  16.626 -0.7421 -0.9716 -0.1213
 3011SOL    HW220493   2.652   1.908  16.575 -0.4358 -0.4377  1.7363
 3012SOL     OW20494   1.573   3.541   3.604 -0.4352  0.6198  0.5900
 3012SOL    HW120495   1.603   3.578   3.521 -1.3929  0.4835  0.1827
 3012SOL    HW220496   1.647   3.524   3.662  1.8458  3.4802 -1.4949
 3013SOL     OW20497   0.463   4.555   6.290  0.3683  0.2670  0.1046
 3013SOL    HW120498   0.402   4.624   6.266  1.5874  1.5384  0.6679
 3013SOL    HW220499   0.537   4.601   6.329  0.6216 -0.3542  0.3591
 3014SOL     OW20500   3.745   1.053   5.377 -0.2603  0.8139 -0.9026
 3014SOL    HW120501   3.668   1.002   5.403  0.7166 -0.1758  0.0711
 3014SOL    HW220502   3.770   1.008   5.296  0.4338  1.1031 -0.8501
 3015SOL     OW20503   4.630   2.243   2.333 -0.2095 -0.4367 -0.0373
 3015SOL    HW120504   4.558   2.294   2.369 -1.5243 -1.8576 -0.7045
 3015SOL    HW220505   4.666   2.219   2.419 -1.1208 -2.8591 -0.3517
 3016SOL     OW20506   2.482   1.421  14.705 -0.2911 -0.1694 -0.0843
 3016SOL    HW120507   2.556   1.388  14.756 -1.9008  1.9804  3.5722
 3016SOL    HW220508   2.485   1.515  14.717  0.2614 -0.3560  1.2025
 3017SOL     OW20509   3.489   3.242   2.818  0.0178  0.1388 -0.3375
 3017SOL    HW120510   3.528   3.167   2.863 -2.2525  0.2987  1.9261
 3017SOL    HW220511   3.554   3.311   2.829 -1.2741  1.3317 -0.1863
 3018SOL     OW20512   1.753   0.561  16.685 -0.9033  0.7053  0.5054
 3018SOL    HW120513   1.670   0.604  16.662  0.8253  4.8562  2.1681
 3018SOL    HW220514   1.726   0.516  16.765 -0.6696 -2.4725 -1.2023
 3019SOL     OW20515   3.598   0.668  15.043  0.1372 -0.2997 -0.0613
 3019SOL    HW120516   3.637   0.622  14.969 -1.5730 -0.5616 -0.7816
 3019SOL    HW220517   3.653   0.641  15.117  2.8541 -0.7461 -2.2292
 3020SOL     OW20518   1.990   4.071   6.634  0.0229  0.0652  0.6980
 3020SOL    HW120519   2.002   4.029   6.549 -1.2259  0.6205  0.2408
 3020SOL    HW220520   2.027   4.008   6.696 -0.1706 -0.3510  0.3879
 3021SOL     OW20521   2.176   2.176  16.736  0.5699  0.1511 -0.4641
 3021SOL    HW120522   2.174   2.090  16.777  0.1354  0.3510 -0.0715
 3021SOL    HW220523   2.116   2.161  16.663  1.6256  0.0757 -1.3280
 3022SOL     OW20524   0.354   3.315  16.804  0.1954 -0.0041  0.0608
 3022SOL    HW120525   0.283   3.287  16.747  1.2027 -1.1249 -0.6463
 3022SOL    HW220526   0.352   3.240  16.863 -2.2613  0.6232  0.7711
 3023SOL     OW20527   3.599   1.077   5.742 -1.2813  0.1055 -0.7304
 3023SOL    HW120528   3.666   1.014   5.714 -1.1063 -0.6854  1.5100
 3023SOL    HW220529   3.524   1.023   5.766 -0.2682 -1.7623 -1.6783
 3024SOL     OW20530   4.135   4.189   8.800  0.1529  0.3013 -0.4117
 3024SOL    HW120531   4.165   4.186   8.891 -0.2101 -3.2363 -0.4245
 3024SOL    HW220532   4.054   4.137   8.798 -0.0530  0.5465  1.7230
 3025SOL     OW20533   2.109   3.404  12.867 -0.0165 -0.7645 -0.2424
 3025SOL    HW120534   2.148   3.491  12.875 -1.3667 -0.1878  0.1262
 3025SOL    HW220535   2.027   3.421  12.913 -0.5356 -0.2282 -1.3522
 3026SOL     OW20536   1.238   0.544   8.057  0.3444  0.7720  0.1550
 3026SOL    HW120537   1.230   0.469   8.116  0.9311  0.6437  0.0667
 3026SOL    HW220538   1.177   0.603   8.100  1.5450  1.5712  0.7592
 3027SOL     OW20539   3.408   3.343   6.103 -0.3410  0.2614  0.0935
 3027SOL    HW120540   3.433   3.391   6.182  0.7935  0.3546 -0.3177
 3027SOL    HW220541   3.484   3.358   6.047 -1.2099  0.0847 -1.1196
 3028SOL     OW20542   3.516   1.307   6.123  0.1318  0.4077  0.5574
 3028SOL    HW120543   3.471   1.233   6.083 -0.9407  1.3696 -0.0103
 3028SOL    HW220544   3.473   1.300   6.209 -1.5574 -0.3990 -0.3641
 3029SOL     OW20545   1.886   0.353   0.241 -0.2598 -0.1299 -0.6835
 3029SOL    HW120546   1.813   0.290   0.244 -1.2156  0.9548 -1.2528
 3029SOL    HW220547   1.891   0.376   0.334 -1.5196  1.3141 -0.9799
 3030SOL     OW20548   4.180   1.583   6.086  0.4711  0.2186  0.3313
 3030SOL    HW120549   4.236   1.557   6.159  0.8473  1.9015  0.6272
 3030SOL    HW220550   4.225   1.661   6.055  0.8002 -0.0699  0.0988
 3031SOL     OW20551   1.272   0.164  16.779 -0.2881  0.0271  0.3502
 3031SOL    HW120552   1.248   0.155  16.687  2.0046 -1.2629 -0.1287
 3031SOL    HW220553   1.225   0.092  16.820  2.0403 -1.9954 -0.5169
 3032SOL     OW20554   0.047   1.380   0.299 -0.0198  0.0410  0.5513
 3032SOL    HW120555   4.697   1.395   0.242  1.1025 -2.4974 -1.5525
 3032SOL    HW220556   0.082   1.468   0.313  0.1693 -0.4296  3.1313
 3033SOL     OW20557   0.195   3.246   3.623 -0.3325  0.0202  0.5231
 3033SOL    HW120558   0.211   3.305   3.696 -1.1828 -0.1422  0.8354
 3033SOL    HW220559   0.284   3.213   3.609 -0.5081 -0.8362  1.3923
 3034SOL     OW20560   0.527   2.197   5.574 -0.1745 -0.3050  1.0903
 3034SOL    HW120561   0.485   2.207   5.489  1.3059  0.6257  0.4648
 3034SOL    HW220562   0.620   2.209   5.557 -0.5921  0.5666 -0.5729
 3035SOL     OW20563   3.555   1.000  17.505  0.0299  0.1998 -0.3387
 3035SOL    HW120564   3.585   0.912  17.480  1.3306  0.4753  0.2178
 3035SOL    HW220565   3.585   1.015  17.595  0.2011 -1.1376 -0.1685
 3036SOL     OW20566   1.124   1.135  11.863 -0.1122  0.8399  0.3870
 3036SOL    HW120567   1.162   1.132  11.951  0.6313  0.6242  0.0526
 3036SOL    HW220568   1.095   1.044  11.855 -0.2418  0.9579 -0.4688
 3037SOL     OW20569   0.649   3.121   5.905  0.1608 -0.1816  0.3575
 3037SOL    HW120570   0.608   3.091   5.986  0.8187 -0.9632  0.3911
 3037SOL    HW220571   0.577   3.161   5.856  0.7840 -1.0835 -1.2609
 3038SOL     OW20572   2.145   4.534   4.480 -0.3213 -0.3546 -0.7528
 3038SOL    HW120573   2.098   4.612   4.510  0.8260  1.0355 -2.5513
 3038SOL    HW220574   2.158   4.551   4.387  0.9985  2.5697 -0.0426
 3039SOL     OW20575   4.679   1.221   4.912 -0.4008 -0.3734 -0.2960
 3039SOL    HW120576   4.722   1.231   4.827 -5.4350 -0.5167 -2.8910
 3039SOL    HW220577   4.599   1.177   4.881  1.0574 -1.4990 -2.4624
 3040SOL     OW20578   1.792   3.320   4.929  0.2380  0.4071 -0.3686
 3040SOL    HW120579   1.828   3.301   5.016  3.4331  0.0468 -1.7852
 3040SOL    HW220580   1.706   3.350   4.958  1.4845  2.2153  1.4838
 3041SOL     OW20581   1.101   3.111  16.632 -0.7610  0.7066 -0.2470
 3041SOL    HW120582   1.106   3.017  16.647  1.9365  1.0493  1.0708
 3041SOL    HW220583   1.053   3.120  16.550 -1.7861  0.3458  0.3046
 3042SOL     OW20584   2.148   2.421  12.333 -0.2695  0.3049  0.1681
 3042SOL    HW120585   2.205   2.475  12.389  0.4629  0.0308 -0.3099
 3042SOL    HW220586   2.139   2.469  12.250 -2.2245  1.8148  1.2643
 3043SOL     OW20587   1.238   2.624  10.658 -0.0054 -0.1143 -0.1974
 3043SOL    HW120588   1.285   2.708  10.662  1.9462 -1.1403 -1.7068
 3043SOL    HW220589   1.198   2.624  10.745  0.5348 -1.3419  0.0416
 3044SOL     OW20590   2.183   3.398   4.346  0.3434 -0.1971 -0.1629
 3044SOL    HW120591   2.119   3.448   4.296 -0.3472 -2.2237 -1.3077
 3044SOL    HW220592   2.260   3.415   4.291 -0.4547  1.7823 -0.6622
 3045SOL     OW20593   1.978   2.758  16.978  0.5089  0.0264 -0.0144
 3045SOL    HW120594   1.986   2.798  16.891 -1.0908 -1.1214 -0.6846
 3045SOL    HW220595   1.905   2.812  17.009 -0.3362 -0.4829 -1.1288
 3046SOL     OW20596   0.735   0.405   8.457 -0.0845  0.1723 -0.0417
 3046SOL    HW120597   0.656   0.360   8.489 -1.5906  2.1335 -1.0055
 3046SOL    HW220598   0.722   0.404   8.362  1.1209 -2.1918 -0.1873
 3047SOL     OW20599   0.778   0.414   0.569  0.0846  0.2788 -0.0372
 3047SOL    HW120600   0.798   0.398   0.476  0.0162  0.1037 -0.0224
 3047SOL    HW220601   0.713   0.345   0.579  2.4673 -1.5811  2.4428
 3048SOL     OW20602   2.732   1.844   4.219 -0.0827 -0.3148  0.1412
 3048SOL    HW120603   2.764   1.866   4.306 -1.0394  2.1981 -0.1425
 3048SOL    HW220604   2.780   1.763   4.204 -2.6269 -1.6964 -0.4704
 3049SOL     OW20605   3.473   2.618  15.778  0.1476  0.4416  0.0238
 3049SOL    HW120606   3.563   2.638  15.806  0.2475 -1.1374  0.8928
 3049SOL    HW220607   3.483   2.540  15.723  0.6471  1.2949 -1.1086
 3050SOL     OW20608   0.571   1.538   9.682 -0.7171  0.6413 -0.5039
 3050SOL    HW120609   0.596   1.454   9.644  0.4546  2.2180 -3.2687
 3050SOL    HW220610   0.496   1.511   9.734 -0.7862  2.0071  0.1042
 3051SOL     OW20611   1.676   3.136  15.372 -0.7412  0.4981  0.0737
 3051SOL    HW120612   1.629   3.096  15.446  1.8382  1.8279  2.4562
 3051SOL    HW220613   1.692   3.228  15.394 -0.2420  0.4596 -0.1543
 3052SOL     OW20614   2.704   4.060   8.329  0.2038 -0.4875  0.3110
 3052SOL    HW120615   2.753   4.012   8.395 -0.2597 -1.6850 -0.2288
 3052SOL    HW220616   2.629   4.099   8.374  0.0772 -2.4780  1.8086
 3053SOL     OW20617   2.373   4.588   3.876 -0.4115  0.0872 -0.0784
 3053SOL    HW120618   2.386   4.592   3.971 -0.6340  0.7172 -0.0792
 3053SOL    HW220619   2.366   4.492   3.877 -0.9689  0.1320  0.3019
 3054SOL     OW20620   3.894   1.308  16.942  0.3546 -0.2889  0.1673
 3054SOL    HW120621   3.864   1.398  16.929  1.0251  0.2662  2.5246
 3054SOL    HW220622   3.988   1.325  16.943  0.1753  0.5991  1.2014
 3055SOL     OW20623   2.930   0.547   7.527 -0.4201  0.0583 -0.2475
 3055SOL    HW120624   2.946   0.630   7.572 -0.5600 -0.3056  0.4708
 3055SOL    HW220625   2.862   0.512   7.584  0.6583 -0.8033  0.4979
 3056SOL     OW20626   0.278   3.518   5.280 -0.3016 -0.6191  0.2490
 3056SOL    HW120627   0.328   3.448   5.323 -0.7926 -0.8268  0.4703
 3056SOL    HW220628   0.199   3.470   5.258  0.2195 -1.1074 -0.5301
 3057SOL     OW20629   0.268   2.326  11.184 -0.4413  0.1011  0.2061
 3057SOL    HW120630   0.195   2.347  11.126 -1.7486 -1.0361  1.4329
 3057SOL    HW220631   0.221   2.281  11.254  1.7544 -1.6089  0.5784
 3058SOL     OW20632   1.590   4.621   9.437 -0.4319 -0.2854 -0.3061
 3058SOL    HW120633   1.556   4.569   9.365  1.0773 -0.4439 -0.8951
 3058SOL    HW220634   1.648   4.559   9.481  1.3029  0.3941 -1.6837
 3059SOL     OW20635   0.938   3.223   6.380  0.2012 -0.4356  0.1513
 3059SOL    HW120636   0.951   3.264   6.294  1.4199  0.8847  0.9678
 3059SOL    HW220637   0.843   3.213   6.380 -0.1025  2.3052 -1.2216
 3060SOL     OW20638   1.818   0.323   1.970 -0.4022  0.0206 -0.0883
 3060SOL    HW120639   1.874   0.346   2.044 -3.7724 -4.2250  3.8200
 3060SOL    HW220640   1.890   0.302   1.909 -0.8636 -0.1586 -0.5737
 3061SOL     OW20641   3.005   1.600   4.721  0.4891 -0.3521  0.2824
 3061SOL    HW120642   3.001   1.512   4.683 -1.8554  0.9759 -2.5541
 3061SOL    HW220643   2.990   1.588   4.814 -1.2996 -2.9441 -0.3186
 3062SOL     OW20644   3.171   0.828   5.996 -0.5866 -0.1210  0.3269
 3062SOL    HW120645   3.115   0.785   5.931  0.6693  0.2179 -0.9832
 3062SOL    HW220646   3.114   0.894   6.035  0.3158  0.0080  1.4295
 3063SOL     OW20647   0.509   1.516  14.702  0.3719  0.2562 -0.2815
 3063SOL    HW120648   0.542   1.569  14.774  1.4689  0.2206 -0.7608
 3063SOL    HW220649   0.464   1.449  14.753 -1.3715  2.6578  1.3254
 3064SOL     OW20650   3.376   0.511  11.589  0.2346  0.1643  0.5090
 3064SOL    HW120651   3.303   0.566  11.563 -0.6042 -0.6801  1.0825
 3064SOL    HW220652   3.450   0.570  11.577  0.6089 -0.3210  0.4137
 3065SOL     OW20653   0.364   0.526  17.441  0.1242  0.7341 -0.8654
 3065SOL    HW120654   0.320   0.517  17.525 -4.3250  0.6840 -3.2071
 3065SOL    HW220655   0.317   0.460  17.390 -0.8752  2.1127 -1.7510
 3066SOL     OW20656   2.742   4.493   9.143 -0.6331  0.0281  0.0471
 3066SOL    HW120657   2.696   4.489   9.060 -1.1354 -1.0455  0.3712
 3066SOL    HW220658   2.776   4.582   9.151  1.5970 -0.8558  0.2394
 3067SOL     OW20659   3.014   0.652   5.800 -0.1454 -0.2390  0.1019
 3067SOL    HW120660   2.990   0.618   5.713 -0.3860  1.8512 -0.6540
 3067SOL    HW220661   3.098   0.610   5.815 -0.8090 -1.1534  1.1939
 3068SOL     OW20662   0.933   2.068   4.021 -0.0346  1.0692 -0.0906
 3068SOL    HW120663   0.895   1.988   3.984  2.0840  0.2835 -0.5843
 3068SOL    HW220664   1.027   2.070   4.002 -0.1165 -0.0703 -0.6327
 3069SOL     OW20665   0.936   0.893   7.315 -0.6595 -0.4791  0.2113
 3069SOL    HW120666   1.005   0.932   7.261 -0.9415 -1.7460 -1.1032
 3069SOL    HW220667   0.982   0.821   7.358  0.0125 -1.6123 -2.3862
 3070SOL     OW20668   2.479   1.100  15.856 -0.3278  0.0259 -0.5400
 3070SOL    HW120669   2.401   1.115  15.803 -1.4806 -1.5321  0.7102
 3070SOL    HW220670   2.551   1.149  15.816 -0.1088  0.0837 -0.0786
 3071SOL     OW20671   2.263   2.930   9.451  1.0666 -0.3932 -0.0234
 3071SOL    HW120672   2.286   3.019   9.478 -1.1622  1.0719 -2.9521
 3071SOL    HW220673   2.299   2.880   9.524  2.1871  0.8889  0.3028
 3072SOL     OW20674   2.427   3.517   0.235 -0.1400  0.1001 -0.4790
 3072SOL    HW120675   2.515   3.503   0.200  0.7415  2.7571  0.7122
 3072SOL    HW220676   2.380   3.558   0.163 -0.4602 -0.6600 -0.7002
 3073SOL     OW20677   2.971   4.625   7.895 -0.2868 -0.5056  0.1922
 3073SOL    HW120678   3.027   4.560   7.853 -1.4937 -0.7255 -1.0785
 3073SOL    HW220679   2.911   4.568   7.943  0.5224  0.4217  2.2991
 3074SOL     OW20680   2.762   1.447   8.655 -0.6593 -0.3916 -0.0930
 3074SOL    HW120681   2.778   1.530   8.700 -1.8991  0.8901 -2.0147
 3074SOL    HW220682   2.725   1.477   8.572 -2.2091 -3.0701 -0.3611
 3075SOL     OW20683   0.304   4.458   5.044 -0.3260 -0.4664  0.1348
 3075SOL    HW120684   0.243   4.418   5.106  0.4423 -0.3052  1.0095
 3075SOL    HW220685   0.371   4.396   5.016 -1.3858 -0.1978 -2.9094
 3076SOL     OW20686   0.516   0.214  11.723  0.1203  0.0469  0.5785
 3076SOL    HW120687   0.540   0.233  11.632 -0.4740 -0.0223  0.4036
 3076SOL    HW220688   0.421   0.218  11.731 -0.0289  1.0255 -1.5229
 3077SOL     OW20689   3.507   3.065  14.488 -0.5191 -0.2518 -0.1100
 3077SOL    HW120690   3.467   3.032  14.407 -3.6776  0.3464  1.1912
 3077SOL    HW220691   3.463   3.009  14.553  1.9413  0.2260  1.9684
 3078SOL     OW20692   2.405   0.199  11.093 -0.0578 -0.1826 -0.2500
 3078SOL    HW120693   2.402   0.193  10.997  1.6415  0.4998 -0.3392
 3078SOL    HW220694   2.438   0.111  11.109  0.5791  0.6070  2.7596
 3079SOL     OW20695   1.002   3.234   5.863 -0.1190  0.7103 -0.2679
 3079SOL    HW120696   1.033   3.157   5.818 -0.4627  2.0152 -2.7390
 3079SOL    HW220697   0.933   3.267   5.804 -3.5371 -5.6825  0.1863
 3080SOL     OW20698   0.162   1.657   0.332 -0.6215  0.1349  0.3555
 3080SOL    HW120699   0.093   1.662   0.266  1.3833  2.1180 -1.5614
 3080SOL    HW220700   0.111   1.674   0.412  0.7104 -0.2084  1.2701
 3081SOL     OW20701   4.168   2.735   2.533 -0.2384  0.4307  0.7977
 3081SOL    HW120702   4.079   2.724   2.567  0.1131 -1.8661  0.9693
 3081SOL    HW220703   4.137   2.734   2.443  0.8748  1.3770  0.4059
 3082SOL     OW20704   2.144   0.202  14.328 -0.4089  0.2066  1.0427
 3082SOL    HW120705   2.195   0.217  14.408  2.1062  2.4428 -0.9884
 3082SOL    HW220706   2.210   0.143  14.293  0.1028 -0.4357  3.0576
 3083SOL     OW20707   2.388   3.423   4.179 -0.1082  0.8754 -0.3358
 3083SOL    HW120708   2.449   3.359   4.142 -1.3288 -0.3757 -0.1641
 3083SOL    HW220709   2.390   3.481   4.103 -0.6659 -0.7749 -1.6095
 3084SOL     OW20710   1.941   0.428  16.282 -0.1399 -0.0478 -0.0876
 3084SOL    HW120711   1.903   0.516  16.278 -2.5114 -1.1248 -1.3367
 3084SOL    HW220712   1.859   0.380  16.294 -0.1907  0.1528  0.4052
 3085SOL     OW20713   2.213   2.747   2.861  0.1032  0.4473  0.0274
 3085SOL    HW120714   2.123   2.777   2.854  0.1025  0.5447  0.4463
 3085SOL    HW220715   2.270   2.769   2.786 -0.1806 -0.1535 -0.3642
 3086SOL     OW20716   1.486   3.626  17.669  0.5669  0.1870 -0.3942
 3086SOL    HW120717   1.521   3.537  17.681 -1.2041 -0.3355  0.8268
 3086SOL    HW220718   1.518   3.669   0.044 -0.8392  2.0033 -0.8198
 3087SOL     OW20719   3.932   2.046   8.008 -0.2606 -0.4294 -0.0527
 3087SOL    HW120720   3.867   2.085   7.949  0.8446 -0.1200 -1.0517
 3087SOL    HW220721   3.963   1.974   7.954  0.0381 -1.2539  1.2030
 3088SOL     OW20722   2.664   4.058   4.349 -0.3547 -0.3326 -0.1646
 3088SOL    HW120723   2.632   4.037   4.260  0.1205 -2.2689  0.1185
 3088SOL    HW220724   2.670   4.153   4.350  1.0355 -0.4387  1.0998
 3089SOL     OW20725   3.012   0.690  17.357  0.6012 -0.0867  0.4475
 3089SOL    HW120726   2.972   0.772  17.385 -0.1385 -1.0354  2.2308
 3089SOL    HW220727   2.965   0.669  17.276 -0.0862  2.1642  0.2633
 3090SOL     OW20728   0.006   1.396   3.252  0.2892 -0.6219 -0.5872
 3090SOL    HW120729   0.045   1.333   3.313  1.2684  1.0261  0.4997
 3090SOL    HW220730   0.086   1.442   3.225  2.3297 -1.1977  4.4613
 3091SOL     OW20731   0.770   3.448   8.340 -0.2746 -0.4374 -0.5045
 3091SOL    HW120732   0.759   3.369   8.394 -0.3776 -1.2003 -1.6446
 3091SOL    HW220733   0.689   3.495   8.355 -0.3319 -0.4104 -0.9146
 3092SOL     OW20734   1.963   0.849  16.299 -0.5432 -0.2669  0.1396
 3092SOL    HW120735   1.948   0.824  16.390  1.3346 -3.0121 -0.3053
 3092SOL    HW220736   1.897   0.795  16.255  0.5761  1.2418 -3.4274
 3093SOL     OW20737   2.558   0.679   7.548 -0.2774  0.0514  0.2987
 3093SOL    HW120738   2.559   0.590   7.583  0.3768 -0.1124 -0.1383
 3093SOL    HW220739   2.605   0.730   7.613  2.2024  0.4897 -1.8430
 3094SOL     OW20740   4.276   2.741  14.877 -0.5664  0.2266 -0.1936
 3094SOL    HW120741   4.274   2.660  14.826  0.8620  0.7542 -1.0847
 3094SOL    HW220742   4.182   2.756  14.889 -0.5317 -0.1545  0.5575
 3095SOL     OW20743   3.579   3.194   2.147  0.4143 -0.5552 -0.3196
 3095SOL    HW120744   3.582   3.289   2.143 -1.2747 -0.4538  0.4401
 3095SOL    HW220745   3.534   3.171   2.066 -0.5245 -1.4890  0.4392
 3096SOL     OW20746   1.201   3.647   7.350 -0.3855 -0.0856 -0.3080
 3096SOL    HW120747   1.152   3.689   7.421  1.0289  0.3671  0.4028
 3096SOL    HW220748   1.248   3.723   7.318 -0.4994  0.8552  1.7337
 3097SOL     OW20749   0.183   2.733  12.617 -0.4246 -0.2847 -0.4661
 3097SOL    HW120750   0.143   2.737  12.530  2.5305 -1.6875 -1.9033
 3097SOL    HW220751   0.178   2.825  12.645 -1.8383 -0.9551  1.4584
 3098SOL     OW20752   3.902   3.990   6.220  0.0602  0.2481 -0.1654
 3098SOL    HW120753   3.982   3.984   6.167 -1.0221 -1.0268 -1.6408
 3098SOL    HW220754   3.839   3.946   6.164 -1.0461  1.2250  0.3198
 3099SOL     OW20755   3.896   2.128   9.889 -0.6637  0.3521  0.1972
 3099SOL    HW120756   3.975   2.183   9.885 -1.2890  1.2482  0.4254
 3099SOL    HW220757   3.933   2.050   9.847 -1.4679 -0.1536  0.4449
 3100SOL     OW20758   0.394   4.094   8.504  0.9086  0.1798 -0.1574
 3100SOL    HW120759   0.402   4.062   8.594 -0.4310  0.6004  0.1209
 3100SOL    HW220760   0.477   4.051   8.485  0.6904  0.3234 -1.4211
 3101SOL     OW20761   0.380   2.357   8.783 -0.9920  0.0765  0.3182
 3101SOL    HW120762   0.429   2.385   8.860  0.4893 -0.3681 -0.4699
 3101SOL    HW220763   0.292   2.343   8.819 -0.5453 -2.0655  0.5966
 3102SOL     OW20764   3.126   1.814   0.315 -0.2616  0.1912 -0.5186
 3102SOL    HW120765   3.126   1.796   0.409  0.4457 -3.9504 -1.3393
 3102SOL    HW220766   3.209   1.861   0.305  0.3908 -0.6467  0.9906
 3103SOL     OW20767   3.255   3.851   3.777  0.1457  0.0088  0.0787
 3103SOL    HW120768   3.265   3.940   3.744 -0.6139 -0.4245 -1.2966
 3103SOL    HW220769   3.220   3.865   3.865  2.6506 -0.3551  1.1476
 3104SOL     OW20770   0.344   4.180   0.579  0.0567  0.0026 -0.1258
 3104SOL    HW120771   0.439   4.186   0.580 -0.0970  2.1756  2.3287
 3104SOL    HW220772   0.330   4.112   0.646 -2.0899  0.4486 -0.1022
 3105SOL     OW20773   3.777   1.237   7.674  0.2607  0.7750 -0.7219
 3105SOL    HW120774   3.789   1.200   7.761  0.1971 -0.4620 -1.2479
 3105SOL    HW220775   3.791   1.166   7.612 -2.3149  0.8210 -1.3327
 3106SOL     OW20776   0.890   3.424   7.479  0.4226 -0.0687 -0.2782
 3106SOL    HW120777   0.878   3.519   7.477  0.3964 -0.0627  0.2674
 3106SOL    HW220778   0.802   3.388   7.479  0.5491 -0.3963  1.7010
 3107SOL     OW20779   3.547   0.717   7.820  0.1327  0.1553 -0.7472
 3107SOL    HW120780   3.567   0.628   7.850 -1.0555  0.0561 -0.2813
 3107SOL    HW220781   3.453   0.714   7.805 -0.0666  0.0834  0.5558
 3108SOL     OW20782   4.613   2.146   9.580  0.7900 -0.5476  0.2337
 3108SOL    HW120783   4.549   2.092   9.626  1.7314 -2.1513 -0.3725
 3108SOL    HW220784   4.611   2.220   9.641  0.6807  0.0287 -0.4710
 3109SOL     OW20785   1.739   3.962   4.208 -0.3621  0.1046  0.8002
 3109SOL    HW120786   1.816   3.949   4.263  0.3260 -0.6891 -0.3414
 3109SOL    HW220787   1.765   4.048   4.177 -0.0102 -0.6181 -0.9242
 3110SOL     OW20788   4.198   0.362   4.498 -0.1229 -0.6041 -0.0426
 3110SOL    HW120789   4.190   0.398   4.410 -0.1858  2.1930  1.1309
 3110SOL    HW220790   4.273   0.302   4.500  0.0239 -0.4236 -0.1015
 3111SOL     OW20791   4.323   2.281  15.790  0.2519  0.2314 -0.8312
 3111SOL    HW120792   4.255   2.311  15.851  0.3509 -0.1765 -0.5197
 3111SOL    HW220793   4.295   2.190  15.799  1.3039 -0.0487 -0.4150
 3112SOL     OW20794   3.042   0.704   1.309 -0.1543  0.0315 -0.0394
 3112SOL    HW120795   2.998   0.768   1.365  0.9089  0.5498  0.2068
 3112SOL    HW220796   3.058   0.753   1.228  0.1588  0.2395  0.1447
 3113SOL     OW20797   3.045   2.170   7.006 -0.1368 -0.2055 -0.0557
 3113SOL    HW120798   3.018   2.246   7.057 -1.7527 -0.7608 -0.1101
 3113SOL    HW220799   3.138   2.186   7.022 -0.1664  0.5030 -0.5849
 3114SOL     OW20800   2.315   0.530   6.987 -0.3940  0.2945  0.1830
 3114SOL    HW120801   2.379   0.518   7.057  0.6451  0.2390 -0.7724
 3114SOL    HW220802   2.245   0.490   7.039  1.1920 -0.0569  2.0548
 3115SOL     OW20803   4.133   2.562   6.382  0.2441  0.0838 -0.2546
 3115SOL    HW120804   4.134   2.635   6.445  0.1423 -1.0593  1.0780
 3115SOL    HW220805   4.142   2.611   6.300  1.1358 -0.9450 -0.7613
 3116SOL     OW20806   2.685   4.591   3.351 -0.0174 -0.3450 -0.0627
 3116SOL    HW120807   2.660   4.664   3.294 -2.0661 -0.5435  0.5717
 3116SOL    HW220808   2.699   4.625   3.439 -0.9742 -0.9660  0.3256
 3117SOL     OW20809   2.468   1.387  12.275 -0.1116  0.5431 -0.1200
 3117SOL    HW120810   2.524   1.310  12.285 -1.0779  0.0039  1.1371
 3117SOL    HW220811   2.381   1.350  12.287 -0.3378  1.1242  0.0170
 3118SOL     OW20812   2.855   0.020   9.104  0.2287  0.6456  0.0771
 3118SOL    HW120813   2.801   0.099   9.114 -0.9835 -0.1818  0.1702
 3118SOL    HW220814   2.929   0.043   9.160  1.0904 -2.6073  0.2790
 3119SOL     OW20815   1.046   4.419  11.147  0.3219 -0.3342  0.4796
 3119SOL    HW120816   1.084   4.350  11.092 -1.4418 -0.5927 -0.4048
 3119SOL    HW220817   0.981   4.453  11.085 -0.3327 -0.1001  1.2964
 3120SOL     OW20818   3.552   3.794   5.473  0.0830  0.1674 -0.6695
 3120SOL    HW120819   3.555   3.712   5.522  1.3029  0.4386 -0.2919
 3120SOL    HW220820   3.570   3.768   5.383 -1.0026  3.4656 -1.8486
 3121SOL     OW20821   2.438   4.238   6.432  0.1437 -0.1126 -0.1626
 3121SOL    HW120822   2.360   4.221   6.379  0.2125  0.5148 -0.4716
 3121SOL    HW220823   2.427   4.329   6.461  2.2752  0.1192 -0.0911
 3122SOL     OW20824   4.159   2.768  15.906  0.0095 -0.3375  0.4990
 3122SOL    HW120825   4.186   2.849  15.948 -3.8928  0.3921  1.6148
 3122SOL    HW220826   4.221   2.752  15.835 -2.4059 -0.0436 -1.6880
 3123SOL     OW20827   1.949   3.347   6.497  0.3326 -0.0024  0.5463
 3123SOL    HW120828   1.937   3.252   6.506 -0.8390  0.0082 -0.7750
 3123SOL    HW220829   2.003   3.371   6.572  0.7013  1.0465 -0.0471
 3124SOL     OW20830   4.258   4.002   4.871 -0.4769  0.1842 -0.3040
 3124SOL    HW120831   4.239   4.095   4.864  2.6737  0.7587 -1.0560
 3124SOL    HW220832   4.312   4.008   4.950 -1.2177 -2.6350  0.4330
 3125SOL     OW20833   2.247   2.848   4.169  0.1726  0.2376 -0.1632
 3125SOL    HW120834   2.280   2.920   4.115  2.7229 -0.8235 -0.0275
 3125SOL    HW220835   2.245   2.884   4.257  0.7752  0.6856 -0.3278
 3126SOL     OW20836   3.471   4.124  12.486  0.6094  0.6046  0.0930
 3126SOL    HW120837   3.407   4.096  12.420  1.6487 -2.4026  0.3583
 3126SOL    HW220838   3.422   4.184  12.543  0.9048  1.0721 -0.1454
 3127SOL     OW20839   1.014   2.839   6.015 -0.4504  0.0913 -0.6221
 3127SOL    HW120840   0.968   2.909   5.967 -0.6656  1.6005  1.8033
 3127SOL    HW220841   1.092   2.810   5.968  0.1347 -0.3791  0.6635
 3128SOL     OW20842   2.198   2.382   4.507 -0.0167 -0.3821  0.2642
 3128SOL    HW120843   2.128   2.447   4.500 -0.7927 -1.1352  1.0822
 3128SOL    HW220844   2.273   2.428   4.469 -0.1372 -0.7848 -0.4557
 3129SOL     OW20845   3.282   1.327   9.070  0.2109  0.2515 -0.4465
 3129SOL    HW120846   3.239   1.396   9.018 -2.4829 -1.2718 -0.2557
 3129SOL    HW220847   3.234   1.247   9.048  2.1727 -1.0300 -0.0392
 3130SOL     OW20848   3.437   2.370   9.387 -0.4449 -0.4029 -0.1134
 3130SOL    HW120849   3.483   2.405   9.463  2.0568 -0.7484 -1.4498
 3130SOL    HW220850   3.484   2.287   9.376  0.4926 -0.0018  0.7934
 3131SOL     OW20851   1.949   0.359   4.497 -0.0294 -0.0734  0.7257
 3131SOL    HW120852   1.974   0.403   4.578 -2.0219  0.7119  0.8960
 3131SOL    HW220853   1.862   0.384   4.465  0.9375 -1.1833 -2.8355
 3132SOL     OW20854   3.371   3.286   9.392 -0.8957 -0.2238 -0.2238
 3132SOL    HW120855   3.318   3.214   9.358  0.4891 -0.9443 -0.8786
 3132SOL    HW220856   3.301   3.348   9.413 -1.4856 -1.3589  1.1423
 3133SOL     OW20857   4.076   3.439  12.007 -0.6898  0.0639  0.7178
 3133SOL    HW120858   4.116   3.469  12.089 -2.2543  2.8533  0.4894
 3133SOL    HW220859   4.127   3.480  11.936 -0.0264 -2.4543 -0.2366
 3134SOL     OW20860   2.034   0.557   7.827 -0.4265  0.3372 -0.2415
 3134SOL    HW120861   2.043   0.573   7.921  0.4997 -0.1364 -0.2549
 3134SOL    HW220862   1.939   0.548   7.822 -0.4304 -0.2141  0.9527
 3135SOL     OW20863   4.223   0.853   6.881  0.3538  0.0760 -0.1201
 3135SOL    HW120864   4.244   0.820   6.794 -1.2463 -1.8188  0.2125
 3135SOL    HW220865   4.289   0.809   6.934 -1.0379 -0.8553  0.8391
 3136SOL     OW20866   1.836   4.713   6.069  0.1574 -0.1282 -0.1602
 3136SOL    HW120867   1.765   0.051   6.058  1.5403  1.0818 -2.1159
 3136SOL    HW220868   1.879   0.005   5.985 -2.0083 -1.1464 -1.4714
 3137SOL     OW20869   1.266   0.884   4.751 -0.0617 -0.1099  0.5709
 3137SOL    HW120870   1.206   0.886   4.676 -0.4968  0.9393  0.9421
 3137SOL    HW220871   1.351   0.892   4.709 -0.5841 -0.0775 -0.4893
 3138SOL     OW20872   4.653   4.016   7.746 -0.5454 -0.3798 -0.3989
 3138SOL    HW120873   4.590   4.007   7.818 -1.7617  2.0154 -1.1380
 3138SOL    HW220874   4.619   3.943   7.695 -3.4993 -0.8342  2.1603
 3139SOL     OW20875   1.309   1.322   2.022 -0.0734 -0.1571  0.4654
 3139SOL    HW120876   1.223   1.311   1.983  1.4830 -0.5648 -2.8420
 3139SOL    HW220877   1.324   1.235   2.058  0.1521 -0.1833  0.3082
 3140SOL     OW20878   0.856   2.208  17.424 -0.5861 -0.0881 -0.1364
 3140SOL    HW120879   0.949   2.216  17.403 -1.2617 -2.8172 -4.1299
 3140SOL    HW220880   0.841   2.292  17.469 -0.1283 -0.4267  0.6550
 3141SOL     OW20881   3.140   0.270  11.706 -0.4697 -0.3277  0.1476
 3141SOL    HW120882   3.113   0.329  11.635 -0.2883 -1.8306 -1.1582
 3141SOL    HW220883   3.197   0.204  11.666 -1.1480 -0.5830 -0.3909
 3142SOL     OW20884   2.091   2.641   7.393  0.4056 -0.9166  0.3671
 3142SOL    HW120885   2.078   2.619   7.485  2.5604 -0.0244  0.8846
 3142SOL    HW220886   2.066   2.733   7.402  0.9108 -0.9459  2.0904
 3143SOL     OW20887   0.850   0.687   3.921  0.3401 -0.1781 -0.4360
 3143SOL    HW120888   0.835   0.594   3.902  0.7419  0.0713 -1.9324
 3143SOL    HW220889   0.805   0.702   4.004  0.9055 -0.0157 -0.1607
 3144SOL     OW20890   1.494   3.168   7.515 -0.5761 -0.4810 -0.2628
 3144SOL    HW120891   1.420   3.228   7.522  0.0910  0.6812 -3.0130
 3144SOL    HW220892   1.543   3.196   7.437  2.0078 -0.4376  1.3677
 3145SOL     OW20893   4.023   2.252   9.040  0.2251  0.3771 -0.2819
 3145SOL    HW120894   3.963   2.268   9.112 -0.0287 -1.3048 -0.1270
 3145SOL    HW220895   3.986   2.315   8.978 -1.8383  1.2507  1.8482
 3146SOL     OW20896   3.631   1.792   5.635  0.0734  0.5330 -0.2981
 3146SOL    HW120897   3.615   1.802   5.729  2.0687 -1.4729  0.2410
 3146SOL    HW220898   3.695   1.722   5.645 -0.7066 -0.3071 -1.1978
 3147SOL     OW20899   2.245   0.313   7.781  0.0441 -0.1346  0.3854
 3147SOL    HW120900   2.192   0.392   7.768 -0.2058 -0.4321 -0.4695
 3147SOL    HW220901   2.203   0.260   7.848 -1.7379 -0.4850 -1.0201
 3148SOL     OW20902   2.240   3.447   6.428  0.5519  0.0771  0.1366
 3148SOL    HW120903   2.163   3.460   6.373 -1.1366  1.4134  2.8140
 3148SOL    HW220904   2.253   3.353   6.414  0.0980  0.3215 -1.9306
 3149SOL     OW20905   4.404   2.511  11.012 -0.3844 -0.5940  0.1240
 3149SOL    HW120906   4.381   2.531  11.103 -2.5239 -0.3766 -0.4507
 3149SOL    HW220907   4.365   2.581  10.959 -0.8614 -0.2322  0.9570
 3150SOL     OW20908   0.763   2.621   7.152 -0.3218  0.7153 -0.0703
 3150SOL    HW120909   0.672   2.604   7.127 -0.0205 -1.7833  0.5326
 3150SOL    HW220910   0.739   2.635   7.243 -0.0266  0.4013  0.0570
 3151SOL     OW20911   1.442   4.408   3.835 -0.0953  0.5891  0.3272
 3151SOL    HW120912   1.461   4.441   3.923  0.9489  0.3624  0.1791
 3151SOL    HW220913   1.507   4.341   3.814 -2.1470 -0.5594 -2.3718
 3152SOL     OW20914   1.001   0.437   8.537  0.2735 -0.2519  0.4074
 3152SOL    HW120915   0.914   0.412   8.506  0.5483  0.4980 -0.9664
 3152SOL    HW220916   1.036   0.456   8.450  0.6805  0.0429  0.6332
 3153SOL     OW20917   1.617   0.725   2.907 -0.1162  0.6316  0.0224
 3153SOL    HW120918   1.688   0.780   2.939 -0.2810  0.7638  0.1593
 3153SOL    HW220919   1.639   0.722   2.814  2.8151 -1.3241  0.7654
 3154SOL     OW20920   3.452   2.596   7.152  0.2612 -0.5969 -0.2821
 3154SOL    HW120921   3.385   2.554   7.205 -0.4532  2.8793  1.5685
 3154SOL    HW220922   3.463   2.671   7.210  3.0765 -1.6574  0.5434
 3155SOL     OW20923   3.549   4.191   7.521 -0.4501  0.1299 -0.0454
 3155SOL    HW120924   3.614   4.172   7.589  0.3147  0.4163 -0.6912
 3155SOL    HW220925   3.571   4.110   7.475  1.2633  0.1388  0.7403
 3156SOL     OW20926   0.046   1.915  14.986 -0.2629 -0.0038  0.1546
 3156SOL    HW120927   4.678   1.921  14.965 -0.3160 -0.6422  0.1989
 3156SOL    HW220928   0.078   1.898  14.898  1.6459 -0.1364  0.8880
 3157SOL     OW20929   2.546   4.600   1.820  0.2289 -0.4778  0.1509
 3157SOL    HW120930   2.539   4.689   1.856  0.6037 -0.6573  0.6668
 3157SOL    HW220931   2.577   4.552   1.897  0.2171 -2.5454 -1.1319
 3158SOL     OW20932   0.971   0.926   0.423 -0.1520  0.5394 -0.1047
 3158SOL    HW120933   0.898   0.969   0.466 -0.2042 -2.6967  3.0412
 3158SOL    HW220934   0.927   0.853   0.379  1.9571 -1.4086  1.0150
 3159SOL     OW20935   0.427   0.821   4.287  0.4814 -0.5587 -0.5369
 3159SOL    HW120936   0.362   0.854   4.226  0.6794  0.0464 -0.4199
 3159SOL    HW220937   0.400   0.864   4.368 -0.2602  0.2482 -1.2201
 3160SOL     OW20938   0.665   4.697   6.405 -0.4155  0.6158  0.0586
 3160SOL    HW120939   0.663   0.057   6.446  2.4938  0.4684  0.5034
 3160SOL    HW220940   0.652   4.634   6.476  3.8890 -0.3224 -0.0166
 3161SOL     OW20941   1.431   3.828   9.484  0.5813 -0.1971  0.6263
 3161SOL    HW120942   1.496   3.897   9.499  0.2831 -0.1634  1.8196
 3161SOL    HW220943   1.380   3.824   9.565 -2.1065  0.3974 -1.0650
 3162SOL     OW20944   1.228   1.246   3.357 -0.3152 -0.0579 -0.4977
 3162SOL    HW120945   1.227   1.154   3.380  1.6474  0.1311  0.3550
 3162SOL    HW220946   1.136   1.261   3.336 -0.2767  1.1251  0.1781
 3163SOL     OW20947   4.337   1.903   5.142 -0.2555 -0.3250 -0.2768
 3163SOL    HW120948   4.344   1.997   5.131 -1.0689 -0.2511 -0.2188
 3163SOL    HW220949   4.404   1.879   5.078  0.2980  0.5200 -0.0149
 3164SOL     OW20950   1.163   2.651  14.737  0.1675  0.1086  0.5325
 3164SOL    HW120951   1.088   2.592  14.741 -1.4489  2.1517  0.5941
 3164SOL    HW220952   1.149   2.702  14.658  0.9407  0.7136  0.7831
 3165SOL     OW20953   2.516   1.003   5.413  0.7657 -0.0366 -0.1114
 3165SOL    HW120954   2.433   1.047   5.435  0.3017 -0.9492 -0.0189
 3165SOL    HW220955   2.500   0.913   5.440 -2.3512  0.5778  0.1619
 3166SOL     OW20956   4.620   0.905  13.748  0.1980 -0.1541  0.4198
 3166SOL    HW120957   4.648   0.889  13.838 -2.8461  1.6866  1.7142
 3166SOL    HW220958   4.704   0.921  13.705  0.5831 -0.3122  1.1108
 3167SOL     OW20959   3.980   2.263   4.314  0.4691 -0.6612  0.2756
 3167SOL    HW120960   3.909   2.291   4.256  1.8932  1.0137 -0.6473
 3167SOL    HW220961   3.983   2.341   4.370  0.0806  0.2816 -1.0216
 3168SOL     OW20962   3.065   3.407   8.676 -0.2370  0.3293 -0.4721
 3168SOL    HW120963   3.011   3.428   8.600 -1.1592  0.6742  0.2696
 3168SOL    HW220964   2.996   3.402   8.743 -0.4772 -1.6328 -0.8861
 3169SOL     OW20965   2.898   1.507   7.803  0.1943 -0.3701 -0.2347
 3169SOL    HW120966   2.988   1.511   7.772  0.2784 -0.0318  0.0486
 3169SOL    HW220967   2.914   1.522   7.896  0.0258  0.6878 -0.3794
 3170SOL     OW20968   4.597   3.988   1.126  0.2197 -0.0339 -0.5671
 3170SOL    HW120969   4.608   3.911   1.181 -1.9587 -0.5849 -0.8873
 3170SOL    HW220970   4.510   3.971   1.089 -0.1211  0.1250  0.1739
 3171SOL     OW20971   1.509   3.290   3.423  0.4837 -0.1114  0.6495
 3171SOL    HW120972   1.465   3.370   3.395  0.3742 -0.8479 -1.2969
 3171SOL    HW220973   1.589   3.298   3.371 -0.5489 -0.9181 -1.0737
 3172SOL     OW20974   0.042   1.870   1.693 -0.0756  0.0025 -0.1244
 3172SOL    HW120975   0.021   1.938   1.757  0.7925 -0.6791  0.9051
 3172SOL    HW220976   4.681   1.847   1.661 -0.2403  0.9100 -0.3313
 3173SOL     OW20977   0.843   3.332   2.958 -0.0821 -0.2753  0.1060
 3173SOL    HW120978   0.764   3.386   2.960 -0.0313 -0.2214  0.6909
 3173SOL    HW220979   0.901   3.393   3.004 -0.5953 -2.1225  3.2624
 3174SOL     OW20980   2.814   1.378   2.066  0.1380  0.2427 -1.0465
 3174SOL    HW120981   2.840   1.290   2.040 -0.7514  0.5046 -2.8720
 3174SOL    HW220982   2.896   1.424   2.048  1.3815 -2.1189 -1.4036
 3175SOL     OW20983   0.881   4.185   5.839 -0.5399 -0.7704  0.0469
 3175SOL    HW120984   0.807   4.245   5.844 -1.1018 -1.4237 -0.6841
 3175SOL    HW220985   0.959   4.241   5.847 -0.6177 -0.4966 -1.1585
 3176SOL     OW20986   3.196   1.968  17.644 -0.0064 -0.6357  0.6339
 3176SOL    HW120987   3.267   1.909  17.669 -0.0198 -1.2926 -0.8871
 3176SOL    HW220988   3.238   2.048  17.674  0.1553 -0.2441 -0.6384
 3177SOL     OW20989   3.015   2.615  16.396  0.8212 -0.3101 -0.6624
 3177SOL    HW120990   2.968   2.541  16.359 -0.8488  1.0334 -1.2770
 3177SOL    HW220991   2.962   2.688  16.362  3.2572  1.7711 -0.0513
 3178SOL     OW20992   3.251   0.438  14.150  0.2429  0.8416 -0.6635
 3178SOL    HW120993   3.275   0.358  14.196  0.6533  0.4074 -1.6406
 3178SOL    HW220994   3.186   0.480  14.206 -0.3120 -1.2037  0.2284
 3179SOL     OW20995   1.794   1.368   7.391  0.1637 -0.0350 -0.0739
 3179SOL    HW120996   1.770   1.408   7.475  0.2709  0.7846 -0.4309
 3179SOL    HW220997   1.804   1.279   7.424 -1.0702 -0.4460 -0.7760
 3180SOL     OW20998   2.818   2.835   4.170 -0.3113  0.0513  0.1866
 3180SOL    HW120999   2.866   2.915   4.192  1.9771 -1.3153  0.1130
 3180SOL    HW221000   2.731   2.874   4.159 -0.7009 -0.6705  0.6837
 3181SOL     OW21001   2.561   0.673   2.327 -0.0190 -0.6268 -0.0609
 3181SOL    HW121002   2.657   0.670   2.320  0.0405  1.0430  0.1992
 3181SOL    HW221003   2.541   0.757   2.286  0.1279 -1.3073 -1.5322
 3182SOL     OW21004   3.010   0.538  17.595  0.1983 -0.1416  0.2976
 3182SOL    HW121005   2.992   0.575  17.509 -2.6930  0.1447  1.0080
 3182SOL    HW221006   2.985   0.446  17.587 -0.8131  0.1762 -0.1805
 3183SOL     OW21007   1.375   0.677   6.130  1.2535 -0.1227 -0.3793
 3183SOL    HW121008   1.300   0.734   6.115  0.2693 -1.6578 -1.3525
 3183SOL    HW221009   1.448   0.738   6.140  1.1687 -0.1824  0.5948
 3184SOL     OW21010   4.543   2.525  13.449  0.0063  0.1840  0.0787
 3184SOL    HW121011   4.476   2.502  13.385  0.5002  0.7844 -0.6602
 3184SOL    HW221012   4.595   2.444  13.452 -1.2254 -0.5999  0.1426
 3185SOL     OW21013   2.778   0.340   0.548 -0.3599 -0.0980  0.3382
 3185SOL    HW121014   2.690   0.309   0.569  1.0586 -1.1924  4.7745
 3185SOL    HW221015   2.829   0.271   0.591  0.1190 -0.4639 -0.8268
 3186SOL     OW21016   0.385   2.988   4.939  0.3236 -0.3313  0.4693
 3186SOL    HW121017   0.451   3.010   4.874  0.8186 -1.1326  0.6979
 3186SOL    HW221018   0.308   3.042   4.917 -0.5385 -1.4780  0.6560
 3187SOL     OW21019   4.172   0.645   8.098  0.2643 -0.1039  0.4095
 3187SOL    HW121020   4.135   0.571   8.146  0.9423 -0.9072 -0.3037
 3187SOL    HW221021   4.267   0.635   8.098  0.4879  2.0111  0.6454
 3188SOL     OW21022   4.691   0.148   5.822  0.1343 -0.2919 -0.1004
 3188SOL    HW121023   4.628   0.220   5.831  0.4231 -0.2106  1.2075
 3188SOL    HW221024   4.659   0.079   5.881 -0.1903 -0.9098 -0.9910
 3189SOL     OW21025   0.826   4.069   7.271 -0.0692  0.1493  0.1338
 3189SOL    HW121026   0.830   4.145   7.213  0.7501  0.0083  0.0127
 3189SOL    HW221027   0.733   4.051   7.258  0.4439 -2.0742 -0.4253
 3190SOL     OW21028   2.164   0.520   3.884  0.2604  0.0802  0.5308
 3190SOL    HW121029   2.109   0.590   3.919  1.3892  1.4666 -0.4455
 3190SOL    HW221030   2.239   0.572   3.853 -0.4715  1.7494  1.5403
 3191SOL     OW21031   4.708   4.627  17.609  0.1747 -0.7735 -0.5326
 3191SOL    HW121032   0.010   4.561  17.672  0.4107  0.9405  1.1563
 3191SOL    HW221033   0.033   4.596  17.534  0.3093  0.6179 -1.0152
 3192SOL     OW21034   2.423   4.554   9.126  0.5226  0.6599 -0.0425
 3192SOL    HW121035   2.427   4.620   9.195 -0.2632  0.4032  0.2459
 3192SOL    HW221036   2.440   4.469   9.168 -1.2531  0.2361 -0.1862
 3193SOL     OW21037   2.513   0.317   0.214 -0.5131 -0.1991 -0.3110
 3193SOL    HW121038   2.480   0.258   0.147 -0.3566 -2.1958  1.3709
 3193SOL    HW221039   2.499   0.273   0.298 -1.0121  0.6648  0.0638
 3194SOL     OW21040   1.339   1.994   5.041  0.1130 -0.8035 -0.1473
 3194SOL    HW121041   1.281   1.991   5.117 -0.2376  1.2112 -0.3321
 3194SOL    HW221042   1.356   1.900   5.030  0.9929 -0.8414  1.5683
 3195SOL     OW21043   3.889   3.191  15.949  0.1974 -0.2682 -0.4141
 3195SOL    HW121044   3.832   3.170  15.875 -2.4437  2.6501  0.7706
 3195SOL    HW221045   3.842   3.137  16.012  0.1149 -1.5781 -1.5966
 3196SOL     OW21046   4.201   1.083   1.073  0.2405 -0.3679 -0.1776
 3196SOL    HW121047   4.221   1.030   1.150  0.9971 -2.2762 -1.6708
 3196SOL    HW221048   4.292   1.112   1.061  0.3301 -0.9976 -1.1036
 3197SOL     OW21049   1.011   2.607   2.427  0.7174 -0.0621  0.3651
 3197SOL    HW121050   0.916   2.598   2.418  0.6930 -0.3235  0.8662
 3197SOL    HW221051   1.018   2.683   2.371  0.4206 -0.8219 -0.6990
 3198SOL     OW21052   4.486   1.287   0.629 -0.0083 -0.3911 -0.1256
 3198SOL    HW121053   4.448   1.364   0.588 -0.8975 -1.4658 -1.3208
 3198SOL    HW221054   4.423   1.263   0.696 -0.6025  1.5873  0.0094
 3199SOL     OW21055   0.413   0.173  17.567  0.3898 -0.2454  0.0335
 3199SOL    HW121056   0.444   0.118  17.495  3.5862 -0.3439  1.4887
 3199SOL    HW221057   0.459   0.256  17.557  1.6784 -0.6346  2.6380
 3200SOL     OW21058   4.216   1.585   7.520 -0.0572 -0.0601 -0.0637
 3200SOL    HW121059   4.202   1.500   7.478 -0.0260  0.0152 -0.2276
 3200SOL    HW221060   4.294   1.567   7.573  1.0127 -0.9009 -1.9076
 3201SOL     OW21061   0.618   1.212   1.270 -0.4483 -0.0181  0.4071
 3201SOL    HW121062   0.704   1.234   1.307  0.1269 -0.0610 -0.8995
 3201SOL    HW221063   0.576   1.298   1.264  0.0126  0.0890 -1.4763
 3202SOL     OW21064   2.375   4.174   5.531  0.2926 -0.2328 -0.3626
 3202SOL    HW121065   2.299   4.130   5.570 -0.0526  1.8553  1.3409
 3202SOL    HW221066   2.377   4.243   5.597  0.4649  0.6361 -1.2916
 3203SOL     OW21067   0.943   2.691   4.473 -0.3404 -0.5662 -0.1826
 3203SOL    HW121068   1.012   2.665   4.413  0.0676 -2.5430  1.1345
 3203SOL    HW221069   0.876   2.713   4.409 -1.0506  1.4999  1.2335
 3204SOL     OW21070   3.714   3.327   5.403  0.0223 -0.2001 -0.1919
 3204SOL    HW121071   3.803   3.292   5.400 -0.0462 -0.3974  0.1315
 3204SOL    HW221072   3.664   3.256   5.442  1.0430 -0.0315  1.4105
 3205SOL     OW21073   2.252   1.774   3.912  0.1190 -0.2978 -0.2536
 3205SOL    HW121074   2.243   1.761   4.007 -1.8287  0.4880 -0.3397
 3205SOL    HW221075   2.167   1.744   3.880  0.4151 -1.8902  0.4358
 3206SOL     OW21076   3.548   1.523   0.719 -0.0675 -0.4467 -0.2141
 3206SOL    HW121077   3.505   1.609   0.724  0.0157 -0.4070 -0.1863
 3206SOL    HW221078   3.467   1.477   0.740  0.0932 -1.7849 -2.4792
 3207SOL     OW21079   3.512   4.144  10.951  0.2857  0.4005 -0.6915
 3207SOL    HW121080   3.464   4.093  11.017  0.1772  1.5930  0.1448
 3207SOL    HW221081   3.552   4.217  10.997 -2.0703  0.3754  1.4003
 3208SOL     OW21082   0.352   0.288   7.932 -0.4300  0.8425  0.5272
 3208SOL    HW121083   0.446   0.272   7.934 -0.6705 -0.3709  2.9028
 3208SOL    HW221084   0.335   0.273   8.025  0.4672 -1.0389  0.3777
 3209SOL     OW21085   2.814   4.477  16.209 -0.1748  0.1676 -0.2395
 3209SOL    HW121086   2.838   4.426  16.286 -0.0662  0.7177  0.0917
 3209SOL    HW221087   2.798   4.402  16.152 -0.2381 -1.4654  1.9512
 3210SOL     OW21088   1.550   2.641   1.997  0.1874  0.0680  0.7630
 3210SOL    HW121089   1.566   2.612   1.907 -1.3723  0.2677  0.4221
 3210SOL    HW221090   1.476   2.694   1.969  0.1311 -0.1911  0.4113
 3211SOL     OW21091   1.848   4.593   7.882  0.1769  0.0924 -0.0116
 3211SOL    HW121092   1.763   4.635   7.867  0.5229  0.1014 -1.9622
 3211SOL    HW221093   1.827   4.548   7.964 -0.6860  1.2368  0.3944
 3212SOL     OW21094   3.371   4.525   9.965  0.5365  0.9905 -0.1465
 3212SOL    HW121095   3.423   4.541   9.886  0.5393 -0.2716 -0.3872
 3212SOL    HW221096   3.426   4.464  10.015 -1.8253 -0.6753  0.3917
 3213SOL     OW21097   4.067   4.639   7.648  0.0054 -0.1385  0.3361
 3213SOL    HW121098   4.028   4.559   7.613 -1.5951  0.3606  0.9655
 3213SOL    HW221099   4.151   4.656   7.605 -1.1863 -2.4609 -2.8779
 3214SOL     OW21100   1.567   0.035   1.692  0.4012 -0.1955 -0.1217
 3214SOL    HW121101   1.565   0.099   1.763  1.4965  0.5879 -0.8073
 3214SOL    HW221102   1.583   4.681   1.743 -1.8107 -0.3181  0.3488
 3215SOL     OW21103   3.301   1.430   0.793 -0.4390  0.1346 -0.1116
 3215SOL    HW121104   3.344   1.353   0.832  3.3747  2.3925  0.1162
 3215SOL    HW221105   3.241   1.450   0.865  0.5838 -0.1994  0.8311
 3216SOL     OW21106   4.616   0.006   7.752 -0.4227  0.3751  0.4967
 3216SOL    HW121107   4.707   0.001   7.723 -1.7207 -0.2801 -3.4896
 3216SOL    HW221108   4.591   4.641   7.732 -0.9703  0.6754 -0.1842
 3217SOL     OW21109   1.742   1.775   4.205 -0.2724 -0.1679  0.0200
 3217SOL    HW121110   1.733   1.851   4.261 -0.0175 -0.0731 -0.0721
 3217SOL    HW221111   1.806   1.808   4.143  0.0771 -1.6965 -0.4372
 3218SOL     OW21112   4.654   3.907   3.915  0.5702 -0.2755  0.1085
 3218SOL    HW121113   4.644   3.846   3.842  1.0506 -0.1944 -0.0212
 3218SOL    HW221114   4.566   3.943   3.903  0.3180 -0.7105  0.6874
 3219SOL     OW21115   3.472   3.870   9.254  0.0624 -0.3007 -0.2806
 3219SOL    HW121116   3.535   3.939   9.232  0.2806 -0.0890  1.0217
 3219SOL    HW221117   3.526   3.805   9.298  0.7674  0.4547 -0.0337
 3220SOL     OW21118   3.950   2.105  15.961 -0.1792 -0.1345 -0.2892
 3220SOL    HW121119   4.036   2.084  15.925  0.7052  1.3357  0.9422
 3220SOL    HW221120   3.898   2.040  15.914  1.5130 -2.2423  0.7050
 3221SOL     OW21121   1.463   0.355   1.424 -0.1533 -0.2716  0.7077
 3221SOL    HW121122   1.465   0.442   1.465 -0.4902  0.6018 -1.1186
 3221SOL    HW221123   1.550   0.336   1.388  0.1255  1.3653  0.4820
 3222SOL     OW21124   2.914   0.538   3.326  0.5722 -0.7119  0.1156
 3222SOL    HW121125   2.918   0.443   3.328  0.4160 -0.6913  1.2931
 3222SOL    HW221126   2.848   0.540   3.394  0.4932 -0.7563  0.0397
 3223SOL     OW21127   0.679   2.401  15.250 -0.0548 -0.1313  0.2693
 3223SOL    HW121128   0.612   2.345  15.212  0.6690  0.5584 -2.0469
 3223SOL    HW221129   0.680   2.480  15.196  1.4483  1.0223  1.9921
 3224SOL     OW21130   4.317   4.712   8.575 -0.2344  0.2785  0.2366
 3224SOL    HW121131   4.285   4.682   8.491  1.1641  0.4228 -0.3567
 3224SOL    HW221132   4.408   4.684   8.564 -0.1667  0.5195  0.1902
 3225SOL     OW21133   0.172   1.586   5.893  0.4022 -0.0293  0.1968
 3225SOL    HW121134   0.239   1.537   5.940  0.2064 -2.2269 -1.7894
 3225SOL    HW221135   0.118   1.517   5.854 -0.9865  0.5432  1.0766
 3226SOL     OW21136   0.171   2.746   9.040  0.2944 -0.3960 -0.1493
 3226SOL    HW121137   0.206   2.834   9.047 -2.8952  0.8343  0.3742
 3226SOL    HW221138   0.155   2.724   9.132  2.1538  1.5056  0.6063
 3227SOL     OW21139   1.400   3.823   2.348 -0.5206  0.0888 -0.1312
 3227SOL    HW121140   1.414   3.834   2.442  0.7043 -2.5292 -0.0216
 3227SOL    HW221141   1.437   3.736   2.335  0.3086  0.2613  1.0224
 3228SOL     OW21142   2.982   4.724   5.067  0.0187 -0.2966 -0.4886
 3228SOL    HW121143   2.917   4.708   4.999 -2.6456 -0.4422  2.1085
 3228SOL    HW221144   3.029   0.073   5.029 -0.1982 -0.1326 -0.4357
 3229SOL     OW21145   3.487   2.170   6.374 -0.2276  0.7307 -0.0956
 3229SOL    HW121146   3.510   2.239   6.312 -1.5338  0.3941 -0.9538
 3229SOL    HW221147   3.488   2.211   6.460 -2.1586 -0.4203  0.4830
 3230SOL     OW21148   0.115   4.173   1.462 -0.4187  0.0428  0.3848
 3230SOL    HW121149   0.072   4.243   1.414  0.3936  0.2425 -0.0645
 3230SOL    HW221150   0.198   4.197   1.419 -0.0642 -2.0755 -0.1654
 3231SOL     OW21151   0.629   4.629  10.083 -0.0818 -0.5852  0.2974
 3231SOL    HW121152   0.698   4.581  10.130  0.3639  0.6892  0.9375
 3231SOL    HW221153   0.610   4.701  10.143 -0.9880  0.1671 -0.8954
 3232SOL     OW21154   2.540   4.433   3.065  0.1743  0.8941  0.2053
 3232SOL    HW121155   2.516   4.479   2.984 -0.3128  1.4030  0.6419
 3232SOL    HW221156   2.636   4.430   3.060  0.2188 -0.4300  2.1822
 3233SOL     OW21157   0.748   3.283   8.879  0.0268 -0.0583 -0.7705
 3233SOL    HW121158   0.840   3.288   8.855 -0.2371  1.1823 -1.4935
 3233SOL    HW221159   0.743   3.274   8.975  2.8978 -0.2603 -0.6431
 3234SOL     OW21160   3.349   0.034   6.560 -0.0399 -0.3282  0.7326
 3234SOL    HW121161   3.292   4.720   6.625 -0.2772 -0.7472  0.2634
 3234SOL    HW221162   3.327   0.126   6.574 -0.2963 -0.5464  1.7168
 3235SOL     OW21163   0.192   2.572  17.242  0.3931 -0.0149 -0.2418
 3235SOL    HW121164   0.122   2.581  17.177  1.9025  1.5793 -1.6567
 3235SOL    HW221165   0.271   2.599  17.194 -0.3134  0.6101 -1.0606
 3236SOL     OW21166   3.846   0.563   3.935 -0.4712  0.3841 -0.2629
 3236SOL    HW121167   3.929   0.524   3.962 -0.2650  0.5834 -0.6168
 3236SOL    HW221168   3.795   0.482   3.928  3.4943 -2.1418  0.4201
 3237SOL     OW21169   1.207   1.515   7.929  0.1963  0.4088  0.7323
 3237SOL    HW121170   1.188   1.428   7.964 -0.6650 -0.3767 -1.6525
 3237SOL    HW221171   1.130   1.570   7.944 -1.1559 -0.9165 -1.2277
 3238SOL     OW21172   0.125   2.665  12.321 -0.3968  0.5930 -0.3447
 3238SOL    HW121173   0.192   2.607  12.357 -0.4780  2.0327  2.1082
 3238SOL    HW221174   0.061   2.600  12.292 -1.0733  1.7791 -1.4606
 3239SOL     OW21175   0.820   4.395   3.071  0.2033 -0.4479  0.1198
 3239SOL    HW121176   0.893   4.457   3.064 -1.1993  1.1018 -0.7014
 3239SOL    HW221177   0.859   4.310   3.050 -0.8389 -0.9359  0.2042
 3240SOL     OW21178   0.329   2.298   5.758 -0.7107 -0.8045 -0.1321
 3240SOL    HW121179   0.275   2.220   5.774 -3.6112  1.5071  1.1944
 3240SOL    HW221180   0.402   2.253   5.715 -0.1148 -1.2379  1.3534
 3241SOL     OW21181   0.375   0.329   4.140 -0.1424 -0.0027  0.0657
 3241SOL    HW121182   0.336   0.370   4.217 -0.0786 -1.5393  0.9153
 3241SOL    HW221183   0.466   0.348   4.164 -0.4885  1.7894 -0.0165
 3242SOL     OW21184   4.139   0.534   4.281  0.0342  0.2105  0.2009
 3242SOL    HW121185   4.167   0.624   4.295 -1.0889  0.7440 -0.9527
 3242SOL    HW221186   4.119   0.540   4.187 -2.2541 -0.3167  0.6537
 3243SOL     OW21187   1.408   3.505   5.586  0.1093  0.4220  0.2264
 3243SOL    HW121188   1.341   3.565   5.619  2.6875  2.2751  2.0648
 3243SOL    HW221189   1.387   3.471   5.499  1.7085  0.2492 -0.0892
 3244SOL     OW21190   2.302   3.397   9.203 -0.2198 -0.5189  0.4374
 3244SOL    HW121191   2.369   3.345   9.247  1.3431  1.6525  0.5866
 3244SOL    HW221192   2.307   3.485   9.240 -3.5513  0.3319 -1.1228
 3245SOL     OW21193   0.378   3.705   5.107  0.4579 -0.3858  0.1038
 3245SOL    HW121194   0.427   3.737   5.183  1.4164  0.3226 -0.8136
 3245SOL    HW221195   0.328   3.639   5.155  0.8289  0.6517  1.9181
 3246SOL     OW21196   3.245   4.008  17.687 -0.6510  0.1863  0.0198
 3246SOL    HW121197   3.246   4.073   0.052 -1.6793  0.0016  0.2156
 3246SOL    HW221198   3.290   4.059  17.619 -3.0011 -0.0688 -1.7449
 3247SOL     OW21199   3.646   2.625   6.973 -0.3531 -0.9369  0.8203
 3247SOL    HW121200   3.626   2.658   6.885  2.0836  1.0362  0.9906
 3247SOL    HW221201   3.561   2.613   7.013 -1.6808 -0.1488 -1.7572
 3248SOL     OW21202   4.301   3.894  10.904 -0.4743  0.0471 -0.7891
 3248SOL    HW121203   4.292   3.804  10.875  1.6092 -0.8720  1.3738
 3248SOL    HW221204   4.278   3.881  10.996  0.7077 -2.4289 -0.8565
 3249SOL     OW21205   1.076   1.893   4.380 -0.6503 -0.1599  0.0628
 3249SOL    HW121206   1.018   1.823   4.411  1.1488 -1.2834  0.8679
 3249SOL    HW221207   1.141   1.887   4.450  1.4710 -0.7805 -1.9768
 3250SOL     OW21208   4.341   4.045   1.922  0.1080  1.0196  0.2909
 3250SOL    HW121209   4.412   4.063   1.860  1.4404 -1.2059  1.1446
 3250SOL    HW221210   4.364   3.955   1.946  1.6258  1.0163 -1.1957
 3251SOL     OW21211   1.074   1.019   2.261  0.1499 -0.2389  0.3054
 3251SOL    HW121212   0.992   0.972   2.245  0.3557 -0.8820  1.1483
 3251SOL    HW221213   1.099   1.015   2.168 -2.3820  0.4561 -0.4021
 3252SOL     OW21214   0.826   3.011  17.691  0.2416 -0.1631 -0.1860
 3252SOL    HW121215   0.915   3.029   0.018 -0.6321  0.0020  2.1659
 3252SOL    HW221216   0.772   3.020   0.065  1.0812 -0.2846  0.4081
 3253SOL     OW21217   1.812   0.471  11.808  0.1450  0.1216  0.2764
 3253SOL    HW121218   1.808   0.496  11.900  2.8930  0.0307  0.4237
 3253SOL    HW221219   1.772   0.384  11.809  0.0933  0.1409 -0.6771
 3254SOL     OW21220   2.285   0.015   4.695  0.4426  0.5426  0.4498
 3254SOL    HW121221   2.287   0.081   4.626  0.7254 -1.4260 -1.4264
 3254SOL    HW221222   2.354   4.682   4.663  1.0125  1.2618  0.3698
 3255SOL     OW21223   4.723   1.309   2.709 -0.6113 -0.1164  0.0721
 3255SOL    HW121224   0.028   1.249   2.778  1.7378 -1.7751 -2.4394
 3255SOL    HW221225   0.047   1.387   2.732 -0.5787  0.0401 -0.5281
 3256SOL     OW21226   4.419   2.390   9.262 -0.0371 -0.2467  0.3308
 3256SOL    HW121227   4.361   2.324   9.223  0.2393 -0.6787  0.6560
 3256SOL    HW221228   4.350   2.450   9.290 -0.3706 -1.1709  1.4996
 3257SOL     OW21229   0.066   1.543   2.869 -0.0220  0.0814 -0.2017
 3257SOL    HW121230   0.118   1.621   2.851  1.8107 -1.3519 -1.0399
 3257SOL    HW221231   0.139   1.496   2.908  1.5910  1.6250 -1.3549
 3258SOL     OW21232   1.631   0.931   7.107 -0.0602  0.5200 -0.2693
 3258SOL    HW121233   1.600   0.882   7.183 -0.8718  1.6947  0.1497
 3258SOL    HW221234   1.556   0.948   7.050 -0.0730  2.7334  0.4160
 3259SOL     OW21235   2.880   4.642  15.518 -0.0680  0.5366 -0.4886
 3259SOL    HW121236   2.931   4.592  15.454 -0.4349 -1.2782  0.6330
 3259SOL    HW221237   2.800   4.672  15.476  0.5160  0.7536 -1.4535
 3260SOL     OW21238   1.256   0.379   5.430 -0.2247  0.1298  0.3682
 3260SOL    HW121239   1.253   0.320   5.505  0.7518 -0.2665  0.1017
 3260SOL    HW221240   1.302   0.457   5.461  1.0342 -0.6039  0.3611
 3261SOL     OW21241   1.453   2.024   8.598  0.7640  0.0730 -0.0349
 3261SOL    HW121242   1.368   2.031   8.642 -0.0498 -0.4340 -1.5163
 3261SOL    HW221243   1.499   2.045   8.680  2.5893  0.3051 -1.1194
 3262SOL     OW21244   4.288   1.930   1.820 -0.0107 -0.3032  0.3252
 3262SOL    HW121245   4.232   1.852   1.828 -0.1072 -0.5757 -2.9431
 3262SOL    HW221246   4.252   1.993   1.883  2.7581  0.9901  0.6122
 3263SOL     OW21247   4.638   3.671   5.054  0.2059  0.1090 -0.3201
 3263SOL    HW121248   4.591   3.753   5.067  2.6975  1.1473  2.3200
 3263SOL    HW221249   4.719   3.695   5.099  1.9762 -2.4771 -2.1067
 3264SOL     OW21250   1.520   4.678  14.602  0.3932 -0.6400 -0.2109
 3264SOL    HW121251   1.599   4.678  14.656 -0.0791 -2.5830  0.4840
 3264SOL    HW221252   1.543   4.648  14.514 -0.5913  1.9025 -1.3333
 3265SOL     OW21253   1.670   3.402   8.944 -0.7807  0.0686  0.2111
 3265SOL    HW121254   1.600   3.365   8.891  0.7358 -0.8060 -1.1785
 3265SOL    HW221255   1.636   3.367   9.026 -0.2337  0.7881  0.7449
 3266SOL     OW21256   2.774   1.427   3.945  0.4884  0.7981  0.6293
 3266SOL    HW121257   2.682   1.420   3.967  0.0360  2.2775 -0.8080
 3266SOL    HW221258   2.795   1.335   3.960  1.3862  0.8872 -0.0449
 3267SOL     OW21259   3.679   4.544   4.971 -0.1862  0.4656  0.3778
 3267SOL    HW121260   3.645   4.630   4.948 -1.2097 -0.0780 -0.1599
 3267SOL    HW221261   3.767   4.560   5.005 -0.1850  0.2164  0.4944
 3268SOL     OW21262   0.651   4.303  15.566 -0.7697  0.1761  0.0663
 3268SOL    HW121263   0.703   4.323  15.488  2.0313 -2.5637  1.2345
 3268SOL    HW221264   0.625   4.389  15.601  1.1011  1.0691 -0.7300
 3269SOL     OW21265   3.553   0.042   4.907 -0.0853  0.2432  0.2369
 3269SOL    HW121266   3.477   4.721   4.942 -0.7589  0.0312 -1.5108
 3269SOL    HW221267   3.516   0.123   4.872 -0.2360 -0.0866 -0.3650
 3270SOL     OW21268   3.949   0.085   1.056 -0.0952 -0.1502 -0.3690
 3270SOL    HW121269   3.999   0.069   0.975  1.6187 -0.4733  0.7531
 3270SOL    HW221270   3.947   0.181   1.063  0.2633 -0.1380 -0.4112
 3271SOL     OW21271   3.463   4.415   5.169  0.5007  0.0932  0.3683
 3271SOL    HW121272   3.472   4.354   5.096 -0.9553  0.3163 -0.0038
 3271SOL    HW221273   3.464   4.498   5.122  0.4839 -0.7437 -1.1040
 3272SOL     OW21274   1.537   4.404   1.361  0.1525 -0.1087  0.2240
 3272SOL    HW121275   1.507   4.494   1.347 -1.6902 -0.5499  1.3485
 3272SOL    HW221276   1.619   4.416   1.409 -1.6159  2.2413  2.5960
 3273SOL     OW21277   2.480   0.121   8.855 -0.2691  0.4607  0.2364
 3273SOL    HW121278   2.558   0.139   8.801 -0.8455  1.3984 -0.2924
 3273SOL    HW221279   2.409   0.176   8.822  1.5725  2.1092 -1.0676
 3274SOL     OW21280   2.226   0.445   0.162 -0.3239 -0.0485 -0.2804
 3274SOL    HW121281   2.307   0.401   0.190  0.3497  0.7878 -0.9279
 3274SOL    HW221282   2.159   0.380   0.185  1.5943 -2.9498 -2.7023
 3275SOL     OW21283   2.977   1.950  15.311 -0.4372  0.0425 -0.1798
 3275SOL    HW121284   3.046   1.901  15.265  0.5489  0.0338  1.2851
 3275SOL    HW221285   2.935   1.871  15.347 -0.7108  0.0939 -0.3949
 3276SOL     OW21286   4.706   0.625  15.293 -0.0137  0.1985  0.3665
 3276SOL    HW121287   4.716   0.714  15.260 -2.5927 -0.3553 -1.9387
 3276SOL    HW221288   4.621   0.632  15.337 -1.1875 -1.7950 -1.5652
 3277SOL     OW21289   4.611   2.871  14.105 -0.2341  0.5869  0.1732
 3277SOL    HW121290   4.545   2.876  14.174 -1.0544 -0.1361 -0.5678
 3277SOL    HW221291   4.602   2.779  14.081 -0.3983  0.3921  0.9820
 3278SOL     OW21292   2.192   4.570   9.724  0.3413  0.8946  0.5751
 3278SOL    HW121293   2.183   4.660   9.754  0.0409  0.2431  2.4966
 3278SOL    HW221294   2.223   4.530   9.805 -0.2155 -1.6837 -0.4821
 3279SOL     OW21295   2.163   0.556   3.160  0.0512  0.1386 -0.3402
 3279SOL    HW121296   2.132   0.541   3.071 -0.6613 -0.8311  0.0645
 3279SOL    HW221297   2.227   0.626   3.154  0.1692 -0.2344 -3.1001
 3280SOL     OW21298   0.613   0.110   8.681  0.0031 -0.0068 -0.4524
 3280SOL    HW121299   0.609   0.147   8.769 -1.9118 -0.2793 -0.4156
 3280SOL    HW221300   0.522   0.091   8.659  0.0770 -0.0468 -0.7268
 3281SOL     OW21301   2.497   4.114   3.736 -0.1024  0.1294 -0.1340
 3281SOL    HW121302   2.402   4.102   3.737  0.0920 -1.2822  2.5900
 3281SOL    HW221303   2.519   4.060   3.812  1.4114 -0.4812 -1.0055
 3282SOL     OW21304   1.326   4.462   6.032 -0.0246  0.2108 -0.1099
 3282SOL    HW121305   1.352   4.512   6.109  1.3350 -2.0844  0.9397
 3282SOL    HW221306   1.363   4.374   6.043 -0.0243  0.2378  0.1189
 3283SOL     OW21307   3.705   2.577   3.991 -0.4256  0.5503 -0.1594
 3283SOL    HW121308   3.737   2.603   3.905  2.7405 -0.8625  0.5804
 3283SOL    HW221309   3.618   2.617   3.993 -1.7784 -2.3676 -0.0919
 3284SOL     OW21310   1.764   0.931   1.956  0.0531  0.1075 -0.2029
 3284SOL    HW121311   1.805   0.872   1.892  0.8092  1.9391 -1.4120
 3284SOL    HW221312   1.685   0.952   1.907 -0.0683 -2.5453 -1.1609
 3285SOL     OW21313   1.944   2.085  13.105 -0.2609 -0.2493  0.2341
 3285SOL    HW121314   1.926   2.010  13.162 -0.6726  0.3245  0.8677
 3285SOL    HW221315   2.019   2.122  13.152 -0.1492 -1.0014  0.6476
 3286SOL     OW21316   0.443   2.382  10.729 -0.1314 -1.0170 -0.9425
 3286SOL    HW121317   0.444   2.434  10.809 -0.7243 -1.9586 -0.3231
 3286SOL    HW221318   0.464   2.454  10.669  0.1710 -2.1206 -2.1722
 3287SOL     OW21319   3.942   2.858  10.422 -0.3938  0.7704  0.9412
 3287SOL    HW121320   4.031   2.878  10.392  0.0686  1.5702  2.8147
 3287SOL    HW221321   3.899   2.937  10.390  0.4696  1.1605  0.7528
 3288SOL     OW21322   3.086   2.316   4.363 -0.4225  0.4651 -0.3818
 3288SOL    HW121323   3.035   2.328   4.443  1.3788 -0.9630  0.9535
 3288SOL    HW221324   3.018   2.263   4.322 -0.5809  2.2747 -2.4885
 3289SOL     OW21325   0.095   2.769  13.603  0.3025 -0.2406 -0.3226
 3289SOL    HW121326   0.114   2.777  13.510  1.7091  0.3646  0.0113
 3289SOL    HW221327   0.019   2.826  13.613  1.4591  1.6258 -2.3382
 3290SOL     OW21328   0.941   1.442   5.893 -0.7734 -0.0920  0.1047
 3290SOL    HW121329   0.950   1.357   5.848 -0.7705 -0.2417  0.3876
 3290SOL    HW221330   0.851   1.446   5.925 -0.1781  0.0710  1.7633
 3291SOL     OW21331   2.082   2.147   2.616 -0.3170 -0.2072 -0.4599
 3291SOL    HW121332   2.038   2.063   2.632  2.1628 -1.0975  1.7318
 3291SOL    HW221333   2.141   2.130   2.543 -1.4074  0.2013 -1.4414
 3292SOL     OW21334   1.794   3.346  10.734 -0.4029  0.6613  0.2371
 3292SOL    HW121335   1.729   3.279  10.753  0.3910 -0.1084  0.2879
 3292SOL    HW221336   1.752   3.394  10.663  0.5347 -2.2731 -2.3127
 3293SOL     OW21337   2.578   2.482   8.344  0.0616  0.2331  0.4756
 3293SOL    HW121338   2.671   2.462   8.330  0.0049 -0.3535  0.9255
 3293SOL    HW221339   2.560   2.475   8.437 -2.3325 -1.3812 -0.1063
 3294SOL     OW21340   2.616   0.888  13.690 -0.5708  0.6226  0.2083
 3294SOL    HW121341   2.592   0.973  13.726 -0.4958  1.3168 -1.4064
 3294SOL    HW221342   2.572   0.884  13.606 -0.7170 -0.5508  0.3396
 3295SOL     OW21343   0.479   1.463   3.623 -0.0704 -0.3202  0.3713
 3295SOL    HW121344   0.443   1.403   3.687  0.3315 -1.1248 -0.1630
 3295SOL    HW221345   0.556   1.421   3.584 -0.1644 -0.5800  0.4672
 3296SOL     OW21346   3.505   3.677   5.849  0.3758 -0.1072 -0.3323
 3296SOL    HW121347   3.553   3.656   5.930 -0.2680  0.6242  0.2390
 3296SOL    HW221348   3.494   3.588   5.816 -0.2952  0.1561 -0.8018
 3297SOL     OW21349   4.431   3.144   3.302 -0.0564 -0.6171  0.5252
 3297SOL    HW121350   4.477   3.087   3.241 -1.1287 -0.8270 -0.0874
 3297SOL    HW221351   4.343   3.132   3.266  1.0991 -0.6885 -2.2242
 3298SOL     OW21352   0.013   3.448   7.515  0.3601  0.2950 -0.0282
 3298SOL    HW121353   0.068   3.394   7.458 -0.4240 -0.5862  0.0457
 3298SOL    HW221354   0.042   3.414   7.599 -0.8513 -2.7739 -0.8464
 3299SOL     OW21355   4.241   1.585   2.574 -0.1025 -0.6020  0.1245
 3299SOL    HW121356   4.211   1.540   2.495  0.7277 -1.3395  0.2252
 3299SOL    HW221357   4.327   1.547   2.589  0.0275 -0.1969  0.3935
 3300SOL     OW21358   0.822   3.579   4.116 -0.0093  0.2840 -0.5194
 3300SOL    HW121359   0.904   3.629   4.112 -0.5889  1.1017 -2.0354
 3300SOL    HW221360   0.811   3.576   4.211 -1.2205 -0.4796 -0.6874
 3301SOL     OW21361   0.859   2.525   7.954 -0.3794 -0.2845 -0.3604
 3301SOL    HW121362   0.876   2.477   7.873  0.0597  2.0378 -1.6523
 3301SOL    HW221363   0.947   2.533   7.990 -0.6833 -0.0247  0.3194
 3302SOL     OW21364   4.619   3.170   4.258 -0.0496 -0.1245 -1.0084
 3302SOL    HW121365   4.676   3.230   4.211 -0.1605 -1.5161 -2.9375
 3302SOL    HW221366   4.530   3.206   4.259 -0.1992 -0.4628 -2.1261
 3303SOL     OW21367   0.236   4.272   6.573  0.2153 -0.1801  0.7321
 3303SOL    HW121368   0.310   4.295   6.516 -0.9710 -1.4242 -1.2883
 3303SOL    HW221369   0.233   4.176   6.572 -1.3530 -0.1257  0.1416
 3304SOL     OW21370   1.393   2.829   2.561  0.5640 -0.3321  0.9055
 3304SOL    HW121371   1.416   2.741   2.533  1.8940  0.2873  0.0244
 3304SOL    HW221372   1.423   2.873   2.481 -0.9378  4.1384  2.8116
 3305SOL     OW21373   4.308   2.364   5.545  0.3384 -0.2154  0.5693
 3305SOL    HW121374   4.350   2.288   5.505  0.7729 -0.0774  0.7661
 3305SOL    HW221375   4.234   2.329   5.594  0.0103  0.2163  0.3817
 3306SOL     OW21376   3.973   4.246   8.107  0.9496  0.0685 -0.1474
 3306SOL    HW121377   4.023   4.177   8.151  2.0278  1.8373  1.3730
 3306SOL    HW221378   3.891   4.236   8.154 -0.2297  0.7745 -2.0727
 3307SOL     OW21379   0.027   1.529   4.107 -0.2894  0.6839  0.3888
 3307SOL    HW121380   0.121   1.539   4.092 -0.2657  0.5784  0.4676
 3307SOL    HW221381   4.724   1.549   4.018 -1.1862 -1.2788  0.2354
 3308SOL     OW21382   1.718   4.560   7.643  0.2999  0.2810  0.4226
 3308SOL    HW121383   1.809   4.536   7.622  0.1607  0.9882 -0.9843
 3308SOL    HW221384   1.720   4.652   7.668  0.7926  0.4067 -0.0814
 3309SOL     OW21385   3.025   4.644   6.353 -0.2239  0.2268 -0.2087
 3309SOL    HW121386   2.993   4.673   6.438  1.3290  0.0217  0.4549
 3309SOL    HW221387   2.989   4.556   6.365 -0.3086  0.4565  1.2422
 3310SOL     OW21388   1.639   0.924  16.396 -0.0992  0.0100  0.1689
 3310SOL    HW121389   1.667   0.998  16.342  0.9130 -0.9915 -0.6699
 3310SOL    HW221390   1.573   0.883  16.341  0.0216  2.8012 -2.0960
 3311SOL     OW21391   0.742   2.171  10.830 -0.2134  0.0242 -0.2556
 3311SOL    HW121392   0.686   2.104  10.870 -1.4510  0.2669 -1.5800
 3311SOL    HW221393   0.710   2.180  10.740 -0.3587  0.5713 -0.1476
 3312SOL     OW21394   4.177   4.126   0.759 -0.1024  0.3982 -0.3047
 3312SOL    HW121395   4.260   4.174   0.767  1.2114 -1.6269 -1.8052
 3312SOL    HW221396   4.112   4.197   0.761 -1.3002 -0.7445  0.7362
 3313SOL     OW21397   1.921   2.229   5.106  0.3387  0.2800 -0.3222
 3313SOL    HW121398   1.963   2.270   5.030 -0.8360  1.3064 -0.4215
 3313SOL    HW221399   1.975   2.267   5.175  0.5153  0.2587 -0.4482
 3314SOL     OW21400   2.479   0.365   5.930 -0.1068 -0.2355  0.5361
 3314SOL    HW121401   2.481   0.290   5.989  1.9951 -1.2266 -0.8133
 3314SOL    HW221402   2.417   0.329   5.867 -0.9412  2.0853  0.0220
 3315SOL     OW21403   3.366   1.405  11.577  0.0369 -0.4827  0.1574
 3315SOL    HW121404   3.298   1.463  11.611 -0.6072 -0.6077 -0.9206
 3315SOL    HW221405   3.411   1.460  11.513 -0.3647 -1.7363 -1.2065
 3316SOL     OW21406   1.701   2.341   2.580  0.0911 -0.0204  0.4000
 3316SOL    HW121407   1.606   2.335   2.574 -0.0468  1.1822  1.1927
 3316SOL    HW221408   1.715   2.308   2.669  0.9478 -1.5902 -0.3238
 3317SOL     OW21409   1.821   4.455   0.019  0.7181 -0.1863  0.2425
 3317SOL    HW121410   1.803   4.369  17.686  1.7501  0.1674 -1.0792
 3317SOL    HW221411   1.831   4.434   0.112  1.2736  1.0500  0.4724
 3318SOL     OW21412   0.517   0.645   5.112  0.6800 -0.0325 -0.2125
 3318SOL    HW121413   0.547   0.554   5.110  0.9373  0.0304  0.8127
 3318SOL    HW221414   0.451   0.638   5.043 -0.3378 -1.3919  0.8926
 3319SOL     OW21415   3.853   3.563   1.792 -0.5282  0.2577 -0.2629
 3319SOL    HW121416   3.833   3.600   1.707 -1.2386  2.1493  0.7343
 3319SOL    HW221417   3.811   3.477   1.790 -0.1315 -0.0032  1.8360
 3320SOL     OW21418   0.489   2.803   5.163  0.2351 -0.0002  0.0783
 3320SOL    HW121419   0.467   2.863   5.092  2.8003 -1.3783 -1.8803
 3320SOL    HW221420   0.417   2.811   5.225  1.1190  0.4335  1.0423
 3321SOL     OW21421   3.494   0.566   8.406 -0.1376  0.0152 -0.3785
 3321SOL    HW121422   3.476   0.545   8.498 -1.6993  1.7119 -0.2848
 3321SOL    HW221423   3.417   0.621   8.388 -0.0064  0.2096 -0.3449
 3322SOL     OW21424   1.959   4.181  17.467 -0.1693  0.1164 -0.0063
 3322SOL    HW121425   2.039   4.189  17.520 -2.7305  3.1686  3.3892
 3322SOL    HW221426   1.897   4.180  17.540  0.8030 -0.1574  0.8199
 3323SOL     OW21427   3.646   1.769  15.605 -0.0808 -0.9088  0.8033
 3323SOL    HW121428   3.649   1.833  15.676 -0.8909 -0.0718  0.0769
 3323SOL    HW221429   3.701   1.818  15.543 -1.8478 -2.3562 -1.8833
 3324SOL     OW21430   4.088   0.398   7.226 -1.0677 -0.2274 -0.6039
 3324SOL    HW121431   4.122   0.485   7.246 -0.5049 -0.0634 -2.2179
 3324SOL    HW221432   4.027   0.373   7.295 -0.6506  0.7208  0.1061
 3325SOL     OW21433   3.554   0.665   6.450 -0.2902  0.3463 -0.0061
 3325SOL    HW121434   3.554   0.755   6.485 -1.7233  0.8110 -1.2098
 3325SOL    HW221435   3.464   0.645   6.425 -0.0408 -1.9207  0.9555
 3326SOL     OW21436   2.575   4.583   4.084  0.3403 -0.0859  0.1797
 3326SOL    HW121437   2.664   4.616   4.083  0.8923 -1.5673  0.0027
 3326SOL    HW221438   2.589   4.489   4.072 -0.7750 -0.2407  0.0093
 3327SOL     OW21439   1.496   4.281   0.857 -0.0024  0.4350 -0.3522
 3327SOL    HW121440   1.543   4.263   0.938  1.4631  3.4381 -0.5378
 3327SOL    HW221441   1.418   4.321   0.895 -0.1840 -1.6872  1.4844
 3328SOL     OW21442   3.301   3.453   2.195 -0.6082  0.7971  0.6076
 3328SOL    HW121443   3.236   3.399   2.150  0.2911 -0.9263  1.3900
 3328SOL    HW221444   3.285   3.429   2.286  1.4456 -0.9303  0.5236
 3329SOL     OW21445   1.088   1.545   4.338  0.2966  0.2238 -0.2935
 3329SOL    HW121446   1.058   1.454   4.342  1.8472 -0.3103 -0.7511
 3329SOL    HW221447   1.006   1.586   4.365  0.5956  0.6483 -0.0393
 3330SOL     OW21448   2.616   3.791   3.133 -0.2591  0.3178  0.0850
 3330SOL    HW121449   2.665   3.722   3.088 -0.3842  0.0581  0.3464
 3330SOL    HW221450   2.599   3.738   3.211 -0.5997  0.0054 -0.2027
 3331SOL     OW21451   2.361   4.544   8.192  0.5652 -0.3526  0.0559
 3331SOL    HW121452   2.400   4.537   8.279  0.7303 -2.0644 -0.1522
 3331SOL    HW221453   2.273   4.514   8.213  0.7143 -0.2085  0.8555
 3332SOL     OW21454   2.951   3.806   1.542  0.2370 -0.1351 -0.0869
 3332SOL    HW121455   2.965   3.793   1.635 -0.0445 -1.1774 -0.1848
 3332SOL    HW221456   2.882   3.873   1.547  0.1950 -0.2311  0.5664
 3333SOL     OW21457   2.148   2.327   5.310 -0.3554  0.0468 -0.0390
 3333SOL    HW121458   2.242   2.307   5.314 -0.1336  0.7673 -1.7887
 3333SOL    HW221459   2.125   2.317   5.402  1.1345  0.8771  0.4281
 3334SOL     OW21460   3.151   3.156  15.218 -0.3175  0.5300 -0.4996
 3334SOL    HW121461   3.170   3.223  15.284 -0.4172 -0.9077  0.9820
 3334SOL    HW221462   3.163   3.204  15.137  0.8317  1.7269  0.3809
 3335SOL     OW21463   0.009   3.754   3.345  0.1281  0.2680  0.0734
 3335SOL    HW121464   4.647   3.763   3.310 -0.1172  0.4358  0.7276
 3335SOL    HW221465   0.044   3.842   3.362 -0.9574  0.7024  0.0603
 3336SOL     OW21466   2.485   2.118   6.370  0.2353  0.3646  0.4136
 3336SOL    HW121467   2.456   2.203   6.338  2.6742  1.1020  0.1406
 3336SOL    HW221468   2.480   2.067   6.290  0.9014  0.3855  0.3564
 3337SOL     OW21469   1.042   0.658   1.892  0.2515 -0.1169  0.6533
 3337SOL    HW121470   1.133   0.628   1.896  0.0517 -0.6458  1.1468
 3337SOL    HW221471   0.995   0.575   1.882 -0.6953  0.2454  2.1568
 3338SOL     OW21472   2.520   0.880  17.667  0.0694  0.4568 -0.4943
 3338SOL    HW121473   2.606   0.923  17.664  0.1383  0.1803 -2.3000
 3338SOL    HW221474   2.486   0.881   0.052 -0.5883 -0.5776 -0.7341
 3339SOL     OW21475   3.284   1.551  13.239  0.3610 -0.6325 -0.1103
 3339SOL    HW121476   3.209   1.548  13.298  0.2917  1.5153 -0.0891
 3339SOL    HW221477   3.259   1.606  13.165  1.8959  0.4796  0.1905
 3340SOL     OW21478   2.213   1.160  16.738 -0.2374  0.5036 -0.2783
 3340SOL    HW121479   2.142   1.104  16.709 -1.0318  1.4991 -0.2650
 3340SOL    HW221480   2.268   1.090  16.773 -0.8220 -0.8333 -2.0610
 3341SOL     OW21481   0.492   0.243   7.217 -0.6527  0.3958  0.6439
 3341SOL    HW121482   0.441   0.263   7.139 -0.2227 -0.9913  0.0089
 3341SOL    HW221483   0.482   0.148   7.220  0.8414  0.3102  2.7533
 3342SOL     OW21484   2.810   3.972   2.099  0.2670 -0.2213 -0.5376
 3342SOL    HW121485   2.899   3.968   2.135 -0.3330  2.5135  1.2570
 3342SOL    HW221486   2.790   3.879   2.090 -0.8918 -0.1845  1.5411
 3343SOL     OW21487   2.492   2.746   1.372 -0.4103 -0.5407 -0.0646
 3343SOL    HW121488   2.473   2.734   1.279  0.1303 -0.2048 -0.2199
 3343SOL    HW221489   2.530   2.834   1.373  0.1054 -0.7506 -0.7589
 3344SOL     OW21490   0.886   0.332   8.760  0.1782  0.0070  0.0161
 3344SOL    HW121491   0.827   0.404   8.783 -3.3660 -2.9793  0.2068
 3344SOL    HW221492   0.935   0.382   8.694 -0.2655 -0.3823 -0.6130
 3345SOL     OW21493   1.641   3.430   6.153  0.5840 -0.5204  0.1127
 3345SOL    HW121494   1.586   3.352   6.164  0.6648 -0.4757  0.8165
 3345SOL    HW221495   1.680   3.411   6.067  0.3545  2.9062 -0.7494
 3346SOL     OW21496   1.355   2.759   4.106  0.0108  0.2760  0.3827
 3346SOL    HW121497   1.421   2.824   4.081  0.2017 -0.7147 -1.7204
 3346SOL    HW221498   1.295   2.758   4.032  0.1490  1.6543  0.2515
 3347SOL     OW21499   1.970   3.547   9.533 -0.3762  0.1633  0.0939
 3347SOL    HW121500   1.994   3.611   9.600 -1.8433  1.1041 -0.2724
 3347SOL    HW221501   2.042   3.487   9.553  0.1149  0.1169 -1.7808
 3348SOL     OW21502   2.859   2.775   6.684  0.0696 -0.0439  0.1992
 3348SOL    HW121503   2.916   2.701   6.663  0.3874  0.2781 -0.0821
 3348SOL    HW221504   2.776   2.732   6.662  0.3623 -0.6675  0.3111
 3349SOL     OW21505   4.432   4.042   2.631 -0.4692  0.2446  0.2058
 3349SOL    HW121506   4.423   4.081   2.544 -0.6112  1.1023  0.6050
 3349SOL    HW221507   4.359   4.085   2.677 -0.3200 -0.9421  1.5383
 3350SOL     OW21508   2.010   1.593   3.884 -0.1502  0.0369  0.1253
 3350SOL    HW121509   1.929   1.569   3.928  0.0532  0.0104  0.4831
 3350SOL    HW221510   2.069   1.522   3.909 -0.2093  0.1358  0.5390
 3351SOL     OW21511   2.741   2.663   3.440  0.2212 -0.2318  0.4977
 3351SOL    HW121512   2.761   2.575   3.408  1.1728  0.7375 -1.5488
 3351SOL    HW221513   2.767   2.656   3.532 -0.1280  0.4259  0.6425
 3352SOL     OW21514   3.312   3.372  14.843 -0.3183 -0.3008 -0.5030
 3352SOL    HW121515   3.325   3.302  14.780 -0.7068 -2.1446  1.4697
 3352SOL    HW221516   3.340   3.441  14.783 -0.3035  1.8649  1.9586
 3353SOL     OW21517   4.554   2.982   2.673  0.7134  0.2527 -0.1635
 3353SOL    HW121518   4.522   3.001   2.585 -1.4200  0.6755  0.7009
 3353SOL    HW221519   4.617   3.054   2.681  0.0397  0.6481  1.5597
 3354SOL     OW21520   1.710   4.075   0.420  0.5392  0.0246  0.3964
 3354SOL    HW121521   1.656   4.048   0.494 -0.0419 -1.1827 -0.4615
 3354SOL    HW221522   1.799   4.066   0.455  0.5255 -0.1420  0.3879
 3355SOL     OW21523   2.391   3.360   2.550 -0.5869 -0.9456  0.2122
 3355SOL    HW121524   2.335   3.436   2.564 -0.5966 -0.9904  0.4063
 3355SOL    HW221525   2.357   3.320   2.470 -3.9062 -0.9464  1.6321
 3356SOL     OW21526   2.510   1.456   4.062 -0.2680  0.0217  0.6079
 3356SOL    HW121527   2.520   1.366   4.093 -1.9284 -1.0614 -2.0361
 3356SOL    HW221528   2.486   1.500   4.144  1.3733 -1.0137  1.6496
 3357SOL     OW21529   2.453   4.320  15.981  0.0627 -0.1758 -0.1083
 3357SOL    HW121530   2.363   4.335  15.952 -0.4691  0.7224  2.0467
 3357SOL    HW221531   2.461   4.381  16.054  1.8912 -0.2757 -0.2267
 3358SOL     OW21532   4.705   1.336   9.471 -0.2122  0.4313 -0.3357
 3358SOL    HW121533   4.661   1.254   9.494 -1.0134  1.0335  0.2824
 3358SOL    HW221534   0.034   1.353   9.548  0.5974  1.1376 -1.0664
 3359SOL     OW21535   4.166   3.346   5.639  0.3776  0.4199 -0.1901
 3359SOL    HW121536   4.254   3.310   5.640 -0.0356 -0.5162  1.4999
 3359SOL    HW221537   4.197   3.434   5.615  1.4394  0.4147  1.1734
 3360SOL     OW21538   1.408   4.318   5.773  0.4953  0.1461 -0.5312
 3360SOL    HW121539   1.387   4.347   5.861 -1.9386  0.1128 -1.1049
 3360SOL    HW221540   1.326   4.337   5.727 -1.2805 -1.9188  1.7740
 3361SOL     OW21541   3.767   4.232  11.269 -0.1014 -0.1987  0.1621
 3361SOL    HW121542   3.706   4.162  11.247  0.3765  0.1082 -2.1152
 3361SOL    HW221543   3.741   4.283  11.193  0.4021 -0.2528 -0.0451
 3362SOL     OW21544   2.362   0.474   0.476 -0.0151 -0.0302 -0.1345
 3362SOL    HW121545   2.290   0.412   0.469 -0.5185  0.5408  0.0707
 3362SOL    HW221546   2.314   0.555   0.489  1.0636  0.8196 -1.4847
 3363SOL     OW21547   0.740   1.257  10.360  0.5973  0.2762  0.3633
 3363SOL    HW121548   0.704   1.275  10.274 -0.2790 -1.1177  0.4245
 3363SOL    HW221549   0.776   1.340  10.390  2.1552 -0.4418  0.5257
 3364SOL     OW21550   2.016   3.926   3.185  0.5618 -0.8160  0.3269
 3364SOL    HW121551   2.019   4.007   3.235 -1.2733 -1.2588  1.1438
 3364SOL    HW221552   2.008   3.857   3.250 -1.6170 -0.0433  0.8996
 3365SOL     OW21553   1.660   2.463  10.091 -0.7076  1.1988 -0.5462
 3365SOL    HW121554   1.689   2.414  10.015  0.0599 -0.2357  0.6817
 3365SOL    HW221555   1.606   2.409  10.149  1.0663 -0.8741 -0.8372
 3366SOL     OW21556   0.041   2.753   1.979  0.3599  0.4591  0.3117
 3366SOL    HW121557   0.136   2.741   1.979  0.6212  2.6891  0.8087
 3366SOL    HW221558   0.029   2.794   1.893 -2.2430  1.3517  1.1205
 3367SOL     OW21559   3.934   0.375   7.491 -0.3722 -0.3103  0.5816
 3367SOL    HW121560   3.899   0.290   7.517  0.7176 -0.9120  0.0868
 3367SOL    HW221561   3.872   0.437   7.529 -0.5060 -1.8389  2.8705
 3368SOL     OW21562   2.980   2.958   3.813  0.1571  0.4901 -0.1932
 3368SOL    HW121563   3.042   2.905   3.862 -0.5306 -0.7150 -0.6374
 3368SOL    HW221564   2.931   2.886   3.773  0.4169 -0.1680  0.6715
 3369SOL     OW21565   2.265   1.789   5.553 -0.2896 -0.0337 -0.1278
 3369SOL    HW121566   2.337   1.827   5.604 -0.1180 -0.4278 -0.0762
 3369SOL    HW221567   2.196   1.762   5.614  0.5028  1.0861  1.2654
 3370SOL     OW21568   1.049   2.925   7.668 -0.3200 -0.3574 -0.4375
 3370SOL    HW121569   1.001   3.004   7.644  1.7124  1.2125  0.6463
 3370SOL    HW221570   0.991   2.870   7.616 -2.2404  0.4954  0.7632
 3371SOL     OW21571   1.626   0.866   5.910  0.7429 -0.3655 -0.5174
 3371SOL    HW121572   1.546   0.828   5.873 -1.2171  0.9356  2.3801
 3371SOL    HW221573   1.622   0.827   5.997  2.1948 -2.4085 -1.3566
 3372SOL     OW21574   2.757   1.697  10.069 -0.8143  0.0807  0.1376
 3372SOL    HW121575   2.849   1.722  10.074  0.1197 -3.3981  0.7674
 3372SOL    HW221576   2.749   1.631  10.138  0.1531  0.7289  0.8570
 3373SOL     OW21577   1.567   4.515   4.061  0.3841 -0.5448 -0.2347
 3373SOL    HW121578   1.550   4.486   4.150 -0.9481  1.7127  0.2373
 3373SOL    HW221579   1.659   4.534   4.047  0.6806 -0.0542  2.4332
 3374SOL     OW21580   2.508   4.725   9.751  0.5754  0.0385 -0.6131
 3374SOL    HW121581   2.533   4.635   9.773  1.0218 -0.0613 -1.5218
 3374SOL    HW221582   2.545   0.016   9.664  0.9426 -0.8193 -0.6241
 3375SOL     OW21583   4.725   1.001   0.374  0.2362  0.1962 -0.0884
 3375SOL    HW121584   0.003   1.033   0.284 -0.4559 -0.3770 -0.3260
 3375SOL    HW221585   4.641   1.037   0.403 -0.1169 -0.1884 -0.6479
 3376SOL     OW21586   2.247   0.249   4.570 -0.3933  0.0507 -0.6726
 3376SOL    HW121587   2.258   0.311   4.498 -1.0732  0.2866 -0.5737
 3376SOL    HW221588   2.248   0.315   4.640 -3.2831  0.2902 -0.8518
 3377SOL     OW21589   2.554   0.946   3.885  0.1302 -0.0281 -0.4839
 3377SOL    HW121590   2.548   1.041   3.897 -2.3823 -0.1760 -0.4909
 3377SOL    HW221591   2.552   0.928   3.791  1.9687  0.6963 -0.6473
 3378SOL     OW21592   3.202   2.790   9.246 -0.9887  0.5827 -0.1864
 3378SOL    HW121593   3.108   2.774   9.237 -0.7149 -3.1054  3.3784
 3378SOL    HW221594   3.231   2.699   9.247 -1.7727  0.3271 -0.8185
 3379SOL     OW21595   1.925   3.954   4.422 -0.0829 -0.4368 -0.1006
 3379SOL    HW121596   1.944   4.039   4.463 -0.4576  0.2533 -1.3521
 3379SOL    HW221597   2.004   3.906   4.446 -0.0733  0.0476  0.8510
 3380SOL     OW21598   1.674   1.510   4.154 -0.6548 -0.3842  0.5026
 3380SOL    HW121599   1.680   1.601   4.183  3.8743 -0.4773 -0.2316
 3380SOL    HW221600   1.583   1.483   4.166 -0.8979  0.4402  0.5163
 3381SOL     OW21601   3.404   4.627  17.558  0.1157  0.2054 -0.4814
 3381SOL    HW121602   3.378   4.665  17.642  1.7455  0.2464  0.0007
 3381SOL    HW221603   3.402   4.536  17.588 -0.9026  0.5557  0.5266
 3382SOL     OW21604   0.481   0.772   3.957 -0.1974 -0.1955  0.0522
 3382SOL    HW121605   0.433   0.855   3.965  1.1599  0.5332  0.5385
 3382SOL    HW221606   0.419   0.714   4.001  2.0224 -2.3968  0.2707
 3383SOL     OW21607   2.078   4.456   5.521 -0.0976 -0.2631 -0.0157
 3383SOL    HW121608   2.093   4.430   5.430 -1.2442 -2.3720  0.4084
 3383SOL    HW221609   1.999   4.509   5.508  0.2396 -0.0142 -1.0260
 3384SOL     OW21610   2.324   3.227   8.801 -0.1356  0.1653  0.1112
 3384SOL    HW121611   2.326   3.297   8.736  0.5954 -0.2517 -0.3041
 3384SOL    HW221612   2.414   3.209   8.828 -0.1690 -1.8559 -1.1099
 3385SOL     OW21613   3.861   3.599   5.350  0.1419  0.0302  0.0636
 3385SOL    HW121614   3.951   3.590   5.381  0.8905 -1.1249 -2.4151
 3385SOL    HW221615   3.829   3.509   5.351 -1.1181  0.5285  2.4611
 3386SOL     OW21616   1.004   4.441   5.331  0.4492  0.0145 -0.5375
 3386SOL    HW121617   0.979   4.514   5.275  0.1718  1.6385  1.7216
 3386SOL    HW221618   1.038   4.386   5.260  0.3299  0.4954 -0.9723
 3387SOL     OW21619   3.476   2.081  13.169 -0.2979  0.0074 -0.0897
 3387SOL    HW121620   3.534   2.016  13.208 -0.4704  0.0045  0.1602
 3387SOL    HW221621   3.481   2.144  13.240  0.1560 -0.3099  0.1577
 3388SOL     OW21622   1.350   1.769   5.407  0.3609  0.2545 -0.0132
 3388SOL    HW121623   1.417   1.765   5.338  1.8233 -1.0815  1.4846
 3388SOL    HW221624   1.279   1.820   5.367  3.2738  3.8452 -0.6606
 3389SOL     OW21625   2.769   2.369   5.641  0.2364 -0.0511 -0.2621
 3389SOL    HW121626   2.822   2.408   5.571 -1.7779  0.7257 -1.3451
 3389SOL    HW221627   2.787   2.430   5.713  1.7103  0.8659 -1.3996
 3390SOL     OW21628   0.194   0.129   4.617  0.4476 -0.3534 -0.2339
 3390SOL    HW121629   0.102   0.153   4.607  0.6574  0.5256 -0.1047
 3390SOL    HW221630   0.242   0.209   4.639  0.8010 -0.1381 -1.7433
 3391SOL     OW21631   4.061   1.937   9.044 -0.7695 -0.2273 -0.1015
 3391SOL    HW121632   4.072   2.031   9.060  0.2379 -0.3414 -0.1241
 3391SOL    HW221633   4.098   1.904   9.126 -0.7272 -1.0718 -0.4595
 3392SOL     OW21634   2.142   2.309  15.786 -0.0837 -0.0259 -0.2397
 3392SOL    HW121635   2.164   2.396  15.754 -0.7740  0.5948  0.9940
 3392SOL    HW221636   2.047   2.315  15.776 -0.3234 -1.0368  1.4899
 3393SOL     OW21637   0.848   0.996  15.499  0.5854 -0.2173  0.3703
 3393SOL    HW121638   0.873   0.904  15.498 -0.0733 -0.3906 -0.3316
 3393SOL    HW221639   0.753   0.986  15.509  0.7380 -1.6717  0.4068
 3394SOL     OW21640   4.549   0.781   0.351  0.3463  0.0015 -0.0692
 3394SOL    HW121641   4.494   0.830   0.413 -0.4965 -0.6203 -0.3336
 3394SOL    HW221642   4.634   0.823   0.365  0.1850  0.1442  0.4705
 3395SOL     OW21643   4.245   0.549   9.105 -0.5668 -0.9340  0.6573
 3395SOL    HW121644   4.308   0.504   9.050  0.0102  0.9245 -0.1854
 3395SOL    HW221645   4.221   0.477   9.165  0.8738 -1.0275  1.1081
 3396SOL     OW21646   1.900   2.148  16.624 -0.2158 -0.3165 -0.2248
 3396SOL    HW121647   1.877   2.118  16.712  0.4014 -0.8124 -0.2333
 3396SOL    HW221648   1.825   2.206  16.607  0.8064  0.9142 -0.4951
 3397SOL     OW21649   1.076   0.999   5.346  0.4031  0.6108 -0.1473
 3397SOL    HW121650   1.035   0.915   5.368 -0.0743  1.0779  0.7352
 3397SOL    HW221651   0.996   1.047   5.328  0.0477 -0.7403 -2.1310
 3398SOL     OW21652   2.628   4.380   2.211 -0.1378 -0.0298 -0.2166
 3398SOL    HW121653   2.553   4.364   2.269  1.9361  0.0495  2.4878
 3398SOL    HW221654   2.689   4.309   2.230 -0.2072  0.3016  1.2531
 3399SOL     OW21655   4.049   2.305   9.435  0.7580  0.6781  0.5098
 3399SOL    HW121656   4.077   2.370   9.371  1.8666  0.5740  0.8822
 3399SOL    HW221657   4.133   2.259   9.436  1.1357  1.3715  1.8457
 3400SOL     OW21658   1.659   1.943   3.892  0.0097 -0.2755 -0.4898
 3400SOL    HW121659   1.733   1.953   3.952 -1.6227  1.7145  1.1718
 3400SOL    HW221660   1.688   1.866   3.842  0.0929 -0.1583 -0.6229
 3401SOL     OW21661   1.897   1.013   3.973  0.6283  0.2234  0.2604
 3401SOL    HW121662   1.842   1.070   4.027 -0.6017 -1.0567  0.3657
 3401SOL    HW221663   1.966   1.072   3.946 -0.5101  1.7553  0.6933
 3402SOL     OW21664   2.762   0.294   9.043 -1.0984 -0.0431 -0.1999
 3402SOL    HW121665   2.816   0.365   9.077 -1.5890 -0.5522  1.6390
 3402SOL    HW221666   2.761   0.312   8.949 -1.3923 -1.6329 -0.5156
 3403SOL     OW21667   3.729   2.152  15.681 -0.0575 -0.2191 -0.5448
 3403SOL    HW121668   3.752   2.065  15.715  0.4584  0.9042  1.9891
 3403SOL    HW221669   3.634   2.148  15.677 -0.2384  1.0673  3.1757
 3404SOL     OW21670   1.948   3.085   5.478  0.4025  0.3316 -0.0873
 3404SOL    HW121671   1.996   3.010   5.443 -0.5456 -0.6028  0.6136
 3404SOL    HW221672   1.868   3.087   5.426  0.6649 -1.8702 -0.6124
 3405SOL     OW21673   3.303   3.101   8.136  0.1917 -0.0133 -0.2474
 3405SOL    HW121674   3.343   3.037   8.076 -3.4820 -1.1141 -1.5146
 3405SOL    HW221675   3.383   3.141   8.170  0.4657  1.0868 -2.1438
 3406SOL     OW21676   0.668   2.248   2.304 -0.4007  0.3964 -0.2556
 3406SOL    HW121677   0.696   2.238   2.395  0.6696 -0.5094 -0.6713
 3406SOL    HW221678   0.588   2.296   2.321 -0.0685  0.7396  0.3305
 3407SOL     OW21679   1.002   3.522   4.375  0.3133  0.4353 -0.0264
 3407SOL    HW121680   1.062   3.570   4.432 -1.5070  0.3416  1.9239
 3407SOL    HW221681   1.052   3.525   4.293 -0.9796  1.9462 -0.7522
 3408SOL     OW21682   2.402   2.929   6.874  0.2791 -0.4651 -0.3383
 3408SOL    HW121683   2.325   2.878   6.847  0.3280 -1.1401  0.8482
 3408SOL    HW221684   2.471   2.869   6.846 -0.3678 -1.9992  1.4178
 3409SOL     OW21685   2.240   3.491  15.118 -0.0125 -0.1668  0.1171
 3409SOL    HW121686   2.245   3.490  15.022 -0.4738 -1.1995  0.0984
 3409SOL    HW221687   2.315   3.443  15.154  3.6680  3.4391 -2.6509
 3410SOL     OW21688   2.257   3.933   9.626 -0.1504 -0.1584  0.1975
 3410SOL    HW121689   2.169   3.903   9.646 -0.6193  1.9248  1.2276
 3410SOL    HW221690   2.281   3.963   9.714  3.0564  0.0102 -0.7166
 3411SOL     OW21691   3.734   0.490   7.212  1.1417 -0.2185  0.1266
 3411SOL    HW121692   3.718   0.564   7.154  2.0824  0.5254  0.8289
 3411SOL    HW221693   3.727   0.528   7.299  1.9130 -2.0851  1.0047
 3412SOL     OW21694   2.646   3.113   2.965  0.0089  0.0792 -0.1101
 3412SOL    HW121695   2.682   3.115   3.053 -0.0273 -3.7612  0.0082
 3412SOL    HW221696   2.641   3.208   2.958  1.6426  0.1697  0.1122
 3413SOL     OW21697   1.477   2.196  17.645 -0.1148  0.3295 -0.1327
 3413SOL    HW121698   1.454   2.262   0.006 -2.0045  0.8695 -1.3384
 3413SOL    HW221699   1.571   2.184  17.653  0.0718  1.7529 -0.2608
 3414SOL     OW21700   1.797   1.718  16.052 -0.2984 -0.3608  0.6654
 3414SOL    HW121701   1.887   1.720  16.020 -1.6307  0.6868 -2.9763
 3414SOL    HW221702   1.808   1.752  16.141  1.5626 -1.9647  1.0606
 3415SOL     OW21703   4.636   4.708   6.682 -0.2171 -0.0650  0.5438
 3415SOL    HW121704   4.611   4.638   6.622 -1.0002 -0.4035  1.2679
 3415SOL    HW221705   4.610   0.058   6.630  1.6529 -0.6894 -1.2954
 3416SOL     OW21706   4.128   0.955   8.484  0.0947 -0.1553  0.0852
 3416SOL    HW121707   4.079   0.877   8.510 -2.4948  1.3232 -0.2832
 3416SOL    HW221708   4.205   0.912   8.448  1.7710  1.7317  1.3678
 3417SOL     OW21709   3.977   1.189   3.329  0.2600 -0.1117  0.0685
 3417SOL    HW121710   4.047   1.145   3.378  1.4258  0.8931 -0.6761
 3417SOL    HW221711   3.918   1.201   3.404  0.7062  1.4900  0.1789
 3418SOL     OW21712   2.021   0.976   8.320 -0.0182 -0.2088  0.4466
 3418SOL    HW121713   2.091   1.015   8.268 -0.2838 -0.6358 -0.2218
 3418SOL    HW221714   1.941   0.990   8.270 -0.3974 -0.4671  0.9755
 3419SOL     OW21715   1.332   4.274   8.355 -0.6407  0.0737  0.4682
 3419SOL    HW121716   1.265   4.277   8.423  0.2989  0.3784  1.3842
 3419SOL    HW221717   1.366   4.186   8.366 -0.8373  0.0963  1.2544
 3420SOL     OW21718   0.487   0.386   2.141  0.4622 -0.5669  0.0464
 3420SOL    HW121719   0.561   0.441   2.113  0.7908 -1.3762 -0.6729
 3420SOL    HW221720   0.451   0.441   2.210  0.3348 -0.5766 -0.0118
 3421SOL     OW21721   0.993   1.189   7.754  0.2430  0.4291 -0.3658
 3421SOL    HW121722   1.028   1.258   7.698 -1.3675  0.7206 -1.0363
 3421SOL    HW221723   1.069   1.133   7.764 -0.5381 -0.4150  0.9875
 3422SOL     OW21724   0.009   2.727   1.557  0.0421 -0.7421 -0.5040
 3422SOL    HW121725   4.652   2.702   1.597  0.8080  0.4921  1.8074
 3422SOL    HW221726   0.044   2.782   1.626  0.1350 -1.8322  0.3222
 3423SOL     OW21727   1.616   1.171   3.406 -0.4042  0.1140 -0.3310
 3423SOL    HW121728   1.696   1.120   3.402  0.8918  1.8606  3.2780
 3423SOL    HW221729   1.591   1.173   3.314 -2.0303 -1.6734  0.0659
 3424SOL     OW21730   2.287   3.120  14.980 -0.1853  0.3058 -0.6344
 3424SOL    HW121731   2.274   3.059  14.907 -0.5313  3.5386 -3.2831
 3424SOL    HW221732   2.221   3.094  15.044  0.1089  0.0203 -0.4470
 3425SOL     OW21733   3.984   3.085   6.513 -0.1259 -0.2899  0.1693
 3425SOL    HW121734   3.998   2.999   6.472 -0.1726 -0.7454  1.1019
 3425SOL    HW221735   4.017   3.148   6.450 -0.7707  0.0197  0.1439
 3426SOL     OW21736   3.791   1.413   6.174 -0.3292  0.3514 -0.1695
 3426SOL    HW121737   3.770   1.505   6.187 -1.9601 -0.3375  2.0576
 3426SOL    HW221738   3.710   1.381   6.135 -0.5898  0.4324  0.2995
 3427SOL     OW21739   2.467   2.036  14.123 -0.5985  0.1284 -0.7223
 3427SOL    HW121740   2.542   2.026  14.065  0.4258  1.9805  0.2816
 3427SOL    HW221741   2.407   1.974  14.080 -1.1542 -0.4651  0.8934
 3428SOL     OW21742   2.574   0.959  17.397 -0.7778 -0.1099 -0.0405
 3428SOL    HW121743   2.491   0.981  17.355 -0.6732  0.3092 -0.0242
 3428SOL    HW221744   2.554   0.960  17.491 -0.9405 -0.0893 -0.0752
 3429SOL     OW21745   1.649   1.792   7.618  0.4556 -0.4537 -0.3381
 3429SOL    HW121746   1.743   1.809   7.621  0.3492  0.0795  0.1397
 3429SOL    HW221747   1.662   1.710   7.570  1.0803 -0.2248 -0.5607
 3430SOL     OW21748   1.227   3.436  16.085 -0.2314 -0.3017  0.3225
 3430SOL    HW121749   1.224   3.361  16.145 -1.0087  1.0804  2.0037
 3430SOL    HW221750   1.322   3.445  16.093 -0.2067 -0.7170  0.4768
 3431SOL     OW21751   1.613   2.209   4.583  0.0645 -0.3969  0.2027
 3431SOL    HW121752   1.638   2.169   4.666 -5.6177 -3.0864  0.6197
 3431SOL    HW221753   1.561   2.142   4.540  1.2761 -0.6814 -0.7940
 3432SOL     OW21754   3.973   3.346   3.406  0.3710 -0.0327  0.2280
 3432SOL    HW121755   3.966   3.438   3.433 -0.4526 -0.9549  3.0966
 3432SOL    HW221756   4.066   3.326   3.403 -0.0066 -1.6438 -0.4396
 3433SOL     OW21757   1.826   4.243   2.617 -0.0534 -0.1548  0.5471
 3433SOL    HW121758   1.816   4.336   2.637  2.9007  0.2073  0.3386
 3433SOL    HW221759   1.757   4.199   2.667  0.3490 -0.2962  0.9728
 3434SOL     OW21760   3.062   3.663   0.823  0.4072  0.0596 -0.7544
 3434SOL    HW121761   2.968   3.680   0.829  0.7501  2.3613 -2.0566
 3434SOL    HW221762   3.077   3.667   0.918 -0.9170  2.4728 -0.6425
 3435SOL     OW21763   1.417   3.910  13.039 -0.4556  0.2607  0.6897
 3435SOL    HW121764   1.358   3.895  13.113 -0.7717 -0.0557  0.3718
 3435SOL    HW221765   1.406   3.831  12.986  1.4160  0.6492 -0.3053
 3436SOL     OW21766   1.446   0.508  11.261  0.4125  0.3269  0.2991
 3436SOL    HW121767   1.526   0.462  11.236  0.2136  1.1700 -1.8468
 3436SOL    HW221768   1.378   0.440  11.263  1.8681 -1.0832  1.6462
 3437SOL     OW21769   3.473   0.314   8.985 -0.3728 -0.0127  0.3952
 3437SOL    HW121770   3.521   0.390   8.951  0.4424 -2.0969 -3.0490
 3437SOL    HW221771   3.383   0.334   8.957  0.6851  4.0203 -0.1172
 3438SOL     OW21772   0.429   2.976  14.920  0.0517 -0.0575  0.6069
 3438SOL    HW121773   0.473   3.015  14.844  1.6448 -1.2941  0.9034
 3438SOL    HW221774   0.498   2.915  14.945 -0.3002 -0.9026 -0.5269
 3439SOL     OW21775   3.716   2.749  10.157 -0.3073  0.0316  0.8878
 3439SOL    HW121776   3.704   2.793  10.241 -1.6566  0.8740  0.2464
 3439SOL    HW221777   3.765   2.669  10.176  1.1623  0.7674  0.2661
 3440SOL     OW21778   3.541   3.179  17.655  0.0953 -0.2646  0.1295
 3440SOL    HW121779   3.455   3.198  17.617  0.8828  3.8078  0.3506
 3440SOL    HW221780   3.581   3.132  17.582 -0.2638 -1.0454  0.4344
 3441SOL     OW21781   4.207   1.810   4.394 -0.2525 -0.0833 -0.0978
 3441SOL    HW121782   4.125   1.796   4.441  0.8516  0.6924  2.0277
 3441SOL    HW221783   4.219   1.904   4.410  0.8580 -0.0155 -1.3197
 3442SOL     OW21784   1.679   3.157   6.357  0.0650  0.0840 -0.0199
 3442SOL    HW121785   1.594   3.192   6.383  0.5763  0.1937  1.5067
 3442SOL    HW221786   1.701   3.205   6.277  1.4937  1.7251  1.3800
 3443SOL     OW21787   2.868   3.410  10.898 -0.4521  0.2751 -0.3020
 3443SOL    HW121788   2.871   3.323  10.858  2.5264 -0.3284  1.2173
 3443SOL    HW221789   2.871   3.391  10.992  0.3622  0.3957 -0.3073
 3444SOL     OW21790   2.212   0.900   8.828 -0.2047 -0.1467  0.7138
 3444SOL    HW121791   2.161   0.821   8.848 -1.6845  0.6748  0.1657
 3444SOL    HW221792   2.166   0.967   8.879 -1.0063  0.4257 -0.7503
 3445SOL     OW21793   3.256   2.989  13.681 -0.3422  0.4223  0.3946
 3445SOL    HW121794   3.217   2.925  13.740  1.3570 -1.3765 -0.4477
 3445SOL    HW221795   3.337   3.010  13.728 -0.0533 -0.2252  0.1776
 3446SOL     OW21796   4.097   3.956  14.237  0.6337 -0.5209  0.0144
 3446SOL    HW121797   4.173   3.928  14.289  0.0614  1.3363  1.8305
 3446SOL    HW221798   4.028   3.933  14.299 -0.0946  2.3254  0.2605
 3447SOL     OW21799   2.981   0.922   5.755  0.2848 -0.1534  0.0419
 3447SOL    HW121800   2.950   0.923   5.664 -0.2139  1.5153  0.2366
 3447SOL    HW221801   2.976   0.827   5.763  3.0770 -0.2781  0.1952
 3448SOL     OW21802   2.265   1.846  11.714  0.1494  0.3439  0.6534
 3448SOL    HW121803   2.324   1.914  11.745 -0.0346  1.0793 -0.6179
 3448SOL    HW221804   2.247   1.870  11.623  1.6842 -1.8725 -0.2564
 3449SOL     OW21805   4.041   0.231  10.820 -0.4323 -0.2138 -0.1652
 3449SOL    HW121806   3.999   0.310  10.787 -1.7526 -0.9986 -0.3740
 3449SOL    HW221807   4.120   0.256  10.868 -0.2062 -1.4194  0.0860
 3450SOL     OW21808   3.746   2.653   3.185 -0.1454  0.6861  0.2990
 3450SOL    HW121809   3.807   2.727   3.179 -0.2236  0.8280  1.4039
 3450SOL    HW221810   3.775   2.607   3.106  0.5300  4.5067 -1.6951
 3451SOL     OW21811   1.912   4.617  10.744 -0.2066 -0.3143  0.0207
 3451SOL    HW121812   1.890   4.618  10.837  1.8494  2.7561  0.4727
 3451SOL    HW221813   1.957   4.702  10.747  0.1060 -0.4985  0.6413
 3452SOL     OW21814   1.041   1.242   5.691  0.0865 -0.0451  0.3008
 3452SOL    HW121815   1.091   1.261   5.770 -1.3394  1.6917  0.7780
 3452SOL    HW221816   1.090   1.280   5.618  1.0256 -0.9418  0.4648
 3453SOL     OW21817   2.126   0.164   4.905  0.2403 -0.1524  0.4917
 3453SOL    HW121818   2.198   0.139   4.846  0.5590  4.0610 -0.9174
 3453SOL    HW221819   2.064   0.099   4.872  0.2307 -0.3815  0.9713
 3454SOL     OW21820   2.066   2.460  13.060 -0.3895  0.1034 -0.0140
 3454SOL    HW121821   2.037   2.408  12.985  0.0169  1.4286 -1.0736
 3454SOL    HW221822   2.062   2.394  13.130  3.1389  0.6216  0.6838
 3455SOL     OW21823   1.465   3.257   3.846 -0.0223 -0.5350 -0.2083
 3455SOL    HW121824   1.395   3.205   3.807  0.1851 -3.1580  2.8874
 3455SOL    HW221825   1.540   3.241   3.787  0.3360  1.1509 -0.2055
 3456SOL     OW21826   0.434   1.387   8.022  0.7518 -0.3543 -0.1273
 3456SOL    HW121827   0.398   1.302   8.048 -0.7284 -0.0435 -1.1455
 3456SOL    HW221828   0.496   1.362   7.953 -0.7204 -0.4245 -1.4352
 3457SOL     OW21829   1.132   1.564   5.275  0.1377 -0.0599 -0.0161
 3457SOL    HW121830   1.216   1.533   5.241 -0.3312 -3.1175  1.6245
 3457SOL    HW221831   1.138   1.659   5.283 -0.8495  0.0962 -1.0127
 3458SOL     OW21832   4.021   1.468   5.264 -0.7579  0.2647  0.0663
 3458SOL    HW121833   4.051   1.377   5.270 -1.0186  0.1570 -0.3053
 3458SOL    HW221834   4.101   1.509   5.231  0.4069 -2.6646 -0.7294
 3459SOL     OW21835   0.417   3.028   8.609  0.2348 -0.3609 -0.4500
 3459SOL    HW121836   0.472   2.950   8.606  0.4379 -0.2213 -0.3612
 3459SOL    HW221837   0.470   3.087   8.662  1.3096 -1.1519 -0.6500
 3460SOL     OW21838   2.570   0.178   6.104  0.4218  0.1279  0.6195
 3460SOL    HW121839   2.582   0.110   6.037 -0.5531 -0.1030  0.6802
 3460SOL    HW221840   2.662   0.201   6.121  0.2580  0.1934  1.4139
 3461SOL     OW21841   1.525   2.359   5.518  0.3042  0.2085  0.1279
 3461SOL    HW121842   1.455   2.295   5.508 -0.7205  1.1771  1.1932
 3461SOL    HW221843   1.601   2.309   5.487  0.0359  0.6875 -1.3372
 3462SOL     OW21844   1.700   0.107  12.192  0.5506  0.3546 -0.0754
 3462SOL    HW121845   1.758   0.108  12.115  1.8402  3.7855  0.9227
 3462SOL    HW221846   1.756   0.162  12.247 -0.4596 -0.0791  1.3701
 3463SOL     OW21847   2.532   3.919   5.298 -0.7626  0.3289 -0.0909
 3463SOL    HW121848   2.617   3.887   5.267 -1.2682 -1.6136  0.5179
 3463SOL    HW221849   2.568   3.954   5.380 -2.8906 -1.2850  1.5397
 3464SOL     OW21850   3.278   0.149   0.657 -0.8041  0.2243 -0.1703
 3464SOL    HW121851   3.198   0.120   0.613 -1.5122  0.1254  1.2009
 3464SOL    HW221852   3.275   0.080   0.723  1.6639  0.4145  0.1479
 3465SOL     OW21853   3.895   3.754   5.756 -0.4223  0.4414 -0.6296
 3465SOL    HW121854   3.833   3.819   5.787 -0.4589  0.8295 -1.5483
 3465SOL    HW221855   3.916   3.782   5.667  0.2591 -0.1788 -0.6637
 3466SOL     OW21856   0.160   1.697  11.347  0.1290  0.1428  0.2321
 3466SOL    HW121857   0.128   1.638  11.416  1.8649  1.8462  2.4600
 3466SOL    HW221858   0.086   1.692  11.287 -0.2556 -1.2628  0.8172
 3467SOL     OW21859   2.438   1.512   4.849 -0.3787  0.5618 -1.0535
 3467SOL    HW121860   2.344   1.499   4.858 -0.3356 -0.1433 -1.6690
 3467SOL    HW221861   2.475   1.448   4.910  0.2481  0.6014 -1.3926
 3468SOL     OW21862   4.598   1.421   7.228  0.4096  0.3583 -0.0976
 3468SOL    HW121863   4.558   1.339   7.200  0.4552 -0.5354  2.4830
 3468SOL    HW221864   4.657   1.441   7.156  0.8534  0.5187  0.3105
 3469SOL     OW21865   4.271   0.317   0.953 -0.7923 -0.0361 -0.3747
 3469SOL    HW121866   4.267   0.247   1.018  1.9884 -1.0543 -1.2836
 3469SOL    HW221867   4.364   0.331   0.935 -0.7443  0.4320  0.2504
 3470SOL     OW21868   2.181   2.073   5.732 -0.5618  0.7554  0.2853
 3470SOL    HW121869   2.211   2.121   5.655  0.0004  0.7475  0.4980
 3470SOL    HW221870   2.089   2.097   5.737 -0.3257  1.4999  1.0175
 3471SOL     OW21871   3.204   2.526   6.343  0.1956 -0.3656  0.0631
 3471SOL    HW121872   3.172   2.586   6.410  0.7673  1.1269 -1.0067
 3471SOL    HW221873   3.149   2.555   6.270  0.2416  2.7516  1.2768
 3472SOL     OW21874   1.226   3.316   3.617  0.1251 -0.2582 -0.1109
 3472SOL    HW121875   1.234   3.242   3.556 -2.0921 -1.3195  0.8628
 3472SOL    HW221876   1.149   3.288   3.667 -1.3515  0.3436 -2.0541
 3473SOL     OW21877   1.904   3.436   2.700 -0.5065 -0.4923  0.4781
 3473SOL    HW121878   1.895   3.485   2.619  1.9090 -0.3416  0.2906
 3473SOL    HW221879   1.880   3.348   2.670 -0.2546 -0.4819  0.2462
 3474SOL     OW21880   0.173   0.058   4.881 -0.0881  0.0003 -0.9208
 3474SOL    HW121881   0.122   0.137   4.898  0.0873  0.1076 -0.8957
 3474SOL    HW221882   0.181   0.072   4.787  0.9418 -2.8640 -1.2562
 3475SOL     OW21883   2.890   3.082   8.820  0.1393  0.0429 -0.5711
 3475SOL    HW121884   2.985   3.080   8.815  0.1803 -0.4964  0.3036
 3475SOL    HW221885   2.876   3.023   8.895 -0.4363 -0.2684 -0.9259
 3476SOL     OW21886   3.470   0.541  14.792 -0.0888  0.1162  0.1196
 3476SOL    HW121887   3.565   0.541  14.803 -0.1273  0.2245  0.4673
 3476SOL    HW221888   3.450   0.466  14.848 -2.3988  1.5430  1.2202
 3477SOL     OW21889   1.509   0.540  11.977 -0.1149  0.3710  0.0142
 3477SOL    HW121890   1.482   0.449  11.983 -1.8303  0.9225  0.7061
 3477SOL    HW221891   1.432   0.582  11.939  0.6932  1.8759  0.0446
 3478SOL     OW21892   2.733   4.440   6.833  0.1505 -0.2227 -0.0101
 3478SOL    HW121893   2.723   4.519   6.779 -0.6386 -0.0715  0.3645
 3478SOL    HW221894   2.693   4.468   6.915  1.8105 -0.1733  0.7959
 3479SOL     OW21895   3.925   0.562  13.043  0.4151  0.4240  0.0621
 3479SOL    HW121896   3.929   0.655  13.065 -2.6072  0.0989  1.8919
 3479SOL    HW221897   4.010   0.533  13.077 -0.0049 -2.2921 -1.1500
 3480SOL     OW21898   2.995   3.399   0.782  0.3092 -0.3552 -0.1906
 3480SOL    HW121899   3.013   3.493   0.789 -2.0021 -0.1360  2.7252
 3480SOL    HW221900   3.084   3.366   0.778  0.3907 -0.2731  1.1280
 3481SOL     OW21901   0.611   4.690   5.847  0.2270 -0.3860 -0.1687
 3481SOL    HW121902   0.668   4.691   5.770 -1.0852 -0.5050 -1.1367
 3481SOL    HW221903   0.537   0.014   5.811  0.6574  0.6966  0.4620
 3482SOL     OW21904   1.228   1.625   7.630 -0.3029 -0.3715  0.4672
 3482SOL    HW121905   1.179   1.637   7.711 -0.5279 -3.1675  0.7412
 3482SOL    HW221906   1.270   1.542   7.649 -2.4066 -1.4270  0.4589
 3483SOL     OW21907   4.015   0.916   8.026 -0.0537  0.1190  0.2053
 3483SOL    HW121908   4.026   0.833   8.072 -2.1685 -0.3929 -0.2214
 3483SOL    HW221909   4.096   0.963   8.048  0.2602  0.5606 -1.9648
 3484SOL     OW21910   1.315   3.886   7.247 -0.0809  0.0192 -0.3007
 3484SOL    HW121911   1.244   3.947   7.228 -1.1365 -1.3184 -0.6720
 3484SOL    HW221912   1.387   3.947   7.230  0.8014 -1.1834 -0.8873
 3485SOL     OW21913   0.501   3.229   8.281 -0.2599 -0.2320  0.0898
 3485SOL    HW121914   0.522   3.144   8.321 -1.5351 -0.0774  1.0786
 3485SOL    HW221915   0.433   3.193   8.224  1.0002 -2.9321  0.2939
 3486SOL     OW21916   0.957   1.810   5.100  0.1131  0.0205  0.2751
 3486SOL    HW121917   0.893   1.741   5.114  0.2750 -0.2220 -0.2061
 3486SOL    HW221918   0.898   1.880   5.070  1.6415  1.3314  0.3032
 3487SOL     OW21919   0.786   0.948   2.172  0.0128 -0.7327  0.5484
 3487SOL    HW121920   0.831   0.865   2.162  1.6642  0.2312 -0.0128
 3487SOL    HW221921   0.695   0.919   2.165 -0.0173 -0.7864  1.1768
 3488SOL     OW21922   3.359   0.738   4.987  0.3262 -0.2731  0.0925
 3488SOL    HW121923   3.319   0.758   5.072  0.6875 -0.1845  0.2430
 3488SOL    HW221924   3.443   0.784   4.992  0.4437 -0.5670  0.8514
 3489SOL     OW21925   2.877   1.940   0.692 -0.0491 -0.2161 -0.1952
 3489SOL    HW121926   2.966   1.976   0.696  0.3992 -1.2793 -0.6613
 3489SOL    HW221927   2.820   2.009   0.726  0.7820  0.7001 -0.6378
 3490SOL     OW21928   1.190   0.727   3.816 -0.1026 -0.1562 -0.0029
 3490SOL    HW121929   1.118   0.695   3.762  0.8961  0.6276 -1.7842
 3490SOL    HW221930   1.262   0.721   3.753  0.8254 -1.7223  1.1819
 3491SOL     OW21931   4.350   0.771   7.101 -0.2133  0.4317  0.1551
 3491SOL    HW121932   4.408   0.795   7.174 -0.8394  0.5930  0.6023
 3491SOL    HW221933   4.273   0.737   7.149  0.5163 -2.3462 -0.6423
 3492SOL     OW21934   1.401   2.176  16.583  0.0422  0.1902 -0.1230
 3492SOL    HW121935   1.305   2.172  16.582 -0.0009  1.8108 -1.7454
 3492SOL    HW221936   1.419   2.083  16.578 -0.1125  0.1953 -0.7189
 3493SOL     OW21937   2.199   2.476   5.734  0.3547  0.0150 -0.0483
 3493SOL    HW121938   2.216   2.532   5.810 -0.5995 -1.0141  0.9124
 3493SOL    HW221939   2.289   2.459   5.704  1.1044  2.2621  0.9258
 3494SOL     OW21940   3.277   3.750   0.663  0.0121 -0.0339  0.1206
 3494SOL    HW121941   3.352   3.734   0.719 -0.1407 -1.9097 -0.2175
 3494SOL    HW221942   3.201   3.720   0.713  1.1683 -0.6969  1.4704
 3495SOL     OW21943   2.870   3.171   1.685 -0.2740  0.7199  0.1289
 3495SOL    HW121944   2.775   3.183   1.690  0.1904  4.8197 -0.8383
 3495SOL    HW221945   2.881   3.162   1.591  0.5474  0.8283  0.2134
 3496SOL     OW21946   0.578   2.537   2.178 -0.1714  0.3878  0.1640
 3496SOL    HW121947   0.497   2.503   2.216 -0.4303 -0.5139 -1.1786
 3496SOL    HW221948   0.591   2.475   2.106 -2.3958 -0.5567  0.5944
 3497SOL     OW21949   1.737   1.810   6.630  0.2170  0.0126 -0.0063
 3497SOL    HW121950   1.653   1.770   6.652  0.8816 -1.1503  0.4596
 3497SOL    HW221951   1.778   1.835   6.713 -0.1485 -0.7303  0.3986
 3498SOL     OW21952   3.846   4.062  15.701  0.1486  0.2275  0.3244
 3498SOL    HW121953   3.828   4.151  15.673 -0.6365  0.3197  1.1047
 3498SOL    HW221954   3.760   4.022  15.688  0.3972 -0.4058  0.5718
 3499SOL     OW21955   4.065   0.437   6.949 -0.7417  0.0972 -0.1334
 3499SOL    HW121956   4.006   0.512   6.955  0.0049  0.3651  3.8449
 3499SOL    HW221957   4.086   0.426   7.041 -0.7630 -0.9078 -0.2548
 3500SOL     OW21958   2.116   4.443   8.098 -0.3753 -0.1182  0.1621
 3500SOL    HW121959   2.033   4.449   8.049  0.8836 -1.5593 -2.1562
 3500SOL    HW221960   2.091   4.430   8.189  1.2550 -0.0644  0.6112
 3501SOL     OW21961   2.814   2.887   2.474 -0.0954 -0.3706 -0.6629
 3501SOL    HW121962   2.907   2.910   2.480  0.2729 -1.5923 -1.6149
 3501SOL    HW221963   2.773   2.958   2.523 -0.2267  0.3549 -1.8324
 3502SOL     OW21964   0.744   2.855   4.612 -0.3437  0.5641  0.7593
 3502SOL    HW121965   0.796   2.929   4.581  0.7441  1.1841  3.9618
 3502SOL    HW221966   0.805   2.781   4.608 -1.4137 -0.2299 -0.6182
 3503SOL     OW21967   2.020   2.428   2.133  0.1631  0.3461 -0.3203
 3503SOL    HW121968   1.978   2.411   2.217  3.8410  0.5357  1.5524
 3503SOL    HW221969   1.939   2.434   2.083  1.2375  2.2772 -1.8437
 3504SOL     OW21970   3.216   3.332   2.992  0.4493  0.5476  0.6410
 3504SOL    HW121971   3.267   3.412   2.985  0.7335  0.2911 -0.3415
 3504SOL    HW221972   3.251   3.272   2.925 -1.7017 -1.2935  1.1351
 3505SOL     OW21973   0.582   4.272  10.096 -0.1754  0.1967  0.2837
 3505SOL    HW121974   0.582   4.332  10.022  0.1346  0.4152  0.4654
 3505SOL    HW221975   0.518   4.306  10.158 -2.4438 -0.5577 -1.6623
 3506SOL     OW21976   1.378   0.998   6.533 -0.3461  0.0424 -0.2694
 3506SOL    HW121977   1.471   1.021   6.539 -0.6311  0.9700  0.5566
 3506SOL    HW221978   1.361   1.001   6.627 -2.1123  0.1384 -0.5872
 3507SOL     OW21979   0.601   1.370   4.592 -0.5359  0.3423  0.1846
 3507SOL    HW121980   0.505   1.363   4.595 -0.3950 -1.0911  1.5467
 3507SOL    HW221981   0.619   1.447   4.539  0.2294 -0.8571 -1.2962
 3508SOL     OW21982   2.337   3.036   5.676  0.2236  0.1884 -1.3894
 3508SOL    HW121983   2.348   3.009   5.585 -0.6352 -0.4141 -1.3098
 3508SOL    HW221984   2.242   3.033   5.686  0.6839 -2.1332  2.0168
 3509SOL     OW21985   1.170   2.600  13.498 -0.3435  0.5065 -0.1060
 3509SOL    HW121986   1.109   2.591  13.572 -1.5430 -0.6478 -1.2584
 3509SOL    HW221987   1.224   2.522  13.506  0.0836  0.7765 -0.3870
 3510SOL     OW21988   0.409   3.985   3.787  0.6220  0.1499  0.4188
 3510SOL    HW121989   0.398   4.054   3.721  2.6401  1.8125  1.7703
 3510SOL    HW221990   0.424   4.034   3.869 -1.2148  1.6974 -0.1622
 3511SOL     OW21991   1.904   4.548   2.143  0.6452  0.5142  0.0421
 3511SOL    HW121992   1.879   4.561   2.052 -2.6134  0.1414  0.8843
 3511SOL    HW221993   1.823   4.577   2.185 -0.4358 -2.7804  0.2687
 3512SOL     OW21994   2.408   1.026   4.741 -0.5983 -0.4740  0.1098
 3512SOL    HW121995   2.330   1.076   4.764 -1.1010 -1.8090  1.3110
 3512SOL    HW221996   2.414   1.050   4.648  1.2993  1.5982  0.7771
 3513SOL     OW21997   2.581   0.193   2.798  0.2313  0.0310 -0.3304
 3513SOL    HW121998   2.545   0.198   2.709  1.9422  2.3112 -0.8724
 3513SOL    HW221999   2.666   0.234   2.781  0.2718  0.0396 -0.1018
 3514SOL     OW22000   2.260   1.019   7.924 -0.0251  0.8166  0.0048
 3514SOL    HW122001   2.219   0.943   7.967 -0.0437  0.1027 -1.2658
 3514SOL    HW222002   2.215   1.082   7.980 -0.6052  0.3872  0.0230
 3515SOL     OW22003   0.301   2.191  10.860 -0.2112 -0.4801  0.0084
 3515SOL    HW122004   0.367   2.131  10.894  0.9595  0.5863 -0.3597
 3515SOL    HW222005   0.357   2.253  10.813 -2.3580  1.5630  0.0940
 3516SOL     OW22006   4.695   0.071   0.744 -0.0455 -0.5538  0.3106
 3516SOL    HW122007   4.688   0.065   0.649 -1.4568  0.5581  0.3636
 3516SOL    HW222008   0.044   0.131   0.749 -1.6449  1.3358  1.1265
 3517SOL     OW22009   4.121   0.856   6.290  0.6535  0.5845 -0.2747
 3517SOL    HW122010   4.054   0.877   6.225  1.0546 -0.8512 -1.1429
 3517SOL    HW222011   4.103   0.766   6.316 -0.6132  0.5925 -1.1252
 3518SOL     OW22012   0.580   2.087   5.830 -0.0875 -0.1696  0.2527
 3518SOL    HW122013   0.584   2.109   5.737 -0.3112  0.6932  0.4498
 3518SOL    HW222014   0.673   2.069   5.845  0.1545  1.1363  0.2826
 3519SOL     OW22015   3.312   1.901   7.088  0.4538  0.7307  0.2960
 3519SOL    HW122016   3.235   1.939   7.130 -0.7008  0.7671 -1.8255
 3519SOL    HW222017   3.364   1.981   7.081  2.4064 -0.5298  0.4106
 3520SOL     OW22018   1.928   2.788   7.731  0.1688 -0.3046  0.0699
 3520SOL    HW122019   1.847   2.742   7.710  0.5328 -0.2006 -1.5592
 3520SOL    HW222020   1.988   2.713   7.724 -0.2082 -0.7102  1.1859
 3521SOL     OW22021   2.515   0.183   9.127 -0.0768 -0.1641  0.1850
 3521SOL    HW122022   2.479   0.161   9.042 -1.4544  0.5797  0.5843
 3521SOL    HW222023   2.607   0.192   9.101 -0.3249  0.6297 -0.4173
 3522SOL     OW22024   3.924   4.387  12.015 -0.1819  0.1365 -0.7303
 3522SOL    HW122025   3.923   4.301  11.972  1.4047  0.1502 -0.8145
 3522SOL    HW222026   3.918   4.442  11.937 -1.7843 -0.4462 -1.0039
 3523SOL     OW22027   3.600   3.576   2.713 -0.5246 -0.1196 -0.1352
 3523SOL    HW122028   3.549   3.517   2.769  1.4170 -3.0300 -1.3961
 3523SOL    HW222029   3.672   3.522   2.680 -0.2857  0.7055 -0.9748
 3524SOL     OW22030   2.321   1.008   0.867 -0.4611 -0.2609  0.0795
 3524SOL    HW122031   2.410   1.043   0.875 -0.4503 -0.5579  1.3959
 3524SOL    HW222032   2.335   0.913   0.878 -2.0161 -0.5722 -0.6374
 3525SOL     OW22033   2.678   0.052   0.749  0.4226 -0.0516  0.1917
 3525SOL    HW122034   2.695   0.088   0.836 -1.5802  1.3871 -0.0096
 3525SOL    HW222035   2.754   0.081   0.699 -1.5878 -0.2026 -2.9457
 3526SOL     OW22036   0.133   3.341   7.818 -0.4120 -0.5145 -0.1125
 3526SOL    HW122037   0.216   3.294   7.828 -0.6826 -1.3055 -1.7545
 3526SOL    HW222038   0.069   3.295   7.872 -2.3746  2.7588  0.3626
 3527SOL     OW22039   1.248   0.387   6.226  0.4891  0.0094 -0.5179
 3527SOL    HW122040   1.279   0.325   6.291 -1.4034 -0.5774 -0.1687
 3527SOL    HW222041   1.155   0.367   6.237  0.7513 -0.0312  1.5196
 3528SOL     OW22042   0.597   3.791   2.343  0.4107 -0.0612  0.0656
 3528SOL    HW122043   0.554   3.720   2.392  0.3213  0.1402  0.2769
 3528SOL    HW222044   0.576   3.764   2.253 -0.6014  0.9029  0.0130
 3529SOL     OW22045   0.071   0.810  12.423 -0.4272  0.0750 -0.3570
 3529SOL    HW122046   0.062   0.891  12.473 -2.3880 -1.4435  1.7366
 3529SOL    HW222047   0.159   0.777  12.441  1.1393  2.6220 -3.4931
 3530SOL     OW22048   4.672   3.498   3.176  0.0363  0.0226  1.0252
 3530SOL    HW122049   4.627   3.456   3.250 -0.9636  1.3053  1.1348
 3530SOL    HW222050   4.671   3.591   3.195  0.6386 -0.2339  2.3167
 3531SOL     OW22051   0.061   3.810   0.953  0.3525  0.5272  0.7923
 3531SOL    HW122052   0.095   3.876   1.014  0.4185  0.4553  0.8338
 3531SOL    HW222053   0.020   3.758   1.022  1.7700  0.8341  1.8497
 3532SOL     OW22054   2.677   0.456   4.642  0.1127 -0.4304  0.3218
 3532SOL    HW122055   2.742   0.515   4.604  0.0689 -0.4496  0.2151
 3532SOL    HW222056   2.591   0.483   4.608 -0.7074 -1.4869  1.5529
 3533SOL     OW22057   1.739   3.725   9.102  0.4068 -0.4955 -0.6466
 3533SOL    HW122058   1.822   3.678   9.092  0.7843  0.4874 -2.2222
 3533SOL    HW222059   1.768   3.792   9.164 -0.1145  1.6953 -2.7269
 3534SOL     OW22060   0.050   0.953  16.680  0.1864 -0.0727  0.1051
 3534SOL    HW122061   0.112   1.000  16.624 -1.4839  1.3619 -0.5439
 3534SOL    HW222062   0.094   0.930  16.762 -0.6308 -2.5285 -0.1430
 3535SOL     OW22063   0.198   2.707   8.430 -0.1259  0.5699  0.5629
 3535SOL    HW122064   0.128   2.690   8.493 -0.0387  1.4502  0.8834
 3535SOL    HW222065   0.244   2.623   8.434 -0.2307  0.4075 -1.5224
 3536SOL     OW22066   2.900   3.777   0.109 -0.0004  0.3960 -0.1049
 3536SOL    HW122067   2.914   3.683   0.123 -1.1110  0.2318 -0.0730
 3536SOL    HW222068   2.956   3.823   0.171  0.0203 -0.5012  0.5310
 3537SOL     OW22069   3.127   2.875   0.693 -0.5249 -0.0180  0.2684
 3537SOL    HW122070   3.131   2.846   0.602 -0.2118  2.4242 -0.4959
 3537SOL    HW222071   3.148   2.791   0.734 -0.8038  1.2315  3.0048
 3538SOL     OW22072   3.630   1.568  10.217 -0.4917  0.0165 -0.3147
 3538SOL    HW122073   3.717   1.582  10.178  0.2646 -2.7699  0.3421
 3538SOL    HW222074   3.578   1.569  10.137  2.2160 -0.4351 -2.0786
 3539SOL     OW22075   4.301   2.292   9.559 -0.2650  0.9505 -0.7376
 3539SOL    HW122076   4.345   2.367   9.519 -1.0982  1.7624 -0.1132
 3539SOL    HW222077   4.320   2.321   9.648 -0.1831  0.5313 -0.6148
 3540SOL     OW22078   1.494   0.114   3.343 -0.4248  0.5010 -0.1916
 3540SOL    HW122079   1.513   0.034   3.392 -1.5442 -0.0935 -0.7427
 3540SOL    HW222080   1.539   0.104   3.259  0.9563 -2.2667  0.8581
 3541SOL     OW22081   1.436   4.490   5.389 -0.6529 -0.0262 -0.1091
 3541SOL    HW122082   1.360   4.547   5.402 -0.8920 -0.6786  1.2884
 3541SOL    HW222083   1.491   4.510   5.465 -1.2356 -1.6238  0.7278
 3542SOL     OW22084   4.619   4.170   8.284 -0.7023  0.4245 -0.0255
 3542SOL    HW122085   4.703   4.141   8.319 -1.6808 -1.8938  0.3771
 3542SOL    HW222086   4.663   4.233   8.227  2.9362  0.6804  3.0387
 3543SOL     OW22087   3.950   2.359  13.515 -0.7332  0.8536 -0.3425
 3543SOL    HW122088   3.976   2.348  13.424  1.0496 -0.7974  0.3682
 3543SOL    HW222089   4.035   2.333  13.553 -0.1923  3.0231 -0.0582
 3544SOL     OW22090   2.354   1.280   0.412 -0.1906  0.8190 -0.4667
 3544SOL    HW122091   2.321   1.347   0.472 -0.5978 -0.3376  0.6036
 3544SOL    HW222092   2.416   1.336   0.366 -0.5759  0.4191 -1.4874
 3545SOL     OW22093   1.192   1.973   1.740 -0.7082  0.2298 -0.0326
 3545SOL    HW122094   1.106   2.016   1.743 -1.6373 -1.6903  0.8282
 3545SOL    HW222095   1.216   1.989   1.831  0.6241 -0.0961 -0.3275
 3546SOL     OW22096   4.670   3.959   7.019  0.7036 -0.1932 -0.0554
 3546SOL    HW122097   4.596   3.900   7.036  0.9669 -1.0043 -1.7309
 3546SOL    HW222098   4.640   4.044   7.050 -0.1092 -0.1200 -1.0491
 3547SOL     OW22099   1.721   3.626   6.784 -0.3828 -0.2259  0.3055
 3547SOL    HW122100   1.721   3.583   6.698  2.9686 -1.5599  0.9796
 3547SOL    HW222101   1.640   3.676   6.774 -0.6424 -0.5648  0.6725
 3548SOL     OW22102   4.033   2.677   6.887 -0.8913  0.0993 -1.0664
 3548SOL    HW122103   4.035   2.728   6.968  0.8967 -0.3725 -0.8208
 3548SOL    HW222104   3.966   2.713   6.829  1.6565  1.4699 -3.1316
 3549SOL     OW22105   0.887   4.713  15.234 -0.1405  0.3368  0.3635
 3549SOL    HW122106   0.845   0.066  15.270  1.2016  1.8510 -1.3700
 3549SOL    HW222107   0.980   0.010  15.228  0.2938 -1.5348  0.0385
 3550SOL     OW22108   3.016   3.382   0.505 -0.1722  0.2885 -0.3247
 3550SOL    HW122109   3.022   3.365   0.599 -2.4188  1.6259  0.0667
 3550SOL    HW222110   3.103   3.415   0.481 -0.6278  1.5409 -0.2509
 3551SOL     OW22111   2.508   3.514  17.278  0.1824 -0.2393 -0.0457
 3551SOL    HW122112   2.539   3.522  17.368  0.7460 -0.9532 -0.1756
 3551SOL    HW222113   2.589   3.554  17.245 -0.3762  0.9951  0.0555
 3552SOL     OW22114   0.218   3.816   3.871  0.2366  0.2121 -0.4777
 3552SOL    HW122115   0.141   3.874   3.873 -1.1110 -1.6470  1.2442
 3552SOL    HW222116   0.284   3.866   3.822  4.1208 -2.9198  1.6215
 3553SOL     OW22117   1.238   2.478   4.760 -0.0010  0.2817 -0.6724
 3553SOL    HW122118   1.321   2.436   4.737 -0.6130 -1.1913 -0.1735
 3553SOL    HW222119   1.178   2.435   4.699 -0.9619 -0.3683  0.7308
 3554SOL     OW22120   1.780   0.484   4.774  0.4970  0.3162 -0.6889
 3554SOL    HW122121   1.756   0.397   4.805 -2.2262  1.1720 -0.3863
 3554SOL    HW222122   1.700   0.510   4.728  0.2914 -0.9182 -1.0328
 3555SOL     OW22123   2.460   2.849  10.019 -0.1666  0.2584  0.5392
 3555SOL    HW122124   2.433   2.893   9.938 -0.9396 -2.7720 -0.8354
 3555SOL    HW222125   2.503   2.773   9.981  1.5238  1.0405  0.9036
 3556SOL     OW22126   0.360   0.387   0.098 -0.1463 -0.3514  0.4281
 3556SOL    HW122127   0.414   0.358   0.172 -2.3299 -0.9363  1.7993
 3556SOL    HW222128   0.422   0.445   0.054 -2.7668  1.3855 -0.9949
 3557SOL     OW22129   2.223   0.614   6.437  0.7097 -0.5096 -0.2006
 3557SOL    HW122130   2.145   0.566   6.463  0.1503  0.6608  0.2736
 3557SOL    HW222131   2.265   0.552   6.377 -2.8014 -2.1533 -0.9873
 3558SOL     OW22132   0.057   0.657  14.792  0.1253 -0.0043  0.7085
 3558SOL    HW122133   4.705   0.662  14.736  1.3982 -3.2273 -1.3696
 3558SOL    HW222134   0.031   0.706  14.870  2.7718  0.8510  1.0186
 3559SOL     OW22135   1.965   1.917   2.686 -0.1792 -0.3243 -0.4312
 3559SOL    HW122136   1.971   1.825   2.712  1.2648 -0.5163 -1.4520
 3559SOL    HW222137   1.917   1.956   2.760 -1.2336  0.4108 -1.5016
 3560SOL     OW22138   3.344   3.819   8.200 -0.5676 -0.0521 -0.2686
 3560SOL    HW122139   3.302   3.798   8.283 -1.4438 -3.3202 -1.5428
 3560SOL    HW222140   3.410   3.750   8.196 -0.8536 -0.3106 -0.4790
 3561SOL     OW22141   2.312   0.721  12.919  0.4957  0.0937  0.3957
 3561SOL    HW122142   2.294   0.715  12.825 -0.4989  2.6424  0.4147
 3561SOL    HW222143   2.382   0.657  12.935  0.6673  0.4374  1.0281
 3562SOL     OW22144   1.470   3.557   7.250  0.2394 -0.7826 -0.0338
 3562SOL    HW122145   1.410   3.574   7.323  0.4835  0.6740 -0.1810
 3562SOL    HW222146   1.545   3.613   7.272  1.4608 -1.9794 -1.0855
 3563SOL     OW22147   3.537   3.706   7.268  0.3867 -0.5183  0.2090
 3563SOL    HW122148   3.510   3.743   7.184 -1.6171 -1.5540  0.3967
 3563SOL    HW222149   3.505   3.616   7.266 -1.4069  0.1473 -1.5141
 3564SOL     OW22150   1.496   3.536   4.365 -0.8299  0.0242 -0.3911
 3564SOL    HW122151   1.493   3.450   4.408  0.7817  0.3777  0.4385
 3564SOL    HW222152   1.498   3.595   4.440  0.4973 -0.7286  0.1750
 3565SOL     OW22153   0.561   1.242  12.038  0.7063  0.1046 -0.3658
 3565SOL    HW122154   0.531   1.180  11.972 -1.6442  0.0895  0.7086
 3565SOL    HW222155   0.638   1.280  11.997 -0.4890  1.8000 -1.0441
 3566SOL     OW22156   0.042   1.750   3.401 -0.2749  0.3055 -0.3529
 3566SOL    HW122157   0.117   1.718   3.450 -0.1841  2.2558  0.7880
 3566SOL    HW222158   0.005   1.813   3.463 -0.2063 -0.7566  0.7697
 3567SOL     OW22159   2.161   0.262  16.237 -0.1997 -0.2723 -0.0909
 3567SOL    HW122160   2.114   0.344  16.252 -1.7418 -1.1877  0.2047
 3567SOL    HW222161   2.196   0.280  16.150 -1.6138 -0.2940 -0.6669
 3568SOL     OW22162   1.186   4.210  11.013  0.0220 -0.5761  0.2941
 3568SOL    HW122163   1.267   4.253  10.985 -1.6780  1.8717 -0.8668
 3568SOL    HW222164   1.226   4.143  11.069 -0.0445  0.6377  1.7536
 3569SOL     OW22165   2.385   4.684   3.546 -0.4191  0.0685  0.1480
 3569SOL    HW122166   2.468   4.711   3.586  0.9881  0.9130 -3.3676
 3569SOL    HW222167   2.339   0.042   3.544 -0.7976 -0.1183  0.8851
 3570SOL     OW22168   0.309   3.168   4.621 -0.2015 -0.5036 -0.1633
 3570SOL    HW122169   0.308   3.072   4.620  1.7218 -0.5206 -0.1115
 3570SOL    HW222170   0.385   3.197   4.671 -0.5719 -0.2267  0.2342
 3571SOL     OW22171   0.766   3.166  17.008  0.7137 -0.3535 -0.2446
 3571SOL    HW122172   0.725   3.240  16.965 -0.7953 -0.1409  1.5216
 3571SOL    HW222173   0.775   3.124  16.922  3.2471  2.2889 -1.2402
 3572SOL     OW22174   4.408   3.196   9.615  0.4116 -0.1655 -0.0974
 3572SOL    HW122175   4.321   3.237   9.610  1.6245  2.2850 -1.2493
 3572SOL    HW222176   4.469   3.268   9.600 -2.4391  1.9622 -1.5548
 3573SOL     OW22177   3.134   0.405   4.336  0.3488 -0.0567  0.1051
 3573SOL    HW122178   3.173   0.385   4.251  0.4138 -1.4393  0.4597
 3573SOL    HW222179   3.196   0.473   4.361 -2.3962  2.7636 -0.7254
 3574SOL     OW22180   2.903   1.301   2.322 -0.0335 -0.2447 -0.1395
 3574SOL    HW122181   2.855   1.315   2.240 -1.3890  0.0236  0.6952
 3574SOL    HW222182   2.833   1.274   2.381 -0.7613  0.1076 -0.8447
 3575SOL     OW22183   2.591   1.791   9.004 -0.2007 -0.5376  0.3966
 3575SOL    HW122184   2.554   1.864   9.053  0.8883  1.7094 -2.1501
 3575SOL    HW222185   2.680   1.823   8.992 -0.6728  1.4494  2.1699
 3576SOL     OW22186   1.868   0.974   5.526 -0.5218  0.1094  0.4256
 3576SOL    HW122187   1.847   0.917   5.452 -0.3389  0.8986 -0.2346
 3576SOL    HW222188   1.955   0.941   5.548 -0.0179  2.4206  1.9155
 3577SOL     OW22189   4.095   2.844   0.452  0.1109  0.2588  0.0733
 3577SOL    HW122190   4.153   2.771   0.428  0.5846  1.3781 -2.2060
 3577SOL    HW222191   4.127   2.869   0.539  1.2759  0.8016 -0.5147
 3578SOL     OW22192   0.001   3.847   8.031 -0.3677  0.2058  0.1946
 3578SOL    HW122193   0.040   3.812   8.111 -3.0351  2.2544  2.3787
 3578SOL    HW222194   4.718   3.766   7.980  1.7470 -0.1000  0.3201
 3579SOL     OW22195   2.843   2.117   7.768 -0.0024  0.1752  0.9057
 3579SOL    HW122196   2.748   2.127   7.760  0.0868  2.5084  2.7566
 3579SOL    HW222197   2.868   2.058   7.698  0.7419  0.6354  0.7872
 3580SOL     OW22198   4.556   0.508   3.841 -0.2146 -0.2554  0.3353
 3580SOL    HW122199   4.561   0.600   3.817  1.1482 -0.3758  0.1570
 3580SOL    HW222200   4.629   0.472   3.792  1.0945 -0.2708  2.3205
 3581SOL     OW22201   3.484   0.963   6.929 -0.1228  0.3011  0.0170
 3581SOL    HW122202   3.417   1.023   6.895  2.0656  1.3595 -2.3722
 3581SOL    HW222203   3.445   0.876   6.936  0.4668 -0.1334 -2.1516
 3582SOL     OW22204   0.894   3.999   2.079  0.0979  0.1517  0.2851
 3582SOL    HW122205   0.942   4.079   2.059  0.8925 -0.2480  0.6077
 3582SOL    HW222206   0.812   4.042   2.105  1.4764  1.4300  2.4897
 3583SOL     OW22207   3.474   1.842   3.005  0.1390  0.3273  0.4070
 3583SOL    HW122208   3.427   1.921   3.032  0.6367  0.3827  1.1261
 3583SOL    HW222209   3.403   1.805   2.952  0.5588  1.8499 -1.1911
 3584SOL     OW22210   4.040   2.970   6.115 -0.2280 -0.5123  0.6939
 3584SOL    HW122211   4.016   2.953   6.024 -0.5270 -2.4632  1.1354
 3584SOL    HW222212   4.111   3.034   6.118  0.5242 -1.4675  3.1167
 3585SOL     OW22213   2.205   1.307   6.347  0.2992  0.2353  0.3652
 3585SOL    HW122214   2.130   1.362   6.371 -0.3452  0.1056 -1.3996
 3585SOL    HW222215   2.199   1.232   6.407 -0.5702  0.4710  0.5789
 3586SOL     OW22216   3.012   3.125   8.107 -0.4884 -0.0206 -0.1318
 3586SOL    HW122217   3.008   3.171   8.023  2.4952  1.6375  0.6506
 3586SOL    HW222218   3.104   3.101   8.103 -0.5142  0.0539 -1.2394
 3587SOL     OW22219   2.315   4.289   7.777 -0.7105  0.0639 -0.0557
 3587SOL    HW122220   2.291   4.375   7.810  0.2347 -0.2249  1.4041
 3587SOL    HW222221   2.279   4.236   7.848 -1.4093  0.1174 -0.3746
 3588SOL     OW22222   1.770   2.648   8.664 -0.0499  0.2647 -0.1272
 3588SOL    HW122223   1.807   2.680   8.582  0.5095  0.6701  0.2757
 3588SOL    HW222224   1.834   2.691   8.722  0.4457 -2.8611  1.6331
 3589SOL     OW22225   3.824   0.778   6.739 -0.1307  0.5481  0.5635
 3589SOL    HW122226   3.816   0.798   6.646  1.2192 -1.0031  0.1094
 3589SOL    HW222227   3.866   0.863   6.754 -0.7112  0.7839  0.8424
 3590SOL     OW22228   4.661   4.551   4.910 -0.3800  0.5320 -0.8321
 3590SOL    HW122229   4.668   4.473   4.966 -0.9209  1.8112  1.0377
 3590SOL    HW222230   0.026   4.581   4.916 -0.4028  0.7903 -1.8544
 3591SOL     OW22231   4.196   1.715  10.697 -0.0424  0.3527  0.5051
 3591SOL    HW122232   4.237   1.773  10.633  0.9066  0.5697  1.3122
 3591SOL    HW222233   4.119   1.677  10.654 -0.4206  0.4904  1.0501
 3592SOL     OW22234   2.739   3.636   3.984 -0.1634  0.0851  0.4359
 3592SOL    HW122235   2.775   3.723   3.998  1.4642 -1.1060  3.6669
 3592SOL    HW222236   2.735   3.609   4.076  0.4367  0.5860  0.6088
 3593SOL     OW22237   0.117   4.449  10.823  0.5018 -0.0321 -0.1140
 3593SOL    HW122238   0.157   4.391  10.758  0.1698 -1.0378  0.5847
 3593SOL    HW222239   0.130   4.398  10.902 -1.3684  2.5031  1.8169
 3594SOL     OW22240   0.517   1.911   6.407  0.5633 -0.4284 -0.7064
 3594SOL    HW122241   0.500   1.863   6.487 -1.3107  0.5766 -0.5184
 3594SOL    HW222242   0.431   1.951   6.393  0.6325 -1.7091 -4.7651
 3595SOL     OW22243   1.248   1.876  13.178 -0.3759 -0.5910  1.2336
 3595SOL    HW122244   1.318   1.911  13.232  0.6176  1.0111 -1.0922
 3595SOL    HW222245   1.303   1.799  13.163 -0.2031 -0.8017  2.9828
 3596SOL     OW22246   0.479   0.899   0.533 -0.0497 -0.5407  0.7904
 3596SOL    HW122247   0.438   0.948   0.462 -0.3003 -0.6108  0.8879
 3596SOL    HW222248   0.542   0.834   0.499  0.7065  0.2665  0.6410
 3597SOL     OW22249   1.903   0.799   1.742 -0.3693  0.1345  0.1754
 3597SOL    HW122250   1.986   0.840   1.767 -1.2982  2.5736 -0.6599
 3597SOL    HW222251   1.930   0.715   1.704  0.1332  0.5073 -0.3018
 3598SOL     OW22252   3.401   0.220   4.444  0.8440  0.0966  0.2924
 3598SOL    HW122253   3.344   0.220   4.367  0.4913  0.3502  0.5548
 3598SOL    HW222254   3.331   0.256   4.498  0.3012  2.0722 -1.6992
 3599SOL     OW22255   1.538   4.291  14.322 -0.0120  0.5635 -0.0438
 3599SOL    HW122256   1.542   4.364  14.260  0.5882 -0.4325 -1.1630
 3599SOL    HW222257   1.555   4.217  14.264 -0.5158  0.8120 -0.5093
 3600SOL     OW22258   0.138   4.698  10.652 -0.5326 -0.1876  0.2838
 3600SOL    HW122259   0.063   4.716  10.595  0.1306 -0.3234 -0.6383
 3600SOL    HW222260   0.097   4.641  10.717  0.0880 -0.6374  0.2799
 3601SOL     OW22261   2.728   1.577   4.538 -0.1539 -0.4756 -0.1704
 3601SOL    HW122262   2.772   1.561   4.622  0.2550  3.3875  0.3182
 3601SOL    HW222263   2.649   1.523   4.540 -1.2426  1.0956 -1.5334
 3602SOL     OW22264   1.914   1.793   7.522 -0.1163  0.0043  0.3033
 3602SOL    HW122265   2.005   1.779   7.548  0.1923  0.4372 -0.5416
 3602SOL    HW222266   1.920   1.868   7.462  1.0343  0.0633  0.4833
 3603SOL     OW22267   3.529   4.069   4.383  0.0068  0.1686 -0.3014
 3603SOL    HW122268   3.488   3.994   4.427  0.3112 -1.1267 -2.2094
 3603SOL    HW222269   3.494   4.063   4.295 -1.5159 -0.2995  0.3347
 3604SOL     OW22270   0.319   0.755   1.616  0.1100 -0.2050 -0.3129
 3604SOL    HW122271   0.307   0.690   1.684  2.3965 -0.4276 -0.1094
 3604SOL    HW222272   0.314   0.840   1.660 -0.3445 -1.7850  2.6598
 3605SOL     OW22273   0.106   1.045  14.559 -0.1677  0.0966  0.5571
 3605SOL    HW122274   0.013   1.028  14.542  0.6323 -1.2670 -2.4366
 3605SOL    HW222275   0.127   1.128  14.515 -0.7197 -0.4120 -0.6789
 3606SOL     OW22276   1.411   4.616   7.114 -0.6300 -0.0928  0.1964
 3606SOL    HW122277   1.321   4.584   7.114 -0.0370 -1.7990  0.2962
 3606SOL    HW222278   1.398   4.705   7.146 -0.5277  0.3600 -1.0152
 3607SOL     OW22279   3.151   2.460   9.381 -0.1099  0.4791  0.5090
 3607SOL    HW122280   3.234   2.423   9.410  1.0541  0.1828 -3.2585
 3607SOL    HW222281   3.134   2.529   9.446 -1.1420  1.8522 -1.2321
 3608SOL     OW22282   0.756   4.616   0.845 -0.2933 -0.1310 -0.6374
 3608SOL    HW122283   0.834   4.576   0.883 -0.5924 -1.7289 -1.6948
 3608SOL    HW222284   0.735   4.695   0.896  1.5044 -0.5156  0.7172
 3609SOL     OW22285   4.138   0.540  17.570  1.0177  0.0689  0.1677
 3609SOL    HW122286   4.125   0.457  17.524 -0.6221 -0.3195  1.3655
 3609SOL    HW222287   4.191   0.591  17.509  0.0670  1.5010  0.5534
 3610SOL     OW22288   1.482   2.370   0.158 -0.4123  0.5006 -0.5402
 3610SOL    HW122289   1.495   2.464   0.145  0.7628  0.5195  0.7734
 3610SOL    HW222290   1.395   2.371   0.199 -0.0745  0.2157  0.1773
 3611SOL     OW22291   2.306   3.692   3.228  0.0637  0.2205 -0.7136
 3611SOL    HW122292   2.386   3.683   3.280  0.1133 -1.4611 -1.0921
 3611SOL    HW222293   2.331   3.734   3.146  2.2519 -1.3115 -0.8129
 3612SOL     OW22294   2.274   0.033  16.335 -0.2701 -0.1503 -0.4744
 3612SOL    HW122295   2.357   0.064  16.298  0.5159 -1.2392  0.3779
 3612SOL    HW222296   2.219   0.104  16.303  1.9204  1.3312 -0.9256
 3613SOL     OW22297   2.263   0.123   1.933  0.1570  0.7146 -0.1950
 3613SOL    HW122298   2.294   0.161   2.016  1.0511  1.2134 -0.7564
 3613SOL    HW222299   2.347   0.119   1.888 -0.2632 -1.7061 -0.7357
 3614SOL     OW22300   3.359   4.411   8.239  0.2297  0.1793 -0.0248
 3614SOL    HW122301   3.444   4.399   8.195  0.5743  0.7368  0.4940
 3614SOL    HW222302   3.364   4.342   8.305  0.6095  0.2209 -0.0074
 3615SOL     OW22303   1.232   1.519  14.980 -0.5665  0.4223  0.0521
 3615SOL    HW122304   1.159   1.564  15.023 -0.6350  0.7876 -0.4444
 3615SOL    HW222305   1.214   1.544  14.889  1.7532  1.4738 -0.1278
 3616SOL     OW22306   1.504   4.320  15.073  0.2391 -0.1383  0.0663
 3616SOL    HW122307   1.460   4.283  14.997 -0.2583  0.0721  0.2577
 3616SOL    HW222308   1.561   4.380  15.026  0.5995 -0.5345 -0.0089
 3617SOL     OW22309   2.717   2.557   7.582 -0.3812  0.4150  0.7746
 3617SOL    HW122310   2.721   2.595   7.494 -0.3958  0.2379  0.6985
 3617SOL    HW222311   2.799   2.590   7.618  0.9408 -0.7912 -1.1225
 3618SOL     OW22312   2.329   3.797  15.586 -0.1053 -0.5585 -0.6254
 3618SOL    HW122313   2.409   3.847  15.570  0.3159 -1.1853 -0.4944
 3618SOL    HW222314   2.357   3.730  15.649  0.3788  0.3342  0.1142
 3619SOL     OW22315   3.461   4.412   3.315  0.3043 -0.2919 -0.2014
 3619SOL    HW122316   3.404   4.417   3.392  0.5034  0.0580 -0.0801
 3619SOL    HW222317   3.409   4.454   3.247  1.6033 -0.1019 -1.0676
 3620SOL     OW22318   4.210   0.790   4.284 -0.5277  0.6697  0.0904
 3620SOL    HW122319   4.123   0.814   4.315 -1.1818 -1.8161  0.1717
 3620SOL    HW222320   4.202   0.810   4.191 -1.6533 -2.1905 -0.4358
 3621SOL     OW22321   0.644   3.405   8.089 -0.6279 -0.4020 -0.4031
 3621SOL    HW122322   0.555   3.388   8.119 -0.6170 -1.1430 -0.7885
 3621SOL    HW222323   0.689   3.393   8.173 -1.4517 -1.4038 -0.0989
 3622SOL     OW22324   0.355   1.733   1.516 -0.0952 -0.7822 -0.2283
 3622SOL    HW122325   0.439   1.742   1.473  0.2119  1.3168  0.8123
 3622SOL    HW222326   0.307   1.808   1.482  1.2962 -0.6007 -1.7837
 3623SOL     OW22327   3.795   0.103   4.762  0.3677  0.2669  0.4816
 3623SOL    HW122328   3.709   0.066   4.780  0.7146 -0.0333  1.5472
 3623SOL    HW222329   3.799   0.182   4.816  0.4132 -0.9336  2.2259
 3624SOL     OW22330   4.484   0.448   9.003  0.2641  0.3874 -0.2714
 3624SOL    HW122331   4.524   0.473   9.086  2.1674 -1.5136 -0.6174
 3624SOL    HW222332   4.538   0.494   8.940  1.7594 -1.9189 -0.6789
 3625SOL     OW22333   1.970   3.528  11.059 -0.2369  0.2385 -0.3601
 3625SOL    HW122334   1.897   3.556  11.004  0.2217  1.9226 -0.1169
 3625SOL    HW222335   1.931   3.448  11.094  1.4263 -0.0628  0.8088
 3626SOL     OW22336   2.848   1.774  15.470  0.3869  0.0958  0.2306
 3626SOL    HW122337   2.837   1.830  15.546 -0.9698  0.5256 -0.2837
 3626SOL    HW222338   2.865   1.689  15.512  1.7395  0.9886  1.4762
 3627SOL     OW22339   2.256   1.975  13.320  0.7731 -0.1460 -0.3320
 3627SOL    HW122340   2.188   1.908  13.331  2.3031 -1.1598  3.1182
 3627SOL    HW222341   2.314   1.918  13.270  0.3338 -1.3818  0.5544
 3628SOL     OW22342   0.456   3.895  11.084  0.9710 -0.1006  0.0085
 3628SOL    HW122343   0.467   3.976  11.033 -0.6856  0.3936  0.4571
 3628SOL    HW222344   0.401   3.917  11.158 -0.4279 -0.0749 -1.0454
 3629SOL     OW22345   4.319   3.818  14.383 -0.0300  0.5805 -0.1839
 3629SOL    HW122346   4.296   3.726  14.393 -0.6354  0.9564  1.7921
 3629SOL    HW222347   4.337   3.837  14.475  3.4682  1.2025 -0.9902
 3630SOL     OW22348   0.751   3.256   4.682 -0.2350 -0.2580  0.2225
 3630SOL    HW122349   0.847   3.258   4.677 -0.3969  3.3621 -1.2788
 3630SOL    HW222350   0.728   3.349   4.693  3.3764  0.5506  1.1930
 3631SOL     OW22351   0.887   2.136  15.206  0.4262  0.0589  0.1895
 3631SOL    HW122352   0.934   2.084  15.271  1.3372  1.1355  0.3976
 3631SOL    HW222353   0.800   2.142  15.246  0.2899  2.8497 -0.5283
 3632SOL     OW22354   1.800   1.359   1.862  0.4594 -0.2110  0.3109
 3632SOL    HW122355   1.870   1.417   1.833  1.2026 -2.5949 -2.7129
 3632SOL    HW222356   1.773   1.322   1.777  3.4115 -0.4762 -0.4977
 3633SOL     OW22357   2.768   2.284   8.533  0.1414 -0.3357 -0.2586
 3633SOL    HW122358   2.796   2.363   8.487 -0.7075  0.7828  1.1387
 3633SOL    HW222359   2.780   2.302   8.627 -0.7186  0.4088 -0.2851
 3634SOL     OW22360   1.712   2.832   5.565 -0.0157 -0.3162 -0.2086
 3634SOL    HW122361   1.761   2.789   5.495  0.6850 -1.4101  0.9595
 3634SOL    HW222362   1.684   2.910   5.516 -0.5780  0.8348  1.9796
 3635SOL     OW22363   4.074   2.168  14.648 -0.1844  0.0935  0.2504
 3635SOL    HW122364   4.070   2.263  14.636  1.1014  0.0686 -0.3770
 3635SOL    HW222365   4.134   2.170  14.723 -0.1025  2.0917  0.1249
 3636SOL     OW22366   4.591   2.813  13.363 -0.3964 -0.3024  0.1614
 3636SOL    HW122367   4.575   2.722  13.389  1.2052 -0.7503 -0.4169
 3636SOL    HW222368   4.594   2.857  13.448  0.6722 -1.8261  0.9191
 3637SOL     OW22369   2.997   4.422   4.327  0.0555 -0.4685  0.0321
 3637SOL    HW122370   2.963   4.480   4.395  4.1978  1.2687  0.5971
 3637SOL    HW222371   3.092   4.426   4.336  0.0677 -2.5525  0.8493
 3638SOL     OW22372   0.808   4.431  13.834 -0.6502 -0.1425  0.7060
 3638SOL    HW122373   0.799   4.446  13.928 -0.1248  0.1579  0.7110
 3638SOL    HW222374   0.877   4.496  13.817  0.3413 -1.9413 -2.2200
 3639SOL     OW22375   0.111   0.836   1.894  0.2588 -0.3286  0.1841
 3639SOL    HW122376   0.028   0.815   1.937  0.2898  1.2546  1.0159
 3639SOL    HW222377   0.151   0.750   1.882 -2.1946 -1.1861 -1.8097
 3640SOL     OW22378   3.783   1.517   9.525 -0.3886  0.0457 -0.2998
 3640SOL    HW122379   3.794   1.473   9.441 -1.2845 -0.1642 -0.3102
 3640SOL    HW222380   3.820   1.448   9.579  0.3547 -0.6452 -1.7017
 3641SOL     OW22381   3.438   3.904   2.054 -0.1117  0.1642 -0.3351
 3641SOL    HW122382   3.522   3.907   2.101 -1.9258 -0.5903  2.9513
 3641SOL    HW222383   3.475   3.876   1.969 -0.2590 -0.8017 -0.0857
 3642SOL     OW22384   2.004   0.717   3.972  0.0097 -0.0296  0.3029
 3642SOL    HW122385   2.002   0.706   4.067 -2.8476 -0.1832  0.2410
 3642SOL    HW222386   1.974   0.808   3.967  1.1146  0.1764 -2.7388
 3643SOL     OW22387   1.469   1.758   9.826 -0.2761  0.1399 -0.2441
 3643SOL    HW122388   1.524   1.832   9.849 -0.4825  1.1271 -2.9605
 3643SOL    HW222389   1.393   1.814   9.808 -3.0051 -2.1457  4.1536
 3644SOL     OW22390   0.999   3.663  14.287 -0.7892  0.6094  0.1656
 3644SOL    HW122391   0.960   3.670  14.199  0.3548 -2.3628 -0.5978
 3644SOL    HW222392   1.064   3.595  14.269 -1.5855  0.1876 -1.1261
 3645SOL     OW22393   2.325   3.668   6.267 -0.2095  0.4315  0.2655
 3645SOL    HW122394   2.286   3.600   6.322 -0.5313 -0.1729 -0.7139
 3645SOL    HW222395   2.418   3.658   6.291  0.1167 -1.3778 -1.7641
 3646SOL     OW22396   4.113   0.120   0.821 -0.0391 -0.2627 -0.3512
 3646SOL    HW122397   4.179   0.171   0.868 -0.4569  0.2623 -0.3414
 3646SOL    HW222398   4.085   0.190   0.763 -1.4399 -0.2094  0.3890
 3647SOL     OW22399   3.565   2.344   4.342 -0.2737 -0.7743  0.0308
 3647SOL    HW122400   3.489   2.286   4.357 -2.4264  1.3356 -2.8260
 3647SOL    HW222401   3.531   2.395   4.269  0.8347  0.1127  0.1417
 3648SOL     OW22402   1.834   1.489   6.165 -0.4862  0.2981 -0.1483
 3648SOL    HW122403   1.833   1.498   6.260  1.1007 -0.3925 -0.0624
 3648SOL    HW222404   1.787   1.405   6.164  0.6439 -0.3345 -0.2154
 3649SOL     OW22405   4.410   1.753   3.521 -0.6908 -0.1293 -0.4627
 3649SOL    HW122406   4.440   1.670   3.487  0.3499 -0.1467  0.4997
 3649SOL    HW222407   4.347   1.730   3.590  0.3935  0.0821  0.5988
 3650SOL     OW22408   3.209   3.175   4.104 -0.3843  0.1683 -0.1340
 3650SOL    HW122409   3.287   3.143   4.059 -0.8392 -0.4165 -0.5220
 3650SOL    HW222410   3.189   3.258   4.061 -2.5072 -0.0821  0.3530
 3651SOL     OW22411   1.556   4.436   4.709  0.8926  0.6866  0.4877
 3651SOL    HW122412   1.607   4.512   4.738  3.5663 -1.0605  0.2997
 3651SOL    HW222413   1.474   4.435   4.758  0.7831 -0.1926  0.2847
 3652SOL     OW22414   2.796   4.442   8.038  0.6928 -0.2461 -0.4128
 3652SOL    HW122415   2.820   4.362   7.991 -0.6876 -0.8500 -0.0831
 3652SOL    HW222416   2.702   4.438   8.022  0.6745  2.5506 -1.0995
 3653SOL     OW22417   4.094   3.909   2.818  0.3721 -0.5232  0.0054
 3653SOL    HW122418   4.019   3.905   2.758 -1.0957 -0.0354  1.7931
 3653SOL    HW222419   4.156   3.845   2.784  0.3504  0.3692 -1.7382
 3654SOL     OW22420   0.439   0.145   3.330  0.4309 -0.4441 -0.0851
 3654SOL    HW122421   0.413   0.060   3.365 -0.2126  0.5142  1.8033
 3654SOL    HW222422   0.458   0.207   3.401  1.6159  2.5711 -3.0220
 3655SOL     OW22423   2.897   3.143  10.789  0.2268 -0.1212 -0.8204
 3655SOL    HW122424   2.978   3.099  10.764  1.3915  0.6057  1.6598
 3655SOL    HW222425   2.856   3.145  10.703 -0.5660  1.3649 -0.4136
 3656SOL     OW22426   2.777   1.444   5.134  0.1074 -0.3411  0.0604
 3656SOL    HW122427   2.719   1.476   5.203  0.4236 -0.0193  0.1738
 3656SOL    HW222428   2.802   1.524   5.088  0.1143 -0.8906 -0.8995
 3657SOL     OW22429   2.110   3.357   1.382 -0.2983  0.4365 -0.3586
 3657SOL    HW122430   2.028   3.400   1.358 -0.4983  2.3868  3.8772
 3657SOL    HW222431   2.142   3.332   1.295 -0.4958 -1.0228 -0.0003
 3658SOL     OW22432   2.728   2.123   6.783  0.1866 -0.4054  0.3404
 3658SOL    HW122433   2.655   2.139   6.842  1.3271  2.7801  0.8939
 3658SOL    HW222434   2.710   2.169   6.701  1.8424 -1.0351 -0.3941
 3659SOL     OW22435   3.927   1.953   3.936 -0.8275  0.3137 -0.2492
 3659SOL    HW122436   3.855   1.931   3.995  0.5877  2.1722  2.1713
 3659SOL    HW222437   3.950   2.041   3.964  2.0791  0.0882 -1.9358
 3660SOL     OW22438   4.661   3.643   7.803 -0.1636  0.3892 -0.1230
 3660SOL    HW122439   0.005   3.631   7.739  0.5526  0.8475  0.5634
 3660SOL    HW222440   4.594   3.695   7.758  1.5483  3.2690  0.6419
 3661SOL     OW22441   3.682   4.264   3.416  0.8853  0.1047  0.0602
 3661SOL    HW122442   3.640   4.205   3.478  2.1616 -0.5687  0.2783
 3661SOL    HW222443   3.605   4.301   3.374  0.1538 -1.1828  0.2819
 3662SOL     OW22444   0.314   3.136  12.331  0.1331 -0.5600  0.0509
 3662SOL    HW122445   0.344   3.052  12.298  0.4008 -0.6948  0.6373
 3662SOL    HW222446   0.245   3.169  12.273 -0.8506 -0.9234  1.0036
 3663SOL     OW22447   0.941   3.404  14.610 -0.4176  0.0752  0.0310
 3663SOL    HW122448   0.895   3.439  14.533  1.5439  0.0509 -1.1405
 3663SOL    HW222449   1.028   3.444  14.608 -0.5473  0.4016  0.8399
 3664SOL     OW22450   3.038   4.604  11.815 -0.0178  0.1487  0.6466
 3664SOL    HW122451   3.073   4.601  11.726  1.2922  0.5395  1.1538
 3664SOL    HW222452   2.995   4.690  11.821  0.8892  0.5655  1.1492
 3665SOL     OW22453   0.544   1.559  15.066 -0.6496  0.0254 -0.1245
 3665SOL    HW122454   0.498   1.485  15.106 -2.6644 -0.2271 -2.8698
 3665SOL    HW222455   0.464   1.598  15.031  0.5037  1.6735 -0.9465
 3666SOL     OW22456   3.254   2.857  15.641  0.3050 -0.5874  0.5254
 3666SOL    HW122457   3.234   2.850  15.734  0.8320 -0.1092  0.6746
 3666SOL    HW222458   3.202   2.933  15.617  1.6938 -0.3157 -1.6233
 3667SOL     OW22459   0.348   1.080   0.985  0.2951 -0.4981 -0.4921
 3667SOL    HW122460   0.319   1.034   0.906  2.2836  1.3569 -2.3067
 3667SOL    HW222461   0.421   1.026   1.014  0.3539 -1.2798 -2.1061
 3668SOL     OW22462   1.305   3.707  12.523 -0.1252  0.4464 -0.2373
 3668SOL    HW122463   1.307   3.612  12.534 -0.7483  0.5573  0.8025
 3668SOL    HW222464   1.360   3.730  12.598 -1.7282 -0.5344  1.2341
 3669SOL     OW22465   2.846   4.059   9.287 -0.0553 -0.4118 -0.2777
 3669SOL    HW122466   2.848   4.117   9.363 -1.1059 -1.3014  0.4252
 3669SOL    HW222467   2.753   4.047   9.269 -0.0970 -0.4954 -0.0130
 3670SOL     OW22468   3.686   3.795   3.575 -0.1589 -0.5885 -0.0308
 3670SOL    HW122469   3.674   3.751   3.490  0.5789  0.2908 -0.5904
 3670SOL    HW222470   3.727   3.875   3.542 -4.6844  1.5531 -0.4796
 3671SOL     OW22471   4.602   4.258   1.025  0.0456  0.2572  0.0356
 3671SOL    HW122472   4.672   4.267   0.960  0.7425 -3.0684  0.3327
 3671SOL    HW222473   4.621   4.173   1.063 -0.3723  0.4640  0.7026
 3672SOL     OW22474   3.329   2.819  12.927 -0.1766  0.1536  0.0188
 3672SOL    HW122475   3.274   2.818  13.005 -0.4188 -0.0431 -0.1573
 3672SOL    HW222476   3.319   2.729  12.897  1.2601 -0.1595  0.4857
 3673SOL     OW22477   0.758   3.300   5.741 -0.0221 -0.0512 -0.8266
 3673SOL    HW122478   0.692   3.266   5.680 -0.3054  0.9997 -1.1070
 3673SOL    HW222479   0.743   3.243   5.817  0.9473  0.3881 -0.3049
 3674SOL     OW22480   0.946   3.129   5.086 -0.2299  0.2564 -0.1029
 3674SOL    HW122481   1.014   3.088   5.139  1.3344  1.4307 -1.2068
 3674SOL    HW222482   0.910   3.051   5.045 -2.8908  1.4944 -0.1190
 3675SOL     OW22483   0.681   3.965   4.841  0.8548  0.1445  0.0976
 3675SOL    HW122484   0.602   3.970   4.895  0.5740 -1.7812 -0.1616
 3675SOL    HW222485   0.715   4.048   4.875  0.2062  0.4574 -0.0145
 3676SOL     OW22486   1.650   3.424  14.345  0.0224 -0.3247  0.0789
 3676SOL    HW122487   1.744   3.413  14.358  0.2679  1.3849 -0.3201
 3676SOL    HW222488   1.617   3.450  14.431 -0.0655 -0.1637 -0.0030
 3677SOL     OW22489   1.986   3.567   5.928 -0.4177 -0.2999  0.0473
 3677SOL    HW122490   2.071   3.556   5.972 -1.8557  0.1331  2.9120
 3677SOL    HW222491   1.945   3.620   5.995 -0.0037  0.5389 -0.3672
 3678SOL     OW22492   3.482   3.472   3.953  0.2450  0.2389  0.4301
 3678SOL    HW122493   3.570   3.434   3.957 -0.0452 -0.6300 -1.2883
 3678SOL    HW222494   3.479   3.521   3.871  1.0584 -1.1462 -0.4280
 3679SOL     OW22495   3.366   4.427   6.584  0.4497 -1.1025 -0.1456
 3679SOL    HW122496   3.442   4.485   6.582  0.4324 -1.0914 -0.5404
 3679SOL    HW222497   3.408   4.354   6.538  0.5001 -2.1173  1.4974
 3680SOL     OW22498   2.197   0.478   6.112 -0.1552  0.3405 -0.7376
 3680SOL    HW122499   2.213   0.456   6.020 -1.6198 -2.8877 -0.2084
 3680SOL    HW222500   2.138   0.407   6.136  1.5940 -1.6439 -2.3042
 3681SOL     OW22501   1.868   0.313   1.417  0.1064  0.0990  0.3374
 3681SOL    HW122502   1.942   0.253   1.407 -1.1109 -1.3161 -0.2056
 3681SOL    HW222503   1.811   0.244   1.451  0.4270 -1.5322 -2.4409
 3682SOL     OW22504   2.040   3.261   8.631 -1.2477  0.4794  0.2578
 3682SOL    HW122505   1.956   3.263   8.677 -0.1654  0.0236  2.2449
 3682SOL    HW222506   2.076   3.347   8.653  0.7562 -0.3795  0.3714
 3683SOL     OW22507   1.182   3.077   6.903  0.0734 -0.3882 -0.0750
 3683SOL    HW122508   1.257   3.027   6.873  0.4245  0.3756 -0.4763
 3683SOL    HW222509   1.216   3.118   6.982 -0.5814 -0.1078  0.0583
 3684SOL     OW22510   1.513   0.665  16.091  0.3999 -0.0356 -0.3504
 3684SOL    HW122511   1.481   0.738  16.144 -3.7375 -1.3103 -1.1377
 3684SOL    HW222512   1.469   0.593  16.136 -1.3449  1.9460  1.1211
 3685SOL     OW22513   0.281   3.288  12.565  0.3757 -0.3088  0.1147
 3685SOL    HW122514   0.205   3.246  12.606  0.4641 -1.3392 -0.7706
 3685SOL    HW222515   0.286   3.238  12.483  0.7204 -1.2029  0.6771
 3686SOL     OW22516   2.318   1.824   2.481  0.7059 -0.0357 -0.1307
 3686SOL    HW122517   2.410   1.813   2.456  1.3021  1.2037  1.4943
 3686SOL    HW222518   2.280   1.779   2.406 -1.1329 -0.6428  1.1662
 3687SOL     OW22519   0.851   3.614   2.930 -0.0051  0.5519 -0.3213
 3687SOL    HW122520   0.871   3.593   2.839 -0.2470  1.9608 -0.7035
 3687SOL    HW222521   0.832   3.707   2.922 -0.3265  0.4270 -0.9933
 3688SOL     OW22522   1.109   1.623   4.902  0.0739 -0.5570  0.6332
 3688SOL    HW122523   1.022   1.595   4.875  1.0544 -2.5717 -0.4588
 3688SOL    HW222524   1.081   1.685   4.969 -0.9508  1.3091 -1.4897
 3689SOL     OW22525   0.494   2.782   8.092  0.0787  0.3438 -0.0619
 3689SOL    HW122526   0.568   2.737   8.051 -0.3043 -0.8887  0.5882
 3689SOL    HW222527   0.493   2.867   8.048 -2.3213 -1.3179 -3.1910
 3690SOL     OW22528   1.251   4.460   3.249 -0.0366  0.3311  0.5214
 3690SOL    HW122529   1.204   4.509   3.317 -0.0437  0.7384  0.2207
 3690SOL    HW222530   1.208   4.375   3.251  3.2510 -1.3342  1.3571
 3691SOL     OW22531   0.818   4.420   8.964 -0.4245 -0.1060 -0.1929
 3691SOL    HW122532   0.833   4.351   9.029 -2.4408 -0.7972 -0.4614
 3691SOL    HW222533   0.907   4.449   8.944 -0.4184 -0.0342 -0.0618
 3692SOL     OW22534   2.269   4.314  16.269 -0.0101 -0.0626 -0.2107
 3692SOL    HW122535   2.229   4.382  16.323 -0.3456 -0.7239  0.3603
 3692SOL    HW222536   2.356   4.352  16.256 -0.7299  1.0187 -1.9198
 3693SOL     OW22537   3.816   3.555  15.014 -0.2488  0.4307  0.3334
 3693SOL    HW122538   3.799   3.643  15.048  1.9653  0.7754  0.5488
 3693SOL    HW222539   3.735   3.531  14.968  0.8339  0.5857 -1.6343
 3694SOL     OW22540   0.277   0.363   3.889  0.2364 -0.3567  0.0838
 3694SOL    HW122541   0.249   0.359   3.981 -2.0209  1.1450 -0.5377
 3694SOL    HW222542   0.370   0.341   3.899 -0.0123 -1.6378 -0.4766
 3695SOL     OW22543   1.762   0.509  12.086  0.1557  0.2226 -0.5500
 3695SOL    HW122544   1.671   0.509  12.054 -0.1918  1.8323  0.4077
 3695SOL    HW222545   1.754   0.596  12.126 -1.1456  0.1549 -0.6512
 3696SOL     OW22546   0.464   3.453   7.742 -0.1741 -0.0371 -0.1450
 3696SOL    HW122547   0.419   3.526   7.699 -1.3621  0.1022  1.3175
 3696SOL    HW222548   0.450   3.485   7.831 -0.5480 -0.1435 -0.1666
 3697SOL     OW22549   0.520   0.808   1.390 -0.2160  0.6060 -0.5285
 3697SOL    HW122550   0.439   0.838   1.350 -1.1936 -0.2365  0.8539
 3697SOL    HW222551   0.489   0.768   1.471  1.3619  1.5010  0.5197
 3698SOL     OW22552   2.033   2.978   6.467  0.4979  0.1598 -0.1956
 3698SOL    HW122553   2.011   3.011   6.379 -3.6760  0.1959  0.8558
 3698SOL    HW222554   2.031   2.883   6.461 -2.5651  0.2187 -0.3207
 3699SOL     OW22555   4.303   0.219  10.835 -0.2928 -0.1051 -0.9193
 3699SOL    HW122556   4.331   0.310  10.843  0.7788 -0.4452 -0.8288
 3699SOL    HW222557   4.388   0.194  10.799  0.0033  0.8292 -0.8683
 3700SOL     OW22558   1.447   2.416   3.853 -0.3783 -0.1059  0.4475
 3700SOL    HW122559   1.496   2.459   3.923 -0.6036  0.0529  0.5111
 3700SOL    HW222560   1.474   2.326   3.867  0.2893  0.1474  0.8037
 3701SOL     OW22561   2.494   1.130   3.013 -0.4166  0.4961 -0.3123
 3701SOL    HW122562   2.427   1.070   3.046 -0.0996  0.7269  0.7366
 3701SOL    HW222563   2.566   1.076   3.046 -0.1325  1.2510  0.2932
 3702SOL     OW22564   2.421   0.088   8.102  0.4397  0.4179  0.6721
 3702SOL    HW122565   2.470   0.100   8.021 -1.5778  0.5035 -0.5327
 3702SOL    HW222566   2.415   4.719   8.101  0.7317  0.4079 -0.5918
 3703SOL     OW22567   2.631   3.666   3.604  0.8170  0.2170  0.3998
 3703SOL    HW122568   2.629   3.597   3.670 -1.5219 -1.0597 -0.9729
 3703SOL    HW222569   2.655   3.749   3.645  1.5497  0.1773  0.0445
 3704SOL     OW22570   1.530   0.488  12.909  0.4503 -0.1219  0.1638
 3704SOL    HW122571   1.446   0.516  12.872  2.1821  3.1524 -1.3471
 3704SOL    HW222572   1.527   0.513  13.001  2.4060 -0.0137  0.2088
 3705SOL     OW22573   1.920   1.980   3.998 -0.6317  0.2422  0.1928
 3705SOL    HW122574   1.997   1.964   4.052 -2.0066 -1.1286  1.7542
 3705SOL    HW222575   1.899   2.073   4.012 -0.2315  0.2232  0.9758
 3706SOL     OW22576   3.013   3.993  12.826  0.2585 -0.0005 -0.9171
 3706SOL    HW122577   2.977   3.997  12.915 -0.2938  1.1072 -1.1919
 3706SOL    HW222578   3.101   3.961  12.846  0.4331  2.4064  2.2069
 3707SOL     OW22579   0.758   3.341  14.841 -0.2146  0.5122  0.4042
 3707SOL    HW122580   0.822   3.345  14.769 -0.8134  0.7110 -0.1138
 3707SOL    HW222581   0.719   3.428  14.829  2.1964  1.2403 -2.4004
 3708SOL     OW22582   1.675   3.503   4.665  0.0248  0.2156 -0.0717
 3708SOL    HW122583   1.737   3.562   4.622  0.0658  0.8947  0.9133
 3708SOL    HW222584   1.735   3.429   4.674  1.1674  0.9729 -1.5046
 3709SOL     OW22585   1.196   3.464   4.645 -0.2241 -0.1214  0.4917
 3709SOL    HW122586   1.196   3.375   4.679 -2.0590  0.1589  1.1690
 3709SOL    HW222587   1.266   3.509   4.693 -0.0704 -0.6227  0.7416
 3710SOL     OW22588   4.299   3.729   8.049 -0.3599  0.1763  0.3806
 3710SOL    HW122589   4.214   3.692   8.026  0.8135 -1.7543 -0.8216
 3710SOL    HW222590   4.300   3.797   7.982  0.4790  0.0187  0.2315
 3711SOL     OW22591   1.253   2.597  15.438  0.6344 -0.2006  0.2676
 3711SOL    HW122592   1.271   2.509  15.472  0.0680  0.2254  1.6898
 3711SOL    HW222593   1.163   2.583  15.409  0.9071  1.3902 -1.3109
 3712SOL     OW22594   1.937   0.409   4.172  0.1291 -0.3311  0.3462
 3712SOL    HW122595   1.956   0.492   4.214  0.5990 -0.5846  0.6272
 3712SOL    HW222596   1.928   0.341   4.239 -0.4895  0.8257  1.4382
 3713SOL     OW22597   4.389   2.443  10.711  0.5087  0.1300  0.4608
 3713SOL    HW122598   4.468   2.419  10.663  0.5585 -0.8639  1.0410
 3713SOL    HW222599   4.416   2.531  10.734 -1.8577  0.1612  3.1071
 3714SOL     OW22600   1.200   2.886   8.364  0.2992 -0.3308  0.2888
 3714SOL    HW122601   1.246   2.821   8.418 -1.6984 -2.2045 -0.2556
 3714SOL    HW222602   1.255   2.958   8.394 -1.2759 -0.2398  2.8861
 3715SOL     OW22603   1.361   1.557   4.268  0.0652  0.5275 -0.8432
 3715SOL    HW122604   1.388   1.540   4.358 -3.2813 -0.5671 -0.0211
 3715SOL    HW222605   1.265   1.561   4.277  0.1385  0.8150 -0.1441
 3716SOL     OW22606   3.562   4.290  16.851 -0.0359 -0.1478  0.3012
 3716SOL    HW122607   3.499   4.279  16.780 -0.6505 -0.0549  0.8303
 3716SOL    HW222608   3.559   4.382  16.879 -2.5505  0.3488 -1.6331
 3717SOL     OW22609   0.798   1.845   6.519  0.1837  0.0439 -0.2639
 3717SOL    HW122610   0.755   1.900   6.584  0.4639 -0.8159  0.6440
 3717SOL    HW222611   0.884   1.842   6.560  0.0160  1.5846  0.1809
 3718SOL     OW22612   0.728   0.196   3.369  0.3890 -0.1470 -0.5763
 3718SOL    HW122613   0.681   0.273   3.400 -1.8292 -0.4028 -3.2613
 3718SOL    HW222614   0.657   0.177   3.308  0.1503 -0.0290 -0.3320
 3719SOL     OW22615   2.544   4.683   5.894 -0.0578  0.9682  0.2170
 3719SOL    HW122616   2.558   0.015   5.818  1.0513 -0.2701 -0.5333
 3719SOL    HW222617   2.526   4.603   5.844  1.1973  0.9549 -0.2155
 3720SOL     OW22618   0.535   3.652   4.009 -0.3625  0.4156  0.1340
 3720SOL    HW122619   0.556   3.708   3.935 -1.0758  0.2165 -0.2207
 3720SOL    HW222620   0.623   3.627   4.036 -1.1983 -1.3856  1.2079
 3721SOL     OW22621   2.474   3.279   9.352 -0.0788 -0.1708  0.5659
 3721SOL    HW122622   2.527   3.224   9.295  0.9254  1.3400  0.0594
 3721SOL    HW222623   2.533   3.353   9.368  1.3250 -1.2805  0.5575
 3722SOL     OW22624   3.155   4.321   3.371 -0.1422 -0.2737 -0.0295
 3722SOL    HW122625   3.188   4.366   3.293 -1.1843  0.7454  0.1124
 3722SOL    HW222626   3.202   4.370   3.438 -0.6884  1.4327 -0.8994
 3723SOL     OW22627   1.428   4.142   6.656 -0.3390 -0.6661 -0.1975
 3723SOL    HW122628   1.444   4.201   6.582  0.9171 -0.7727 -0.0096
 3723SOL    HW222629   1.512   4.095   6.654 -0.2432 -0.5411  1.3775
 3724SOL     OW22630   1.034   3.385  14.323  0.5442  0.0540 -0.4079
 3724SOL    HW122631   1.123   3.397  14.355 -0.0228 -0.7919  1.5178
 3724SOL    HW222632   1.034   3.289  14.323 -0.8459  0.0473  0.7602
 3725SOL     OW22633   0.310   1.369   7.709  0.3140 -0.1780  0.0968
 3725SOL    HW122634   0.328   1.444   7.766  2.6930 -1.7086  1.3510
 3725SOL    HW222635   0.228   1.333   7.743 -0.7300  2.3232  0.1735
 3726SOL     OW22636   0.353   1.080   5.882 -0.2205 -0.2160  0.8514
 3726SOL    HW122637   0.411   1.150   5.853  0.6533 -0.6387  1.5739
 3726SOL    HW222638   0.316   1.050   5.799  2.4401  0.9263 -0.7464
 3727SOL     OW22639   1.068   1.801   6.605 -0.1823  0.2113  0.2707
 3727SOL    HW122640   1.069   1.811   6.700 -0.4268  0.6610  0.2292
 3727SOL    HW222641   1.058   1.707   6.592 -0.3516  0.2967 -0.2360
 3728SOL     OW22642   0.463   0.453   8.215  0.0703 -0.2123 -0.0373
 3728SOL    HW122643   0.487   0.545   8.208  2.4310 -0.7671  0.7389
 3728SOL    HW222644   0.398   0.444   8.285 -0.0086  0.1199 -0.0667
 3729SOL     OW22645   1.213   0.317   7.136 -0.8487 -0.3598 -0.8619
 3729SOL    HW122646   1.129   0.287   7.171 -0.3831  0.6399  1.0869
 3729SOL    HW222647   1.170   0.354   7.059 -2.0343 -2.0178 -1.0105
 3730SOL     OW22648   0.971   0.163   2.545  0.0174  0.7276 -0.6180
 3730SOL    HW122649   1.023   0.087   2.519  0.6139  0.9710 -0.1123
 3730SOL    HW222650   0.921   0.133   2.621  0.2805 -0.0578 -0.7504
 3731SOL     OW22651   4.413   3.536   2.524 -0.2072  0.3816 -0.5702
 3731SOL    HW122652   4.414   3.580   2.438  1.3780 -0.2678 -0.8694
 3731SOL    HW222653   4.320   3.515   2.536  0.0058 -0.5374 -0.5411
 3732SOL     OW22654   2.404   4.320   3.920 -0.2668 -0.1335 -0.6328
 3732SOL    HW122655   2.498   4.325   3.899  0.0497 -1.9663  0.3465
 3732SOL    HW222656   2.402   4.243   3.976 -1.0201  0.2767 -0.1007
 3733SOL     OW22657   2.188   4.699   3.309  0.1646 -0.0400 -0.5891
 3733SOL    HW122658   2.278   4.723   3.286 -0.4849  0.7069 -2.3209
 3733SOL    HW222659   2.193   4.624   3.369 -0.5714 -0.7359 -1.3913
 3734SOL     OW22660   0.500   1.173   2.620  0.3395  0.2870  0.0102
 3734SOL    HW122661   0.429   1.189   2.558 -0.0275  2.7347  1.0334
 3734SOL    HW222662   0.571   1.165   2.557 -0.1869  2.2038 -0.8377
 3735SOL     OW22663   0.141   2.348   8.898  0.0813  0.2917 -0.1547
 3735SOL    HW122664   0.068   2.383   8.949  0.3558  4.2947 -2.5202
 3735SOL    HW222665   0.143   2.269   8.952 -0.5302  0.3851  0.0053
 3736SOL     OW22666   2.494   4.405   7.226 -0.4730  0.4548 -0.3566
 3736SOL    HW122667   2.443   4.404   7.306  1.0301  0.4589  0.6030
 3736SOL    HW222668   2.433   4.366   7.163 -0.8863 -0.2936  0.5196
 3737SOL     OW22669   4.465   4.416  17.203 -0.9156 -0.0028 -0.0668
 3737SOL    HW122670   4.541   4.465  17.236  0.9468 -1.6995 -1.8646
 3737SOL    HW222671   4.397   4.480  17.182 -0.0528  0.3031 -1.9326
 3738SOL     OW22672   1.783   2.050  11.714 -0.0218  0.4254 -0.5928
 3738SOL    HW122673   1.742   2.070  11.798 -0.6772 -1.6371 -0.4176
 3738SOL    HW222674   1.826   1.966  11.734  0.7725  0.2816 -2.9191
 3739SOL     OW22675   3.095   0.413   5.205 -0.3421  0.3700  0.1538
 3739SOL    HW122676   3.036   0.488   5.202  0.2309  0.9470  2.8185
 3739SOL    HW222677   3.173   0.451   5.247 -1.0108  2.0991 -0.1719
 3740SOL     OW22678   1.369   0.757   1.874  0.2876 -0.0267 -0.4812
 3740SOL    HW122679   1.440   0.816   1.848 -1.2610  2.1853  0.2765
 3740SOL    HW222680   1.358   0.718   1.788  1.5990  0.2611 -0.7713
 3741SOL     OW22681   2.549   3.637  13.239 -0.2841 -0.6687  0.3152
 3741SOL    HW122682   2.557   3.677  13.326 -0.4528 -0.5142  0.2583
 3741SOL    HW222683   2.625   3.674  13.195  0.8537 -2.0649  1.1078
 3742SOL     OW22684   4.506   2.173   5.410 -0.3858 -0.2831  0.6455
 3742SOL    HW122685   4.490   2.178   5.315 -1.4046 -0.1076  0.8240
 3742SOL    HW222686   4.510   2.078   5.421 -0.7739 -0.1108  2.2362
 3743SOL     OW22687   4.449   0.647  16.427 -0.5259  0.2323  0.4838
 3743SOL    HW122688   4.409   0.570  16.466  0.3662 -1.4470 -1.9562
 3743SOL    HW222689   4.462   0.709  16.499  2.3121 -0.6449  0.6989
 3744SOL     OW22690   0.785   2.049   2.450 -0.0401 -0.3367  0.3164
 3744SOL    HW122691   0.695   2.032   2.479 -0.5581 -0.6540 -1.4718
 3744SOL    HW222692   0.813   1.964   2.416 -1.4089 -0.8004  0.3469
 3745SOL     OW22693   3.761   2.939   6.154  0.1577 -0.6361 -0.0476
 3745SOL    HW122694   3.854   2.959   6.146 -0.0211  0.2538  0.1484
 3745SOL    HW222695   3.727   2.977   6.073 -0.5829  1.7207  1.3597
 3746SOL     OW22696   3.226   4.721  11.263  0.1921  0.3987  0.3441
 3746SOL    HW122697   3.248   4.630  11.280  1.5226  1.3367  3.8326
 3746SOL    HW222698   3.173   0.010  11.341 -1.4028 -4.0227  0.0820
 3747SOL     OW22699   1.405   3.397  11.616  1.0076  0.0579 -0.3436
 3747SOL    HW122700   1.431   3.465  11.554 -1.8489  0.9590 -0.5598
 3747SOL    HW222701   1.484   3.343  11.614  0.0424 -1.4207  1.4606
 3748SOL     OW22702   4.335   3.654  15.716 -0.9197 -0.6200  0.1915
 3748SOL    HW122703   4.397   3.601  15.766  1.3751  2.0854  0.2753
 3748SOL    HW222704   4.261   3.678  15.773 -1.5234 -1.1797 -0.3601
 3749SOL     OW22705   1.555   0.710  15.794 -0.4180  0.7539  0.2312
 3749SOL    HW122706   1.546   0.801  15.825  0.4217  1.0375 -0.3562
 3749SOL    HW222707   1.466   0.675  15.804  0.4483 -1.7798 -0.9892
 3750SOL     OW22708   0.532   1.391  16.325  0.1594 -0.5193  0.1666
 3750SOL    HW122709   0.547   1.457  16.393  2.9453 -0.7611 -0.2007
 3750SOL    HW222710   0.437   1.396  16.335  0.3704  0.7010  1.6210
 3751SOL     OW22711   1.796   1.234   9.516  0.1944  0.2203  0.0716
 3751SOL    HW122712   1.852   1.259   9.442  0.1731 -0.1341 -0.0630
 3751SOL    HW222713   1.722   1.197   9.468  0.2163 -1.4745  1.3425
 3752SOL     OW22714   0.440   1.204  16.058 -0.1855  0.0268 -0.5906
 3752SOL    HW122715   0.356   1.173  16.094  0.5372  1.1415  2.1039
 3752SOL    HW222716   0.426   1.197  15.964 -1.7190 -0.1690 -0.3550
 3753SOL     OW22717   0.219   3.724   4.751 -0.2072  0.1480 -0.8742
 3753SOL    HW122718   0.250   3.640   4.785 -0.1794  0.3554 -0.3870
 3753SOL    HW222719   0.191   3.701   4.663  0.4549 -0.1329 -1.0113
 3754SOL     OW22720   3.476   2.789   2.760  0.3617 -0.6813 -0.5247
 3754SOL    HW122721   3.404   2.733   2.789 -1.0777  1.7166  0.5004
 3754SOL    HW222722   3.542   2.721   2.746  0.7201 -0.2929 -0.7084
 3755SOL     OW22723   3.867   0.771   0.241 -0.0580 -0.2454 -0.3108
 3755SOL    HW122724   3.784   0.810   0.214  0.0011  1.1556  1.5199
 3755SOL    HW222725   3.911   0.780   0.157  0.8571  2.0440  0.4022
 3756SOL     OW22726   1.667   1.882  13.026  0.0250  0.3679  0.8121
 3756SOL    HW122727   1.589   1.828  13.013 -0.1970  0.8756  0.0042
 3756SOL    HW222728   1.687   1.881  13.119  1.0695  1.4854  0.5963
 3757SOL     OW22729   3.439   3.698   7.693 -0.0767 -0.4384  0.7366
 3757SOL    HW122730   3.395   3.773   7.734 -0.2404  0.6599 -1.4451
 3757SOL    HW222731   3.533   3.715   7.704  0.2564 -3.1955  2.1781
 3758SOL     OW22732   3.982   3.270   5.433 -0.6384 -0.1598  0.1365
 3758SOL    HW122733   4.059   3.233   5.389 -2.3583 -2.3633 -0.9974
 3758SOL    HW222734   4.026   3.290   5.516 -1.4882 -0.5186  0.6758
 3759SOL     OW22735   1.029   2.415   3.105  0.0620 -0.3438 -0.5225
 3759SOL    HW122736   1.059   2.474   3.175 -0.5427 -0.8169  0.1376
 3759SOL    HW222737   0.981   2.479   3.052  1.5599  1.7973  0.7209
 3760SOL     OW22738   2.597   4.078   7.084 -0.1520  0.2368 -0.3243
 3760SOL    HW122739   2.526   4.072   7.148  0.5230 -1.3983  0.2701
 3760SOL    HW222740   2.549   4.105   7.006  0.0387  1.3762 -0.0452
 3761SOL     OW22741   3.659   2.755  11.685  0.0725  0.9452 -0.1184
 3761SOL    HW122742   3.632   2.819  11.750  2.0080  0.5786  1.0671
 3761SOL    HW222743   3.644   2.795  11.600 -2.4911  3.8695  1.7540
 3762SOL     OW22744   4.725   0.024   9.277  0.4000 -0.4961  0.4511
 3762SOL    HW122745   0.066   0.056   9.217 -0.6620 -0.0182 -0.4808
 3762SOL    HW222746   0.015   0.083   9.351 -0.7321 -0.3733  0.5963
 3763SOL     OW22747   4.499   0.942   4.179 -0.1913 -0.5388 -0.3726
 3763SOL    HW122748   4.578   0.935   4.233 -0.3798  0.3842  0.0167
 3763SOL    HW222749   4.438   0.971   4.247 -1.4216 -3.2204 -0.3408
 3764SOL     OW22750   1.958   2.067   3.554 -0.2078 -0.1387  0.3037
 3764SOL    HW122751   1.999   2.033   3.474 -0.5915  0.0707  0.0160
 3764SOL    HW222752   2.021   2.130   3.589 -1.0060 -0.1404  1.7633
 3765SOL     OW22753   2.857   2.748  17.592 -0.0494  0.0490  0.7258
 3765SOL    HW122754   2.785   2.684  17.587 -0.5937  0.6584  0.7786
 3765SOL    HW222755   2.866   2.766  17.686  0.7427  2.0553  0.2575
 3766SOL     OW22756   2.800   3.843   5.273 -0.2107 -0.0218  0.3889
 3766SOL    HW122757   2.839   3.929   5.288  3.1038 -1.3946 -0.4401
 3766SOL    HW222758   2.869   3.802   5.326 -0.1871  2.2296  2.0965
 3767SOL     OW22759   1.591   0.656   9.943 -0.3037 -0.0552 -0.3816
 3767SOL    HW122760   1.566   0.734   9.893 -0.6048 -0.3410 -0.6783
 3767SOL    HW222761   1.520   0.597   9.920 -0.8493  0.1802  0.6954
 3768SOL     OW22762   1.577   3.273   7.998  0.0662  0.5026 -0.1923
 3768SOL    HW122763   1.605   3.283   8.089 -1.0595  0.4327  0.1595
 3768SOL    HW222764   1.654   3.232   7.959  0.5542  1.3079 -0.0911
 3769SOL     OW22765   4.481   1.883   5.442  0.2077 -0.7354 -0.0984
 3769SOL    HW122766   4.392   1.852   5.426  0.0117 -0.2643  0.0885
 3769SOL    HW222767   4.541   1.823   5.398  0.2356  0.5848 -1.8104
 3770SOL     OW22768   1.775   2.133   7.143 -0.0935 -0.0283  0.3200
 3770SOL    HW122769   1.712   2.101   7.078  1.6068  0.2484 -1.4514
 3770SOL    HW222770   1.844   2.177   7.094 -1.1123  1.5347  0.3224
 3771SOL     OW22771   1.493   2.228   4.998 -0.1992  0.6823 -0.5565
 3771SOL    HW122772   1.457   2.140   4.997  0.1907  0.5184  0.3381
 3771SOL    HW222773   1.462   2.268   5.079 -0.1879  0.3870 -0.4101
 3772SOL     OW22774   0.683   0.825  10.675  0.2456  0.0771  0.2062
 3772SOL    HW122775   0.739   0.903  10.679  1.4029 -0.7148 -0.7412
 3772SOL    HW222776   0.622   0.821  10.748  1.6251  0.9302  1.4179
 3773SOL     OW22777   3.687   3.200   8.933 -0.2905 -0.0234  0.5912
 3773SOL    HW122778   3.652   3.111   8.929 -2.0557  0.7050 -0.0935
 3773SOL    HW222779   3.627   3.238   8.997 -1.5606 -1.0651  0.0234
 3774SOL     OW22780   4.085   2.141   2.254 -0.1239  0.5078 -0.0976
 3774SOL    HW122781   4.168   2.113   2.293  1.3439  4.5170 -0.3360
 3774SOL    HW222782   4.057   2.199   2.325 -1.7504 -0.0290 -0.3029
 3775SOL     OW22783   0.400   0.532  14.691  0.0192 -0.0104 -0.0336
 3775SOL    HW122784   0.395   0.446  14.649  0.6685  0.8771 -1.9436
 3775SOL    HW222785   0.349   0.572  14.620 -1.0724  0.6335  1.1002
 3776SOL     OW22786   1.138   2.467   9.224  0.0470  0.0209 -0.2936
 3776SOL    HW122787   1.057   2.450   9.174 -0.3043 -1.8515  0.8949
 3776SOL    HW222788   1.140   2.376   9.255 -0.7962 -0.2605 -1.0564
 3777SOL     OW22789   2.289   4.681   8.741 -0.3934 -0.0169  0.2475
 3777SOL    HW122790   2.237   4.624   8.798  0.9546  0.5445  2.0329
 3777SOL    HW222791   2.349   4.722   8.803  0.7096 -1.1386 -0.0645
 3778SOL     OW22792   4.233   0.248   5.720  0.1403  0.0798 -0.1280
 3778SOL    HW122793   4.207   0.184   5.786  1.7813 -0.6954 -0.2409
 3778SOL    HW222794   4.155   0.297   5.693 -0.9213  0.1529  3.1274
 3779SOL     OW22795   2.956   0.840   5.506  0.9257  0.2484 -0.1548
 3779SOL    HW122796   3.046   0.823   5.478  0.7634 -1.1743  0.1774
 3779SOL    HW222797   2.929   0.889   5.429  0.9147 -1.3483 -1.1786
 3780SOL     OW22798   0.875   4.536   5.807 -0.2342 -0.2160 -0.5191
 3780SOL    HW122799   0.905   4.495   5.725  0.9675  1.5901 -0.9858
 3780SOL    HW222800   0.808   4.586   5.760 -1.2839 -0.7197  0.4487
 3781SOL     OW22801   2.498   0.539   4.442  0.4401 -0.2352  0.0591
 3781SOL    HW122802   2.423   0.486   4.418  0.8399  0.8222 -3.5056
 3781SOL    HW222803   2.453   0.623   4.447  1.4215  0.3427 -0.7291
 3782SOL     OW22804   1.688   4.608   4.876  0.2084  0.0855  0.2504
 3782SOL    HW122805   1.770   4.655   4.865  0.1255  0.2206  0.2144
 3782SOL    HW222806   1.639   4.649   4.947 -2.0972 -1.4355 -0.4560
 3783SOL     OW22807   1.917   2.166   5.714 -0.0410  0.1023 -0.0755
 3783SOL    HW122808   1.826   2.137   5.711  0.1990 -0.8350  1.7574
 3783SOL    HW222809   1.912   2.219   5.794  0.3350  2.3425 -1.5359
 3784SOL     OW22810   2.480   1.942  14.388  0.0025 -0.7323 -0.1283
 3784SOL    HW122811   2.567   1.948  14.426 -0.7168 -0.6705  1.5067
 3784SOL    HW222812   2.499   1.960  14.296  0.6161 -0.2958  0.0889
 3785SOL     OW22813   1.666   0.961  16.663 -0.4510 -0.1091  0.2032
 3785SOL    HW122814   1.576   0.979  16.692 -0.5234 -1.3013  0.6992
 3785SOL    HW222815   1.647   0.944  16.571 -0.6417 -1.2036  0.4482
 3786SOL     OW22816   4.583   2.101  10.713 -0.4004  0.3668  0.3098
 3786SOL    HW122817   4.545   2.178  10.757 -1.0744  0.5419 -0.5776
 3786SOL    HW222818   4.663   2.094  10.765  0.6152 -0.5345 -1.3921
 3787SOL     OW22819   1.386   1.111   3.625  0.0751 -0.2283 -0.0828
 3787SOL    HW122820   1.432   1.149   3.550  0.2513  1.6461  0.9736
 3787SOL    HW222821   1.331   1.039   3.595  1.1328 -1.4351  0.8784
 3788SOL     OW22822   2.736   2.468  12.649  0.1533 -0.5301 -0.2127
 3788SOL    HW122823   2.831   2.470  12.661 -0.2020  1.5646  2.2390
 3788SOL    HW222824   2.708   2.530  12.716 -0.3779 -0.2459 -0.6966
 3789SOL     OW22825   0.065   3.935   4.792 -0.2778  0.4234  0.1909
 3789SOL    HW122826   0.061   3.974   4.879  1.4947  0.7471  0.1261
 3789SOL    HW222827   0.130   3.866   4.806 -0.9693 -0.0169  1.2049
 3790SOL     OW22828   0.831   2.963  17.179  0.2377  0.8027  0.6148
 3790SOL    HW122829   0.800   3.035  17.123  0.9808 -1.3682 -2.5814
 3790SOL    HW222830   0.766   2.974  17.249 -1.3387  0.6826 -0.8077
 3791SOL     OW22831   3.257   1.709  16.364 -0.3272  0.3073  0.2009
 3791SOL    HW122832   3.176   1.659  16.374  0.0132 -0.1109  0.8787
 3791SOL    HW222833   3.235   1.770  16.293 -0.2427  1.1529  0.8947
 3792SOL     OW22834   1.086   0.043   6.988  0.6673  0.2549 -0.6595
 3792SOL    HW122835   0.991   0.036   6.977  0.4644  0.4798  0.9773
 3792SOL    HW222836   1.095   0.138   6.993 -1.9888  0.6133 -2.5232
 3793SOL     OW22837   1.008   1.143  16.091  0.2656  0.0164 -0.0165
 3793SOL    HW122838   0.945   1.112  16.026  1.0311 -0.7865 -0.3727
 3793SOL    HW222839   0.954   1.199  16.147 -0.9444 -0.0538 -1.1127
 3794SOL     OW22840   1.021   4.209  10.401  0.1474 -0.1368  0.2822
 3794SOL    HW122841   1.096   4.267  10.388  0.3313 -0.4751 -0.1755
 3794SOL    HW222842   0.979   4.240  10.481  0.3921  2.1611 -0.4926
 3795SOL     OW22843   1.355   2.272  13.433 -0.2281  0.4365 -0.0941
 3795SOL    HW122844   1.391   2.360  13.437  2.0138 -0.5230  0.6972
 3795SOL    HW222845   1.395   2.231  13.510 -1.6700 -0.9801 -0.1128
 3796SOL     OW22846   0.310   2.187   8.567 -0.3414  0.4110 -0.1247
 3796SOL    HW122847   0.322   2.241   8.645  0.2742  0.2582 -0.1188
 3796SOL    HW222848   0.265   2.107   8.594  0.5314 -0.0493 -0.0547
 3797SOL     OW22849   4.555   1.741   5.994  0.4295 -0.7364  0.1399
 3797SOL    HW122850   4.486   1.802   6.021 -2.2381 -2.7732 -2.0362
 3797SOL    HW222851   4.539   1.733   5.900  0.2316  0.0727  0.1050
 3798SOL     OW22852   2.370   3.158   3.197  0.5129 -0.4715 -0.3730
 3798SOL    HW122853   2.434   3.160   3.126  0.9696 -1.1120  0.0148
 3798SOL    HW222854   2.332   3.245   3.191 -0.1369 -0.7837 -0.8054
 3799SOL     OW22855   1.185   2.792   2.994 -0.1922  0.0189  0.0414
 3799SOL    HW122856   1.126   2.811   3.066  1.7423  2.0650  1.0898
 3799SOL    HW222857   1.188   2.698   3.008  1.1011  0.0392 -0.1060
 3800SOL     OW22858   4.274   0.738   0.758 -0.0119  0.2937 -0.2321
 3800SOL    HW122859   4.266   0.689   0.840 -4.6297  0.3052 -0.7028
 3800SOL    HW222860   4.363   0.720   0.726 -0.4712  1.2025 -1.9798
 3801SOL     OW22861   4.025   2.424   5.449  0.4200  0.3754 -0.3065
 3801SOL    HW122862   3.966   2.430   5.524  0.8472  0.0552  0.0521
 3801SOL    HW222863   3.956   2.434   5.383  0.9829 -1.7459 -1.2392
 3802SOL     OW22864   2.613   3.938  16.800  0.3850  0.1568  0.0801
 3802SOL    HW122865   2.594   3.935  16.706  0.2871 -0.3327  0.1132
 3802SOL    HW222866   2.594   4.029  16.821 -1.2080  0.5493 -3.0603
 3803SOL     OW22867   3.768   3.017  14.425 -0.1692  0.4349 -0.1092
 3803SOL    HW122868   3.789   2.984  14.512 -3.2020  0.9259  0.7818
 3803SOL    HW222869   3.686   3.065  14.436  1.3420  3.2606 -1.2769
 3804SOL     OW22870   2.532   3.471   5.936 -0.4385  0.3510 -0.1244
 3804SOL    HW122871   2.562   3.561   5.924  0.5287  0.1800  1.0089
 3804SOL    HW222872   2.615   3.431   5.962  0.0404  1.4567  0.0408
 3805SOL     OW22873   1.303   4.572   8.415 -0.1698 -0.2316 -0.2717
 3805SOL    HW122874   1.335   4.584   8.504  0.2110 -0.4164 -0.3837
 3805SOL    HW222875   1.209   4.584   8.432  0.1274 -0.8836  1.7214
 3806SOL     OW22876   3.516   0.895   5.460  0.0704 -0.1178 -0.1083
 3806SOL    HW122877   3.427   0.921   5.481  0.5515  0.3061  1.4199
 3806SOL    HW222878   3.559   0.874   5.543  3.4851  0.9275 -1.5965
 3807SOL     OW22879   3.033   1.681   3.200  0.0020  0.1405 -0.3529
 3807SOL    HW122880   3.028   1.689   3.296 -2.5177 -2.0002 -0.3014
 3807SOL    HW222881   3.094   1.753   3.185 -0.9201  1.2982  1.4141
 3808SOL     OW22882   0.749   3.890   2.906  1.4767  0.0812 -0.1055
 3808SOL    HW122883   0.758   3.860   2.815 -0.7797 -1.7569  0.2977
 3808SOL    HW222884   0.834   3.933   2.920  1.2333  0.3977  0.3849
 3809SOL     OW22885   4.671   2.192  12.073  0.5759 -0.0753 -0.5277
 3809SOL    HW122886   4.679   2.243  12.154  2.2947 -1.0877 -0.0755
 3809SOL    HW222887   0.037   2.172  12.055  0.0424 -1.3161 -1.8561
 3810SOL     OW22888   1.645   3.169  14.236  0.0256  0.5049  0.0166
 3810SOL    HW122889   1.636   3.262  14.257 -1.5040  0.5961 -1.0704
 3810SOL    HW222890   1.706   3.185  14.163  1.0644 -0.0680  0.7622
 3811SOL     OW22891   0.695   4.049   7.664 -0.2308 -0.6067 -0.2764
 3811SOL    HW122892   0.679   4.057   7.758 -1.3045  0.9372 -0.5988
 3811SOL    HW222893   0.766   4.113   7.658 -1.8387  1.5587  3.7028
 3812SOL     OW22894   0.270   1.407   3.806 -0.2148  0.7287 -0.5548
 3812SOL    HW122895   0.294   1.367   3.890  1.7109  0.2446 -1.3288
 3812SOL    HW222896   0.186   1.361   3.801  1.1421 -1.8545 -0.0368
 3813SOL     OW22897   1.975   3.460   3.164 -0.0489 -0.0066 -0.5866
 3813SOL    HW122898   1.964   3.375   3.123  1.8403  0.7721 -2.6871
 3813SOL    HW222899   1.956   3.517   3.090 -4.0326 -0.9824 -0.3560
 3814SOL     OW22900   3.284   3.875   5.885 -0.4130  0.0961  0.0335
 3814SOL    HW122901   3.371   3.836   5.875 -1.0812 -0.8043 -2.3253
 3814SOL    HW222902   3.285   3.934   5.810 -1.9044  0.3540  0.2312
 3815SOL     OW22903   4.665   1.885   7.471  0.0324  0.3227  0.6597
 3815SOL    HW122904   4.714   1.835   7.536  1.2243 -1.3684 -1.4917
 3815SOL    HW222905   4.610   1.812   7.441 -1.3058  1.7198 -0.2539
 3816SOL     OW22906   2.139   0.886   7.442 -0.2251 -0.2890 -0.3659
 3816SOL    HW122907   2.147   0.857   7.533 -0.5762  2.1003  0.4473
 3816SOL    HW222908   2.230   0.902   7.417 -0.5590  1.9885 -0.1734
 3817SOL     OW22909   3.641   0.033  15.558  0.0655  0.0326 -0.2568
 3817SOL    HW122910   3.708   0.044  15.490  1.2330  1.0306  1.0559
 3817SOL    HW222911   3.559   0.034  15.510  0.0295  2.1786 -0.1543
 3818SOL     OW22912   2.335   0.311   0.757  0.2977 -0.6739 -0.3346
 3818SOL    HW122913   2.249   0.344   0.731  0.4201 -0.0833  0.0071
 3818SOL    HW222914   2.309   0.234   0.809  0.5138 -0.1621  0.5342
 3819SOL     OW22915   0.916   3.062   8.169 -0.1758 -0.0641  0.4453
 3819SOL    HW122916   0.995   3.116   8.181  0.3832 -0.2885 -2.2423
 3819SOL    HW222917   0.930   3.037   8.078 -1.3269  0.3283  0.1679
 3820SOL     OW22918   3.598   2.467   8.341  0.1625  0.1973  0.1400
 3820SOL    HW122919   3.603   2.437   8.432  0.2545 -0.4614 -0.0802
 3820SOL    HW222920   3.601   2.562   8.351  1.8609  0.1602 -0.0445
 3821SOL     OW22921   3.411   0.841  14.882 -0.4277 -0.4925 -0.2484
 3821SOL    HW122922   3.420   0.757  14.836  2.4070 -1.9090  2.8689
 3821SOL    HW222923   3.363   0.892  14.818 -1.5822 -0.5427  0.5707
 3822SOL     OW22924   1.103   1.102   7.260 -0.3997 -0.5214 -0.2094
 3822SOL    HW122925   1.059   1.185   7.242  0.5320  0.3826  1.6473
 3822SOL    HW222926   1.126   1.114   7.353 -1.1278 -0.8845  0.0181
 3823SOL     OW22927   2.642   0.342  15.967 -0.3787  0.2635  0.1063
 3823SOL    HW122928   2.686   0.261  15.940  0.6199  0.8598 -0.0737
 3823SOL    HW222929   2.716   0.403  15.962 -0.2105  0.0355 -0.1548
 3824SOL     OW22930   3.451   3.119  14.966  0.1306 -0.6687  0.0516
 3824SOL    HW122931   3.480   3.198  15.012  0.8274 -1.4505  0.9339
 3824SOL    HW222932   3.388   3.168  14.912  0.9436  0.6379  0.2909
 3825SOL     OW22933   3.170   1.425   6.539  0.1476 -0.7839  0.2424
 3825SOL    HW122934   3.132   1.381   6.615  1.3040 -0.3939  1.0540
 3825SOL    HW222935   3.156   1.517   6.563  1.2172 -0.5861  0.1002
 3826SOL     OW22936   3.051   0.244   0.807 -0.5463  0.1986  0.3501
 3826SOL    HW122937   3.120   0.181   0.789 -0.5036  0.1091  0.8090
 3826SOL    HW222938   2.980   0.218   0.748 -0.1862  0.5875 -0.2460
 3827SOL     OW22939   3.001   3.321   7.520  0.6451 -1.0173  0.1606
 3827SOL    HW122940   3.089   3.343   7.490  0.8000 -0.0951  1.2967
 3827SOL    HW222941   2.988   3.227   7.504 -1.4437 -0.5058 -1.1414
 3828SOL     OW22942   0.934   4.647   2.302 -0.0602  0.0540  0.4363
 3828SOL    HW122943   0.842   4.652   2.277 -0.1547  1.9952  1.1744
 3828SOL    HW222944   0.964   4.583   2.237  1.2374  2.0083 -0.9382
 3829SOL     OW22945   4.306   0.203   8.961 -0.6842 -0.0079 -0.2031
 3829SOL    HW122946   4.314   0.128   9.019 -1.7923  1.2383  1.5632
 3829SOL    HW222947   4.373   0.263   8.994 -2.5752  2.4522 -0.8644
 3830SOL     OW22948   1.387   4.151   6.041  0.3800  0.1730  0.5474
 3830SOL    HW122949   1.332   4.097   5.985  2.3968 -0.5712 -0.6979
 3830SOL    HW222950   1.375   4.098   6.120 -0.3010 -0.5427 -0.0362
 3831SOL     OW22951   4.158   0.753   2.608 -0.0617 -0.1630 -0.1896
 3831SOL    HW122952   4.140   0.845   2.626 -2.7086 -0.8853  0.8445
 3831SOL    HW222953   4.233   0.737   2.666 -1.7931 -1.3928  1.7090
 3832SOL     OW22954   2.511   1.167  16.383 -0.2435  0.5961 -0.0400
 3832SOL    HW122955   2.524   1.143  16.291  1.1225  3.2319 -0.5318
 3832SOL    HW222956   2.461   1.091  16.413  1.4168 -0.5962 -0.3083
 3833SOL     OW22957   1.381   1.440   5.181  0.2864 -0.0044  0.3268
 3833SOL    HW122958   1.454   1.448   5.120 -1.2528  1.3781 -1.3498
 3833SOL    HW222959   1.365   1.346   5.175 -1.8912  0.3550  0.3361
 3834SOL     OW22960   4.621   0.058  16.299  0.2964 -0.2028  0.3450
 3834SOL    HW122961   4.562   0.113  16.350  1.3671  2.2943 -1.1444
 3834SOL    HW222962   4.572   4.702  16.288  1.1307 -0.0825 -4.1890
 3835SOL     OW22963   3.435   0.438   5.588 -0.0083  0.0715  0.5159
 3835SOL    HW122964   3.517   0.394   5.609  0.0344 -1.2850 -2.5917
 3835SOL    HW222965   3.366   0.374   5.607  1.2133 -1.7991 -1.4205
 3836SOL     OW22966   3.883   2.401   8.551  0.0240  0.8275  0.1493
 3836SOL    HW122967   3.915   2.316   8.582  0.7601  2.2032  3.1463
 3836SOL    HW222968   3.872   2.386   8.457  0.0093 -0.9394  0.4362
 3837SOL     OW22969   2.764   4.297   4.676 -0.0704  0.1380 -0.4104
 3837SOL    HW122970   2.835   4.246   4.716 -1.6759 -1.7913 -0.0020
 3837SOL    HW222971   2.708   4.306   4.753  1.5509  2.3375  0.5362
 3838SOL     OW22972   3.293   2.336  10.179 -0.8462  0.3466 -0.8173
 3838SOL    HW122973   3.305   2.427  10.153  0.6148  0.8234  1.5408
 3838SOL    HW222974   3.330   2.331  10.267 -1.2270 -0.2632 -0.6907
 3839SOL     OW22975   4.118   1.509   3.283 -0.1348  0.7787  0.3298
 3839SOL    HW122976   4.125   1.589   3.231 -0.8529 -1.6286 -3.5530
 3839SOL    HW222977   4.165   1.446   3.228 -2.1609 -0.8392  0.4213
 3840SOL     OW22978   1.533   0.812   7.919  0.0673 -0.7043 -0.8060
 3840SOL    HW122979   1.530   0.727   7.963 -0.8888 -0.1630  0.1659
 3840SOL    HW222980   1.503   0.790   7.831 -0.5137 -2.5910 -0.1358
 3841SOL     OW22981   0.398   0.588   9.076 -0.0778  0.2495  0.3379
 3841SOL    HW122982   0.381   0.504   9.034  2.3199  0.2911 -0.6898
 3841SOL    HW222983   0.332   0.601   9.144  1.1860  1.9951  1.2253
 3842SOL     OW22984   3.718   0.782   8.939  0.1838 -0.3028  0.1101
 3842SOL    HW122985   3.695   0.832   9.017 -0.8666  0.8560 -0.9385
 3842SOL    HW222986   3.787   0.729   8.978 -0.9186 -0.8549  1.2988
 3843SOL     OW22987   1.144   3.480   1.552 -0.1465 -0.1082 -0.1304
 3843SOL    HW122988   1.164   3.534   1.629  0.8692  0.1319 -0.5598
 3843SOL    HW222989   1.153   3.544   1.481  2.0398  1.1879  1.3113
 3844SOL     OW22990   2.006   0.938   3.196  0.3751  0.2661 -0.5831
 3844SOL    HW122991   1.936   0.992   3.233  0.1565  0.1559 -0.8368
 3844SOL    HW222992   2.000   0.859   3.249 -0.3826  0.0004 -1.0684
 3845SOL     OW22993   0.341   3.530   7.987  0.3375 -0.1125 -0.3735
 3845SOL    HW122994   0.333   3.527   8.082 -1.9982 -0.8169 -0.6008
 3845SOL    HW222995   0.253   3.522   7.951  0.5180  0.4334 -0.9410
 3846SOL     OW22996   4.424   1.396   3.778 -0.2851 -0.5572 -0.4327
 3846SOL    HW122997   4.464   1.479   3.807 -4.4137  0.7680  1.5240
 3846SOL    HW222998   4.472   1.382   3.696  1.1122 -0.8649  0.4285
 3847SOL     OW22999   2.166   2.639   5.281  0.0223 -0.2102  0.4943
 3847SOL    HW123000   2.148   2.548   5.258  0.2841 -0.8003  2.7321
 3847SOL    HW223001   2.142   2.637   5.373  2.3719  1.0758  1.1267
 3848SOL     OW23002   3.210   1.337  12.936 -0.0107 -0.1420  0.0119
 3848SOL    HW123003   3.222   1.249  12.901  2.1498  0.2537 -0.1953
 3848SOL    HW223004   3.252   1.323  13.021  0.6880  0.4082 -0.2489
 3849SOL     OW23005   0.058   2.807  16.591 -0.4272  0.3917 -0.1973
 3849SOL    HW123006   0.011   2.739  16.640 -2.1763  0.2923 -2.0245
 3849SOL    HW223007   0.146   2.807  16.628 -1.1874 -0.4704  1.6536
 3850SOL     OW23008   0.457   1.217  10.425 -0.0092  0.5642  0.4909
 3850SOL    HW123009   0.516   1.152  10.387 -1.0784 -0.1668  0.0718
 3850SOL    HW223010   0.438   1.274  10.350 -1.8650  1.9171  1.9862
 3851SOL     OW23011   0.139   2.798  17.619  0.3829  0.3548 -0.0510
 3851SOL    HW123012   0.062   2.792  17.563 -0.5761  1.4892  1.1292
 3851SOL    HW223013   0.168   2.888  17.601  1.4547  0.8632  4.1666
 3852SOL     OW23014   0.795   4.432  10.186  0.0602 -0.2954 -0.7734
 3852SOL    HW123015   0.856   4.438  10.113 -0.5484  1.9059 -1.1064
 3852SOL    HW223016   0.756   4.348  10.164 -1.2109  0.4096 -1.2008
 3853SOL     OW23017   4.681   3.609   1.875 -0.6229 -0.6511 -0.4230
 3853SOL    HW123018   0.044   3.575   1.865 -0.4944 -1.3775  3.1401
 3853SOL    HW223019   4.691   3.694   1.832  0.2948  0.0895  1.2600
 3854SOL     OW23020   2.422   0.256   7.555 -0.6181 -0.1996  0.1866
 3854SOL    HW123021   2.392   0.330   7.503  0.1722 -0.6126 -0.8590
 3854SOL    HW223022   2.350   0.247   7.618 -1.0228  0.7763 -0.1355
 3855SOL     OW23023   1.159   2.231   8.965  0.0404 -0.1267  0.3486
 3855SOL    HW123024   1.077   2.280   8.965  0.4905  0.6423 -1.2527
 3855SOL    HW223025   1.230   2.296   8.966 -1.6856  1.7778 -0.7742
 3856SOL     OW23026   1.869   4.607   2.890 -0.5268  0.5940 -0.6357
 3856SOL    HW123027   1.949   4.647   2.925  1.0471 -2.8020 -0.3803
 3856SOL    HW223028   1.806   4.675   2.912 -0.9036 -0.6357  2.1265
 3857SOL     OW23029   3.051   0.099  14.839  0.0810 -0.9826  0.0918
 3857SOL    HW123030   3.144   0.094  14.860 -0.4539  0.8223  2.8645
 3857SOL    HW223031   3.036   0.191  14.817  2.7085 -0.7156 -0.5247
 3858SOL     OW23032   0.681   2.436  10.224  0.0949  0.3953 -0.5090
 3858SOL    HW123033   0.771   2.427  10.256 -0.8411 -0.2658  1.9613
 3858SOL    HW223034   0.649   2.346  10.228 -0.3997  0.6702  1.4570
 3859SOL     OW23035   1.083   3.505   7.680 -0.1788  0.1809  0.4374
 3859SOL    HW123036   0.994   3.482   7.651  0.2266  0.9112 -1.3861
 3859SOL    HW223037   1.059   3.582   7.732  1.8656  1.0336  0.1282
 3860SOL     OW23038   3.206   0.304   5.705  0.0452 -0.1530  0.0351
 3860SOL    HW123039   3.192   0.217   5.668  1.2775 -1.0796  1.7787
 3860SOL    HW223040   3.119   0.345   5.706  0.4571  0.7246  0.5205
 3861SOL     OW23041   4.203   1.384   0.646  0.1199  0.0719 -0.3543
 3861SOL    HW123042   4.163   1.363   0.730 -0.9359 -1.6824 -1.2781
 3861SOL    HW223043   4.162   1.318   0.590 -0.0200 -0.6966  0.6490
 3862SOL     OW23044   4.720   0.441   3.643 -0.0555  0.1676  0.1326
 3862SOL    HW123045   0.042   0.358   3.646  0.9977  0.8175  1.2197
 3862SOL    HW223046   0.048   0.499   3.697 -1.1766  1.1956  0.1261
 3863SOL     OW23047   4.386   4.042   1.381 -0.0669  0.2963  0.5790
 3863SOL    HW123048   4.412   3.976   1.318  2.1604 -0.4549  2.3028
 3863SOL    HW223049   4.375   4.112   1.317 -2.2843 -1.5120 -1.0081
 3864SOL     OW23050   0.186   0.352  17.335  0.4289  0.5530 -0.6286
 3864SOL    HW123051   0.097   0.368  17.365  0.4499  2.2497 -1.4411
 3864SOL    HW223052   0.172   0.267  17.292  0.3006 -0.3694  1.2605
 3865SOL     OW23053   4.465   1.389   1.625 -0.3243  0.5342 -0.3354
 3865SOL    HW123054   4.554   1.392   1.660 -0.5941 -1.0403  0.5455
 3865SOL    HW223055   4.458   1.294   1.609  0.1563  0.8588 -2.4331
 3866SOL     OW23056   3.949   4.405   7.541 -0.3440 -0.0061 -0.1218
 3866SOL    HW123057   3.871   4.447   7.577 -1.1178 -2.8191  1.4803
 3866SOL    HW223058   3.912   4.374   7.458  1.7597  2.7347 -2.0959
 3867SOL     OW23059   4.314   0.041   2.959 -0.1504 -0.7561  0.2940
 3867SOL    HW123060   4.390   0.067   2.907 -0.5424 -2.4879 -1.1669
 3867SOL    HW223061   4.353   4.720   3.034 -1.0270  0.9690  1.8125
 3868SOL     OW23062   0.480   4.115  10.918  0.7378  0.6333  0.0233
 3868SOL    HW123063   0.539   4.075  10.856 -0.2551  1.2189 -1.2941
 3868SOL    HW223064   0.433   4.174  10.859  0.1941 -1.9018 -2.0534
 3869SOL     OW23065   3.202   4.413  14.240  0.0069  0.2961  0.2663
 3869SOL    HW123066   3.110   4.415  14.212  0.0957  1.1918  0.0458
 3869SOL    HW223067   3.241   4.471  14.175  0.3672 -0.0768  0.1510
 3870SOL     OW23068   2.044   3.123   4.841  0.1689 -0.3609 -0.2418
 3870SOL    HW123069   2.112   3.167   4.890 -0.4625  0.8645 -0.4608
 3870SOL    HW223070   1.961   3.155   4.877 -0.9695 -2.5400 -0.8789
 3871SOL     OW23071   0.047   1.749   2.066 -0.5118 -0.3146 -0.1137
 3871SOL    HW123072   4.721   1.694   2.008 -0.5683 -0.3231 -0.0552
 3871SOL    HW223073   0.130   1.702   2.076 -0.3623 -0.0148  0.0570
 3872SOL     OW23074   0.748   1.903   3.490  0.2752  0.4482 -0.2054
 3872SOL    HW123075   0.810   1.929   3.559  0.8249 -1.8859  0.1792
 3872SOL    HW223076   0.719   1.986   3.452  0.0957  0.5669  0.1938
 3873SOL     OW23077   0.087   0.740   8.989 -0.0630  0.3317  0.8773
 3873SOL    HW123078   0.161   0.800   8.981 -0.0996  0.5122  1.8527
 3873SOL    HW223079   0.021   0.808   8.998  1.9931  2.3823  0.4075
 3874SOL     OW23080   1.933   3.590  15.626 -0.1411 -0.5242  0.0320
 3874SOL    HW123081   2.018   3.617  15.591 -0.4027  0.7365  0.3772
 3874SOL    HW223082   1.958   3.558  15.713 -2.9226 -1.7432  0.3836
 3875SOL     OW23083   3.715   3.961   2.138 -0.0068 -0.7488 -0.2450
 3875SOL    HW123084   3.794   3.998   2.098 -0.4498 -0.5937 -0.9774
 3875SOL    HW223085   3.735   3.867   2.138  1.1212 -0.5243 -2.4482
 3876SOL     OW23086   2.361   1.029   1.359  0.1850 -0.6957  0.0310
 3876SOL    HW123087   2.374   1.078   1.440  0.1217 -1.9275  0.7983
 3876SOL    HW223088   2.334   0.945   1.397 -1.0979 -0.1725  0.2995
 3877SOL     OW23089   2.577   2.778   5.019 -0.1691 -0.2383 -0.3426
 3877SOL    HW123090   2.536   2.819   5.095  0.0182 -2.2776  0.8557
 3877SOL    HW223091   2.669   2.768   5.045 -0.3955 -1.0431  0.1598
 3878SOL     OW23092   0.205   2.868  11.629  0.1310  0.3524  0.4286
 3878SOL    HW123093   0.187   2.859  11.722 -3.3783  0.0884 -0.2755
 3878SOL    HW223094   0.259   2.791  11.611  1.5085  1.0264  1.7252
 3879SOL     OW23095   2.954   3.367   2.938  0.2807  0.3359  0.0966
 3879SOL    HW123096   2.940   3.352   2.845 -0.0489 -0.5219  0.2876
 3879SOL    HW223097   3.047   3.348   2.954  0.4138  0.9890  0.0958
 3880SOL     OW23098   4.595   0.501   5.637 -0.1063  0.9712  0.5651
 3880SOL    HW123099   4.568   0.432   5.697  0.8780  0.1296  0.0482
 3880SOL    HW223100   4.660   0.544   5.692  0.0655  0.2787  0.9092
 3881SOL     OW23101   2.619   1.083   0.675  0.1673  0.2456  0.9185
 3881SOL    HW123102   2.675   1.153   0.639 -1.8877  0.2500 -2.1819
 3881SOL    HW223103   2.616   1.010   0.614 -2.1793  1.1154  0.0087
 3882SOL     OW23104   1.480   3.555   9.325  0.0397  0.1164  0.0077
 3882SOL    HW123105   1.438   3.570   9.410  1.0077 -0.8814  0.6620
 3882SOL    HW223106   1.569   3.547   9.359  0.7756  0.7044 -1.7856
 3883SOL     OW23107   2.511   0.432  14.459  0.0167  0.0848 -0.0645
 3883SOL    HW123108   2.496   0.438  14.365  0.7557  0.2564 -0.1690
 3883SOL    HW223109   2.596   0.388  14.467  1.3759  2.5445 -1.1632
 3884SOL     OW23110   2.117   1.467  10.909  0.8488  0.3728 -0.2122
 3884SOL    HW123111   2.072   1.424  10.836  2.3036 -0.6459 -0.5069
 3884SOL    HW223112   2.073   1.423  10.981 -0.4555  2.4262  0.2649
 3885SOL     OW23113   1.648   3.502  12.091  0.3813  0.6205  0.5076
 3885SOL    HW123114   1.637   3.579  12.147  0.7013  1.6293 -0.8252
 3885SOL    HW223115   1.578   3.522  12.029  0.0331  0.5308  0.8705
 3886SOL     OW23116   3.789   2.721   8.340 -0.4457  1.0506 -0.4718
 3886SOL    HW123117   3.697   2.747   8.346 -0.4917  0.2726  2.2021
 3886SOL    HW223118   3.802   2.708   8.246 -1.9794  0.7788 -0.6503
 3887SOL     OW23119   3.244   2.950   2.021 -0.1262  0.2365 -0.2884
 3887SOL    HW123120   3.313   2.888   2.000  0.6123  0.9379  0.0443
 3887SOL    HW223121   3.200   2.953   1.936  0.5429 -0.8465 -0.6679
 3888SOL     OW23122   2.884   4.319   2.506 -0.0868  0.1927 -0.3827
 3888SOL    HW123123   2.974   4.292   2.487 -0.5265  0.3642 -2.7545
 3888SOL    HW223124   2.839   4.258   2.447 -2.7325  0.7645  1.0620
 3889SOL     OW23125   3.491   2.080   7.843  0.3281 -0.9243  0.2748
 3889SOL    HW123126   3.492   1.986   7.858 -0.4253 -1.0322 -0.3244
 3889SOL    HW223127   3.461   2.074   7.752 -1.0290 -1.7635  0.7963
 3890SOL     OW23128   0.732   4.183  10.487  0.0637 -0.3166 -0.1826
 3890SOL    HW123129   0.762   4.148  10.403 -1.3532 -1.5900 -0.1743
 3890SOL    HW223130   0.821   4.198  10.519  0.4299  0.1499 -1.3908
 3891SOL     OW23131   1.120   4.081   5.033 -0.2252  0.2004 -0.0604
 3891SOL    HW123132   1.114   3.993   5.072  0.7932 -0.6639 -1.8669
 3891SOL    HW223133   1.194   4.123   5.077  1.4163  0.0119 -2.6342
 3892SOL     OW23134   0.278   0.276   6.409  0.0435  0.2263  0.2524
 3892SOL    HW123135   0.342   0.347   6.421 -2.4969  2.2349  1.8967
 3892SOL    HW223136   0.243   0.272   6.498 -1.4833 -1.8102 -0.4336
 3893SOL     OW23137   0.696   2.693  13.501  0.1074 -0.1522  0.0905
 3893SOL    HW123138   0.748   2.624  13.460  0.7900  0.3608  0.0918
 3893SOL    HW223139   0.696   2.673  13.595  0.9301  1.8972  0.5244
 3894SOL     OW23140   1.248   0.987  10.895 -0.0277 -0.0188  0.0951
 3894SOL    HW123141   1.252   1.083  10.897 -0.3983 -0.0070  0.2560
 3894SOL    HW223142   1.312   0.967  10.827  0.0555 -0.0452  0.1819
 3895SOL     OW23143   1.271   0.046   5.970 -0.7094 -0.2383 -0.3211
 3895SOL    HW123144   1.243   0.064   6.059  1.3299 -3.1152  0.9152
 3895SOL    HW223145   1.327   4.694   5.978 -0.2636  0.2714  1.5211
 3896SOL     OW23146   1.887   2.536   4.668  0.0246 -0.1340 -0.2394
 3896SOL    HW123147   1.888   2.506   4.577  0.5647 -1.2869  0.1546
 3896SOL    HW223148   1.889   2.632   4.663 -3.9910 -0.0256  0.2888
 3897SOL     OW23149   4.597   0.521   1.900 -0.1769 -0.5320  0.0994
 3897SOL    HW123150   4.619   0.505   1.808 -2.2101 -2.1714 -0.0779
 3897SOL    HW223151   4.592   0.617   1.901 -0.1130 -0.5197 -0.4203
 3898SOL     OW23152   1.304   4.651   7.487 -0.7328 -0.3145  0.4657
 3898SOL    HW123153   1.349   4.576   7.447 -1.5750  0.5455 -2.1116
 3898SOL    HW223154   1.311   4.703   7.407  2.0875 -0.4316  0.6596
 3899SOL     OW23155   1.309   3.926  17.101  0.1973 -0.1181 -0.0062
 3899SOL    HW123156   1.334   4.016  17.079  0.6280 -0.2540 -0.0781
 3899SOL    HW223157   1.388   3.872  17.105 -0.8249 -1.5861  0.2198
 3900SOL     OW23158   0.058   1.125  10.269  0.3650 -0.1650  0.0395
 3900SOL    HW123159   0.063   1.116  10.364  0.5785 -0.1602  0.0274
 3900SOL    HW223160   0.031   1.035  10.253  1.0369 -0.4619  0.5823
 3901SOL     OW23161   2.627   1.455   1.886  0.5219  0.3332  0.4599
 3901SOL    HW123162   2.660   1.543   1.865 -1.9729  1.5800  1.6828
 3901SOL    HW223163   2.658   1.434   1.974  0.3929 -0.9798  0.1863
 3902SOL     OW23164   3.213   4.215  10.535 -0.3558  0.4373 -0.1618
 3902SOL    HW123165   3.255   4.275  10.597  0.9945 -1.6958  0.9811
 3902SOL    HW223166   3.176   4.145  10.589  0.5296  0.2114  0.1572
 3903SOL     OW23167   3.219   3.017   3.528 -0.6345  0.3159 -0.6635
 3903SOL    HW123168   3.190   2.931   3.558  1.9594  0.2987  1.7949
 3903SOL    HW223169   3.140   3.050   3.485  0.4204  1.7654 -1.4901
 3904SOL     OW23170   1.300   0.009  12.143 -0.2172  0.5156 -0.6760
 3904SOL    HW123171   1.353   0.005  12.064  0.1420  0.7255 -0.4495
 3904SOL    HW223172   1.363   4.723  12.215 -1.2121  0.6197  0.2237
 3905SOL     OW23173   2.677   2.400  14.966  0.0445  0.0021  0.2940
 3905SOL    HW123174   2.707   2.361  15.049 -0.4034 -1.7118 -0.3509
 3905SOL    HW223175   2.615   2.465  14.998 -0.6382  0.0871 -1.2063
 3906SOL     OW23176   3.496   0.566   1.162  0.5330 -0.1714  0.1921
 3906SOL    HW123177   3.437   0.557   1.237  0.9094 -1.1993  0.3732
 3906SOL    HW223178   3.468   0.492   1.108  1.8752  0.6926 -1.6613
 3907SOL     OW23179   0.011   0.435   2.430  0.6165  0.6604 -0.1170
 3907SOL    HW123180   0.083   0.374   2.446 -0.2444 -0.3561 -0.1236
 3907SOL    HW223181   0.021   0.487   2.510  0.7290  3.1251 -1.7390
 3908SOL     OW23182   4.124   3.939   3.085  0.4770  0.4376 -0.0635
 3908SOL    HW123183   4.104   3.925   2.992  1.9392 -2.0757  0.0130
 3908SOL    HW223184   4.128   4.035   3.089  3.3286  0.4305 -2.3895
 3909SOL     OW23185   3.800   3.494   4.817 -0.1392  0.0339 -0.0684
 3909SOL    HW123186   3.795   3.414   4.765  0.2152  0.7599 -1.2226
 3909SOL    HW223187   3.892   3.517   4.799 -0.5472  1.0203 -0.8969
 3910SOL     OW23188   2.682   2.539  16.581 -0.3590 -0.7725 -0.0337
 3910SOL    HW123189   2.642   2.464  16.625 -0.4586 -1.3017 -1.0263
 3910SOL    HW223190   2.750   2.491  16.535  1.0172 -1.7834  3.0721
 3911SOL     OW23191   4.718   4.434   3.715 -0.3967  0.3126 -0.5644
 3911SOL    HW123192   4.680   4.346   3.720 -0.3067  0.3107  0.1396
 3911SOL    HW223193   4.691   4.477   3.796 -0.7891  1.1147 -1.1264
 3912SOL     OW23194   0.983   3.542  16.919  0.1972 -0.5755  0.0042
 3912SOL    HW123195   1.061   3.593  16.944 -0.4897  0.2735  0.4533
 3912SOL    HW223196   0.945   3.500  16.996 -3.0006  0.4158 -1.0567
 3913SOL     OW23197   2.280   4.459   1.108 -0.2023 -0.9969  0.2796
 3913SOL    HW123198   2.319   4.512   1.178  1.6838 -2.0434  0.0199
 3913SOL    HW223199   2.345   4.388   1.111  0.6077 -0.2300  1.0279
 3914SOL     OW23200   2.060   1.983   4.469  0.1361  0.3724  0.2788
 3914SOL    HW123201   2.072   1.892   4.440  0.1612 -0.1609  1.9524
 3914SOL    HW223202   2.114   1.984   4.549 -0.9802  1.2636  1.0101
 3915SOL     OW23203   4.614   1.901   6.730  0.4947 -0.2119 -0.2835
 3915SOL    HW123204   4.560   1.835   6.685 -0.0066  1.1261 -1.6558
 3915SOL    HW223205   4.671   1.835   6.769 -0.4661 -0.9276 -0.0970
 3916SOL     OW23206   3.659   2.882  11.149  0.1940  0.3686  0.3017
 3916SOL    HW123207   3.743   2.926  11.134  1.5083 -2.2923 -0.2136
 3916SOL    HW223208   3.632   2.866  11.058 -0.5149 -0.9006  0.7452
 3917SOL     OW23209   0.092   2.568   6.196 -0.2090 -0.0123  0.8119
 3917SOL    HW123210   0.090   2.526   6.110 -0.5190  1.2196  0.2115
 3917SOL    HW223211   0.009   2.617   6.199 -0.4834 -0.4542  0.4745
 3918SOL     OW23212   1.384   4.603   6.744 -0.4266 -0.1952 -0.0901
 3918SOL    HW123213   1.388   4.509   6.762  2.5200 -0.1932 -0.8214
 3918SOL    HW223214   1.479   4.615   6.746 -0.3858 -0.1896 -2.5802
 3919SOL     OW23215   3.508   1.331   4.418  0.2191  0.1702  0.0573
 3919SOL    HW123216   3.485   1.366   4.505  0.2614  0.7274 -0.1542
 3919SOL    HW223217   3.593   1.374   4.409  0.9595 -0.9297  1.8402
 3920SOL     OW23218   0.359   3.925   7.142  0.5947 -0.0382 -0.3698
 3920SOL    HW123219   0.377   3.833   7.161  2.5789  0.7458  1.4450
 3920SOL    HW223220   0.383   3.914   7.050  1.2849  0.7662 -0.2821
 3921SOL     OW23221   4.130   1.783   3.492 -0.7386  0.1273  0.4120
 3921SOL    HW123222   4.155   1.733   3.570  0.7083  0.4687  0.1761
 3921SOL    HW223223   4.207   1.778   3.434  1.1837 -0.4145  2.9874
 3922SOL     OW23224   0.210   1.943   8.598 -0.9839  0.0274 -0.1386
 3922SOL    HW123225   0.287   1.903   8.639 -1.8051 -0.7941  0.6099
 3922SOL    HW223226   0.148   1.874   8.575 -1.2375  1.2708 -3.1356
 3923SOL     OW23227   1.308   0.484  16.679  0.0897  1.0012  0.1602
 3923SOL    HW123228   1.221   0.493  16.718  0.8017  0.2731  1.9233
 3923SOL    HW223229   1.322   0.389  16.680 -0.4459  0.9167 -0.4533
 3924SOL     OW23230   3.433   2.968   7.237  0.5309  0.0205  0.0465
 3924SOL    HW123231   3.466   2.915   7.310  0.7362 -0.6981 -0.5629
 3924SOL    HW223232   3.513   3.014   7.212 -0.1427 -0.5053 -3.1413
 3925SOL     OW23233   4.460   0.928  11.001 -0.0770  0.2756  1.0813
 3925SOL    HW123234   4.546   0.894  10.977  1.0694  2.9484  1.3562
 3925SOL    HW223235   4.487   1.008  11.048 -2.5993  2.1718 -0.7472
 3926SOL     OW23236   1.629   2.775  16.820  0.2924 -0.3702 -0.0710
 3926SOL    HW123237   1.660   2.840  16.883  0.8607  0.4967 -1.2517
 3926SOL    HW223238   1.541   2.809  16.802 -0.3232 -0.2661  3.1684
 3927SOL     OW23239   0.960   1.761   8.420 -0.3452 -0.2427 -0.2279
 3927SOL    HW123240   1.011   1.756   8.500 -0.2702  0.1557 -0.2490
 3927SOL    HW223241   0.894   1.817   8.460  0.9918  1.2930 -0.1839
 3928SOL     OW23242   1.782   2.555   9.547  0.6771 -0.3634  0.1031
 3928SOL    HW123243   1.755   2.463   9.556  0.0953 -0.2683 -0.6654
 3928SOL    HW223244   1.703   2.594   9.511  0.5249 -0.2494  0.5557
 3929SOL     OW23245   4.483   2.079   1.713 -0.1544 -0.6582 -0.0967
 3929SOL    HW123246   4.535   2.084   1.793 -1.2742 -0.6130  0.6244
 3929SOL    HW223247   4.404   2.040   1.751 -1.4359  2.3954  0.3135
 3930SOL     OW23248   0.718   4.448   0.628  0.1213 -0.2933 -0.2835
 3930SOL    HW123249   0.727   4.479   0.718  0.5939 -0.2913 -0.3304
 3930SOL    HW223250   0.688   4.525   0.580 -1.8708 -1.7420 -1.3622
 3931SOL     OW23251   1.962   1.778  12.966 -0.5220  0.1843 -0.2432
 3931SOL    HW123252   1.987   1.724  13.041 -0.8563 -0.9586 -0.9423
 3931SOL    HW223253   1.881   1.821  12.993 -1.2084 -1.0344 -0.3516
 3932SOL     OW23254   0.871   2.594   2.007 -0.1264 -0.3115  0.2123
 3932SOL    HW123255   0.962   2.623   1.995 -0.4717  1.1751  1.1555
 3932SOL    HW223256   0.839   2.678   2.040  0.5502  1.3348 -3.3530
 3933SOL     OW23257   1.096   4.235   7.111 -0.2317 -0.2610  0.1271
 3933SOL    HW123258   1.121   4.327   7.116  0.2638 -0.3367 -0.9384
 3933SOL    HW223259   1.068   4.220   7.021 -0.8114 -0.1217  0.2887
 3934SOL     OW23260   4.076   3.267  16.171 -0.4666  0.3317  0.0253
 3934SOL    HW123261   4.115   3.325  16.106 -0.4549  2.9891  2.4207
 3934SOL    HW223262   3.987   3.300  16.162 -0.5815 -1.4432 -5.4064
 3935SOL     OW23263   4.196   2.123   7.784  0.2113 -0.5688 -0.3863
 3935SOL    HW123264   4.237   2.206   7.763  0.6766 -1.2656 -2.2586
 3935SOL    HW223265   4.103   2.144   7.793  0.6613  2.0474 -1.8169
 3936SOL     OW23266   3.167   0.789   7.585  0.2700 -0.1066  0.0099
 3936SOL    HW123267   3.178   0.776   7.679 -2.4313  0.0902  0.3666
 3936SOL    HW223268   3.239   0.848   7.566 -0.5732  0.8313 -0.2681
 3937SOL     OW23269   3.196   3.477   4.978 -0.0399 -0.6589  0.1268
 3937SOL    HW123270   3.247   3.405   5.016  2.2656  0.7809 -0.2596
 3937SOL    HW223271   3.247   3.493   4.899 -0.5750  1.4864  0.2251
 3938SOL     OW23272   4.575   4.350  10.658  0.3859 -0.5202 -0.2463
 3938SOL    HW123273   4.655   4.300  10.645  1.5775  1.5918 -0.9618
 3938SOL    HW223274   4.575   4.415  10.587  0.2853  1.4810  1.5675
 3939SOL     OW23275   3.724   3.732  11.618  0.2769  0.1446 -0.0757
 3939SOL    HW123276   3.693   3.762  11.704  1.8736  1.4305  0.0517
 3939SOL    HW223277   3.700   3.808  11.567 -0.1179  2.1254  3.0501
 3940SOL     OW23278   1.936   3.393   4.195  0.4354  0.2266  0.3756
 3940SOL    HW123279   1.878   3.418   4.123  0.6812  1.8920  0.7491
 3940SOL    HW223280   1.945   3.299   4.180 -0.6735 -0.0655  1.5178
 3941SOL     OW23281   2.827   3.417  10.606 -0.2714  0.0790  0.0072
 3941SOL    HW123282   2.821   3.425  10.701  0.5649  0.7748 -0.0051
 3941SOL    HW223283   2.905   3.466  10.582 -0.8577  0.1774 -1.7508
 3942SOL     OW23284   3.981   3.584   8.482 -0.4364  0.6887  0.8292
 3942SOL    HW123285   4.074   3.596   8.501 -0.1846  0.4228 -0.2439
 3942SOL    HW223286   3.947   3.669   8.512  0.0176  0.8070  1.0076
 3943SOL     OW23287   2.609   1.425  13.039  0.2586 -0.0668 -0.8190
 3943SOL    HW123288   2.576   1.416  13.129 -4.4140 -1.9785 -2.7471
 3943SOL    HW223289   2.633   1.335  13.016 -0.3121 -0.1862 -0.9477
 3944SOL     OW23290   3.545   3.152   7.825 -0.4037  0.2159  0.0590
 3944SOL    HW123291   3.542   3.150   7.729 -0.0657  0.6424  0.0384
 3944SOL    HW223292   3.451   3.139   7.842 -0.3631 -1.2356 -0.8876
 3945SOL     OW23293   1.410   4.564   8.687 -0.3109  0.3638 -0.7076
 3945SOL    HW123294   1.493   4.608   8.671 -1.2011  1.7620 -1.5217
 3945SOL    HW223295   1.358   4.639   8.717 -0.9953  0.2897 -1.6830
 3946SOL     OW23296   0.655   2.374   3.455 -0.5073 -0.9164  0.0110
 3946SOL    HW123297   0.691   2.296   3.414 -1.2323  0.1772 -2.6842
 3946SOL    HW223298   0.696   2.433   3.391  0.0333 -0.7760  0.4784
 3947SOL     OW23299   2.896   1.253   7.889  0.2491  0.5910  0.1112
 3947SOL    HW123300   2.875   1.322   7.826 -1.3766  2.2815  2.5171
 3947SOL    HW223301   2.992   1.250   7.888  0.2962  2.0880  0.0564
 3948SOL     OW23302   4.073   3.657   3.133  0.1831  0.2295 -0.5603
 3948SOL    HW123303   4.098   3.665   3.225  0.5511 -1.6652 -0.4912
 3948SOL    HW223304   4.087   3.745   3.099 -1.5120  0.8978  0.4919
 3949SOL     OW23305   0.545   2.957   7.099 -0.7818  0.2061  0.3870
 3949SOL    HW123306   0.474   2.972   7.161 -0.1144 -1.7255  1.5984
 3949SOL    HW223307   0.618   2.982   7.155  1.6723 -0.6600 -2.3755
 3950SOL     OW23308   0.427   2.108  17.412  0.0309 -0.5537 -0.1988
 3950SOL    HW123309   0.395   2.197  17.432  0.3026 -0.4405 -0.2696
 3950SOL    HW223310   0.427   2.121  17.317  2.2036  1.9550  0.1316
 3951SOL     OW23311   0.745   2.502   9.149  0.1873 -0.3892 -0.0594
 3951SOL    HW123312   0.697   2.471   9.226 -0.3426 -0.0744 -0.2640
 3951SOL    HW223313   0.718   2.593   9.152  1.4751 -0.0283  0.5275
 3952SOL     OW23314   4.115   3.880   6.533  0.0452 -0.1080 -0.5979
 3952SOL    HW123315   4.092   3.927   6.613  2.3196 -0.7061  0.4110
 3952SOL    HW223316   4.137   3.951   6.472 -1.0051  1.3956  0.7768
 3953SOL     OW23317   2.821   3.773   7.708 -0.2186 -0.1791  0.5861
 3953SOL    HW123318   2.906   3.759   7.749  0.3159 -0.4961 -0.6168
 3953SOL    HW223319   2.814   3.692   7.659  1.8128 -0.4703  0.7600
 3954SOL     OW23320   4.184   4.464   4.645  0.3638  0.5916  0.1068
 3954SOL    HW123321   4.118   4.526   4.676  2.2054  1.4504  2.3177
 3954SOL    HW223322   4.172   4.456   4.550  0.2236  0.4843  0.1343
 3955SOL     OW23323   2.348   3.150   9.844  0.0881  0.2329 -0.8565
 3955SOL    HW123324   2.364   3.148   9.750 -0.7619 -1.0965 -0.9796
 3955SOL    HW223325   2.434   3.177   9.877 -0.4664 -0.1083  0.9159
 3956SOL     OW23326   1.917   2.260   4.149  0.5963 -0.3305 -0.4881
 3956SOL    HW123327   1.997   2.230   4.192  2.4109  4.4700 -0.4929
 3956SOL    HW223328   1.881   2.301   4.227  2.5893  0.1410  0.1887
 3957SOL     OW23329   1.405   0.084   7.690 -0.2955 -0.0890 -0.2797
 3957SOL    HW123330   1.493   0.084   7.651 -1.1098 -1.6012 -2.0900
 3957SOL    HW223331   1.357   0.024   7.633  0.2267 -1.3715  0.6459
 3958SOL     OW23332   2.072   1.086   9.032  0.0313 -0.5774  0.0738
 3958SOL    HW123333   1.983   1.120   9.038  1.3124  2.1340  4.1376
 3958SOL    HW223334   2.078   1.037   9.114  0.4162  0.2692  0.5519
 3959SOL     OW23335   3.702   3.209  16.909  0.1484 -0.2277  0.2672
 3959SOL    HW123336   3.667   3.154  16.979 -2.2366 -0.6856 -1.3045
 3959SOL    HW223337   3.649   3.172  16.839  0.6151  0.9435 -0.7131
 3960SOL     OW23338   0.700   3.819   5.411  0.4906  0.0017 -0.6954
 3960SOL    HW123339   0.795   3.824   5.403  0.5081  0.7724  0.0566
 3960SOL    HW223340   0.686   3.759   5.484 -1.0314 -0.4725 -1.3744
 3961SOL     OW23341   1.057   0.667   7.457 -0.4639 -0.3740 -0.3184
 3961SOL    HW123342   1.143   0.625   7.457 -1.4213 -2.3274 -0.3877
 3961SOL    HW223343   1.011   0.608   7.517  1.8559  0.1559  1.9836
 3962SOL     OW23344   1.968   0.329  10.055  0.2799 -0.4754  0.7901
 3962SOL    HW123345   1.926   0.315   9.970 -1.3104  1.0769  1.3436
 3962SOL    HW223346   1.975   0.424  10.055 -0.2216 -0.4425  2.0949
 3963SOL     OW23347   3.830   2.574   2.893 -0.4666  0.2863  0.2928
 3963SOL    HW123348   3.889   2.585   2.819  1.5363  0.9827  1.9936
 3963SOL    HW223349   3.745   2.569   2.850 -0.0909  1.8165 -0.6124
 3964SOL     OW23350   0.731   2.680   4.290 -0.6446 -0.1625 -0.6330
 3964SOL    HW123351   0.655   2.690   4.348 -0.0657 -1.4400  0.3463
 3964SOL    HW223352   0.704   2.609   4.232  0.9135 -0.3733 -1.0999
 3965SOL     OW23353   3.797   1.854   5.867  0.0419  0.2152 -0.1375
 3965SOL    HW123354   3.756   1.874   5.952  0.4661  1.4910 -0.2298
 3965SOL    HW223355   3.824   1.762   5.873  0.3994  0.2888 -0.6628
 3966SOL     OW23356   0.601   1.606   9.416  0.3649 -0.2619 -0.0579
 3966SOL    HW123357   0.670   1.555   9.375  1.9790  1.7466  0.1647
 3966SOL    HW223358   0.607   1.584   9.509  0.4549  0.2381  0.0565
 3967SOL     OW23359   0.741   0.885   2.875  0.8474  0.7805 -0.3400
 3967SOL    HW123360   0.790   0.854   2.952 -0.3899 -0.2288  0.0531
 3967SOL    HW223361   0.652   0.884   2.911  0.6108  0.4672 -0.9235
 3968SOL     OW23362   2.588   3.216   9.961 -0.0856  0.1011  0.0999
 3968SOL    HW123363   2.656   3.162  10.002 -0.5878 -0.5487  0.0623
 3968SOL    HW223364   2.606   3.308   9.981 -0.8143  0.4683 -0.9555
 3969SOL     OW23365   1.738   1.224   0.828 -0.1340 -0.2607 -0.8680
 3969SOL    HW123366   1.697   1.250   0.910 -1.1088 -0.9614 -1.1411
 3969SOL    HW223367   1.711   1.132   0.825  0.5992 -0.4387 -2.1839
 3970SOL     OW23368   1.627   1.501   5.058 -0.0958 -0.0465  0.2020
 3970SOL    HW123369   1.684   1.519   4.983  2.4873  1.2832  2.4642
 3970SOL    HW223370   1.688   1.458   5.118 -0.4320 -0.6816  0.0824
 3971SOL     OW23371   4.636   2.877   0.134  0.4354  0.4459 -0.4359
 3971SOL    HW123372   4.696   2.913   0.068 -1.0708 -1.4432 -2.8342
 3971SOL    HW223373   4.663   2.922   0.213  0.3870 -0.4686  0.1073
 3972SOL     OW23374   4.049   1.215   9.297 -0.0580  0.8117  0.2181
 3972SOL    HW123375   4.116   1.271   9.259 -0.2859  0.5828 -0.5214
 3972SOL    HW223376   4.101   1.157   9.353 -0.1347  0.9489  0.4317
 3973SOL     OW23377   2.245   3.378   4.613 -0.8270  0.2967  0.5253
 3973SOL    HW123378   2.240   3.394   4.519  1.7903 -0.6289  0.2508
 3973SOL    HW223379   2.288   3.293   4.623  2.3427  1.7939 -0.5359
 3974SOL     OW23380   3.524   3.084   2.409 -0.4550 -0.2261  0.5631
 3974SOL    HW123381   3.465   3.158   2.420  1.1120  0.8052  2.0338
 3974SOL    HW223382   3.565   3.107   2.325  0.3599 -0.2602  0.9457
 3975SOL     OW23383   3.726   3.125   4.143  0.0148  0.1061  0.0093
 3975SOL    HW123384   3.801   3.073   4.173 -1.1430 -2.2327 -1.1772
 3975SOL    HW223385   3.750   3.217   4.154  0.4910  0.1162 -1.1331
 3976SOL     OW23386   1.593   2.521   4.112  0.0139  0.0631  0.1672
 3976SOL    HW123387   1.559   2.552   4.196 -0.6043 -1.0039  0.3027
 3976SOL    HW223388   1.637   2.594   4.068 -0.1293 -1.1804 -2.0229
 3977SOL     OW23389   3.906   2.255   7.563 -0.0112 -0.1646 -0.5048
 3977SOL    HW123390   3.942   2.184   7.511 -1.6557  0.1918 -2.1283
 3977SOL    HW223391   3.986   2.273   7.612 -0.7522  1.5893  0.0997
 3978SOL     OW23392   1.037   3.854   2.811 -0.1276  0.6177 -0.1691
 3978SOL    HW123393   1.030   3.789   2.741 -2.4099  1.4638 -0.7250
 3978SOL    HW223394   1.045   3.938   2.767  1.1699 -0.1852 -1.4614
 3979SOL     OW23395   2.530   0.645  15.312  0.7784 -0.2466 -0.7628
 3979SOL    HW123396   2.538   0.668  15.404 -2.2394 -1.7995 -0.1099
 3979SOL    HW223397   2.591   0.574  15.294 -1.4443 -2.3331 -0.0755
 3980SOL     OW23398   2.969   2.202   3.600  0.3570 -0.2429  0.2931
 3980SOL    HW123399   3.020   2.142   3.545 -0.9481 -0.0693 -1.1062
 3980SOL    HW223400   3.022   2.280   3.616 -0.0062  0.1037 -0.1972
 3981SOL     OW23401   1.787   0.838  14.845  0.3226 -0.5335 -0.5457
 3981SOL    HW123402   1.728   0.851  14.920 -1.0299 -2.9432 -1.1744
 3981SOL    HW223403   1.795   0.743  14.844 -0.4885 -0.5757 -3.3178
 3982SOL     OW23404   1.412   4.236   5.465 -0.0438  0.1141  0.0651
 3982SOL    HW123405   1.317   4.237   5.474  0.0748  0.0212  1.3150
 3982SOL    HW223406   1.431   4.323   5.429  0.8380  0.7851  2.1454
 3983SOL     OW23407   2.178   0.729   0.219 -0.2461  0.3950  0.4168
 3983SOL    HW123408   2.101   0.709   0.166  0.2006 -1.5847  0.4955
 3983SOL    HW223409   2.217   0.642   0.224  0.4529  0.7032  0.3478
 3984SOL     OW23410   3.086   3.651   3.979  0.2325  0.3529 -0.5733
 3984SOL    HW123411   3.044   3.665   3.895  0.5810 -0.9095 -0.9593
 3984SOL    HW223412   3.068   3.735   4.022 -0.1929  0.3576 -0.7715
 3985SOL     OW23413   2.683   3.459   9.358  0.8655  0.1201  0.4590
 3985SOL    HW123414   2.772   3.438   9.331  0.8341  0.9411 -0.2746
 3985SOL    HW223415   2.686   3.555   9.353  1.4233  0.1755  1.7071
 3986SOL     OW23416   4.114   3.771   2.543 -0.5291  0.4939  0.3738
 3986SOL    HW123417   4.155   3.745   2.460 -2.4873 -0.2549 -0.3799
 3986SOL    HW223418   4.020   3.753   2.530 -0.0286 -2.2486  0.5525
 3987SOL     OW23419   2.378   2.723   5.781  0.4131 -0.1962  0.1460
 3987SOL    HW123420   2.454   2.767   5.743 -0.8269  0.6524 -1.3437
 3987SOL    HW223421   2.322   2.789   5.822  1.1627 -0.2817  1.2956
 3988SOL     OW23422   3.130   0.869   6.440 -0.1999  0.1768 -0.6679
 3988SOL    HW123423   3.200   0.808   6.463  0.4871  0.9427 -0.7298
 3988SOL    HW223424   3.100   0.894   6.527  2.6421  1.4776 -0.0672
 3989SOL     OW23425   1.817   3.974   8.015  0.0263  0.5531  0.6902
 3989SOL    HW123426   1.835   4.059   7.976 -0.0976  0.0481 -0.4825
 3989SOL    HW223427   1.887   3.928   7.968  0.1540  0.7219  0.7175
 3990SOL     OW23428   2.148   0.902   5.524 -0.2289  0.7354  0.5318
 3990SOL    HW123429   2.220   0.959   5.497  0.1639  0.5805  1.2582
 3990SOL    HW223430   2.150   0.826   5.465 -0.8847 -0.1881  1.7112
 3991SOL     OW23431   1.382   1.741   2.754  0.2686 -0.1367 -0.3004
 3991SOL    HW123432   1.348   1.652   2.755 -0.9825  0.3491  0.7756
 3991SOL    HW223433   1.382   1.754   2.659  0.9780  0.1962 -0.2516
 3992SOL     OW23434   1.934   4.014   0.537  0.0396 -0.0237 -0.3164
 3992SOL    HW123435   1.904   3.930   0.571  1.3631  0.1634  1.3029
 3992SOL    HW223436   2.010   3.995   0.483  0.5925 -2.0009  1.1551
 3993SOL     OW23437   4.413   1.386   4.448  0.6197 -0.9494  0.0470
 3993SOL    HW123438   4.508   1.394   4.457  0.5669 -0.9300  0.5550
 3993SOL    HW223439   4.391   1.446   4.376 -1.2821 -1.8400 -0.1051
 3994SOL     OW23440   1.720   0.144   3.635 -0.1565 -0.8164  0.0532
 3994SOL    HW123441   1.697   0.060   3.675 -2.6596 -0.4817 -0.6421
 3994SOL    HW223442   1.665   0.198   3.691 -1.7647 -1.6096 -0.7535
 3995SOL     OW23443   1.168   4.445  15.699 -0.1380  0.1132  0.1874
 3995SOL    HW123444   1.261   4.454  15.681 -0.0275 -0.8634  0.2447
 3995SOL    HW223445   1.187   4.404  15.784  1.0944  1.0255  0.3438
 3996SOL     OW23446   3.238   2.462   6.635  0.0508  0.2240  0.2333
 3996SOL    HW123447   3.253   2.465   6.729 -0.3954  2.2793  0.2440
 3996SOL    HW223448   3.301   2.396   6.607 -0.6238 -1.0505  1.7528
 3997SOL     OW23449   0.176   4.366   2.451 -0.4316 -0.4909 -0.0435
 3997SOL    HW123450   0.109   4.434   2.464 -1.9525 -2.2833  1.5640
 3997SOL    HW223451   0.213   4.370   2.540  0.7940 -0.8690 -0.5406
 3998SOL     OW23452   3.008   1.725  10.759  0.1857  0.1087  0.6498
 3998SOL    HW123453   2.914   1.706  10.767  0.1930  0.0256  0.5295
 3998SOL    HW223454   3.048   1.641  10.782  2.2595  1.3045  1.4072
 3999SOL     OW23455   1.771   4.107  13.462  0.0130  0.1278 -0.1531
 3999SOL    HW123456   1.802   4.055  13.536  0.5681 -1.1273 -1.2768
 3999SOL    HW223457   1.848   4.143  13.419 -1.6118  2.9902 -0.6171
 4000SOL     OW23458   0.278   0.421  11.336  0.8863  0.0045  1.2202
 4000SOL    HW123459   0.357   0.370  11.317  2.9637  2.2799  3.7537
 4000SOL    HW223460   0.309   0.509  11.359 -2.6976  1.3642  0.9566
 4001SOL     OW23461   3.592   4.595   6.867  0.4908 -0.4108  0.2087
 4001SOL    HW123462   3.673   4.545   6.855 -0.1473 -1.6473  1.1180
 4001SOL    HW223463   3.609   4.611   6.960  0.4967  2.2626 -0.2654
 4002SOL     OW23464   1.128   3.169   9.287 -0.0051  0.3116  0.2923
 4002SOL    HW123465   1.190   3.240   9.275 -3.0065  2.7015 -1.0800
 4002SOL    HW223466   1.191   3.101   9.310 -0.1500 -0.0579 -0.4090
 4003SOL     OW23467   4.278   2.649  12.044  0.3654 -0.1657  0.4023
 4003SOL    HW123468   4.298   2.665  12.136  0.7608 -2.2879  0.6671
 4003SOL    HW223469   4.207   2.585  12.050  0.9770 -0.7920  0.8403
 4004SOL     OW23470   3.275   2.518  14.270  0.2484  0.5493  0.1773
 4004SOL    HW123471   3.272   2.578  14.344 -2.2132  1.1856 -0.4164
 4004SOL    HW223472   3.291   2.432  14.309  0.5413  0.4059 -0.2559
 4005SOL     OW23473   1.447   0.473   2.618  0.2839  0.5895  0.0691
 4005SOL    HW123474   1.539   0.499   2.626  0.2360  1.0341 -0.9086
 4005SOL    HW223475   1.416   0.560   2.592  1.3773  0.7172 -0.8004
 4006SOL     OW23476   3.241   0.893  15.332  0.0146  0.3146 -0.0401
 4006SOL    HW123477   3.311   0.853  15.280 -0.4266 -1.2269  0.5535
 4006SOL    HW223478   3.258   0.987  15.332 -1.2682  0.5444  0.5021
 4007SOL     OW23479   1.860   2.917   1.993 -0.1785  0.4108  0.2652
 4007SOL    HW123480   1.886   2.843   1.938  1.3501 -0.4529  2.1958
 4007SOL    HW223481   1.939   2.949   2.035  1.2582 -2.3201 -0.3439
 4008SOL     OW23482   4.185   0.331  12.784  0.1024  0.1510  0.0304
 4008SOL    HW123483   4.227   0.407  12.743 -1.1279 -0.5895 -2.6406
 4008SOL    HW223484   4.177   0.361  12.874 -2.3761 -2.1786  0.5967
 4009SOL     OW23485   0.415   0.371   1.360  0.1087  0.3156  0.2913
 4009SOL    HW123486   0.355   0.437   1.395 -1.2713 -0.9550  0.3519
 4009SOL    HW223487   0.396   0.303   1.425 -0.2640  0.8709  0.7764
 4010SOL     OW23488   3.775   1.429   8.014  0.1166 -0.1338 -0.5388
 4010SOL    HW123489   3.729   1.485   7.951  0.2086  1.1982  0.5873
 4010SOL    HW223490   3.717   1.427   8.090 -1.0809  2.6385 -1.3570
 4011SOL     OW23491   0.615   0.382  16.781  0.4587  0.3282 -0.0444
 4011SOL    HW123492   0.683   0.396  16.715  0.3516  0.0167 -0.2199
 4011SOL    HW223493   0.536   0.434  16.766 -0.5262 -0.9441  0.7560
 4012SOL     OW23494   2.385   2.114   3.541 -0.2097  0.1267  0.4200
 4012SOL    HW123495   2.432   2.196   3.527 -2.5787  1.6432  1.3772
 4012SOL    HW223496   2.463   2.063   3.564 -0.6077 -0.5020  0.3725
 4013SOL     OW23497   3.294   3.670   5.595  0.0091 -0.2198 -0.8285
 4013SOL    HW123498   3.365   3.618   5.633 -0.4566 -0.6157 -0.5063
 4013SOL    HW223499   3.229   3.671   5.665  1.3508  1.6474  0.3758
 4014SOL     OW23500   1.787   2.999   3.297 -0.3329  0.4857 -0.2212
 4014SOL    HW123501   1.695   2.973   3.295  0.0999 -0.9669 -1.3812
 4014SOL    HW223502   1.821   2.915   3.268 -1.2117 -0.4726  1.4996
 4015SOL     OW23503   0.861   0.719   5.426  0.4923  0.0908 -0.4148
 4015SOL    HW123504   0.777   0.676   5.412  2.0168 -2.3842 -1.9635
 4015SOL    HW223505   0.921   0.645   5.438 -0.5346 -1.0329 -2.2587
 4016SOL     OW23506   1.195   4.705   4.274 -0.5768  0.9703 -0.0267
 4016SOL    HW123507   1.265   0.040   4.250 -1.4832  1.3221 -1.7547
 4016SOL    HW223508   1.208   4.637   4.209  1.3698  0.9638  0.3537
 4017SOL     OW23509   0.255   1.054   3.716  0.0400 -0.5128  0.2059
 4017SOL    HW123510   0.286   1.069   3.805  0.0859  2.1978 -0.2453
 4017SOL    HW223511   0.323   1.105   3.672 -2.0918  1.5526 -0.7725
 4018SOL     OW23512   2.667   0.091  17.366  0.1038 -0.1772  0.1847
 4018SOL    HW123513   2.734   0.123  17.306  0.1610  0.3409  0.5248
 4018SOL    HW223514   2.648   0.163  17.427  1.2370  0.0903  0.2246
 4019SOL     OW23515   0.279   0.899   1.284 -0.6361  0.5671  0.5831
 4019SOL    HW123516   0.189   0.879   1.309 -1.1510 -1.6960 -2.9839
 4019SOL    HW223517   0.277   0.993   1.268  1.5150  0.2872 -1.3892
 4020SOL     OW23518   1.931   1.872   3.146 -0.4656  0.1500 -0.4506
 4020SOL    HW123519   1.926   1.778   3.130 -1.6337  0.3827 -1.4734
 4020SOL    HW223520   1.872   1.882   3.221 -0.1322  1.6594 -0.3823
 4021SOL     OW23521   1.597   4.578   3.470  0.1587 -0.3765 -0.7016
 4021SOL    HW123522   1.533   4.525   3.422  0.8583  0.1879 -2.2546
 4021SOL    HW223523   1.674   4.525   3.454  0.6472 -0.0935  0.7694
 4022SOL     OW23524   4.529   2.028   3.125 -0.2843 -0.4681  0.2647
 4022SOL    HW123525   4.503   1.969   3.196  1.6083 -1.1762  0.3382
 4022SOL    HW223526   4.510   2.112   3.168  0.0530 -0.5737  0.6198
 4023SOL     OW23527   2.493   2.998   8.021  0.0844  0.4248  0.3553
 4023SOL    HW123528   2.542   2.942   7.961 -0.7627  2.0000 -1.7962
 4023SOL    HW223529   2.403   2.968   8.004  0.4731  0.1333 -1.1410
 4024SOL     OW23530   1.394   4.310   6.384 -0.3871  0.4129 -0.4777
 4024SOL    HW123531   1.485   4.321   6.411 -0.2429  1.0933 -1.2186
 4024SOL    HW223532   1.389   4.384   6.323 -1.1719  1.4978  0.9111
 4025SOL     OW23533   3.127   3.543  16.827 -0.2972  0.2599  0.0827
 4025SOL    HW123534   3.051   3.589  16.863 -1.0765 -0.9439 -0.0197
 4025SOL    HW223535   3.205   3.593  16.851 -0.1400 -0.9754  2.1066
 4026SOL     OW23536   3.208   2.467   7.211  0.3063 -0.1298 -0.1597
 4026SOL    HW123537   3.149   2.535   7.179  2.0500  1.8057  0.7527
 4026SOL    HW223538   3.154   2.451   7.288 -1.6058  2.2277 -0.9788
 4027SOL     OW23539   0.882   3.297   9.767  0.7358  0.2569 -0.0677
 4027SOL    HW123540   0.892   3.346   9.849  0.9780 -1.5086  0.9424
 4027SOL    HW223541   0.847   3.216   9.802 -0.2741 -0.7418 -3.3520
 4028SOL     OW23542   1.244   3.382  11.132  0.8177 -0.1799  0.1391
 4028SOL    HW123543   1.207   3.392  11.220 -0.5870 -0.1261 -0.4585
 4028SOL    HW223544   1.179   3.320  11.099  2.5485 -1.3573 -1.0391
 4029SOL     OW23545   3.719   2.387   8.118 -0.7380  0.1366 -0.8625
 4029SOL    HW123546   3.640   2.353   8.076 -0.9057 -0.7380  0.1475
 4029SOL    HW223547   3.679   2.410   8.202 -0.7716 -0.8546 -0.6005
 4030SOL     OW23548   1.896   3.357   3.474 -0.0363 -0.2516 -0.1644
 4030SOL    HW123549   1.883   3.385   3.383  0.0538  0.3080 -0.0041
 4030SOL    HW223550   1.889   3.262   3.471  1.1978 -0.3356 -0.2432
 4031SOL     OW23551   2.931   3.826   6.492  0.0272  0.4586  0.2369
 4031SOL    HW123552   2.878   3.779   6.555  0.4213 -1.1610 -0.6446
 4031SOL    HW223553   2.936   3.914   6.530  0.3141  0.8946 -0.8087
 4032SOL     OW23554   0.003   0.034   1.889  0.1379 -0.1655  0.4481
 4032SOL    HW123555   4.668   0.059   1.819  0.6633  1.5415  0.5930
 4032SOL    HW223556   0.037   4.678   1.854  0.7159 -0.2722  1.2365
 4033SOL     OW23557   0.925   4.476   9.888  0.2076  0.3632  0.4545
 4033SOL    HW123558   0.994   4.411   9.874 -3.1739 -2.6460 -2.0408
 4033SOL    HW223559   0.971   4.543   9.939  2.1253 -1.7711  1.5437
 4034SOL     OW23560   1.914   0.359  14.635 -0.3162  0.3908  0.5858
 4034SOL    HW123561   1.948   0.381  14.548 -0.6942  1.3030  0.6698
 4034SOL    HW223562   1.927   0.265  14.646  2.0058  0.9561  2.7805
 4035SOL     OW23563   2.027   0.380   8.823  0.3448 -0.2045 -0.2368
 4035SOL    HW123564   1.949   0.413   8.867  1.2547  0.1589  1.0856
 4035SOL    HW223565   2.001   0.288   8.820 -0.1416 -0.0935  0.5700
 4036SOL     OW23566   4.523   3.044   9.790  0.0918 -0.2431  0.1436
 4036SOL    HW123567   4.450   3.061   9.850  1.5995  1.9642  1.3760
 4036SOL    HW223568   4.494   3.095   9.714  0.1700 -2.4074 -1.3269
 4037SOL     OW23569   2.854   1.839   2.954 -0.1346  0.1438  0.3644
 4037SOL    HW123570   2.839   1.747   2.936 -0.8733  0.1035  1.1796
 4037SOL    HW223571   2.847   1.829   3.049 -0.5984  0.7583  0.3992
 4038SOL     OW23572   2.856   0.406   5.360  0.2547  0.3450 -0.1260
 4038SOL    HW123573   2.761   0.406   5.347  0.0335 -2.1377  1.5912
 4038SOL    HW223574   2.880   0.343   5.293  0.6372  1.7352 -1.3073
 4039SOL     OW23575   1.378   2.097   1.463  0.1228 -0.3891 -0.1880
 4039SOL    HW123576   1.311   2.030   1.471  2.0739 -2.4300 -1.0464
 4039SOL    HW223577   1.431   2.069   1.538  0.0373 -0.3284 -0.1056
 4040SOL     OW23578   3.988   1.647  10.506 -0.1473 -0.0938  0.0096
 4040SOL    HW123579   3.975   1.570  10.451  0.1097  0.0529 -0.2603
 4040SOL    HW223580   4.042   1.698  10.445 -0.9082 -0.0334 -0.6148
 4041SOL     OW23581   2.757   2.382   7.083 -0.0705  0.2728  0.2134
 4041SOL    HW123582   2.684   2.439   7.111 -0.0465  0.6699 -0.5247
 4041SOL    HW223583   2.714   2.297   7.085  0.4421  0.0177  0.2219
 4042SOL     OW23584   2.620   3.015  10.176  0.0282  0.1026 -1.0063
 4042SOL    HW123585   2.598   2.924  10.155  1.6382 -0.7834  1.0680
 4042SOL    HW223586   2.532   3.046  10.157 -0.0860  0.6964  0.4611
 4043SOL     OW23587   0.876   4.128   5.192  0.2782  0.2845  0.2010
 4043SOL    HW123588   0.931   4.065   5.145  1.0464  0.5845  0.6903
 4043SOL    HW223589   0.934   4.150   5.265 -0.0037 -0.7484  0.7397
 4044SOL     OW23590   0.103   2.358   1.954 -0.8092  0.0259 -0.2424
 4044SOL    HW123591   0.152   2.414   1.892 -0.3825 -0.4824 -0.3672
 4044SOL    HW223592   0.013   2.389   1.949 -1.0125 -0.7391 -1.2253
 4045SOL     OW23593   0.867   0.420   2.006 -0.0158  0.3327 -0.4555
 4045SOL    HW123594   0.795   0.481   1.990 -0.5768  0.1833  1.4429
 4045SOL    HW223595   0.817   0.341   1.987  0.9330 -0.4321  0.2085
 4046SOL     OW23596   2.185   3.501   2.215  0.7951  0.2730  0.2572
 4046SOL    HW123597   2.280   3.489   2.218  0.5435 -1.3254  1.9605
 4046SOL    HW223598   2.168   3.497   2.121 -0.3486 -0.9750  0.5226
 4047SOL     OW23599   0.600   0.990   5.144 -0.4565  0.1281 -0.0518
 4047SOL    HW123600   0.672   0.931   5.126  0.4453  1.2147  0.0008
 4047SOL    HW223601   0.526   0.930   5.156 -0.5666  0.3113  0.2011
 4048SOL     OW23602   3.153   1.432   1.014  0.3212  0.0559  0.0239
 4048SOL    HW123603   3.115   1.385   1.088  2.9285  1.3792  2.2191
 4048SOL    HW223604   3.177   1.515   1.055  0.0529  0.5431 -0.8186
 4049SOL     OW23605   3.524   0.936   2.021  0.4646 -0.0217  0.0164
 4049SOL    HW123606   3.583   0.921   2.096 -1.1598  1.4798  1.5914
 4049SOL    HW223607   3.528   0.851   1.978  0.3628  0.2497 -0.5199
 4050SOL     OW23608   1.932   2.321   9.346 -0.2027  0.1307  0.6089
 4050SOL    HW123609   1.956   2.228   9.337  0.0940 -0.0391  3.2642
 4050SOL    HW223610   1.880   2.309   9.425  0.9227  2.3792  1.6715
 4051SOL     OW23611   3.531   0.669   4.325  0.1996 -0.8371 -0.3650
 4051SOL    HW123612   3.454   0.620   4.352 -1.8640  2.8546  0.4017
 4051SOL    HW223613   3.596   0.600   4.307 -1.1030 -1.9855 -0.7043
 4052SOL     OW23614   4.241   2.806   3.109  0.8142 -0.3573 -0.3555
 4052SOL    HW123615   4.170   2.842   3.163  0.5580 -3.1424  1.1217
 4052SOL    HW223616   4.206   2.725   3.072  1.2094 -0.3161 -0.8207
 4053SOL     OW23617   1.192   3.969  11.965  0.3604 -0.2599  0.0847
 4053SOL    HW123618   1.167   4.062  11.965 -0.9980 -0.6300  0.4972
 4053SOL    HW223619   1.205   3.961  11.871  0.0146 -1.3604  0.1333
 4054SOL     OW23620   0.138   2.813  13.339 -0.2971 -0.9590  0.3022
 4054SOL    HW123621   0.121   2.746  13.273 -2.5418 -0.6850  0.6017
 4054SOL    HW223622   0.063   2.873  13.331  0.5337  0.2401  1.3535
 4055SOL     OW23623   1.481   3.330   8.751  0.0527 -0.1693  0.3838
 4055SOL    HW123624   1.472   3.236   8.738  2.3604 -0.6014  1.8874
 4055SOL    HW223625   1.411   3.367   8.697  1.4769 -0.1801 -1.4845
 4056SOL     OW23626   3.638   3.111   5.547 -0.4891  0.0312  0.5269
 4056SOL    HW123627   3.612   3.044   5.484  3.2594 -0.3036 -0.6573
 4056SOL    HW223628   3.555   3.120   5.594  0.0525  1.2997  1.2442
 4057SOL     OW23629   0.299   2.532   4.105 -0.3076  0.4854  0.0390
 4057SOL    HW123630   0.290   2.519   4.011  1.6877  0.0480 -0.0804
 4057SOL    HW223631   0.300   2.627   4.119  1.4888  0.4116  0.3822
 4058SOL     OW23632   4.718   4.446   6.150 -0.0337 -0.4101  0.1726
 4058SOL    HW123633   0.062   4.410   6.095 -0.8724  0.6065 -1.5500
 4058SOL    HW223634   0.008   4.393   6.229 -0.6500  1.1543  1.3554
 4059SOL     OW23635   0.570   4.430   7.923 -0.3768 -0.2851 -0.5361
 4059SOL    HW123636   0.571   4.368   7.996  1.5195 -0.2330 -0.5234
 4059SOL    HW223637   0.550   4.364   7.856  0.8532 -1.0806 -0.1240
 4060SOL     OW23638   0.301   1.215   7.030  0.2406 -0.3734 -0.7926
 4060SOL    HW123639   0.365   1.228   7.100 -0.4817 -1.2004  0.0312
 4060SOL    HW223640   0.286   1.122   7.048  2.4022 -0.8188 -1.3158
 4061SOL     OW23641   3.508   1.322   0.116 -0.3949  0.2270 -0.6946
 4061SOL    HW123642   3.476   1.297   0.029  0.0409 -1.9316 -0.2322
 4061SOL    HW223643   3.506   1.418   0.107  0.3682  0.4614  1.5102
 4062SOL     OW23644   4.450   1.479   8.036  0.4042 -0.0151 -0.0369
 4062SOL    HW123645   4.436   1.477   8.130  0.2186 -2.6577 -0.1123
 4062SOL    HW223646   4.545   1.485   8.022  0.6339  2.4386  2.5082
 4063SOL     OW23647   4.664   0.150   9.868  0.4116  0.0311 -0.3731
 4063SOL    HW123648   4.687   0.176   9.957  0.0394 -0.6200 -0.0910
 4063SOL    HW223649   4.600   0.082   9.889 -0.5887  1.0783 -0.0487
 4064SOL     OW23650   2.246   2.556  15.752  0.1283  0.2097  0.1448
 4064SOL    HW123651   2.300   2.590  15.680  0.4124 -2.5867 -0.9591
 4064SOL    HW223652   2.229   2.636  15.802 -0.1660  0.8737 -1.0005
 4065SOL     OW23653   3.810   1.589   5.740  0.3495  0.4458 -0.1375
 4065SOL    HW123654   3.736   1.530   5.754  0.4683  0.6244  1.2491
 4065SOL    HW223655   3.890   1.536   5.731  0.3438  0.4245 -0.0589
 4066SOL     OW23656   0.235   0.297  13.728 -0.2726  0.3062  0.0957
 4066SOL    HW123657   0.300   0.358  13.762 -0.6420  0.4581  0.5155
 4066SOL    HW223658   0.238   0.237  13.803  0.1332 -1.2689 -1.1681
 4067SOL     OW23659   0.150   1.902  14.749  0.1251 -0.2012  0.3234
 4067SOL    HW123660   0.240   1.908  14.719  0.0257 -1.5252 -0.2433
 4067SOL    HW223661   0.097   1.897  14.669  0.1054 -0.8443  0.3828
 4068SOL     OW23662   2.124   1.414  16.819  0.3741 -0.5763  0.0782
 4068SOL    HW123663   2.031   1.409  16.798 -0.1413  0.3876  2.1413
 4068SOL    HW223664   2.158   1.331  16.786 -1.1789 -1.5452  0.9195
 4069SOL     OW23665   1.511   3.288   5.332  0.2556 -0.0737  0.0216
 4069SOL    HW123666   1.586   3.328   5.291 -0.4751  0.2170 -1.0196
 4069SOL    HW223667   1.462   3.277   5.251 -1.3200 -1.4286  1.1423
 4070SOL     OW23668   2.715   0.131   8.244 -0.5555  0.1031  0.0651
 4070SOL    HW123669   2.741   0.039   8.241  1.1599  0.6103 -0.3152
 4070SOL    HW223670   2.670   0.133   8.159 -0.5073 -1.3006 -0.0002
 4071SOL     OW23671   3.364   3.740   4.855 -0.3588  0.1010  0.2584
 4071SOL    HW123672   3.449   3.696   4.852 -1.0800 -1.0866 -2.8759
 4071SOL    HW223673   3.361   3.791   4.936 -0.8534  0.8664 -0.2444
 4072SOL     OW23674   2.860   2.409  16.304 -0.0424  0.4638  0.2996
 4072SOL    HW123675   2.826   2.416  16.215 -1.0270 -0.7456  0.5673
 4072SOL    HW223676   2.897   2.321  16.304 -2.2978 -0.4807 -2.1779
 4073SOL     OW23677   0.388   1.515   0.405 -0.5440 -0.2494  0.4386
 4073SOL    HW123678   0.365   1.600   0.365 -1.0605 -0.0792  1.0914
 4073SOL    HW223679   0.318   1.497   0.468 -1.6065  2.0237 -0.0711
 4074SOL     OW23680   1.086   1.615   2.179  0.0081 -0.6171 -0.5738
 4074SOL    HW123681   1.128   1.535   2.208  0.0949  0.3827  2.0792
 4074SOL    HW223682   1.151   1.654   2.121  1.1700  1.1942  1.9378
 4075SOL     OW23683   2.029   3.787   6.163  0.4133  0.0154  0.4276
 4075SOL    HW123684   1.937   3.764   6.148  0.8456 -1.5991  0.2538
 4075SOL    HW223685   2.070   3.706   6.193  2.1281  1.5659  2.2513
 4076SOL     OW23686   0.119   2.201   7.694 -0.2888 -0.0186 -0.0226
 4076SOL    HW123687   0.146   2.264   7.761 -0.7721  0.9896 -0.7779
 4076SOL    HW223688   0.173   2.124   7.708  1.1062  0.8372 -0.7574
 4077SOL     OW23689   3.877   4.007   8.535 -0.2076 -0.9880  0.4477
 4077SOL    HW123690   3.807   3.940   8.536  0.3950 -1.6813 -1.7590
 4077SOL    HW223691   3.896   4.015   8.628  2.1492  1.4907 -0.2911
 4078SOL     OW23692   3.934   1.076   4.908 -0.2612  0.0683  0.2654
 4078SOL    HW123693   3.894   1.048   4.826 -0.7509 -0.3847  0.6626
 4078SOL    HW223694   3.998   1.006   4.918 -0.7118 -0.1325  1.6864
 4079SOL     OW23695   1.852   1.046   3.387  0.3626  0.0915 -0.1583
 4079SOL    HW123696   1.894   1.123   3.425 -1.0465  0.5130  0.5115
 4079SOL    HW223697   1.855   0.987   3.462 -0.7011 -0.2269 -0.3707
 4080SOL     OW23698   2.449   4.605   2.656  0.5462  0.0757  0.1607
 4080SOL    HW123699   2.370   4.590   2.708  0.0346  2.0961 -0.0521
 4080SOL    HW223700   2.421   4.681   2.605  0.4907  1.1355  1.7680
 4081SOL     OW23701   1.120   4.360   0.692  0.0581 -0.9909 -0.0495
 4081SOL    HW123702   1.205   4.317   0.692  1.4109  1.6446  0.3475
 4081SOL    HW223703   1.066   4.304   0.636  1.2012 -0.5056 -1.6317
 4082SOL     OW23704   3.509   4.498   4.758 -0.1854  0.2436 -0.3131
 4082SOL    HW123705   3.494   4.414   4.714 -0.7424 -0.5415  1.3790
 4082SOL    HW223706   3.567   4.475   4.832  0.3302  1.0059 -0.4749
 4083SOL     OW23707   1.559   3.677  16.742  0.3413  0.0161  0.5212
 4083SOL    HW123708   1.558   3.681  16.647 -0.6693  0.0703  0.5388
 4083SOL    HW223709   1.468   3.680  16.770  0.5726  0.5032  1.2132
 4084SOL     OW23710   4.108   3.697  15.914  0.3964 -0.3300 -0.5239
 4084SOL    HW123711   4.053   3.734  15.845 -1.5938  1.2508  1.8879
 4084SOL    HW223712   4.097   3.761  15.985  0.2175 -1.7700  0.7412
 4085SOL     OW23713   1.867   4.095   7.472  0.5149 -0.2966 -0.8005
 4085SOL    HW123714   1.893   4.062   7.386  2.1734 -1.4184  0.1312
 4085SOL    HW223715   1.775   4.070   7.478  0.8896 -1.4423  0.0541
 4086SOL     OW23716   3.509   1.400   6.695  0.6298  0.4306  0.0807
 4086SOL    HW123717   3.498   1.495   6.704  0.8510  0.4496  0.1365
 4086SOL    HW223718   3.486   1.366   6.782  0.7585  1.9288  0.7139
 4087SOL     OW23719   3.498   1.712   6.041  0.1907 -0.2626  0.1437
 4087SOL    HW123720   3.434   1.659   6.089  1.5562 -1.2647  0.8684
 4087SOL    HW223721   3.552   1.746   6.112 -0.4513 -1.5672  1.2761
 4088SOL     OW23722   1.494   4.484   9.202 -0.1693  0.1735  0.4220
 4088SOL    HW123723   1.485   4.404   9.151 -1.8645 -0.0757  1.0946
 4088SOL    HW223724   1.404   4.514   9.210 -0.6720 -1.0579 -0.5104
 4089SOL     OW23725   1.980   0.659   4.249  0.3526 -0.1536  0.2705
 4089SOL    HW123726   1.888   0.677   4.269 -0.2852 -0.8030 -2.0914
 4089SOL    HW223727   2.020   0.700   4.326 -0.5411 -1.8753  1.6459
 4090SOL     OW23728   2.881   1.262   3.218  0.0664  0.2365 -0.4893
 4090SOL    HW123729   2.832   1.323   3.163  2.6146  0.4873 -2.5135
 4090SOL    HW223730   2.952   1.247   3.155  1.2380  1.6806  0.4630
 4091SOL     OW23731   2.440   4.616  17.413  0.3251  0.2385  0.0678
 4091SOL    HW123732   2.465   4.708  17.404  1.5767 -0.2743 -1.6690
 4091SOL    HW223733   2.508   4.589  17.476 -0.2828  0.6941  0.9299
 4092SOL     OW23734   1.626   3.288   7.311  0.5096  0.3384  0.0889
 4092SOL    HW123735   1.696   3.335   7.267 -0.3937  0.4776 -1.1942
 4092SOL    HW223736   1.568   3.360   7.338 -0.2122 -0.4749  0.7174
 4093SOL     OW23737   1.510   3.615  10.222 -0.5760 -0.5985 -0.0434
 4093SOL    HW123738   1.590   3.654  10.186 -0.5634 -3.3447 -2.9441
 4093SOL    HW223739   1.465   3.607  10.138  0.6243  3.1248 -1.0522
 4094SOL     OW23740   1.696   4.664   2.252 -0.1858  0.4540  0.1256
 4094SOL    HW123741   1.748   4.669   2.332  0.6007  1.1331 -0.4231
 4094SOL    HW223742   1.668   0.030   2.245 -1.7099  0.1603  2.1679
 4095SOL     OW23743   4.483   1.404   2.602 -0.3651  0.0351 -0.0592
 4095SOL    HW123744   4.501   1.400   2.508 -2.9295  1.9571 -0.6566
 4095SOL    HW223745   4.567   1.378   2.638 -0.7878 -1.9509 -0.4769
 4096SOL     OW23746   4.424   0.500   7.000 -0.0224 -0.4402 -0.0069
 4096SOL    HW123747   4.415   0.583   7.046  1.3144 -0.2506 -0.1146
 4096SOL    HW223748   4.473   0.445   7.061 -0.4641 -1.9601 -1.0069
 4097SOL     OW23749   2.883   0.149   4.802  0.1434 -0.2764 -0.5936
 4097SOL    HW123750   2.792   0.119   4.807 -0.0032  0.2091 -0.3958
 4097SOL    HW223751   2.902   0.136   4.709  0.5724 -0.2895 -0.5025
 4098SOL     OW23752   2.201   1.481   9.044  0.4431  0.1568 -0.0191
 4098SOL    HW123753   2.147   1.487   8.965  0.6958  1.9123 -0.0470
 4098SOL    HW223754   2.282   1.449   9.005 -3.1579 -3.3274 -4.6301
 4099SOL     OW23755   0.497   2.201   3.171  0.5645  0.2254  0.2274
 4099SOL    HW123756   0.411   2.181   3.135 -0.0384  0.4272  1.5628
 4099SOL    HW223757   0.545   2.250   3.104 -0.3240  0.9556  0.1268
 4100SOL     OW23758   0.670   2.037   8.730  0.2625  0.2978 -0.1392
 4100SOL    HW123759   0.597   2.033   8.792  0.7345  1.0379  0.4624
 4100SOL    HW223760   0.733   2.061   8.799 -0.5514 -3.7902  1.9950
 4101SOL     OW23761   2.894   2.798   9.464  0.2927  0.3345  0.0356
 4101SOL    HW123762   2.898   2.749   9.382 -2.8715  1.3968 -0.7493
 4101SOL    HW223763   2.868   2.881   9.425 -0.6239 -0.3972 -0.9263
 4102SOL     OW23764   4.468   4.693   3.177  0.1841 -0.5834 -0.0383
 4102SOL    HW123765   4.563   4.683   3.184 -0.1965 -0.8866  4.7841
 4102SOL    HW223766   4.454   0.028   3.250  1.7541 -1.5625  1.0675
 4103SOL     OW23767   3.250   0.729   7.823  0.0296  0.0705 -0.3281
 4103SOL    HW123768   3.272   0.813   7.864  2.3913 -0.9938  0.5604
 4103SOL    HW223769   3.246   0.666   7.895  4.1590 -0.0265 -0.1982
 4104SOL     OW23770   3.715   2.071   8.161 -0.6493  0.3886 -0.3697
 4104SOL    HW123771   3.694   2.163   8.143 -2.7908 -0.1566 -0.6889
 4104SOL    HW223772   3.792   2.065   8.105 -0.3335  0.1061  0.1030
 4105SOL     OW23773   4.539   1.315   3.070  0.0036  0.2970 -0.0202
 4105SOL    HW123774   4.619   1.330   3.018  1.2196  2.2289  2.4319
 4105SOL    HW223775   4.563   1.347   3.157  0.0178 -0.7165  0.3449
 4106SOL     OW23776   3.294   1.585   8.360 -0.0335  0.0213  0.2726
 4106SOL    HW123777   3.204   1.552   8.366 -0.1762  0.3362 -0.1201
 4106SOL    HW223778   3.332   1.511   8.407 -2.8239 -0.7184  1.3606
 4107SOL     OW23779   1.188   3.807   7.845 -0.0297  0.2878  0.0406
 4107SOL    HW123780   1.135   3.738   7.885  1.3061 -0.6404  0.2208
 4107SOL    HW223781   1.126   3.880   7.844 -0.3676 -0.0096 -3.6041
 4108SOL     OW23782   0.835   0.777  15.885  0.1540  0.4126  0.0515
 4108SOL    HW123783   0.776   0.805  15.955  0.1608  3.1488 -1.0426
 4108SOL    HW223784   0.914   0.751  15.933 -2.1238  0.7386  3.9391
 4109SOL     OW23785   1.318   1.299  15.072 -0.2818 -0.1152 -0.4373
 4109SOL    HW123786   1.301   1.387  15.037  1.1353  0.3356  0.0120
 4109SOL    HW223787   1.226   1.272  15.081 -0.1012 -0.7427 -0.5483
 4110SOL     OW23788   2.457   2.576   2.614 -0.2303  0.1647  0.3222
 4110SOL    HW123789   2.449   2.495   2.664  1.3053 -0.1236  0.1067
 4110SOL    HW223790   2.370   2.596   2.580 -0.0052  2.5579  1.1709
 4111SOL     OW23791   3.452   0.940   2.618 -0.4060  0.8288 -0.4850
 4111SOL    HW123792   3.465   1.007   2.550 -1.0868  1.4025 -0.0492
 4111SOL    HW223793   3.541   0.916   2.643 -0.6292  1.5251  1.0005
 4112SOL     OW23794   3.127   3.409  15.031  0.2413 -0.8322 -0.3017
 4112SOL    HW123795   3.196   3.394  14.967 -0.5740  2.1918 -1.8901
 4112SOL    HW223796   3.060   3.426  14.965  0.6924 -0.0122 -0.5450
 4113SOL     OW23797   2.925   0.601  17.102 -0.0385 -0.3241  0.9351
 4113SOL    HW123798   2.891   0.512  17.107 -1.7809  0.2557 -0.5671
 4113SOL    HW223799   3.016   0.574  17.088  0.6906  1.3527  2.3334
 4114SOL     OW23800   4.098   4.500   1.367 -0.1633  0.3918  0.2954
 4114SOL    HW123801   4.152   4.492   1.446 -1.0407 -1.2608  0.7159
 4114SOL    HW223802   4.031   4.435   1.387  0.2114 -0.1890 -0.3352
 4115SOL     OW23803   2.716   2.404   9.095 -0.5316  0.0156  0.4399
 4115SOL    HW123804   2.757   2.318   9.089  0.2789  0.5371 -1.4860
 4115SOL    HW223805   2.786   2.465   9.071  0.0137 -0.1130  1.7126
 4116SOL     OW23806   4.450   2.960   8.956 -0.3087 -0.3403 -0.4798
 4116SOL    HW123807   4.518   3.024   8.935  1.0070 -1.6371 -0.1396
 4116SOL    HW223808   4.474   2.887   8.899  0.1677  0.5433 -1.4269
 4117SOL     OW23809   2.821   2.069   2.826  0.6545 -0.6111 -0.1038
 4117SOL    HW123810   2.817   2.008   2.900  0.8374  1.7688  1.8463
 4117SOL    HW223811   2.800   2.005   2.758 -0.2647  0.2837 -0.6516
 4118SOL     OW23812   2.585   1.085   8.861  0.1759 -0.5151  0.4725
 4118SOL    HW123813   2.502   1.110   8.902 -0.3412 -0.9104 -0.3546
 4118SOL    HW223814   2.623   1.173   8.868  0.5134 -0.5953 -0.4150
 4119SOL     OW23815   4.718   0.507   4.501  0.0651 -0.3771  0.1718
 4119SOL    HW123816   4.713   0.411   4.502 -3.5639 -0.1547  1.2903
 4119SOL    HW223817   4.629   0.535   4.482 -0.8378 -1.7959  2.2820
 4120SOL     OW23818   0.236   3.556   2.368 -0.4307 -0.5344 -0.3225
 4120SOL    HW123819   0.159   3.610   2.387  0.0748 -0.3015  1.0012
 4120SOL    HW223820   0.246   3.553   2.272  0.2264  0.8188 -0.2911
 4121SOL     OW23821   3.293   1.381   5.419 -0.1310 -0.0833 -0.2457
 4121SOL    HW123822   3.321   1.451   5.360 -0.0092 -1.1096 -1.4191
 4121SOL    HW223823   3.246   1.320   5.362 -0.6408  0.9517 -0.9378
 4122SOL     OW23824   4.456   1.230   2.014 -0.2738  0.0132  0.7026
 4122SOL    HW123825   4.524   1.189   1.961 -0.1382  0.9936  0.1313
 4122SOL    HW223826   4.419   1.295   1.955  0.5758  0.6329  0.8487
 4123SOL     OW23827   4.261   4.583   2.675  0.2741  0.2241  0.1024
 4123SOL    HW123828   4.284   4.676   2.671  1.3163 -0.0440  0.0045
 4123SOL    HW223829   4.171   4.585   2.642  0.2000  3.3855  0.4654
 4124SOL     OW23830   1.533   3.532   6.374 -0.3323 -0.2161  0.3756
 4124SOL    HW123831   1.593   3.495   6.310 -1.0684  0.2552 -0.5790
 4124SOL    HW223832   1.593   3.567   6.440  3.0160 -1.2782 -2.1298
 4125SOL     OW23833   0.550   0.034   4.648  0.5216 -0.2297  0.1501
 4125SOL    HW123834   0.583   0.091   4.578 -3.2380 -0.8928 -2.1808
 4125SOL    HW223835   0.558   0.087   4.727 -0.7569  2.1151 -1.2940
 4126SOL     OW23836   1.432   0.081   4.121  0.6315 -0.1395  0.5132
 4126SOL    HW123837   1.519   0.053   4.091  1.1129  2.1715 -0.2493
 4126SOL    HW223838   1.426   0.162   4.070 -2.5990  1.0230  2.7814
 4127SOL     OW23839   2.491   3.523   4.882  0.1603  0.1970 -0.2678
 4127SOL    HW123840   2.568   3.489   4.927  0.0888 -1.6576 -1.5824
 4127SOL    HW223841   2.433   3.505   4.956 -0.1967 -1.3662 -0.9475
 4128SOL     OW23842   3.976   0.466  10.052 -0.8811  0.2371  0.4057
 4128SOL    HW123843   3.933   0.524   9.989 -2.2004 -2.1056 -0.8925
 4128SOL    HW223844   3.904   0.460  10.114 -1.4485  0.4922 -0.2238
 4129SOL     OW23845   3.736   0.780   3.855 -0.2359 -0.1714 -0.0041
 4129SOL    HW123846   3.665   0.770   3.919 -0.6409  0.4498 -0.3572
 4129SOL    HW223847   3.777   0.697   3.878 -0.2709  0.0075  0.7296
 4130SOL     OW23848   0.309   4.028   2.766  0.0946  0.2859  0.2431
 4130SOL    HW123849   0.285   3.989   2.850  0.7739  1.0039  0.7769
 4130SOL    HW223850   0.398   4.058   2.786 -0.2630  0.6960  1.2015
 4131SOL     OW23851   1.381   2.211   6.832  0.1883 -0.1654  0.0180
 4131SOL    HW123852   1.324   2.173   6.766  0.5534  1.8437 -1.4439
 4131SOL    HW223853   1.319   2.257   6.889  0.3225 -0.5429  0.4676
 4132SOL     OW23854   2.115   0.749   4.483  0.2388 -0.1297 -0.1385
 4132SOL    HW123855   2.184   0.732   4.548  1.4795  0.6494 -1.2458
 4132SOL    HW223856   2.036   0.742   4.537 -0.2651  1.1432 -0.6982
 4133SOL     OW23857   1.626   2.282   7.354 -0.5811  0.1598  0.7897
 4133SOL    HW123858   1.702   2.322   7.310 -1.1700 -0.4603 -0.7761
 4133SOL    HW223859   1.582   2.248   7.276 -1.5075  0.3052  1.2546
 4134SOL     OW23860   2.406   2.347  16.585  0.2046  0.1258  0.1826
 4134SOL    HW123861   2.333   2.356  16.524 -1.2609  0.8907  2.0485
 4134SOL    HW223862   2.478   2.338  16.522  0.5834 -1.0057  0.7705
 4135SOL     OW23863   4.386   3.789   3.492 -0.1934 -0.1343 -0.0360
 4135SOL    HW123864   4.366   3.870   3.445  1.6446  0.1998 -0.2549
 4135SOL    HW223865   4.412   3.740   3.413 -1.0177 -1.6640  0.6429
 4136SOL     OW23866   0.341   3.048   7.297 -0.1186  0.5715 -0.0354
 4136SOL    HW123867   0.416   3.099   7.326  0.8974 -0.8450 -0.1729
 4136SOL    HW223868   0.313   3.018   7.383 -1.5555  2.3905  0.1207
 4137SOL     OW23869   2.430   2.455   9.896  0.7542 -0.7331  0.0294
 4137SOL    HW123870   2.498   2.522   9.890 -2.9702  2.7305 -3.1969
 4137SOL    HW223871   2.392   2.492   9.976  1.6116  2.6616 -1.1401
 4138SOL     OW23872   1.384   2.179  14.473  0.6063 -0.0288  0.4873
 4138SOL    HW123873   1.401   2.089  14.446  0.1161 -0.0357  0.2111
 4138SOL    HW223874   1.374   2.220  14.387  1.1080  0.4204  0.6462
 4139SOL     OW23875   4.175   2.618   3.525  0.5217 -0.4974 -0.4723
 4139SOL    HW123876   4.261   2.588   3.494  1.0681  0.1747  0.3836
 4139SOL    HW223877   4.131   2.617   3.440 -0.9899 -0.0102  0.3105
 4140SOL     OW23878   1.458   0.057   5.673  0.8133 -0.7152 -0.1997
 4140SOL    HW123879   1.494   4.695   5.691 -2.1680 -2.1664 -1.3998
 4140SOL    HW223880   1.373   0.021   5.648  0.0217  0.9991  0.0259
 4141SOL     OW23881   2.064   3.822   4.135 -0.0744  0.5784 -0.6001
 4141SOL    HW123882   2.046   3.814   4.041 -0.9055 -0.3245 -0.3567
 4141SOL    HW223883   1.996   3.777   4.185  0.5974 -2.7007 -2.6414
 4142SOL     OW23884   2.852   1.650   4.996 -0.1172  0.2868 -0.1216
 4142SOL    HW123885   2.829   1.729   5.045 -2.3383  1.8072 -3.6124
 4142SOL    HW223886   2.944   1.639   5.021 -0.1399 -0.9362 -0.6060
 4143SOL     OW23887   4.429   1.889   2.209  0.3999  0.0803 -0.4890
 4143SOL    HW123888   4.453   1.801   2.181  1.0687 -0.1098  0.6876
 4143SOL    HW223889   4.517   1.925   2.219  0.8652 -0.7520 -1.6337
 4144SOL     OW23890   2.441   1.445  10.153  1.0604 -0.1594 -0.0257
 4144SOL    HW123891   2.465   1.537  10.147  0.9221 -0.1923 -1.1142
 4144SOL    HW223892   2.346   1.445  10.140  1.0284  3.8091  0.1907
 4145SOL     OW23893   1.368   4.598  15.012 -0.0881  0.0787 -0.0847
 4145SOL    HW123894   1.362   4.568  14.921 -1.6521  2.1094 -0.6667
 4145SOL    HW223895   1.453   4.561  15.032  0.2034  0.8308  0.0680
 4146SOL     OW23896   2.923   1.209   5.127 -0.1404  0.0874 -0.0862
 4146SOL    HW123897   2.869   1.161   5.190  1.3123  0.5839  1.5157
 4146SOL    HW223898   2.870   1.288   5.125  0.8964  0.7558 -1.9113
 4147SOL     OW23899   1.183   1.965   3.641  0.6655  0.2457  0.0931
 4147SOL    HW123900   1.191   1.916   3.722  0.6054  0.2924  0.1272
 4147SOL    HW223901   1.094   1.997   3.657  0.5500  1.1586 -2.2683
 4148SOL     OW23902   0.121   2.373   4.934  0.2987  0.5347 -0.5442
 4148SOL    HW123903   0.108   2.376   4.839 -0.6020 -1.2630 -0.4849
 4148SOL    HW223904   0.061   2.301   4.953  0.5538  0.3824 -0.3168
 4149SOL     OW23905   4.318   1.539  17.069  0.0744  0.0187 -0.0269
 4149SOL    HW123906   4.382   1.469  17.083  0.5997  1.0613  2.7200
 4149SOL    HW223907   4.250   1.511  17.130 -2.1510  1.5410 -1.8048
 4150SOL     OW23908   4.316   0.490   9.450  0.1687 -0.6323  0.1840
 4150SOL    HW123909   4.382   0.429   9.415  2.5413  2.7866 -1.2629
 4150SOL    HW223910   4.366   0.571   9.450  0.9824 -1.1336  1.4193
 4151SOL     OW23911   0.295   3.351   9.314 -0.3831 -0.1724  0.0399
 4151SOL    HW123912   0.316   3.327   9.224 -1.6090 -0.7355 -0.0988
 4151SOL    HW223913   0.244   3.430   9.294  0.3095 -0.7501 -3.9298
 4152SOL     OW23914   2.359   2.424   8.136  0.3190 -0.2194 -0.9248
 4152SOL    HW123915   2.387   2.495   8.078 -0.2828  1.3460  0.7189
 4152SOL    HW223916   2.342   2.462   8.222  3.4417 -1.1326  0.1087
 4153SOL     OW23917   3.264   3.221   2.671  0.3538 -0.4136 -0.2677
 4153SOL    HW123918   3.286   3.128   2.664 -0.3801 -0.5295 -1.0751
 4153SOL    HW223919   3.341   3.252   2.718  0.5578 -0.9634 -0.2299
 4154SOL     OW23920   0.804   4.491  14.119  0.2240 -0.0244  0.2562
 4154SOL    HW123921   0.837   4.581  14.117  0.0894  0.0030 -0.7118
 4154SOL    HW223922   0.845   4.448  14.194  1.7214 -1.9062 -1.6463
 4155SOL     OW23923   1.916   0.288   3.911  0.5967  0.0635  0.8065
 4155SOL    HW123924   1.960   0.367   3.879 -2.3295  1.0636 -0.7177
 4155SOL    HW223925   1.925   0.303   4.005 -0.2502 -0.3179  0.9417
 4156SOL     OW23926   3.198   2.550   5.329 -0.6297 -0.0112  0.3184
 4156SOL    HW123927   3.272   2.489   5.323 -0.2077  0.8036 -2.6252
 4156SOL    HW223928   3.139   2.523   5.259 -0.5858  0.4555  0.1011
 4157SOL     OW23929   1.747   4.018   0.149 -0.0892 -0.0663 -0.4681
 4157SOL    HW123930   1.734   4.062   0.234 -2.8633  2.2617 -2.0638
 4157SOL    HW223931   1.695   3.938   0.157  0.1881 -0.0924  1.0186
 4158SOL     OW23932   2.403   0.830   2.617 -0.0799  0.1477  0.0300
 4158SOL    HW123933   2.425   0.737   2.623  2.0061  0.8484  3.3787
 4158SOL    HW223934   2.314   0.832   2.582 -0.1924  1.0859  0.3757
 4159SOL     OW23935   1.574   4.404   8.355  0.4272  0.1041 -0.1374
 4159SOL    HW123936   1.480   4.386   8.358  0.7214 -1.4098  0.3288
 4159SOL    HW223937   1.604   4.343   8.423  3.9724 -0.9159 -2.6505
 4160SOL     OW23938   3.784   1.019   7.494 -0.5686 -0.4734 -0.0726
 4160SOL    HW123939   3.857   0.970   7.457 -2.6014 -3.4429 -0.0868
 4160SOL    HW223940   3.739   1.069   7.426  0.4348 -0.8955 -1.0419
 4161SOL     OW23941   0.119   2.360   4.238  0.1996  0.5708 -0.0367
 4161SOL    HW123942   0.172   2.416   4.180  1.9950 -0.6124  0.4597
 4161SOL    HW223943   0.180   2.330   4.305 -1.1120  0.2152  1.0047
 4162SOL     OW23944   2.014   1.921  17.660 -0.6065 -0.1456 -0.1734
 4162SOL    HW123945   2.017   2.016  17.651 -2.5337  0.1244  2.0734
 4162SOL    HW223946   1.978   1.913   0.044 -0.3420  2.3409  0.1509
 4163SOL     OW23947   0.598   4.515   4.365  0.0070 -0.9459  0.4883
 4163SOL    HW123948   0.539   4.518   4.290  0.2303  0.2507  0.3653
 4163SOL    HW223949   0.544   4.565   4.427  0.5239 -0.1056  0.2596
 4164SOL     OW23950   0.791   1.179   6.635 -0.1062 -0.1015 -0.3458
 4164SOL    HW123951   0.716   1.120   6.641  0.0991 -0.5266 -2.0215
 4164SOL    HW223952   0.746   1.263   6.624 -0.5956 -0.1291  1.4463
 4165SOL     OW23953   2.935   3.487   2.329 -0.0568  0.6711 -0.4038
 4165SOL    HW123954   2.898   3.553   2.389 -2.4034 -0.5600 -0.4801
 4165SOL    HW223955   2.864   3.424   2.325 -0.1273  0.7948 -1.0583
 4166SOL     OW23956   2.757   4.723   2.866 -0.4038 -0.3277 -0.6779
 4166SOL    HW123957   2.678   0.052   2.863 -0.6871 -0.6088  1.6140
 4166SOL    HW223958   2.782   4.725   2.774 -0.9719 -1.2667 -0.8526
 4167SOL     OW23959   0.111   1.221   7.339  0.2363 -0.3764 -0.3763
 4167SOL    HW123960   0.177   1.272   7.291 -0.2062  0.5448  0.0055
 4167SOL    HW223961   0.168   1.162   7.389  1.6863 -1.5628 -3.4151
 4168SOL     OW23962   2.370   3.883   8.435 -0.6692 -0.1502  0.1837
 4168SOL    HW123963   2.335   3.832   8.508 -0.8230 -2.2928 -1.3795
 4168SOL    HW223964   2.458   3.846   8.431 -0.5780  0.0898 -0.0034
 4169SOL     OW23965   2.633   2.133  16.225  0.0865 -0.6330 -0.3210
 4169SOL    HW123966   2.571   2.080  16.175 -2.3054  0.2400  1.6520
 4169SOL    HW223967   2.671   2.079  16.294  1.7153 -0.3235 -0.9808
 4170SOL     OW23968   3.152   4.392   8.558 -0.3665  0.5146  0.2271
 4170SOL    HW123969   3.086   4.396   8.489  0.9755 -0.5622 -1.1208
 4170SOL    HW223970   3.230   4.357   8.514 -0.7145  0.2069 -0.1388
 4171SOL     OW23971   2.050   0.770  13.274 -0.0694  0.4573  0.6226
 4171SOL    HW123972   1.990   0.711  13.228  0.1982 -0.3269  1.2799
 4171SOL    HW223973   2.023   0.859  13.253 -0.2045  1.3742  4.7086
 4172SOL     OW23974   4.146   2.843   6.495  0.0485  0.1764 -0.0200
 4172SOL    HW123975   4.202   2.847   6.417  0.6454  3.5585  0.6002
 4172SOL    HW223976   4.215   2.873   6.553  1.9501 -1.9714 -1.1479
 4173SOL     OW23977   4.657   2.399   5.447 -0.0329  0.6245 -0.5803
 4173SOL    HW123978   4.610   2.320   5.420 -0.9491  0.6147  1.0031
 4173SOL    HW223979   0.020   2.373   5.471 -0.3318 -0.7070 -0.9226
 4174SOL     OW23980   1.872   3.666   4.563 -0.2369  0.0487 -0.0311
 4174SOL    HW123981   1.843   3.752   4.594 -0.0099  0.4399 -0.9385
 4174SOL    HW223982   1.966   3.681   4.568 -0.1016 -1.4036  1.9893
 4175SOL     OW23983   3.410   4.249  16.635  0.1304 -0.2195  0.0371
 4175SOL    HW123984   3.427   4.299  16.555  0.2125  2.5405  1.7770
 4175SOL    HW223985   3.436   4.159  16.615  0.3859 -0.2617  0.5576
 4176SOL     OW23986   4.723   3.755   2.986  0.0869  0.0593  0.4723
 4176SOL    HW123987   0.002   3.810   2.908  2.6508 -2.1756 -0.9667
 4176SOL    HW223988   4.629   3.737   2.989 -0.5263  3.2201  0.0429
 4177SOL     OW23989   1.099   0.168  15.349 -0.0827  0.3228  0.0194
 4177SOL    HW123990   1.154   0.242  15.376 -0.1686 -0.0799  1.2918
 4177SOL    HW223991   1.146   0.131  15.274 -1.1772  1.2910 -1.1533
 4178SOL     OW23992   0.519   2.443   3.705  0.3543  0.0102 -0.3052
 4178SOL    HW123993   0.557   2.529   3.721  0.0956 -0.1980  1.4781
 4178SOL    HW223994   0.541   2.429   3.613 -1.3597  0.7138 -0.8346
 4179SOL     OW23995   2.172   0.632   2.670  0.1151 -0.6747  0.0050
 4179SOL    HW123996   2.255   0.606   2.632 -1.1557 -2.3725 -1.6340
 4179SOL    HW223997   2.156   0.557   2.727  2.0879 -0.2295  1.1275
 4180SOL     OW23998   0.023   2.163   6.649  0.1348 -0.4417  0.5817
 4180SOL    HW123999   4.723   2.081   6.691  2.0787 -1.3114  0.1130
 4180SOL    HW224000   0.016   2.139   6.556 -1.1858  0.8885  0.3514
 4181SOL     OW24001   0.365   4.171   3.968  0.0924 -0.3086 -0.5782
 4181SOL    HW124002   0.288   4.213   4.005  0.1036 -0.8769  0.0974
 4181SOL    HW224003   0.406   4.121   4.038  0.6758 -1.5403 -1.7993
 4182SOL     OW24004   0.065   4.558   0.247  0.6438  0.7149 -0.2808
 4182SOL    HW124005   0.141   4.556   0.189 -0.4499 -3.9589 -1.5832
 4182SOL    HW224006   0.096   4.505   0.320 -2.7249 -1.4187 -0.3537
 4183SOL     OW24007   2.386   1.531   7.477  0.2991 -0.1230 -0.2817
 4183SOL    HW124008   2.443   1.596   7.517 -2.5121 -0.0987  3.7019
 4183SOL    HW224009   2.354   1.575   7.399 -0.3748  2.2479  1.3251
 4184SOL     OW24010   1.687   2.441   3.595 -0.1506 -0.0198 -0.7260
 4184SOL    HW124011   1.725   2.376   3.654 -0.1501  0.6091 -0.0438
 4184SOL    HW224012   1.593   2.444   3.611 -0.0555  0.2724 -0.2264
 4185SOL     OW24013   1.593   0.540   7.564  0.2474  0.2778 -0.5753
 4185SOL    HW124014   1.507   0.533   7.524  0.7576 -0.8022 -1.4748
 4185SOL    HW224015   1.580   0.613   7.624 -1.2350 -2.4642  2.4285
 4186SOL     OW24016   0.532   1.944  14.910 -0.4952 -0.1261 -0.3238
 4186SOL    HW124017   0.503   1.982  14.827 -1.2927  0.2856  0.1434
 4186SOL    HW224018   0.468   1.982  14.969  0.1281  0.0691  0.2283
 4187SOL     OW24019   2.929   2.143   4.169 -0.6189  0.4350  0.1179
 4187SOL    HW124020   2.932   2.204   4.096  0.0994 -0.1633 -0.3407
 4187SOL    HW224021   3.003   2.086   4.152 -0.6859  0.1564  0.7383
 4188SOL     OW24022   3.334   2.091   3.094  0.4163  0.2187 -0.5988
 4188SOL    HW124023   3.268   2.137   3.145 -2.4613 -2.6870 -1.6551
 4188SOL    HW224024   3.413   2.104   3.146 -0.1584 -0.7800  0.5256
 4189SOL     OW24025   2.350   0.484   7.459 -0.2883 -0.5360  0.0177
 4189SOL    HW124026   2.257   0.505   7.469 -0.5033 -0.5171 -2.1463
 4189SOL    HW224027   2.390   0.571   7.450 -0.4285 -0.3806  0.9079
 4190SOL     OW24028   0.958   3.628   7.881 -0.5988  0.0511  0.0385
 4190SOL    HW124029   0.882   3.669   7.840 -1.2265  0.2355  1.3557
 4190SOL    HW224030   0.927   3.624   7.972  0.5822 -1.9876  0.3747
 4191SOL     OW24031   2.576   1.269   7.171  0.1454 -0.5027 -0.0119
 4191SOL    HW124032   2.598   1.230   7.087 -2.6505 -0.9255 -0.5664
 4191SOL    HW224033   2.499   1.317   7.140  0.9959 -1.0545 -2.8966
 4192SOL     OW24034   1.504   3.783  13.466 -0.1418 -0.1862  0.2476
 4192SOL    HW124035   1.597   3.768  13.451  0.2875  2.4600  0.1773
 4192SOL    HW224036   1.503   3.772  13.561 -0.1871 -0.0578  0.2629
 4193SOL     OW24037   4.593   3.656  11.103  0.0188  0.7165  0.1881
 4193SOL    HW124038   4.601   3.689  11.193  0.4070 -0.2183  0.4903
 4193SOL    HW224039   4.523   3.593  11.117 -0.0476  0.4465 -1.3541
 4194SOL     OW24040   0.960   2.794   0.393  0.3704 -0.2851 -0.8374
 4194SOL    HW124041   0.882   2.802   0.448 -0.1982  0.2250 -1.7178
 4194SOL    HW224042   1.018   2.858   0.433  1.4974 -1.6594 -0.2557
 4195SOL     OW24043   4.672   2.671   3.125 -0.1239 -0.3091 -0.0817
 4195SOL    HW124044   4.606   2.602   3.130  1.4803 -1.7688  1.2429
 4195SOL    HW224045   4.620   2.750   3.108  1.2821  0.3685 -1.1980
 4196SOL     OW24046   2.972   3.857  12.212  0.1917 -0.0367  0.1818
 4196SOL    HW124047   2.956   3.951  12.226 -0.0297 -0.0215 -0.1728
 4196SOL    HW224048   2.983   3.856  12.117 -1.0307 -0.2410  0.0400
 4197SOL     OW24049   4.432   0.508   0.002  0.0299  0.2738 -0.3097
 4197SOL    HW124050   4.510   0.471   0.043  0.2825  2.7547  1.5137
 4197SOL    HW224051   4.369   0.492   0.072 -0.1227 -0.5283 -0.6403
 4198SOL     OW24052   4.123   0.916   3.156  0.3356 -0.3354 -0.1584
 4198SOL    HW124053   4.150   0.965   3.234  1.5731 -0.3726 -0.5491
 4198SOL    HW224054   4.035   0.892   3.183  0.0516  0.0575 -0.7211
 4199SOL     OW24055   0.308   1.651  14.947  0.5357  0.3628 -0.4780
 4199SOL    HW124056   0.233   1.596  14.969  2.6840 -2.9875 -1.4030
 4199SOL    HW224057   0.269   1.737  14.929 -0.0519  0.3645  0.8254
 4200SOL     OW24058   2.088   3.730   5.000 -0.3141 -0.0919 -0.5412
 4200SOL    HW124059   2.148   3.775   5.059 -1.1453  1.1868 -0.6654
 4200SOL    HW224060   2.142   3.710   4.924 -1.2386  0.2209 -1.2756
 4201SOL     OW24061   0.967   2.575  15.351  0.7525  0.2218  0.5364
 4201SOL    HW124062   0.956   2.669  15.365  0.4150  0.5921 -2.3052
 4201SOL    HW224063   0.960   2.576  15.256  1.2378  0.1722  0.5000
 4202SOL     OW24064   0.547   2.123   7.096 -0.0994 -0.5296  0.0589
 4202SOL    HW124065   0.549   2.162   7.008  0.5714  0.1723  0.3908
 4202SOL    HW224066   0.564   2.031   7.076  1.6969 -0.1778  0.0266
 4203SOL     OW24067   1.005   1.010   4.002 -0.0351 -0.8919  0.0227
 4203SOL    HW124068   1.038   0.948   4.066 -0.1197 -0.3107  0.6348
 4203SOL    HW224069   1.088   1.032   3.960  0.0606 -2.1292 -0.4232
 4204SOL     OW24070   0.516   0.795   8.620  0.4673 -0.1811  0.1481
 4204SOL    HW124071   0.504   0.774   8.712  1.8932 -0.7812  0.1940
 4204SOL    HW224072   0.479   0.882   8.604 -2.1088 -1.0215  1.6563
 4205SOL     OW24073   3.686   0.758  17.447 -0.4267  0.2730 -0.3829
 4205SOL    HW124074   3.778   0.755  17.423 -0.5054  2.3514 -0.9252
 4205SOL    HW224075   3.691   0.686  17.511  0.2103  0.2917 -0.4084
 4206SOL     OW24076   4.567   1.424   6.540  1.0643 -0.0246 -0.0594
 4206SOL    HW124077   4.519   1.347   6.573 -0.2803  0.9517  0.2697
 4206SOL    HW224078   4.546   1.414   6.447  0.0471  1.0252  0.0602
 4207SOL     OW24079   2.281   2.211   5.524 -0.2419 -0.3604  0.1517
 4207SOL    HW124080   2.372   2.195   5.546  0.3022  1.8018 -0.5340
 4207SOL    HW224081   2.263   2.133   5.471 -0.8263 -0.4335  0.4579
 4208SOL     OW24082   3.111   1.703   1.450 -0.2052 -0.0041 -0.1635
 4208SOL    HW124083   3.145   1.647   1.380  0.5018  2.2185 -1.6149
 4208SOL    HW224084   3.182   1.717   1.513  0.4159 -1.5447 -0.5193
 4209SOL     OW24085   0.755   0.535   7.535 -0.2908 -0.4787  0.7098
 4209SOL    HW124086   0.772   0.506   7.625  0.6787  1.0934  1.0503
 4209SOL    HW224087   0.725   0.454   7.496  1.7270 -0.3941 -1.0386
 4210SOL     OW24088   0.632   0.387   5.633 -0.1347 -0.3410 -0.2515
 4210SOL    HW124089   0.575   0.311   5.619 -2.6122  1.6055 -0.6568
 4210SOL    HW224090   0.723   0.357   5.635 -0.1642 -0.4487 -0.5465
 4211SOL     OW24091   2.244   4.352   6.003 -0.1456 -0.0697 -0.8349
 4211SOL    HW124092   2.276   4.435   6.038 -0.6615 -1.1844  2.3136
 4211SOL    HW224093   2.241   4.380   5.911  2.0426  0.5711 -0.7183
 4212SOL     OW24094   1.286   1.794   4.808  0.1405 -0.4544  0.3278
 4212SOL    HW124095   1.364   1.773   4.859 -0.1037  0.3167  1.0093
 4212SOL    HW224096   1.221   1.730   4.836 -1.1284  0.5350 -0.3285
 4213SOL     OW24097   1.909   2.913   5.131  0.4617 -0.1377  0.4150
 4213SOL    HW124098   1.867   2.868   5.057  1.0798  0.9236 -0.5818
 4213SOL    HW224099   1.998   2.877   5.126  0.5753  0.1520  0.3893
 4214SOL     OW24100   1.665   3.763   8.182 -0.0961 -0.5535 -0.1336
 4214SOL    HW124101   1.597   3.760   8.250  0.4614  3.0329  0.5569
 4214SOL    HW224102   1.742   3.740   8.233 -1.0657 -2.9523  0.2411
 4215SOL     OW24103   2.136   3.133   3.466 -0.1123  0.4323 -0.0600
 4215SOL    HW124104   2.148   3.044   3.433  0.5936  0.3716  0.3520
 4215SOL    HW224105   2.152   3.191   3.392 -0.8003  1.3699  0.5356
 4216SOL     OW24106   0.483   4.019   4.212 -0.0475  0.0758  0.4220
 4216SOL    HW124107   0.481   4.085   4.281 -2.1289 -1.4427  1.7848
 4216SOL    HW224108   0.515   3.946   4.264  1.1061  2.6610  3.3273
 4217SOL     OW24109   2.331   0.384  14.819  0.2000  0.0666 -0.5826
 4217SOL    HW124110   2.259   0.321  14.822  1.8310 -1.6900  1.0223
 4217SOL    HW224111   2.405   0.326  14.834  0.5697  0.6487 -0.1887
 4218SOL     OW24112   1.871   4.464   0.735  0.1395  0.0695 -0.1629
 4218SOL    HW124113   1.849   4.472   0.827 -0.4317  0.7924 -0.3631
 4218SOL    HW224114   1.923   4.383   0.732 -0.6503 -0.5595  3.2080
 4219SOL     OW24115   4.561   0.785   2.633  0.5486  0.5997  0.5041
 4219SOL    HW124116   4.514   0.856   2.590  0.4746  0.8254  0.9621
 4219SOL    HW224117   4.495   0.755   2.695  0.7839  0.1620  0.5460
 4220SOL     OW24118   3.940   2.480   8.922  0.1534  0.0817  0.2218
 4220SOL    HW124119   3.855   2.521   8.938  0.0663  0.7460 -1.8933
 4220SOL    HW224120   3.993   2.528   8.985  0.8608 -0.0673 -0.2581
 4221SOL     OW24121   1.310   4.086   4.670 -0.9714  0.4312  0.2081
 4221SOL    HW124122   1.253   4.126   4.605 -1.0600  0.5512  0.3613
 4221SOL    HW224123   1.253   4.017   4.705 -1.5011  0.0926 -1.3483
 4222SOL     OW24124   1.059   3.209  11.047  0.0412 -0.3338  0.3830
 4222SOL    HW124125   1.027   3.164  11.125 -1.7096 -0.1662 -0.2506
 4222SOL    HW224126   0.991   3.272  11.027 -1.1856 -1.8148 -0.0387
 4223SOL     OW24127   1.440   4.010   3.700 -0.6178 -0.4177  0.1579
 4223SOL    HW124128   1.505   3.955   3.656  0.2771  0.3254  0.5460
 4223SOL    HW224129   1.494   4.050   3.768 -2.6157  0.8841  1.0044
 4224SOL     OW24130   2.616   2.646   9.632 -0.0948  0.2814 -0.6289
 4224SOL    HW124131   2.667   2.583   9.683 -0.9713  1.4096  1.6525
 4224SOL    HW224132   2.686   2.667   9.571  0.1991  0.6600 -0.1628
 4225SOL     OW24133   0.592   3.761  15.215  0.2596 -0.0666 -0.0586
 4225SOL    HW124134   0.502   3.738  15.194 -0.0308  0.6261  0.4235
 4225SOL    HW224135   0.616   3.820  15.143 -0.1310  0.3549  0.1562
 4226SOL     OW24136   1.532   0.245   5.283 -0.2587 -0.6709  0.2295
 4226SOL    HW124137   1.533   0.237   5.378 -0.2902 -1.6908  0.1444
 4226SOL    HW224138   1.443   0.276   5.265  0.9690  0.8707 -3.1320
 4227SOL     OW24139   3.136   0.731   3.007  0.0520 -0.0340 -0.6479
 4227SOL    HW124140   3.199   0.675   3.054 -0.2027  0.1519 -0.0800
 4227SOL    HW224141   3.187   0.797   2.961 -1.1195  1.1659 -0.2060
 4228SOL     OW24142   4.558   0.371   7.651 -0.4094 -0.5692  0.4254
 4228SOL    HW124143   4.644   0.367   7.693  1.1977  3.3339 -2.5225
 4228SOL    HW224144   4.540   0.456   7.692  1.1126 -0.2040  0.3430
 4229SOL     OW24145   1.885   4.688   8.492 -0.2239 -0.6730 -0.0474
 4229SOL    HW124146   1.821   4.693   8.422  0.2088  0.2164 -0.3776
 4229SOL    HW224147   1.867   0.051   8.522  0.9677 -0.5516  0.3056
 4230SOL     OW24148   0.971   1.951   2.727  0.5145 -0.0181 -0.6547
 4230SOL    HW124149   1.009   1.946   2.639  1.6558 -0.7991 -0.1191
 4230SOL    HW224150   0.993   1.875   2.781 -1.9547  0.3020  0.8073
 4231SOL     OW24151   3.930   0.212   6.139 -0.0254  0.0424  0.0439
 4231SOL    HW124152   3.857   0.150   6.149 -1.4669  1.3683 -2.1666
 4231SOL    HW224153   3.967   0.171   6.060 -1.3141  0.0875 -0.6024
 4232SOL     OW24154   2.533   3.868   7.786 -0.1102 -0.2773 -0.0764
 4232SOL    HW124155   2.500   3.867   7.696 -1.8767 -1.1689  0.5759
 4232SOL    HW224156   2.622   3.835   7.771 -0.9347 -3.2450  1.5743
 4233SOL     OW24157   3.404   1.847  14.597 -0.5163 -0.0221 -0.2457
 4233SOL    HW124158   3.451   1.907  14.655  1.5053 -0.9219 -0.9540
 4233SOL    HW224159   3.432   1.879  14.512  1.7649  0.6362  0.7709
 4234SOL     OW24160   4.636   1.457   2.357 -1.1455  0.5310  0.7479
 4234SOL    HW124161   4.724   1.419   2.363 -1.1922  0.3014 -0.1719
 4234SOL    HW224162   4.656   1.550   2.369  2.6624 -0.3311  1.0565
 4235SOL     OW24163   1.176   1.597   5.917  0.2099 -0.4347  0.2951
 4235SOL    HW124164   1.109   1.529   5.917 -0.9869  0.7342 -1.5968
 4235SOL    HW224165   1.154   1.640   5.999 -1.2090  0.5371 -0.5755
 4236SOL     OW24166   0.205   0.350   1.776 -0.2250 -0.0207 -0.1370
 4236SOL    HW124167   0.248   0.291   1.838  1.7025  1.1222 -0.3921
 4236SOL    HW224168   0.234   0.439   1.796 -0.1004  0.2693 -1.5699
 4237SOL     OW24169   3.807   0.525  10.266  0.2299 -0.0768  0.2818
 4237SOL    HW124170   3.728   0.563  10.228  0.6389  2.9476  2.4041
 4237SOL    HW224171   3.783   0.509  10.357  0.8063  1.9502  0.7972
 4238SOL     OW24172   1.286   2.588   9.562  0.1070  0.1916 -0.3105
 4238SOL    HW124173   1.275   2.683   9.565 -2.4826 -0.0629 -2.0301
 4238SOL    HW224174   1.360   2.578   9.623  0.8046 -0.4185 -1.2508
 4239SOL     OW24175   1.468   3.840   8.561 -0.0268 -0.0881 -0.1693
 4239SOL    HW124176   1.442   3.879   8.644  0.4855 -0.9628  0.4001
 4239SOL    HW224177   1.455   3.918   8.507 -0.6799  0.6533  1.0708
 4240SOL     OW24178   3.991   4.524   6.539 -0.1542  0.8383 -0.1374
 4240SOL    HW124179   3.962   4.443   6.580  2.2009 -0.0277 -0.1952
 4240SOL    HW224180   3.910   4.567   6.513  1.0741  2.3923 -1.3957
 4241SOL     OW24181   2.180   2.873   3.389  0.1145 -0.0887 -0.2647
 4241SOL    HW124182   2.130   2.809   3.440  0.0199  0.5541  0.4540
 4241SOL    HW224183   2.144   2.845   3.305 -1.6404  1.0043  0.1358
 4242SOL     OW24184   0.175   1.224  13.559 -0.0271  0.7282  0.3937
 4242SOL    HW124185   0.176   1.195  13.468  1.0960 -0.3174  0.7417
 4242SOL    HW224186   0.266   1.207  13.582 -0.6760 -1.3196  1.5040
 4243SOL     OW24187   2.228   0.334   4.111  0.0620 -0.3647 -0.1701
 4243SOL    HW124188   2.293   0.404   4.114 -1.9047  1.3620  2.3651
 4243SOL    HW224189   2.196   0.358   4.024 -0.1793  0.0550  0.0310
 4244SOL     OW24190   2.982   3.244   6.229  0.3557  0.1652  0.3034
 4244SOL    HW124191   3.016   3.227   6.141 -1.8312 -0.5633 -0.3743
 4244SOL    HW224192   3.072   3.240   6.263  0.8503 -0.9935 -1.1163
 4245SOL     OW24193   3.435   4.495   3.955 -0.2595 -0.0210  0.0277
 4245SOL    HW124194   3.448   4.535   3.869  2.9003  0.7879  0.8985
 4245SOL    HW224195   3.462   4.559   4.021 -2.1722  0.3893  0.4151
 4246SOL     OW24196   3.645   4.334   8.428  0.2516 -0.4163  0.1267
 4246SOL    HW124197   3.735   4.311   8.453  0.0583  0.3694  1.5232
 4246SOL    HW224198   3.662   4.421   8.392  3.6980 -1.6177 -1.1869
 4247SOL     OW24199   1.917   0.722   8.046 -0.2740  0.9844 -0.2060
 4247SOL    HW124200   1.872   0.800   8.079 -3.3304 -0.9243  0.1202
 4247SOL    HW224201   1.896   0.645   8.099  1.5067 -0.2779 -1.3358
 4248SOL     OW24202   2.571   1.468   2.455  0.0942 -0.3451  0.2581
 4248SOL    HW124203   2.506   1.452   2.524  0.2660  1.2684  0.7909
 4248SOL    HW224204   2.621   1.386   2.458 -0.1445 -0.5156 -0.4102
 4249SOL     OW24205   0.198   4.435   2.777 -0.2265 -0.0721  0.2155
 4249SOL    HW124206   0.214   4.529   2.764  0.4272  0.1536  2.5047
 4249SOL    HW224207   0.284   4.419   2.817  0.1317  2.7188  0.5870
 4250SOL     OW24208   1.097   1.430   4.667 -0.2358  0.0394  0.1278
 4250SOL    HW124209   1.073   1.411   4.576  1.1555  2.2864 -0.6989
 4250SOL    HW224210   1.093   1.344   4.709 -0.8490 -1.3956 -2.8749
 4251SOL     OW24211   1.851   2.229   2.774  0.1698 -0.4507  0.4419
 4251SOL    HW124212   1.929   2.215   2.720 -1.7225  1.1453 -2.7497
 4251SOL    HW224213   1.854   2.156   2.836  1.7472 -2.2747 -1.7731
 4252SOL     OW24214   3.679   2.964   5.894  0.4071  0.3743  0.2027
 4252SOL    HW124215   3.586   2.965   5.869  0.2172 -0.9936  0.8064
 4252SOL    HW224216   3.722   2.994   5.814  0.5320 -1.3556 -0.3880
 4253SOL     OW24217   1.736   1.962   3.349  0.1544  0.1288 -0.5222
 4253SOL    HW124218   1.715   1.983   3.440  0.5619  0.1158 -0.4261
 4253SOL    HW224219   1.646   1.961   3.315  1.4481  2.2274 -3.9104
 4254SOL     OW24220   0.568   2.004   0.692  0.1706 -0.7513 -0.3098
 4254SOL    HW124221   0.580   1.916   0.727 -0.6345 -2.4412 -4.3435
 4254SOL    HW224222   0.608   2.008   0.606 -0.0225  2.0994 -0.2707
 4255SOL     OW24223   0.300   1.039   0.361 -0.6213 -0.1739 -0.1686
 4255SOL    HW124224   0.212   1.003   0.359 -0.7762  0.1350  1.5447
 4255SOL    HW224225   0.314   1.049   0.267 -1.9376 -2.0244 -0.5648
 4256SOL     OW24226   4.532   3.939   5.048 -0.2724 -1.1244 -0.1858
 4256SOL    HW124227   4.595   4.009   5.033 -1.9998  0.4178 -0.2440
 4256SOL    HW224228   4.465   3.987   5.097 -0.4643  1.9135 -3.3876
 4257SOL     OW24229   3.498   4.192   5.623  0.1163  0.7579  0.3664
 4257SOL    HW124230   3.576   4.148   5.590  1.2723  2.1070  1.3058
 4257SOL    HW224231   3.449   4.122   5.667 -1.4406  0.4462 -1.8967
 4258SOL     OW24232   2.359   1.794   6.607  0.3224  0.5848 -0.1340
 4258SOL    HW124233   2.416   1.845   6.665 -0.5974 -0.0403  1.3337
 4258SOL    HW224234   2.418   1.766   6.537  0.0990  0.5483 -0.3088
 4259SOL     OW24235   2.325   3.546   5.468  0.2793 -0.0936  0.2362
 4259SOL    HW124236   2.408   3.593   5.472 -0.3536  1.0781 -0.9115
 4259SOL    HW224237   2.345   3.489   5.543  1.1822  1.5085  1.2218
 4260SOL     OW24238   4.186   1.213   0.135 -0.9000  0.3191 -0.2365
 4260SOL    HW124239   4.190   1.117   0.134  0.4461  0.3796 -0.6816
 4260SOL    HW224240   4.183   1.229   0.040  2.1047  1.5938 -0.1127
 4261SOL     OW24241   2.183   1.668  13.611  0.8714  0.0145  0.1224
 4261SOL    HW124242   2.185   1.743  13.671  0.1503  0.1121  0.0163
 4261SOL    HW224243   2.270   1.632  13.627  0.4142 -1.1751 -0.1097
 4262SOL     OW24244   3.954   3.468   8.226  0.6452 -0.1282  1.2107
 4262SOL    HW124245   3.961   3.487   8.320  0.0040  0.1705  1.1998
 4262SOL    HW224246   3.872   3.418   8.228  0.6638 -0.2387 -0.8438
 4263SOL     OW24247   0.289   2.867  17.096 -0.0728 -0.0284 -0.3278
 4263SOL    HW124248   0.379   2.897  17.106  0.1098 -0.8475  0.5400
 4263SOL    HW224249   0.259   2.893  17.183  0.5003 -2.7868  0.6937
 4264SOL     OW24250   4.450   0.214   6.590 -0.5434 -0.3676  0.1407
 4264SOL    HW124251   4.408   0.136   6.555 -0.4261 -0.0672 -0.6667
 4264SOL    HW224252   4.448   0.279   6.520 -1.4289 -0.4857  0.0504
 4265SOL     OW24253   4.612   4.628   9.061 -0.1938  0.4188  0.0870
 4265SOL    HW124254   4.660   4.655   9.138 -1.9532 -2.3404  2.1548
 4265SOL    HW224255   4.530   4.668   9.091 -0.2143  1.1631 -0.9633
 4266SOL     OW24256   2.216   2.354   2.400  0.9286  0.1714  0.0079
 4266SOL    HW124257   2.248   2.264   2.412 -1.1855 -0.9790 -2.8892
 4266SOL    HW224258   2.122   2.343   2.419  1.4282 -3.5977  0.4571
 4267SOL     OW24259   2.336   4.109   9.269 -0.6014 -0.5394  0.1754
 4267SOL    HW124260   2.258   4.163   9.256  0.0874  0.7789  1.5969
 4267SOL    HW224261   2.407   4.173   9.279 -0.8552 -0.6020  2.2915
 4268SOL     OW24262   3.327   2.245   7.113 -0.0509 -0.0926  0.2319
 4268SOL    HW124263   3.383   2.236   7.190 -0.3636  2.1709  0.7304
 4268SOL    HW224264   3.286   2.330   7.128  0.0069  0.1602 -1.0920
 4269SOL     OW24265   1.353   0.768   3.621 -0.2773 -0.2015 -0.0324
 4269SOL    HW124266   1.308   0.825   3.559 -0.6593 -1.2778 -0.7329
 4269SOL    HW224267   1.397   0.703   3.567 -0.3505 -0.5721  0.3604
 4270SOL     OW24268   1.938   0.014  17.151  0.5726 -0.1321 -0.2730
 4270SOL    HW124269   1.946   0.033  17.057 -1.2305  1.2729 -0.1534
 4270SOL    HW224270   1.873   4.670  17.152  0.8659 -0.4464 -2.5006
 4271SOL     OW24271   1.293   4.368   8.067 -0.7328  0.2080 -0.4621
 4271SOL    HW124272   1.372   4.321   8.039 -0.0872  0.7421  0.4364
 4271SOL    HW224273   1.296   4.339   8.159  0.9117 -3.4679 -1.6606
 4272SOL     OW24274   2.255   3.428   8.252 -0.9323 -0.3311 -0.0317
 4272SOL    HW124275   2.303   3.502   8.214 -0.3976  0.1973  1.6912
 4272SOL    HW224276   2.199   3.411   8.177 -0.1078 -1.0852 -0.4856
 4273SOL     OW24277   0.822   4.171  10.005 -0.0897  0.3246 -0.2709
 4273SOL    HW124278   0.823   4.163   9.910  0.6965  0.2496 -0.2571
 4273SOL    HW224279   0.730   4.190  10.025 -0.0094  0.0531  0.3892
 4274SOL     OW24280   0.209   0.540   0.772 -0.1540 -0.2833 -0.1472
 4274SOL    HW124281   0.127   0.513   0.732 -0.2961 -0.0220 -0.0325
 4274SOL    HW224282   0.179   0.615   0.823  1.1600  1.4013 -1.8713
 4275SOL     OW24283   0.542   3.627   1.540 -0.0394 -0.4428 -0.0280
 4275SOL    HW124284   0.629   3.594   1.564 -0.0121  0.3633  0.9565
 4275SOL    HW224285   0.491   3.584   1.609 -1.2367  1.0809  0.0475
 4276SOL     OW24286   1.904   0.252  10.313  0.3882 -0.3794  0.4440
 4276SOL    HW124287   1.957   0.244  10.233  1.9098  2.6160  1.1558
 4276SOL    HW224288   1.841   0.320  10.290  1.3652  0.2892 -0.2241
 4277SOL     OW24289   4.375   2.826   3.952  0.2030  0.2974 -0.3652
 4277SOL    HW124290   4.293   2.782   3.931 -0.6706  1.5786  0.3677
 4277SOL    HW224291   4.431   2.748   3.951 -1.3334 -0.7802 -1.6276
 4278SOL     OW24292   1.595   0.058   5.102  0.3857  0.9540  0.0460
 4278SOL    HW124293   1.536   0.090   5.034  2.0382  1.1897 -1.2617
 4278SOL    HW224294   1.573   0.116   5.174  1.0025 -0.8356  1.6760
 4279SOL     OW24295   1.099   4.385   8.973 -0.3725  0.2349  0.1612
 4279SOL    HW124296   1.131   4.316   9.032  3.3039  1.1828 -0.7852
 4279SOL    HW224297   1.165   4.400   8.907  0.5906 -0.5645  0.9327
 4280SOL     OW24298   3.341   2.805   6.225  0.1667  0.0279 -0.2316
 4280SOL    HW124299   3.371   2.894   6.207  2.4478 -0.7463 -0.2800
 4280SOL    HW224300   3.250   2.810   6.196 -0.6844 -3.6058  1.7461
 4281SOL     OW24301   2.347   3.679   8.933 -0.2430  0.3218 -0.1879
 4281SOL    HW124302   2.407   3.651   9.002  1.7516  1.6925 -1.3786
 4281SOL    HW224303   2.310   3.595   8.905  2.4347 -0.8159 -0.3057
 4282SOL     OW24304   3.131   3.992  15.039  0.1315 -0.2691  0.3650
 4282SOL    HW124305   3.185   3.984  14.960  0.8521 -1.0928  0.9453
 4282SOL    HW224306   3.060   3.934  15.010  0.1370 -0.3184  0.4489
 4283SOL     OW24307   2.847   4.511   5.349  0.4463 -0.1597  0.3205
 4283SOL    HW124308   2.908   4.446   5.383  0.7468  0.5876  1.2011
 4283SOL    HW224309   2.766   4.466   5.375  0.9646 -1.0895  0.3477
 4284SOL     OW24310   4.597   2.572   2.134  0.8607  0.3468 -0.2152
 4284SOL    HW124311   4.531   2.639   2.148  1.2065  0.9042 -1.2458
 4284SOL    HW224312   4.639   2.610   2.057 -0.1378 -0.3888 -1.1118
 4285SOL     OW24313   3.838   0.215   3.525  0.4580  0.4682 -0.2137
 4285SOL    HW124314   3.841   0.305   3.492 -0.9661  0.4045 -0.4869
 4285SOL    HW224315   3.933   0.202   3.522  0.4014 -0.3194  1.3875
 4286SOL     OW24316   4.550   1.321  17.201 -0.0880  0.7159  0.5812
 4286SOL    HW124317   4.643   1.311  17.182 -0.1368 -1.9850  1.6420
 4286SOL    HW224318   4.539   1.410  17.233  1.3297  1.1561 -0.1693
 4287SOL     OW24319   2.334   3.203   8.447 -0.1970 -0.5289  0.0932
 4287SOL    HW124320   2.357   3.286   8.488  2.0956 -0.1281 -2.0061
 4287SOL    HW224321   2.271   3.234   8.381 -1.0902 -0.1284  1.1495
 4288SOL     OW24322   3.303   3.822   9.545  0.2160 -0.1343  0.5020
 4288SOL    HW124323   3.231   3.827   9.608 -1.3122  0.7890 -1.3478
 4288SOL    HW224324   3.371   3.878   9.584  0.6450 -1.6518  1.9719
 4289SOL     OW24325   0.390   2.061  11.519  0.3414  0.3340  0.4349
 4289SOL    HW124326   0.347   1.977  11.535 -1.2626  1.1973  0.6550
 4289SOL    HW224327   0.445   2.041  11.443 -2.5480 -1.2888 -1.2153
 4290SOL     OW24328   4.103   2.484   8.120 -0.3612  0.5246  0.0213
 4290SOL    HW124329   4.099   2.451   8.030  1.3353  0.5896 -0.0885
 4290SOL    HW224330   4.192   2.461   8.149 -0.8838 -0.4627  0.8310
 4291SOL     OW24331   1.084   0.477   5.780 -0.0437  0.3695  0.6793
 4291SOL    HW124332   1.080   0.573   5.777  0.8351  0.4319  1.4494
 4291SOL    HW224333   1.140   0.462   5.856 -1.8978  1.1887  2.2072
 4292SOL     OW24334   0.104   1.294  11.913 -0.1898  0.0804 -0.1789
 4292SOL    HW124335   0.161   1.365  11.943  0.1286  0.1597 -0.9614
 4292SOL    HW224336   0.061   1.342  11.842  0.0167 -1.6183 -1.4490
 4293SOL     OW24337   4.089   4.718   8.695  0.1968  0.2289  0.1899
 4293SOL    HW124338   4.161   0.009   8.634  1.0957 -1.8882  0.6732
 4293SOL    HW224339   4.106   4.624   8.703  2.6131  0.5257 -1.3369
 4294SOL     OW24340   2.510   3.459   6.651 -0.1141  0.5509 -0.6832
 4294SOL    HW124341   2.486   3.366   6.648 -3.9824  1.5298 -0.3574
 4294SOL    HW224342   2.549   3.469   6.738  2.4945 -0.7513 -1.6928
 4295SOL     OW24343   3.620   4.103  12.708 -0.4763  0.3958 -0.5665
 4295SOL    HW124344   3.695   4.161  12.712 -1.2022  1.1956  1.3121
 4295SOL    HW224345   3.600   4.101  12.614 -1.7755  0.0149 -0.2951
 4296SOL     OW24346   1.122   3.512  13.485 -0.3927 -0.3728  0.4664
 4296SOL    HW124347   1.198   3.453  13.478 -0.8833 -0.9009 -0.3890
 4296SOL    HW224348   1.080   3.498  13.400 -2.4826 -1.6818  1.7342
 4297SOL     OW24349   0.982   3.840   4.867  0.2184  0.5168  0.1936
 4297SOL    HW124350   0.908   3.900   4.879  0.7219  0.8684  1.4925
 4297SOL    HW224351   0.944   3.764   4.911  1.4255 -0.1604  0.0455
 4298SOL     OW24352   3.585   0.328   6.477  0.8658 -0.3911 -0.1441
 4298SOL    HW124353   3.663   0.296   6.431  2.0537  0.4587  1.2633
 4298SOL    HW224354   3.518   0.262   6.459  0.9885 -0.3526 -0.7418
 4299SOL     OW24355   3.992   0.895  10.004 -0.1042  0.7617  0.2309
 4299SOL    HW124356   3.903   0.923   9.983 -0.0716  0.7158  0.0326
 4299SOL    HW224357   4.030   0.912   9.918  0.9540 -1.1173  0.3103
 4300SOL     OW24358   2.804   0.700   6.844  0.1038 -0.1768  0.6023
 4300SOL    HW124359   2.761   0.650   6.774 -0.9016  0.2641  0.9091
 4300SOL    HW224360   2.893   0.670   6.829  0.0310  1.6749 -3.4152
 4301SOL     OW24361   1.467   0.549   6.360 -0.4643  0.2723 -0.7368
 4301SOL    HW124362   1.414   0.590   6.292 -0.8749 -1.5977 -1.5419
 4301SOL    HW224363   1.444   0.458   6.338 -2.3584  1.2047 -2.6470
 4302SOL     OW24364   1.746   1.484   3.893 -0.7378 -0.1304  0.0634
 4302SOL    HW124365   1.702   1.461   3.975 -1.5684 -0.0101 -0.3433
 4302SOL    HW224366   1.706   1.570   3.876 -0.9500  0.1513  2.0349
 4303SOL     OW24367   4.384   2.731   2.109  0.0982 -0.2551  0.1073
 4303SOL    HW124368   4.363   2.813   2.155  1.6167  0.1069  0.1433
 4303SOL    HW224369   4.309   2.713   2.053  0.2674 -1.2660  0.2079
 4304SOL     OW24370   3.324   0.471   1.639  0.3370  0.2207  0.5439
 4304SOL    HW124371   3.348   0.558   1.671  1.8914 -1.0410  2.7738
 4304SOL    HW224372   3.405   0.453   1.593 -0.9410 -5.2887  0.5045
 4305SOL     OW24373   0.884   1.700   4.471  0.6439 -0.0657  0.0380
 4305SOL    HW124374   0.800   1.672   4.435  0.2740 -0.6384  1.3746
 4305SOL    HW224375   0.865   1.768   4.535 -1.5391 -1.7309  1.1409
 4306SOL     OW24376   0.308   0.232   7.040  0.2567  0.3590 -0.1622
 4306SOL    HW124377   0.261   0.160   7.081  0.8253 -0.2558 -0.5977
 4306SOL    HW224378   0.301   0.199   6.951 -0.8325 -0.0897  0.0905
 4307SOL     OW24379   2.101   4.308   6.277 -0.0812  0.5340  0.0997
 4307SOL    HW124380   2.040   4.381   6.278 -2.8049 -1.7250  2.4316
 4307SOL    HW224381   2.141   4.308   6.190  0.8256 -0.8773  0.5156
 4308SOL     OW24382   0.353   1.834  11.213 -0.2626  0.1006  0.7005
 4308SOL    HW124383   0.282   1.880  11.169  1.0702  1.0056 -0.5053
 4308SOL    HW224384   0.301   1.775  11.268 -0.2818 -0.3592  0.1809
 4309SOL     OW24385   1.033   2.403   4.287 -0.2128  0.1720 -0.4063
 4309SOL    HW124386   1.031   2.308   4.274  0.6041  0.4046 -2.2947
 4309SOL    HW224387   1.103   2.411   4.222 -0.2800  2.4301 -0.2030
 4310SOL     OW24388   0.174   1.002   6.436  0.1578  0.0186  0.3511
 4310SOL    HW124389   0.126   1.059   6.376 -3.6968 -2.2444  1.2522
 4310SOL    HW224390   0.128   0.918   6.442 -2.5700  1.6330  2.0260
 4311SOL     OW24391   1.151   2.562   1.908 -0.1126  0.2687  0.0524
 4311SOL    HW124392   1.169   2.575   1.815  0.0464 -2.2145 -0.2501
 4311SOL    HW224393   1.102   2.480   1.906 -1.1078  0.8790 -0.6217
 4312SOL     OW24394   1.439   0.738   6.591 -0.3659 -0.3226  0.0893
 4312SOL    HW124395   1.412   0.797   6.519 -3.0179  0.2916  1.5688
 4312SOL    HW224396   1.460   0.663   6.536 -0.6791 -0.2838 -0.0851
 4313SOL     OW24397   1.125   1.390  11.754  0.1242  0.4997 -0.2233
 4313SOL    HW124398   1.185   1.460  11.782  0.6813 -0.7599  1.7751
 4313SOL    HW224399   1.150   1.312  11.804  0.9137 -0.2779 -1.8320
 4314SOL     OW24400   0.883   1.755   3.289 -0.2752 -0.3110  0.2631
 4314SOL    HW124401   0.888   1.825   3.224 -0.0926 -0.5630  0.0004
 4314SOL    HW224402   0.837   1.800   3.359 -2.4232 -0.7365 -0.8670
 4315SOL     OW24403   2.967   3.446   3.543 -0.2379  0.1242  0.4978
 4315SOL    HW124404   2.957   3.356   3.575  1.0054  0.0748  0.7759
 4315SOL    HW224405   3.059   3.465   3.565  0.4280 -0.0738 -2.1953
 4316SOL     OW24406   2.744   3.615  17.195  0.3669  0.9109 -0.1139
 4316SOL    HW124407   2.734   3.674  17.121  1.7781  0.8707 -0.3407
 4316SOL    HW224408   2.804   3.662  17.253  2.4149 -1.2441 -0.5133
 4317SOL     OW24409   4.104   1.455   4.017 -0.1859  0.2186  0.0386
 4317SOL    HW124410   4.096   1.427   3.926  3.1168  1.8866 -0.7728
 4317SOL    HW224411   4.059   1.539   4.021 -0.6191 -0.0258  0.2686
 4318SOL     OW24412   2.808   3.350   8.456  0.2333  0.1405 -0.6194
 4318SOL    HW124413   2.860   3.270   8.461 -1.7362 -1.1362 -0.6926
 4318SOL    HW224414   2.782   3.339   8.365  1.2393  0.7753 -0.9801
 4319SOL     OW24415   3.436   0.601   7.139 -0.4895 -0.2947  0.2390
 4319SOL    HW124416   3.496   0.603   7.064  1.2817  1.9537  1.7306
 4319SOL    HW224417   3.493   0.654   7.194  3.0311 -2.6584 -1.1714
 4320SOL     OW24418   1.792   4.193  17.258 -0.3861 -0.2182 -0.4000
 4320SOL    HW124419   1.863   4.187  17.321 -1.4943 -0.9896  0.7572
 4320SOL    HW224420   1.739   4.123  17.295  0.2626 -0.1825  0.6029
 4321SOL     OW24421   0.218   1.817   4.549 -0.3138  0.6782 -0.1981
 4321SOL    HW124422   0.307   1.847   4.567  0.1065  0.8102 -2.5641
 4321SOL    HW224423   0.231   1.751   4.617 -1.9898  0.2991 -0.2265
 4322SOL     OW24424   1.744   4.694  14.746 -0.3345  0.0293  0.0463
 4322SOL    HW124425   1.821   0.019  14.721  0.4165 -1.4539 -0.6798
 4322SOL    HW224426   1.743   4.718  14.839 -1.7023  0.6974 -0.1559
 4323SOL     OW24427   3.607   0.528   8.877  0.2456  0.0004 -0.2044
 4323SOL    HW124428   3.631   0.621   8.881  0.5401 -0.0257 -1.4849
 4323SOL    HW224429   3.665   0.499   8.807 -0.5480  2.0319 -1.7001
 4324SOL     OW24430   0.232   1.876  15.408 -0.0086 -0.4111  0.6881
 4324SOL    HW124431   0.179   1.955  15.393 -0.0854 -0.6898 -0.5197
 4324SOL    HW224432   0.244   1.836  15.322 -4.0823 -1.5517  0.6391
 4325SOL     OW24433   2.343   3.882   6.069  0.0592  0.2282  0.0032
 4325SOL    HW124434   2.298   3.922   5.995 -0.8218 -2.0959 -0.7307
 4325SOL    HW224435   2.284   3.812   6.099  0.4935 -0.1588 -0.0355
 4326SOL     OW24436   0.647   1.366   6.571 -0.2204  0.3169 -0.0108
 4326SOL    HW124437   0.552   1.360   6.573 -0.0488 -1.5218  1.7632
 4326SOL    HW224438   0.657   1.447   6.520  1.0847  1.1931  1.6395
 4327SOL     OW24439   3.478   0.102   7.189 -0.3006 -0.7182  0.6011
 4327SOL    HW124440   3.564   0.144   7.182 -1.0890  0.7513 -0.3080
 4327SOL    HW224441   3.411   0.168   7.173  0.4114  0.1501  1.2332
 4328SOL     OW24442   4.704   2.566  11.788 -0.2015  0.1905 -0.0403
 4328SOL    HW124443   4.628   2.586  11.733  0.0166 -0.0961 -0.4466
 4328SOL    HW224444   0.014   2.654  11.801  2.8345 -1.2401  1.3216
 4329SOL     OW24445   2.968   0.356   0.341 -0.2356 -0.0836 -0.0912
 4329SOL    HW124446   2.886   0.364   0.389 -1.2974  1.6199 -2.1296
 4329SOL    HW224447   2.966   0.269   0.302 -1.0155 -0.8276  1.6118
 4330SOL     OW24448   0.429   4.021  11.333 -0.1153  0.0952 -0.6387
 4330SOL    HW124449   0.488   4.091  11.362 -1.3394  1.3771 -1.2544
 4330SOL    HW224450   0.454   3.943  11.384 -1.2738  0.9162  1.1800
 4331SOL     OW24451   0.705   3.092   3.025 -0.3460  0.5486 -0.5397
 4331SOL    HW124452   0.778   3.151   3.006  0.4837 -0.2057  0.2824
 4331SOL    HW224453   0.675   3.090   2.934  0.7362  1.0525 -0.9050
 4332SOL     OW24454   0.961   3.116  14.686 -0.9895 -0.3968 -0.6213
 4332SOL    HW124455   0.918   3.198  14.663 -0.4991  0.4682  1.5863
 4332SOL    HW224456   1.049   3.154  14.687 -0.6733 -1.0854 -2.0318
 4333SOL     OW24457   0.192   0.583  14.557 -0.2901  0.3022 -0.4135
 4333SOL    HW124458   0.132   0.512  14.536  1.7579 -1.7099  0.5173
 4333SOL    HW224459   0.161   0.612  14.643  0.4759 -0.1095  0.0001
 4334SOL     OW24460   3.165   3.736   6.390  0.3780 -0.5744  0.1225
 4334SOL    HW124461   3.080   3.773   6.416 -0.0721  0.0367 -2.1927
 4334SOL    HW224462   3.158   3.641   6.382  1.0417 -0.4611 -1.6365
 4335SOL     OW24463   1.874   2.455  12.758 -0.0579  0.7289  0.0909
 4335SOL    HW124464   1.943   2.390  12.775 -1.4172 -0.5277  0.8599
 4335SOL    HW224465   1.855   2.443  12.665 -2.8343  0.4283  0.7049
 4336SOL     OW24466   1.733   0.468   5.796  0.8393  0.6193  0.0847
 4336SOL    HW124467   1.668   0.459   5.726 -1.6679  0.1614  2.5152
 4336SOL    HW224468   1.780   0.547   5.768  0.3626  0.0618 -2.3507
 4337SOL     OW24469   0.630   2.346   2.979 -0.3066  0.6611  0.3693
 4337SOL    HW124470   0.610   2.439   2.989 -0.6659  0.7182 -0.8911
 4337SOL    HW224471   0.596   2.325   2.893 -0.7693  1.3793  0.3804
 4338SOL     OW24472   3.251   4.188   1.829  0.6729 -0.2054 -0.0862
 4338SOL    HW124473   3.225   4.138   1.906  0.5814  0.8563  0.5570
 4338SOL    HW224474   3.291   4.263   1.871 -1.2447  1.1017 -0.6109
 4339SOL     OW24475   0.377   0.276   9.777  0.0725  0.3461 -0.2913
 4339SOL    HW124476   0.441   0.309   9.715 -0.0216 -0.5915 -0.8976
 4339SOL    HW224477   0.437   0.222   9.829  0.5587  1.7553  0.5905
 4340SOL     OW24478   2.499   1.331   6.460 -0.3307 -0.0569 -0.3400
 4340SOL    HW124479   2.524   1.239   6.450  2.3191  0.6536 -0.2602
 4340SOL    HW224480   2.422   1.346   6.406 -0.7003  2.1960  0.8094
 4341SOL     OW24481   2.416   3.624   8.182 -0.6293 -0.4359  0.0137
 4341SOL    HW124482   2.429   3.695   8.118 -1.0737  0.1679  0.5994
 4341SOL    HW224483   2.493   3.625   8.239 -1.0404  1.8695  0.5464
 4342SOL     OW24484   2.595   0.501   8.391  0.2625  0.1871  0.5654
 4342SOL    HW124485   2.619   0.418   8.348  1.6841 -0.2724  2.2222
 4342SOL    HW224486   2.504   0.477   8.410  0.7888 -1.5377  0.9100
 4343SOL     OW24487   2.615   2.190   1.572  0.0328  0.8297  0.0774
 4343SOL    HW124488   2.679   2.156   1.509  3.0290 -0.6946  3.9257
 4343SOL    HW224489   2.564   2.110   1.579  0.9264  0.2664  0.2067
 4344SOL     OW24490   0.808   0.423   3.942  0.0916  0.6083  0.0231
 4344SOL    HW124491   0.749   0.410   4.017  0.5780  0.0071  0.3045
 4344SOL    HW224492   0.871   0.352   3.957 -1.6131 -0.6043  1.4362
 4345SOL     OW24493   0.588   0.693  17.491  0.0442  0.4777  0.3714
 4345SOL    HW124494   0.524   0.633  17.452  1.4459  0.6611 -2.1903
 4345SOL    HW224495   0.554   0.778  17.465  2.0230  1.2627  0.2999
 4346SOL     OW24496   0.951   4.014   7.861  0.1472  0.0167 -0.0686
 4346SOL    HW124497   0.907   4.017   7.776  1.8293  0.5774 -0.9289
 4346SOL    HW224498   1.028   4.068   7.841  0.1896  0.1889  0.5645
 4347SOL     OW24499   2.899   3.921   2.923 -0.2523 -0.4714 -0.1972
 4347SOL    HW124500   2.980   3.944   2.877 -0.2496 -0.3401 -0.1279
 4347SOL    HW224501   2.834   3.989   2.904 -0.3586 -1.2765 -2.7474
 4348SOL     OW24502   0.483   3.405  12.721  0.2971  0.6721  0.1584
 4348SOL    HW124503   0.421   3.475  12.739  0.6472  0.7728  0.9742
 4348SOL    HW224504   0.428   3.364  12.654  0.3311  1.3030 -0.2602
 4349SOL     OW24505   0.935   4.303  10.643  0.5210  0.1867  0.0759
 4349SOL    HW124506   0.879   4.380  10.636  1.0226  0.6022  0.6595
 4349SOL    HW224507   0.946   4.295  10.738  0.0398 -1.2701  0.0177
 4350SOL     OW24508   3.505   3.784  15.198 -0.4372 -0.4117  0.2989
 4350SOL    HW124509   3.550   3.839  15.134 -0.2989  0.4827  1.1610
 4350SOL    HW224510   3.491   3.706  15.144 -0.0473 -0.9416  0.9670
 4351SOL     OW24511   0.250   1.263   0.054 -0.2982 -0.7704 -0.2321
 4351SOL    HW124512   0.315   1.195   0.035  0.3342 -0.2884  0.2031
 4351SOL    HW224513   0.287   1.323   0.119 -0.5627 -0.1951 -0.6212
 4352SOL     OW24514   3.836   3.911   8.089  0.8002  0.0643  0.3837
 4352SOL    HW124515   3.795   3.884   8.171  0.7643  0.9095  0.6436
 4352SOL    HW224516   3.927   3.923   8.116  0.7332 -0.5521  0.8863
 4353SOL     OW24517   2.375   0.913   2.272 -0.0518 -0.4833  0.5718
 4353SOL    HW124518   2.336   0.991   2.312 -1.1269 -2.1050  2.6601
 4353SOL    HW224519   2.345   0.844   2.331 -1.9385  0.9209  1.2619
 4354SOL     OW24520   3.839   4.230   4.769  0.1954 -0.4187 -0.9066
 4354SOL    HW124521   3.839   4.146   4.722  0.8744 -2.5479  2.8552
 4354SOL    HW224522   3.829   4.293   4.698  0.6522 -0.2752 -0.8429
 4355SOL     OW24523   1.805   4.450   5.253 -0.2922 -0.1180 -0.2210
 4355SOL    HW124524   1.726   4.472   5.204 -0.1099  1.0150 -0.0316
 4355SOL    HW224525   1.759   4.422   5.332  0.7667  1.1429  0.8512
 4356SOL     OW24526   4.476   0.141  13.060 -0.1690  0.3616  0.1759
 4356SOL    HW124527   4.396   0.112  13.103  1.1169 -1.6763  1.2102
 4356SOL    HW224528   4.531   0.066  13.081  0.2686  0.5619 -0.2569
 4357SOL     OW24529   2.362   2.619  10.141 -0.0245  0.2410  0.1431
 4357SOL    HW124530   2.365   2.711  10.115 -1.8562  0.8623  2.1794
 4357SOL    HW224531   2.449   2.605  10.177  1.1121  0.3843 -2.5772
 4358SOL     OW24532   3.892   0.928   0.797 -0.0620  0.4244 -0.2483
 4358SOL    HW124533   3.924   0.841   0.773  0.5199  0.6839 -0.4056
 4358SOL    HW224534   3.878   0.969   0.712 -0.0397  0.6516 -0.1436
 4359SOL     OW24535   3.526   1.108   5.185 -0.1946 -0.5682  0.5123
 4359SOL    HW124536   3.579   1.149   5.253 -1.9256  0.3709  1.3114
 4359SOL    HW224537   3.445   1.088   5.234 -1.0016  2.5628  0.4197
 4360SOL     OW24538   0.992   3.890  16.866  0.0474  0.3599 -0.5745
 4360SOL    HW124539   0.968   3.798  16.856 -0.0720  0.3389 -0.1184
 4360SOL    HW224540   1.029   3.908  16.779 -1.5406 -0.7533 -1.4713
 4361SOL     OW24541   2.385   1.439   2.675 -0.3344  0.1008 -0.0402
 4361SOL    HW124542   2.298   1.451   2.715 -0.0641  0.1439  0.5364
 4361SOL    HW224543   2.441   1.468   2.747 -1.2540  1.2993  0.1999
 4362SOL     OW24544   3.420   1.232  17.541  0.7189 -0.3123 -0.6440
 4362SOL    HW124545   3.479   1.289  17.492 -0.8941  1.5248 -0.4527
 4362SOL    HW224546   3.475   1.154  17.535  1.8190  0.2855  1.6543
 4363SOL     OW24547   2.967   4.004  16.765 -0.2268  0.0545 -0.4168
 4363SOL    HW124548   2.908   4.036  16.832 -1.6178 -1.7985 -0.7419
 4363SOL    HW224549   3.029   4.076  16.753 -1.4544  0.8538 -2.0126
 4364SOL     OW24550   1.651   2.451   8.115 -0.3275 -0.2195 -0.2392
 4364SOL    HW124551   1.645   2.382   8.049 -2.0120 -0.3362  0.0392
 4364SOL    HW224552   1.743   2.473   8.104 -0.0829 -0.3376  1.4936
 4365SOL     OW24553   1.034   2.922   5.274  0.0941  0.4560 -0.1209
 4365SOL    HW124554   0.978   2.848   5.301  0.7258 -0.9185 -2.5681
 4365SOL    HW224555   1.069   2.950   5.359  2.3464 -2.3399 -0.1172
 4366SOL     OW24556   0.241   0.282  11.776  0.3871  0.2639  0.6916
 4366SOL    HW124557   0.152   0.268  11.808  0.9014  0.1706  2.0846
 4366SOL    HW224558   0.213   0.323  11.694  0.0927 -0.3245  0.4939
 4367SOL     OW24559   0.852   2.194   0.025 -0.4678 -0.3789  0.0044
 4367SOL    HW124560   0.876   2.102   0.017 -0.2433 -0.1634 -1.9809
 4367SOL    HW224561   0.879   2.211   0.115  0.6380  0.1469 -0.4295
 4368SOL     OW24562   3.102   3.523   1.476  0.3710 -0.1767 -0.2554
 4368SOL    HW124563   3.169   3.590   1.463  1.6617 -1.0979  1.5016
 4368SOL    HW224564   3.026   3.562   1.434 -1.2049 -2.4554  0.5086
 4369SOL     OW24565   4.625   1.891   8.870 -0.3415  0.2531  0.4029
 4369SOL    HW124566   4.593   1.869   8.782 -0.6953 -1.0468  0.8504
 4369SOL    HW224567   4.721   1.887   8.871 -0.4119 -1.6397 -0.2613
 4370SOL     OW24568   0.371   1.438   6.027 -0.0210  0.1766 -0.0656
 4370SOL    HW124569   0.347   1.390   6.106 -1.3237 -0.2823 -0.7290
 4370SOL    HW224570   0.466   1.437   6.036  0.0113  1.3226 -0.1983
 4371SOL     OW24571   2.217   4.196   3.744 -0.1027  0.1136  0.4083
 4371SOL    HW124572   2.280   4.248   3.795 -0.2086 -0.9000  1.5689
 4371SOL    HW224573   2.240   4.221   3.655  1.6747 -2.0262  0.2688
 4372SOL     OW24574   2.083   3.124   6.720  0.2351  0.7950 -0.5534
 4372SOL    HW124575   2.033   3.082   6.790  1.2477  0.5542  0.0208
 4372SOL    HW224576   2.081   3.056   6.653  2.3639  0.0892  0.0869
 4373SOL     OW24577   4.009   1.660   3.885  0.2097 -0.5438  0.1356
 4373SOL    HW124578   3.991   1.754   3.874  0.8090 -0.2776  1.4945
 4373SOL    HW224579   3.936   1.613   3.846 -0.6506  0.4021  0.6068
 4374SOL     OW24580   0.197   2.254   9.356 -0.3362  0.0711 -0.3074
 4374SOL    HW124581   0.106   2.226   9.343 -0.1114 -1.0784  0.5689
 4374SOL    HW224582   0.206   2.241   9.450 -1.4467  2.8707  0.1960
 4375SOL     OW24583   0.865   3.430  10.723  0.7026  0.6633  0.1212
 4375SOL    HW124584   0.849   3.408  10.814  1.7366  2.7181  0.7997
 4375SOL    HW224585   0.953   3.396  10.706 -0.4897 -1.9846 -0.6533
 4376SOL     OW24586   4.590   2.836  16.900  0.0695 -0.3929 -0.8024
 4376SOL    HW124587   4.622   2.770  16.838  0.5219 -0.7102 -0.2297
 4376SOL    HW224588   4.567   2.912  16.846 -1.5620  1.5596  2.6615
 4377SOL     OW24589   1.770   1.124   9.996  0.2038 -0.4065  0.2637
 4377SOL    HW124590   1.765   1.181   9.919  1.5002 -1.0245 -0.2715
 4377SOL    HW224591   1.863   1.102  10.001  0.2187 -0.4962 -0.4023
 4378SOL     OW24592   3.172   4.143  12.413  0.7105  0.7529 -0.2078
 4378SOL    HW124593   3.091   4.095  12.431  0.7712  0.6126 -0.3065
 4378SOL    HW224594   3.173   4.212  12.480 -0.7712  1.1983 -0.6518
 4379SOL     OW24595   3.431   3.655   3.738  0.1749 -0.2563 -0.2942
 4379SOL    HW124596   3.366   3.725   3.745  0.0037 -0.7783  3.2065
 4379SOL    HW224597   3.506   3.699   3.697  0.8464 -0.9808  0.1547
 4380SOL     OW24598   0.741   4.638   7.876 -0.5759 -0.1515 -0.1501
 4380SOL    HW124599   0.760   4.598   7.791  0.8184 -1.4952  0.7793
 4380SOL    HW224600   0.670   4.583   7.908 -0.8494  0.6283  0.5786
 4381SOL     OW24601   1.312   1.028   4.248  0.2392 -0.3225 -0.0606
 4381SOL    HW124602   1.405   1.048   4.239  0.5356 -2.2408 -1.2840
 4381SOL    HW224603   1.278   1.111   4.214 -1.3685 -0.9650 -0.0377
 4382SOL     OW24604   3.745   2.675   7.327  0.1198  0.1353  0.0222
 4382SOL    HW124605   3.724   2.585   7.350 -0.0299  0.8599  2.8481
 4382SOL    HW224606   3.815   2.671   7.262 -0.2870  0.1550 -0.4106
 4383SOL     OW24607   1.618   0.730   8.240 -0.4642  0.1376  0.4802
 4383SOL    HW124608   1.629   0.729   8.335 -0.5778  0.6075  0.5007
 4383SOL    HW224609   1.703   0.689   8.225 -1.2419 -0.8707 -1.2795
 4384SOL     OW24610   0.309   0.600   1.838 -0.0668  0.3011 -0.8746
 4384SOL    HW124611   0.313   0.639   1.926 -0.1163 -0.6026 -0.4738
 4384SOL    HW224612   0.385   0.544   1.825 -1.7654 -2.0503 -0.6089
 4385SOL     OW24613   0.525   4.714   2.886 -0.2526  0.2493 -0.4900
 4385SOL    HW124614   0.454   4.659   2.917 -0.8075  0.1586 -1.9429
 4385SOL    HW224615   0.568   4.644   2.837 -0.2664 -1.2737  1.6805
 4386SOL     OW24616   0.758   3.774  11.886 -0.4687  0.3080  0.3366
 4386SOL    HW124617   0.850   3.750  11.872 -1.1815 -1.1018 -1.9177
 4386SOL    HW224618   0.732   3.790  11.795  0.3341 -0.9937 -0.1209
 4387SOL     OW24619   4.442   0.433   6.374  0.1101 -0.2055  0.1328
 4387SOL    HW124620   4.364   0.434   6.430  0.1587 -1.6087  0.2382
 4387SOL    HW224621   4.427   0.517   6.333  0.6873  0.2214  0.7881
 4388SOL     OW24622   2.305   2.544   9.063  0.0527 -0.2653  0.0368
 4388SOL    HW124623   2.209   2.540   9.058  0.0634 -1.1293  0.5608
 4388SOL    HW224624   2.312   2.608   9.134  0.3939 -2.6680  2.1424
 4389SOL     OW24625   0.917   2.646  15.090  0.1887  0.0495 -0.0721
 4389SOL    HW124626   0.899   2.720  15.032 -0.3946  0.0159  0.0683
 4389SOL    HW224627   1.007   2.624  15.068  0.5563  2.2729 -0.7906
 4390SOL     OW24628   0.489   1.141   9.515  0.0062 -0.7441  0.1784
 4390SOL    HW124629   0.457   1.079   9.449  1.0843 -0.1420 -0.9061
 4390SOL    HW224630   0.422   1.129   9.582  0.9031 -1.5957  0.9107
 4391SOL     OW24631   0.628   0.301   7.447 -0.0039  0.1194  0.4223
 4391SOL    HW124632   0.658   0.215   7.477  0.8663 -0.7419 -2.9009
 4391SOL    HW224633   0.579   0.280   7.367 -0.4032  0.3068  0.6192
 4392SOL     OW24634   4.123   1.246  17.577 -0.1882 -0.3288 -0.0383
 4392SOL    HW124635   4.108   1.334  17.543  0.8440 -0.2969 -0.4099
 4392SOL    HW224636   4.033   1.213  17.567 -1.2884  2.9574 -0.9646
 4393SOL     OW24637   1.929   0.718   8.385 -0.1137  0.4228 -0.4555
 4393SOL    HW124638   1.968   0.805   8.374 -0.2909  0.4296 -1.0460
 4393SOL    HW224639   1.992   0.663   8.337  1.2504 -0.3029  2.1471
 4394SOL     OW24640   2.181   1.226   0.746 -0.3157 -0.0312 -0.5676
 4394SOL    HW124641   2.102   1.178   0.773 -0.1101  0.5056  0.9596
 4394SOL    HW224642   2.252   1.162   0.756 -1.6863 -1.4818  0.0270
 4395SOL     OW24643   3.593   4.192   0.089 -0.6495  0.1180  0.3854
 4395SOL    HW124644   3.611   4.197   0.183 -1.5964  1.5910  0.4833
 4395SOL    HW224645   3.563   4.101   0.089  1.6915 -0.6685  0.0892
 4396SOL     OW24646   2.254   1.643   9.273  0.1571  0.4850  0.1035
 4396SOL    HW124647   2.204   1.598   9.205  0.4703  0.4922 -0.1336
 4396SOL    HW224648   2.194   1.653   9.347 -1.5059 -0.1449 -1.1702
 4397SOL     OW24649   0.694   1.824  15.130  0.1187 -0.4131  0.1849
 4397SOL    HW124650   0.623   1.861  15.076  0.7475 -3.5353 -2.7661
 4397SOL    HW224651   0.700   1.903  15.184  0.4973  0.6716 -1.4183
 4398SOL     OW24652   1.252   2.889  12.324  0.7492 -0.6806  0.3216
 4398SOL    HW124653   1.207   2.865  12.405 -0.1429  0.4729  0.1644
 4398SOL    HW224654   1.342   2.857  12.332  0.8375 -0.3316  0.6976
 4399SOL     OW24655   2.999   3.665   3.735 -1.2461 -0.2190 -0.1820
 4399SOL    HW124656   2.955   3.589   3.697 -0.3931 -0.4816 -0.6410
 4399SOL    HW224657   2.976   3.734   3.672 -1.2896  0.6378  0.7578
 4400SOL     OW24658   3.041   3.853   2.206  0.5753  0.0287 -0.3904
 4400SOL    HW124659   3.106   3.852   2.276 -1.5013  0.5787  1.5715
 4400SOL    HW224660   2.982   3.784   2.237 -0.1587  1.4106  1.2650
 4401SOL     OW24661   1.755   2.189   7.563  0.0731  0.0758 -0.3642
 4401SOL    HW124662   1.822   2.134   7.524 -1.4686 -1.9967 -0.0693
 4401SOL    HW224663   1.697   2.225   7.495  0.9482  2.2473  0.0455
 4402SOL     OW24664   3.440   3.964   4.142  0.1075 -0.4985 -0.0801
 4402SOL    HW124665   3.348   3.937   4.142 -0.1838  0.5109  0.0496
 4402SOL    HW224666   3.471   3.877   4.118  0.7304  0.2570 -2.0158
 4403SOL     OW24667   1.036   1.101   1.565 -0.1642  0.0532  0.1348
 4403SOL    HW124668   1.112   1.089   1.508  0.0709 -0.1456  0.4928
 4403SOL    HW224669   1.061   1.045   1.638 -1.3987  0.3459  0.7734
 4404SOL     OW24670   4.599   1.515   4.967  0.2685  0.3064  0.0424
 4404SOL    HW124671   4.648   1.433   4.975 -0.0299  0.0778 -0.5104
 4404SOL    HW224672   4.585   1.520   4.873 -1.7017 -0.6228  0.2720
 4405SOL     OW24673   4.447   4.286   0.572  0.7479  0.5037  0.1204
 4405SOL    HW124674   4.376   4.287   0.508  1.4108  0.8511 -0.6172
 4405SOL    HW224675   4.506   4.361   0.568  0.1953  1.0484  2.6322
 4406SOL     OW24676   3.091   0.355   1.067  0.3301 -0.0493  0.2105
 4406SOL    HW124677   3.180   0.378   1.041 -0.8030  1.2326 -2.5923
 4406SOL    HW224678   3.081   0.292   0.995  3.5798  0.1288 -0.3866
 4407SOL     OW24679   0.944   2.111  16.486  0.3113  0.2322 -0.0302
 4407SOL    HW124680   0.851   2.120  16.508  0.1323 -1.2502 -0.2172
 4407SOL    HW224681   0.967   2.025  16.520  1.0153 -0.2744 -1.8036
 4408SOL     OW24682   3.620   0.512  13.365 -0.1617 -0.3136  0.1736
 4408SOL    HW124683   3.616   0.584  13.302  0.2016  0.1524  0.6882
 4408SOL    HW224684   3.566   0.551  13.434 -0.2376  1.2732 -0.7881
 4409SOL     OW24685   0.854   0.504   6.162  0.0733 -0.6283  0.2224
 4409SOL    HW124686   0.847   0.535   6.072 -0.5525 -1.3421  0.0195
 4409SOL    HW224687   0.903   0.574   6.205 -1.9463  0.6441  0.4369
 4410SOL     OW24688   4.108   4.264   5.786 -0.2719 -0.2580 -0.2627
 4410SOL    HW124689   4.039   4.301   5.730  0.2855  2.2232  0.6993
 4410SOL    HW224690   4.189   4.292   5.742 -1.2496 -0.1707 -2.0340
 4411SOL     OW24691   2.149   0.784   7.707  0.5826 -0.3559  0.2203
 4411SOL    HW124692   2.209   0.779   7.781 -0.7077 -2.0679  1.1656
 4411SOL    HW224693   2.107   0.698   7.709  2.4330 -1.1852  2.5190
 4412SOL     OW24694   3.329   0.987   3.557  0.5555 -0.3098 -0.0248
 4412SOL    HW124695   3.380   0.948   3.486  0.9102  1.7121 -0.8764
 4412SOL    HW224696   3.369   1.074   3.562  0.4272 -0.2303 -0.3717
 4413SOL     OW24697   4.362   3.080   8.480  0.3042 -0.3328  0.0732
 4413SOL    HW124698   4.331   3.109   8.565 -1.3306  0.8538 -0.9347
 4413SOL    HW224699   4.433   3.020   8.505 -2.5999 -3.1781  1.5747
 4414SOL     OW24700   2.965   0.165   2.248 -0.2870  0.7258 -0.3304
 4414SOL    HW124701   2.993   0.196   2.334 -0.4018 -0.5944  0.1782
 4414SOL    HW224702   2.983   0.072   2.258  1.4813  1.2157  0.9413
 4415SOL     OW24703   4.586   3.857   1.992  0.5130  0.5086  0.9013
 4415SOL    HW124704   4.679   3.874   1.975  0.8588 -1.7959  0.4397
 4415SOL    HW224705   4.581   3.775   1.944 -2.3866 -0.6030  3.0661
 4416SOL     OW24706   0.244   1.694   8.011 -0.0524  0.3197  0.5430
 4416SOL    HW124707   0.291   1.678   8.093 -1.5505 -0.6391  1.2039
 4416SOL    HW224708   0.322   1.691   7.956 -1.3297 -0.7239 -1.2045
 4417SOL     OW24709   2.091   0.224   3.308  0.5784 -0.0389  0.0369
 4417SOL    HW124710   2.115   0.131   3.314  1.1490  0.1471  0.7192
 4417SOL    HW224711   1.996   0.218   3.317  0.3882  1.2870 -1.1408
 4418SOL     OW24712   4.381   0.132   7.700  0.1341 -0.8024 -0.6628
 4418SOL    HW124713   4.403   0.224   7.714 -0.6998 -0.5935 -0.7197
 4418SOL    HW224714   4.460   0.086   7.728 -0.1615 -0.8108  0.1882
 4419SOL     OW24715   2.543   1.633   7.149  0.5204  0.6966 -0.3341
 4419SOL    HW124716   2.447   1.628   7.151  0.5593  0.5913  1.0376
 4419SOL    HW224717   2.559   1.626   7.243 -0.6042 -1.5513 -0.3047
 4420SOL     OW24718   3.725   1.742   8.765  0.0196  0.1455 -0.1305
 4420SOL    HW124719   3.684   1.670   8.812  1.7356 -0.8113 -0.0910
 4420SOL    HW224720   3.814   1.707   8.756  0.1304 -0.1773  2.2493
 4421SOL     OW24721   4.473   1.070   1.307 -0.3689 -0.1644 -0.3216
 4421SOL    HW124722   4.491   1.086   1.400  2.2940 -0.5417 -0.7921
 4421SOL    HW224723   4.400   1.008   1.299 -0.6833  0.1479  0.0990
 4422SOL     OW24724   1.390   2.093   1.037 -0.6399  0.0942  0.2929
 4422SOL    HW124725   1.310   2.046   1.060 -1.1094  0.3808 -0.7505
 4422SOL    HW224726   1.363   2.116   0.948 -2.2770 -0.2776  0.6911
 4423SOL     OW24727   4.579   3.513  15.835 -0.0228 -0.2114 -0.5531
 4423SOL    HW124728   4.652   3.571  15.859 -0.9569  0.1853  1.3289
 4423SOL    HW224729   4.627   3.432  15.821 -1.1375 -1.1548  1.0736
 4424SOL     OW24730   1.539   3.271  10.233 -0.0201 -0.2038  0.1903
 4424SOL    HW124731   1.628   3.298  10.257  0.6353 -0.8832 -1.5087
 4424SOL    HW224732   1.541   3.176  10.229  1.2600 -0.1799  0.2944
 4425SOL     OW24733   2.914   2.302   7.299 -0.2204  0.7028  0.3303
 4425SOL    HW124734   2.853   2.347   7.241  0.1502  1.8472  0.8289
 4425SOL    HW224735   2.863   2.221   7.300 -0.8532  1.1202  1.1660
 4426SOL     OW24736   3.537   0.633  11.225  0.0264  0.0518 -0.2067
 4426SOL    HW124737   3.590   0.571  11.276  1.2004 -0.5782 -2.1981
 4426SOL    HW224738   3.454   0.592  11.251  0.1135  0.6605  1.0272
 4427SOL     OW24739   0.252   4.313   7.116 -0.0263 -0.5476  0.1318
 4427SOL    HW124740   0.165   4.349   7.135 -0.4840 -0.8416 -1.3318
 4427SOL    HW224741   0.283   4.277   7.199  0.7931  1.9295  0.8983
 4428SOL     OW24742   2.691   4.571   6.536 -0.2681 -0.5202 -0.1826
 4428SOL    HW124743   2.775   4.615   6.553  0.3875 -0.9833 -2.3257
 4428SOL    HW224744   2.723   4.481   6.533  2.8066  0.6059 -1.5437
 4429SOL     OW24745   0.713   2.891   7.769 -0.3311  0.0940 -0.3971
 4429SOL    HW124746   0.761   2.862   7.846 -1.2186  0.7417  0.4128
 4429SOL    HW224747   0.776   2.958   7.741 -0.1267 -0.0147 -0.1993
 4430SOL     OW24748   0.623   1.821   7.480  0.2240 -0.3661 -0.3664
 4430SOL    HW124749   0.672   1.867   7.549 -0.0424 -0.7056  0.0516
 4430SOL    HW224750   0.682   1.816   7.405  0.7482  3.2536 -0.1616
 4431SOL     OW24751   4.009   1.807   7.908  0.2780 -0.1055 -0.6324
 4431SOL    HW124752   4.057   1.735   7.949  1.4383  1.3348  0.5226
 4431SOL    HW224753   3.989   1.776   7.819  0.1718 -1.0381 -0.2851
 4432SOL     OW24754   0.895   3.556  15.131  0.0284  0.3023  0.3653
 4432SOL    HW124755   0.939   3.530  15.212 -1.4683  0.4042  1.2164
 4432SOL    HW224756   0.976   3.554  15.080  0.2851  0.8243  0.7434
 4433SOL     OW24757   1.471   3.967  15.042 -0.0439 -0.3731  0.2268
 4433SOL    HW124758   1.376   3.965  15.044 -0.0688 -0.5900 -0.9560
 4433SOL    HW224759   1.488   3.946  14.950  0.7891  0.5138  0.1753
 4434SOL     OW24760   4.143   1.170  10.288 -0.0400 -0.0607 -0.2614
 4434SOL    HW124761   4.109   1.124  10.211 -2.3005  1.2524 -0.0583
 4434SOL    HW224762   4.087   1.126  10.353 -0.1074  0.5060  0.0645
 4435SOL     OW24763   4.582   4.651   7.194  0.5072 -0.0496 -0.1311
 4435SOL    HW124764   4.644   4.582   7.216  1.4448  1.7957  3.1212
 4435SOL    HW224765   4.562   4.701   7.274  1.5902 -1.5815  1.0981
 4436SOL     OW24766   2.809   3.496  17.521 -0.2626  0.0235  0.6361
 4436SOL    HW124767   2.863   3.521  17.596 -0.4967  1.3410  0.3679
 4436SOL    HW224768   2.815   3.401  17.530 -0.5959 -0.0777 -0.1980
 4437SOL     OW24769   1.792   3.681   6.085  0.2876  0.3400 -0.4678
 4437SOL    HW124770   1.739   3.616   6.130  0.2721  0.5705 -0.1564
 4437SOL    HW224771   1.726   3.727   6.033  0.2776  1.9932  1.0032
 4438SOL     OW24772   0.125   4.127   8.986 -0.0285  0.0446  0.4415
 4438SOL    HW124773   0.076   4.203   9.016  0.2077 -0.2610  1.5908
 4438SOL    HW224774   0.113   4.078   9.067 -0.3439  2.0944  1.6313
 4439SOL     OW24775   2.044   1.011   0.825 -0.0297 -0.0720  0.6307
 4439SOL    HW124776   1.992   1.037   0.901 -0.1458  0.2053  0.4560
 4439SOL    HW224777   2.135   1.010   0.855  0.5024 -1.4232 -1.0587
 4440SOL     OW24778   4.286   1.745   2.828  0.1065  0.0692  0.2133
 4440SOL    HW124779   4.256   1.825   2.871 -1.4649 -0.3384 -0.1117
 4440SOL    HW224780   4.376   1.733   2.858  0.6643  3.4973 -0.0528
 4441SOL     OW24781   3.293   0.209  15.944  0.0861 -0.2653 -0.0564
 4441SOL    HW124782   3.367   0.161  15.908  0.1850 -0.0573 -0.1294
 4441SOL    HW224783   3.312   0.190  16.036  2.4205  0.1756 -0.4545
 4442SOL     OW24784   2.608   4.150   7.707  0.1491  0.6266 -0.0605
 4442SOL    HW124785   2.546   4.130   7.777 -0.0246 -3.6508 -1.4317
 4442SOL    HW224786   2.582   4.094   7.634  2.0152  0.3140 -0.4953
 4443SOL     OW24787   2.826   3.751   0.911 -0.5725 -0.0657 -0.3486
 4443SOL    HW124788   2.758   3.693   0.945 -0.5383  0.3026  0.3281
 4443SOL    HW224789   2.849   3.803   0.988  1.1677 -0.1729 -0.7781
 4444SOL     OW24790   0.026   2.465   1.434  0.5607  0.1188 -0.3633
 4444SOL    HW124791   4.687   2.411   1.478  1.3292  1.1314  1.9961
 4444SOL    HW224792   0.005   2.551   1.470 -2.9916 -0.2595 -1.5999
 4445SOL     OW24793   4.239   4.213   8.388 -0.2164  0.1890  0.2565
 4445SOL    HW124794   4.323   4.217   8.433 -0.7753 -0.0126  1.3237
 4445SOL    HW224795   4.254   4.131   8.341  1.4466 -0.1060  1.2900
 4446SOL     OW24796   0.014   4.038   3.101  0.4538 -0.0909  0.2786
 4446SOL    HW124797   4.689   4.018   3.023  2.2373 -1.0069 -0.6549
 4446SOL    HW224798   4.672   4.038   3.169  1.3314  0.4090  1.1564
 4447SOL     OW24799   2.487   1.547   2.199  0.1339  0.1939  0.1513
 4447SOL    HW124800   2.555   1.612   2.181 -0.6730  0.6998 -1.0432
 4447SOL    HW224801   2.489   1.546   2.295  2.6808 -0.3822  0.0868
 4448SOL     OW24802   2.355   3.122   6.107 -0.5540 -0.7909  0.2709
 4448SOL    HW124803   2.385   3.168   6.186  0.8790 -1.3665  0.0563
 4448SOL    HW224804   2.265   3.102   6.130 -0.9067  0.4007 -0.0449
 4449SOL     OW24805   3.033   1.472   8.075 -0.5345 -0.9536  0.6412
 4449SOL    HW124806   3.036   1.457   8.170  4.0286  1.1000  0.8102
 4449SOL    HW224807   3.126   1.461   8.056 -0.5870  0.7831 -0.6436
 4450SOL     OW24808   4.371   0.660   5.719  0.1550  0.5533  0.2992
 4450SOL    HW124809   4.456   0.657   5.673  0.1589 -0.9279  0.3984
 4450SOL    HW224810   4.319   0.628   5.645 -1.9272  0.8190  1.6470
 4451SOL     OW24811   3.063   2.790   3.510 -0.5584  0.2650  0.1448
 4451SOL    HW124812   3.081   2.699   3.487  2.5951  0.9450  0.0382
 4451SOL    HW224813   2.977   2.801   3.470 -1.8237 -0.4925  2.5911
 4452SOL     OW24814   1.422   1.924   6.330 -0.2026  0.3438 -0.6350
 4452SOL    HW124815   1.455   1.939   6.242  0.3394  2.1108 -0.1326
 4452SOL    HW224816   1.483   1.972   6.386 -0.5855 -1.6314  1.4663
 4453SOL     OW24817   2.275   0.079   9.875 -0.2181  0.4963 -0.3362
 4453SOL    HW124818   2.283   0.165   9.833  0.2018  1.1707  1.1427
 4453SOL    HW224819   2.361   0.046   9.846 -0.0781  0.5334  0.0395
 4454SOL     OW24820   4.549   2.545   3.669  0.5298 -0.4445 -0.0634
 4454SOL    HW124821   4.633   2.501   3.656  0.0510 -2.2325  2.7869
 4454SOL    HW224822   4.494   2.510   3.599  0.6376 -0.8910  0.0768
 4455SOL     OW24823   1.017   0.937  12.669  0.3145 -0.5612 -0.4038
 4455SOL    HW124824   0.985   0.982  12.747 -0.9229  0.4775 -1.5109
 4455SOL    HW224825   0.946   0.874  12.657 -3.5383  3.7269  0.0315
 4456SOL     OW24826   4.593   0.000   1.168 -0.2969 -0.0637 -0.3165
 4456SOL    HW124827   4.677   4.679   1.167 -0.5030 -0.4305 -0.6492
 4456SOL    HW224828   4.625   0.090   1.160 -0.6107  0.2796  2.2783
 4457SOL     OW24829   1.565   0.743   5.579 -0.6828 -0.0339  0.3986
 4457SOL    HW124830   1.596   0.820   5.626  0.0515  0.5215 -1.0049
 4457SOL    HW224831   1.644   0.691   5.592 -1.5757 -1.0570  1.7198
 4458SOL     OW24832   1.317   2.995   3.161  0.5122 -0.5324  0.6363
 4458SOL    HW124833   1.341   3.062   3.097 -0.1579 -1.3689 -0.4797
 4458SOL    HW224834   1.261   2.942   3.105 -0.2127 -0.2738  1.1203
 4459SOL     OW24835   1.465   1.917   5.604  0.0701  0.6714 -0.0761
 4459SOL    HW124836   1.414   1.915   5.685 -1.5599  0.4609 -1.1095
 4459SOL    HW224837   1.422   1.848   5.553  1.2849 -1.5601  1.9246
 4460SOL     OW24838   0.809   3.699  17.247 -0.3609 -0.1568 -0.2205
 4460SOL    HW124839   0.892   3.729  17.286 -1.1050  0.3864  0.9411
 4460SOL    HW224840   0.834   3.619  17.202  1.4937  0.1376  0.2564
 4461SOL     OW24841   1.837   3.943   8.790 -0.0778 -0.1415 -0.3993
 4461SOL    HW124842   1.862   3.857   8.824 -1.1182  0.1768  1.1371
 4461SOL    HW224843   1.806   3.929   8.700 -3.8096  1.2402  0.6771
 4462SOL     OW24844   0.466   4.389   3.838 -0.2897  0.3399  0.5137
 4462SOL    HW124845   0.450   4.387   3.744  0.4602 -0.0534  0.3953
 4462SOL    HW224846   0.420   4.310   3.868 -3.3442  2.0377  0.2476
 4463SOL     OW24847   2.314   2.243   1.488 -0.6369  0.1853 -0.4568
 4463SOL    HW124848   2.409   2.238   1.486 -0.5511  1.7211 -0.6561
 4463SOL    HW224849   2.288   2.318   1.433 -1.8457  0.6581  0.7447
 4464SOL     OW24850   4.627   3.574   4.798  0.4141 -0.2314  0.2954
 4464SOL    HW124851   4.609   3.483   4.820 -1.1039 -0.0149 -0.0489
 4464SOL    HW224852   4.654   3.598   4.887  2.9140 -1.2499 -0.1865
 4465SOL     OW24853   3.760   3.696   4.205 -0.6269 -0.4680 -0.3049
 4465SOL    HW124854   3.828   3.698   4.138 -0.1412 -2.0813  0.1281
 4465SOL    HW224855   3.682   3.710   4.153 -0.1586 -0.4653 -1.0063
 4466SOL     OW24856   0.838   1.957   8.524 -0.3381 -0.2995  0.1367
 4466SOL    HW124857   0.867   2.035   8.477  0.5800 -0.4574  0.4455
 4466SOL    HW224858   0.783   1.989   8.595 -1.1731 -0.9490 -0.2202
 4467SOL     OW24859   1.196   2.002   3.143 -0.2757 -0.5263 -0.3972
 4467SOL    HW124860   1.125   2.049   3.100  1.0085  1.6772 -0.0871
 4467SOL    HW224861   1.184   1.913   3.110  0.6084 -1.6937  2.4343
 4468SOL     OW24862   0.881   3.838   6.630 -0.3798 -0.1709 -0.1384
 4468SOL    HW124863   0.905   3.862   6.541 -0.4084 -2.6188 -0.8080
 4468SOL    HW224864   0.963   3.792   6.648 -0.4213 -0.0970  0.2332
 4469SOL     OW24865   4.377   2.852   5.971 -0.1725 -0.2599 -0.2825
 4469SOL    HW124866   4.446   2.860   5.905  0.2829  0.9562  0.3448
 4469SOL    HW224867   4.369   2.942   6.001 -1.6304  0.9125 -4.2002
 4470SOL     OW24868   3.653   4.605   7.500  0.3847  0.0580  0.0673
 4470SOL    HW124869   3.590   4.541   7.534  0.2773 -0.2878 -0.7960
 4470SOL    HW224870   3.604   4.663   7.442 -1.7829  0.3191  2.1677
 4471SOL     OW24871   2.032   3.542   7.403  0.2110  0.3305 -0.2331
 4471SOL    HW124872   2.016   3.527   7.496 -0.2325 -0.0044 -0.3679
 4471SOL    HW224873   2.074   3.459   7.380 -3.2619 -0.9452 -1.9287
 4472SOL     OW24874   2.845   2.966   1.872  0.0746  0.1645  0.2794
 4472SOL    HW124875   2.761   2.943   1.831 -0.6242  0.3991  1.5940
 4472SOL    HW224876   2.879   3.024   1.804 -0.7406 -1.1584 -1.2711
 4473SOL     OW24877   3.498   0.135   9.229  0.2986  0.2022  0.2364
 4473SOL    HW124878   3.511   0.173   9.142 -1.4113 -1.4306 -0.7363
 4473SOL    HW224879   3.403   0.139   9.234  0.4467  2.0681  1.8167
 4474SOL     OW24880   0.459   1.208  13.661  0.7039 -0.1139  0.6787
 4474SOL    HW124881   0.514   1.281  13.688 -3.3336  3.2137  0.0178
 4474SOL    HW224882   0.514   1.144  13.618  1.2016  0.1450  0.9307
 4475SOL     OW24883   4.490   2.869   5.716  0.2900 -0.4509 -0.1671
 4475SOL    HW124884   4.475   2.863   5.621 -2.4227 -1.3660  0.3061
 4475SOL    HW224885   4.583   2.847   5.713  0.1583 -1.1819  1.0220
 4476SOL     OW24886   3.070   2.080   1.849  1.1661 -0.4204  0.1200
 4476SOL    HW124887   3.162   2.056   1.848  1.2094 -0.2300 -1.4793
 4476SOL    HW224888   3.069   2.157   1.906 -0.2396 -0.1769 -0.2321
 4477SOL     OW24889   4.409   4.338   2.245 -0.3045  0.1552 -0.3725
 4477SOL    HW124890   4.331   4.362   2.195  0.2259 -2.1255 -2.3070
 4477SOL    HW224891   4.452   4.422   2.261 -3.2701  1.5795  0.0111
 4478SOL     OW24892   0.037   1.891  14.521  0.7880 -0.6873  0.1997
 4478SOL    HW124893   0.070   1.974  14.486 -1.3246 -0.6526 -1.7758
 4478SOL    HW224894   4.669   1.910  14.527  0.5519 -1.1506 -1.9713
 4479SOL     OW24895   4.228   0.999   0.785  0.2911 -0.5491 -0.1624
 4479SOL    HW124896   4.205   1.029   0.873 -1.4143 -0.1860 -0.7346
 4479SOL    HW224897   4.231   0.904   0.790 -1.6271 -0.6614 -1.4978
 4480SOL     OW24898   2.637   0.698   5.170  0.2984 -0.2527 -0.3658
 4480SOL    HW124899   2.589   0.617   5.184  2.6579 -1.6032  0.0191
 4480SOL    HW224900   2.570   0.766   5.163 -0.9055 -1.5379 -1.3476
 4481SOL     OW24901   1.589   3.379   2.516 -0.0856 -0.0779  0.0661
 4481SOL    HW124902   1.676   3.339   2.509  0.5519  1.6840 -1.7164
 4481SOL    HW224903   1.534   3.345   2.446  1.8398 -0.7534 -1.1201
 4482SOL     OW24904   2.405   3.611  17.593 -0.2227  0.5169  0.2569
 4482SOL    HW124905   2.324   3.562  17.606 -0.7008  1.1446 -0.3729
 4482SOL    HW224906   2.404   3.667  17.671  1.0685 -0.8403  1.2496
 4483SOL     OW24907   0.498   3.619   5.629  0.3100 -0.0233  0.0861
 4483SOL    HW124908   0.485   3.707   5.594 -0.7292 -0.3898 -0.4389
 4483SOL    HW224909   0.475   3.645   5.719  0.0176 -3.6710  1.0504
 4484SOL     OW24910   0.301   0.358   4.706 -0.6407  0.0954 -0.5259
 4484SOL    HW124911   0.216   0.375   4.747 -0.4078 -0.4322  0.1761
 4484SOL    HW224912   0.304   0.442   4.660 -0.8444  0.8604  0.8511
 4485SOL     OW24913   2.335   0.524   5.627  0.2292  0.2134 -0.2140
 4485SOL    HW124914   2.264   0.461   5.612 -1.2805  1.9605 -0.3907
 4485SOL    HW224915   2.408   0.464   5.619 -0.9638 -1.3367  0.5368
 4486SOL     OW24916   3.602   2.553  10.444 -0.0086 -0.2804  0.0905
 4486SOL    HW124917   3.532   2.606  10.406  0.6454  0.9429  0.5924
 4486SOL    HW224918   3.588   2.471  10.396 -0.1894 -0.3925  0.3368
 4487SOL     OW24919   1.108   1.138  14.732  0.7003  1.0334  0.2744
 4487SOL    HW124920   1.149   1.109  14.650 -0.8148  1.0725 -0.4839
 4487SOL    HW224921   1.173   1.199  14.765  0.4478  0.9718  0.8811
 4488SOL     OW24922   4.587   1.046  11.625  0.6679 -0.1955  0.1610
 4488SOL    HW124923   4.516   1.088  11.576  0.4587  0.5931  1.1235
 4488SOL    HW224924   4.648   1.023  11.555  2.7771 -1.7035  2.5026
 4489SOL     OW24925   1.897   0.572  13.994 -0.4548  0.7190 -0.3763
 4489SOL    HW124926   1.877   0.523  14.073 -0.8148  0.6050 -0.5408
 4489SOL    HW224927   1.896   0.662  14.027  1.0947  1.5040 -2.4644
 4490SOL     OW24928   1.260   4.363  14.166  0.0478 -0.0175  0.7219
 4490SOL    HW124929   1.240   4.271  14.183 -2.5869  0.7218  1.6547
 4490SOL    HW224930   1.220   4.376  14.080 -2.1276  0.9365  1.8692
 4491SOL     OW24931   4.083   1.127  13.933 -0.3374  0.2586 -0.0669
 4491SOL    HW124932   4.010   1.161  13.985 -0.0537 -0.6140  0.8864
 4491SOL    HW224933   4.111   1.056  13.990  0.9261 -0.9159 -2.1348
 4492SOL     OW24934   4.484   3.476   2.060 -0.0286  0.6808 -0.2234
 4492SOL    HW124935   4.524   3.539   2.000  0.4041  0.1047 -0.5372
 4492SOL    HW224936   4.428   3.428   2.001 -1.0428 -0.0763  1.3595
 4493SOL     OW24937   2.184   1.645   5.211 -0.0120  0.1646  0.3289
 4493SOL    HW124938   2.245   1.715   5.234  0.7021 -0.4817  0.4281
 4493SOL    HW224939   2.131   1.624   5.287  2.9309 -2.1863  1.7508
 4494SOL     OW24940   1.666   0.340   4.460 -0.2222  0.3764 -0.0664
 4494SOL    HW124941   1.645   0.250   4.435 -1.3749  0.7644 -0.5054
 4494SOL    HW224942   1.585   0.388   4.446 -0.1271  0.1689 -1.3278
 4495SOL     OW24943   4.077   0.451  14.786 -0.0564 -0.1201  0.6412
 4495SOL    HW124944   4.032   0.531  14.812  0.6676 -0.0704  1.7263
 4495SOL    HW224945   4.006   0.396  14.819  0.8723 -1.7460 -0.0347
 4496SOL     OW24946   0.677   0.947   6.510 -0.0708  0.1490  0.1955
 4496SOL    HW124947   0.602   0.926   6.454 -0.1284  2.2523 -0.5149
 4496SOL    HW224948   0.627   0.973   6.587 -2.2308 -0.4106 -1.0387
 4497SOL     OW24949   0.416   2.008  14.640  0.0545 -0.1096 -0.1897
 4497SOL    HW124950   0.499   1.983  14.600  0.9119 -1.6683  2.6301
 4497SOL    HW224951   0.390   2.080  14.582 -2.4600 -1.0983 -0.2842
 4498SOL     OW24952   0.874   1.823  14.612 -0.3576 -0.1916  0.0513
 4498SOL    HW124953   0.891   1.755  14.547 -2.2601 -1.1419  0.5494
 4498SOL    HW224954   0.962   1.831  14.650 -1.0533  1.4612  1.3544
 4499SOL     OW24955   0.783   4.205   4.958  0.1210 -0.1864  0.1108
 4499SOL    HW124956   0.854   4.186   4.897  0.9827  1.2575  0.6752
 4499SOL    HW224957   0.831   4.201   5.041 -1.9764  1.9883  1.4268
 4500SOL     OW24958   2.276   3.482   0.688  0.2312 -0.1444  0.1693
 4500SOL    HW124959   2.255   3.471   0.595 -0.8864  1.1549  0.2820
 4500SOL    HW224960   2.372   3.481   0.684  0.1977 -0.6013 -0.5733
 4501SOL     OW24961   1.595   3.731   5.366  0.1740  0.1247  0.2333
 4501SOL    HW124962   1.588   3.824   5.389 -1.2997 -0.1209  0.7914
 4501SOL    HW224963   1.686   3.712   5.387  0.0503 -0.8717 -0.1361
 4502SOL     OW24964   3.018   4.086   1.405 -0.2104  0.3363 -0.0578
 4502SOL    HW124965   2.923   4.082   1.419  0.4187 -1.4837  3.6348
 4502SOL    HW224966   3.040   4.103   1.497 -0.7118  1.5552 -0.1523
 4503SOL     OW24967   2.501   3.111   2.690  0.3549  0.6603  0.3054
 4503SOL    HW124968   2.547   3.163   2.756 -1.6052  0.9050  1.4718
 4503SOL    HW224969   2.459   3.183   2.643 -0.6812  0.8990  1.6105
 4504SOL     OW24970   2.732   0.862   8.921 -0.6261  0.7835  0.7353
 4504SOL    HW124971   2.673   0.933   8.894  0.7862  1.8949  0.5585
 4504SOL    HW224972   2.768   0.897   9.002  0.3587  0.9396  0.2277
 4505SOL     OW24973   0.568   4.525   3.120  0.1165  0.3988 -0.0396
 4505SOL    HW124974   0.586   4.619   3.128 -0.0069  0.3336  0.9869
 4505SOL    HW224975   0.659   4.496   3.111 -0.3106 -0.6179 -1.0525
 4506SOL     OW24976   4.696   4.396   7.120  0.0269  0.3024  0.4000
 4506SOL    HW124977   4.667   4.375   7.031  3.0017  0.4102 -0.5930
 4506SOL    HW224978   4.672   4.317   7.168 -0.6520  0.7738  0.8319
 4507SOL     OW24979   3.688   4.610   5.467 -0.0044 -0.8664 -0.0865
 4507SOL    HW124980   3.704   4.668   5.393  0.2551 -0.7973  0.0248
 4507SOL    HW224981   3.689   4.523   5.427 -0.5648 -1.0732  0.3418
 4508SOL     OW24982   0.255   3.096   5.254  0.7182 -0.2855 -0.0446
 4508SOL    HW124983   0.194   3.121   5.323  0.4803 -1.0992  0.0393
 4508SOL    HW224984   0.230   3.005   5.242  0.2044 -0.3474  1.5218
 4509SOL     OW24985   3.760   4.535  11.518  0.4312  0.4023  0.6880
 4509SOL    HW124986   3.774   4.560  11.427 -2.0645 -1.9687 -0.3263
 4509SOL    HW224987   3.666   4.547  11.506  0.2410 -1.4542  0.3897
 4510SOL     OW24988   3.103   1.423   7.651 -0.2523  0.0714  0.4228
 4510SOL    HW124989   3.153   1.343   7.632 -0.9477 -1.1405  3.8402
 4510SOL    HW224990   3.021   1.398   7.609  0.3971  1.0325 -1.4512
 4511SOL     OW24991   3.258   0.505   3.139  0.8506  0.0096 -0.1817
 4511SOL    HW124992   3.200   0.433   3.162 -0.1024 -0.2364 -3.4191
 4511SOL    HW224993   3.268   0.555   3.220 -1.1662  1.3015 -0.7376
 4512SOL     OW24994   2.896   3.502   6.371  0.1785 -0.2555  0.7881
 4512SOL    HW124995   2.957   3.471   6.439 -1.1135 -0.1781  1.9857
 4512SOL    HW224996   2.927   3.449   6.297  0.5906  0.5034  0.4243
 4513SOL     OW24997   1.103   1.906   0.805 -0.3077  0.6036  0.2474
 4513SOL    HW124998   1.175   1.960   0.774  0.1653 -1.0438 -1.4941
 4513SOL    HW224999   1.026   1.961   0.790  1.5751  2.9547 -0.6755
 4514SOL     OW25000   3.698   0.115   1.150  0.0173  0.6384 -0.1686
 4514SOL    HW125001   3.698   0.208   1.173  0.9791  0.5528  0.1581
 4514SOL    HW225002   3.785   0.109   1.110 -0.6590  0.0467 -1.5631
 4515SOL     OW25003   4.317   4.720   5.865  0.0684  0.2832 -0.3717
 4515SOL    HW125004   4.412   4.705   5.860  0.0061 -0.3093  0.1798
 4515SOL    HW225005   4.305   4.671   5.946  1.4466 -1.5476 -1.2595
 4516SOL     OW25006   0.871   3.612   4.973 -0.5734 -0.0305 -0.3572
 4516SOL    HW125007   0.830   3.616   5.059  0.0376  0.1633 -0.0735
 4516SOL    HW225008   0.860   3.518   4.960 -0.9412  0.1056 -1.0250
 4517SOL     OW25009   1.096   0.905   1.761 -0.0380  0.3951  0.5228
 4517SOL    HW125010   1.050   0.827   1.793  1.2595 -1.1457 -1.2950
 4517SOL    HW225011   1.182   0.865   1.748 -1.3885 -1.1504 -3.8145
 4518SOL     OW25012   2.839   4.492   3.656  0.5243  0.4386 -0.4155
 4518SOL    HW125013   2.891   4.475   3.578 -1.4316 -1.7813 -1.2609
 4518SOL    HW225014   2.746   4.501   3.633  0.3630 -1.0869 -0.4129
 4519SOL     OW25015   3.726   1.652   6.271  0.0460  0.0182 -0.0938
 4519SOL    HW125016   3.652   1.640   6.332  1.7555 -1.2335  1.7138
 4519SOL    HW225017   3.774   1.724   6.311 -0.7095  0.9758 -0.8981
 4520SOL     OW25018   1.511   3.662   5.089  0.3671  0.1722  0.0045
 4520SOL    HW125019   1.584   3.678   5.148  0.9719 -0.9696 -0.4384
 4520SOL    HW225020   1.535   3.720   5.017 -0.5441  0.4424 -0.0858
 4521SOL     OW25021   2.533   2.409   6.747 -0.4767  0.4893 -0.4005
 4521SOL    HW125022   2.622   2.425   6.777 -0.2197 -0.9773 -0.4055
 4521SOL    HW225023   2.551   2.326   6.703  0.1618  0.0604  0.6667
 4522SOL     OW25024   4.186   0.122   2.264 -0.0194 -0.0608  0.0177
 4522SOL    HW125025   4.097   0.111   2.232 -0.1185  2.7113 -0.6981
 4522SOL    HW225026   4.174   0.147   2.356  1.5668  0.7908  0.0094
 4523SOL     OW25027   3.608   4.131   8.985 -0.3233  0.1726 -0.5387
 4523SOL    HW125028   3.583   4.165   8.899 -1.0134 -0.2069 -0.4941
 4523SOL    HW225029   3.530   4.151   9.037  0.2559 -0.9685  0.7626
 4524SOL     OW25030   2.725   2.358   4.054  0.0819  0.1169  0.2197
 4524SOL    HW125031   2.635   2.383   4.073 -0.4404 -2.1528  0.7481
 4524SOL    HW225032   2.716   2.274   4.098  1.2037  0.7856  1.7134
 4525SOL     OW25033   3.803   0.897  15.129  0.2854  0.4656  0.1880
 4525SOL    HW125034   3.896   0.874  15.124 -0.1537 -1.2649  0.0071
 4525SOL    HW225035   3.817   0.984  15.167 -1.6999  1.2306 -0.8593
 4526SOL     OW25036   4.052   3.214   5.064  0.2502  0.1818  0.1367
 4526SOL    HW125037   4.088   3.167   4.988 -1.6513  2.2213 -2.0379
 4526SOL    HW225038   4.080   3.303   5.042  1.2932 -0.4847 -1.2613
 4527SOL     OW25039   3.910   4.084  15.967 -0.5978 -0.5507  0.4051
 4527SOL    HW125040   3.911   4.086  15.871  1.4880  1.7556  0.4812
 4527SOL    HW225041   3.821   4.050  15.975  0.0797 -2.3728  0.2070
 4528SOL     OW25042   0.573   0.237   3.866 -0.1453  0.1630 -0.7152
 4528SOL    HW125043   0.565   0.212   3.774 -1.0190 -0.5399 -0.4473
 4528SOL    HW225044   0.661   0.208   3.888 -0.7262 -0.8641  0.2375
 4529SOL     OW25045   3.251   2.388  13.125  0.7406 -0.4082 -0.2277
 4529SOL    HW125046   3.333   2.431  13.151  0.6684 -0.8438  0.7314
 4529SOL    HW225047   3.230   2.356  13.213  3.8639 -0.4280  0.5156
 4530SOL     OW25048   4.331   3.166  13.504 -0.0335  0.2733 -0.0456
 4530SOL    HW125049   4.237   3.149  13.507 -0.1912  1.3568  1.4001
 4530SOL    HW225050   4.335   3.206  13.418 -1.2105 -1.6799 -1.0006
 4531SOL     OW25051   2.132   4.122  17.660 -0.0992  0.2020 -0.3307
 4531SOL    HW125052   2.211   4.077  17.632 -0.8826 -1.3409 -0.0278
 4531SOL    HW225053   2.087   4.053   0.004  0.3399  0.7771  0.8968
 4532SOL     OW25054   4.136   1.232   9.587 -0.3246  1.0223  0.1250
 4532SOL    HW125055   4.158   1.325   9.599  2.3248  0.3849  0.1207
 4532SOL    HW225056   4.040   1.234   9.593 -0.2538  0.4762  1.4964
 4533SOL     OW25057   3.243   3.551   4.184 -1.0269 -0.5887  0.4361
 4533SOL    HW125058   3.202   3.605   4.252  1.3252  1.3238  0.3649
 4533SOL    HW225059   3.198   3.584   4.106 -0.7525 -0.9527  0.1253
 4534SOL     OW25060   1.379   1.397   6.783  0.0863  0.7690  0.3718
 4534SOL    HW125061   1.384   1.333   6.854  0.7963 -0.7286 -1.0262
 4534SOL    HW225062   1.466   1.438   6.787  1.2128 -1.7628  1.7682
 4535SOL     OW25063   0.970   1.860   7.512 -0.1077  0.0947 -0.1051
 4535SOL    HW125064   0.902   1.916   7.549  0.2967  0.1626  0.5316
 4535SOL    HW225065   1.022   1.857   7.592  0.1823 -0.1939 -0.3049
 4536SOL     OW25066   0.009   3.704   0.702 -0.4311  0.4524 -0.3975
 4536SOL    HW125067   0.037   3.747   0.783  1.9772  1.1484 -1.6085
 4536SOL    HW225068   4.724   3.782   0.647  1.7786 -0.0811 -1.6029
 4537SOL     OW25069   0.187   3.516   8.733 -0.1780  0.0214  0.0626
 4537SOL    HW125070   0.266   3.475   8.697 -2.6395 -3.7382 -1.1065
 4537SOL    HW225071   0.150   3.441   8.780 -1.6777  0.2906 -0.6749
 4538SOL     OW25072   4.248   3.984   3.325 -0.4643 -0.4064  0.3692
 4538SOL    HW125073   4.238   3.958   3.233  1.2704  1.8637 -0.4765
 4538SOL    HW225074   4.162   4.015   3.354 -0.9142 -0.3264 -1.0592
 4539SOL     OW25075   3.044   1.903   5.817  0.9733  0.0905 -0.5034
 4539SOL    HW125076   3.108   1.973   5.809  2.4330 -1.0537  1.0863
 4539SOL    HW225077   3.087   1.827   5.777 -0.9037 -0.3183 -1.7474
 4540SOL     OW25078   1.692   4.257   2.010 -0.5022  0.1168  0.2820
 4540SOL    HW125079   1.777   4.258   2.054  1.1273 -0.6427 -2.8783
 4540SOL    HW225080   1.711   4.239   1.918  1.4286 -3.9775  1.4822
 4541SOL     OW25081   0.421   2.883   6.878  0.6327  0.8305  0.3269
 4541SOL    HW125082   0.375   2.966   6.870 -0.1440  0.2813 -1.0541
 4541SOL    HW225083   0.460   2.891   6.964 -0.7855  0.6785  0.9852
 4542SOL     OW25084   3.146   2.605   3.800  0.7880 -0.3148 -0.4761
 4542SOL    HW125085   3.166   2.699   3.798  2.4475 -0.6327  0.8150
 4542SOL    HW225086   3.064   2.606   3.849 -0.1513 -0.2447 -2.0633
 4543SOL     OW25087   1.719   1.418   1.181 -0.8247  0.4210 -0.1845
 4543SOL    HW125088   1.665   1.444   1.256 -2.1563 -2.2320 -0.2212
 4543SOL    HW225089   1.779   1.491   1.172  0.3500 -0.2212  2.5144
 4544SOL     OW25090   4.719   3.611   7.097 -0.1330  0.3093  0.0001
 4544SOL    HW125091   0.034   3.603   7.011  0.7073  1.6454  0.2745
 4544SOL    HW225092   0.039   3.687   7.132  0.2403  0.0573  0.0604
 4545SOL     OW25093   0.657   4.003  10.736 -0.2588 -0.5152 -0.0370
 4545SOL    HW125094   0.742   4.008  10.779 -0.1027 -1.1160 -0.2731
 4545SOL    HW225095   0.683   4.048  10.656 -1.9561 -1.2911 -1.0392
 4546SOL     OW25096   3.729   4.496   4.436  0.4341 -0.2878  0.7766
 4546SOL    HW125097   3.681   4.575   4.460 -0.1171  0.6054 -3.1828
 4546SOL    HW225098   3.685   4.432   4.492 -1.6526 -0.9067 -1.5721
 4547SOL     OW25099   2.785   0.667   2.114 -0.4116  0.1188 -0.1338
 4547SOL    HW125100   2.864   0.689   2.164 -0.5583 -0.5116  0.3825
 4547SOL    HW225101   2.795   0.573   2.098 -0.9969 -0.2139  1.4765
 4548SOL     OW25102   2.353   2.008   6.887  0.5667  0.2106  0.1612
 4548SOL    HW125103   2.406   1.933   6.860 -1.0056 -0.4639 -1.0293
 4548SOL    HW225104   2.268   1.964   6.897  1.3707 -1.6473 -1.3837
 4549SOL     OW25105   0.347   3.179   5.737  0.1607  0.0911  0.4593
 4549SOL    HW125106   0.377   3.218   5.654 -0.6673 -0.1115  0.0675
 4549SOL    HW225107   0.382   3.091   5.728 -1.3644 -0.3149 -1.4359
 4550SOL     OW25108   0.259   2.709   2.743  0.1884 -0.5123  0.3665
 4550SOL    HW125109   0.339   2.702   2.690  0.7735 -0.1603  1.2099
 4550SOL    HW225110   0.209   2.775   2.696 -0.0672 -2.5389 -2.2384
 4551SOL     OW25111   3.477   2.588   5.192  0.1032 -0.0122  0.3843
 4551SOL    HW125112   3.552   2.648   5.203  0.8200 -1.0416  1.0822
 4551SOL    HW225113   3.479   2.539   5.274  0.2953  0.7942  0.8678
 4552SOL     OW25114   2.302   0.498   5.253 -0.4364 -0.2631 -0.3371
 4552SOL    HW125115   2.335   0.420   5.298  2.0200  1.3399  0.6087
 4552SOL    HW225116   2.268   0.454   5.175 -2.6761 -0.9203  1.0066
 4553SOL     OW25117   2.977   0.871   9.399 -0.3053 -0.4221 -0.1638
 4553SOL    HW125118   2.920   0.889   9.324  0.5187 -1.8384 -1.1084
 4553SOL    HW225119   3.062   0.905   9.369  0.0457  0.2616  1.6358
 4554SOL     OW25120   3.808   3.966   4.698  0.2164 -0.4820 -0.4483
 4554SOL    HW125121   3.894   3.929   4.678 -0.2119 -1.3475 -0.6970
 4554SOL    HW225122   3.776   3.888   4.743 -0.4017  0.2715  0.4317
 4555SOL     OW25123   1.198   0.068  15.127 -0.1977 -0.1587 -0.2958
 4555SOL    HW125124   1.254   4.721  15.099 -0.4507 -0.3116 -0.4073
 4555SOL    HW225125   1.162   0.102  15.045  0.3111 -4.3097 -2.2489
 4556SOL     OW25126   3.648   2.695  14.525 -0.0068  0.3525 -0.4120
 4556SOL    HW125127   3.587   2.629  14.558 -0.2919 -1.1756 -4.1086
 4556SOL    HW225128   3.637   2.761  14.594  1.1973  1.5270 -1.3374
 4557SOL     OW25129   4.173   2.050  15.839  0.7583 -0.3425 -0.1478
 4557SOL    HW125130   4.133   2.019  15.757  0.3498  1.7466 -0.7320
 4557SOL    HW225131   4.234   1.978  15.855  0.5124  0.6158  5.1372
 4558SOL     OW25132   0.659   4.190   9.416 -0.0714 -0.2994 -0.0584
 4558SOL    HW125133   0.702   4.215   9.498  0.5741 -1.1596 -0.1215
 4558SOL    HW225134   0.621   4.105   9.438 -0.7235  0.2115  0.7563
 4559SOL     OW25135   0.148   0.504   7.559 -0.3525 -0.2579  0.1491
 4559SOL    HW125136   0.233   0.463   7.544  0.2638  0.4117  1.7673
 4559SOL    HW225137   0.109   0.507   7.472 -0.4200 -0.5867  0.1722
 4560SOL     OW25138   0.998   0.369   6.420 -0.2555 -0.4381 -0.0674
 4560SOL    HW125139   0.949   0.370   6.502  0.0586  0.7915  0.1016
 4560SOL    HW225140   0.944   0.418   6.358 -0.7262 -0.2572  0.4854
 4561SOL     OW25141   3.147   2.604  10.525 -0.7709  0.0019  0.2295
 4561SOL    HW125142   3.235   2.625  10.556 -0.3333 -0.3117 -0.8195
 4561SOL    HW225143   3.163   2.592  10.431  1.7662  0.9005  0.5537
 4562SOL     OW25144   0.135   3.351   7.296  0.9277 -0.5501  0.0247
 4562SOL    HW125145   0.164   3.275   7.246  0.6156  0.5785 -1.8761
 4562SOL    HW225146   0.053   3.362   7.248  0.1175 -1.1117  1.2890
 4563SOL     OW25147   0.059   1.353   2.088 -0.0615 -0.3043 -0.3796
 4563SOL    HW125148   4.692   1.358   2.067  0.1722  0.1144 -1.2968
 4563SOL    HW225149   0.083   1.273   2.042 -0.6059 -1.5188  1.4443
 4564SOL     OW25150   3.249   1.268  17.311 -0.6314  0.3109  0.0930
 4564SOL    HW125151   3.168   1.224  17.336 -0.6402 -0.6161 -1.5699
 4564SOL    HW225152   3.300   1.246  17.389 -1.1060 -0.1447  0.2738
 4565SOL     OW25153   3.776   0.043  11.669  0.3050 -0.0434 -0.3024
 4565SOL    HW125154   3.744   4.710  11.600 -0.1196 -0.9117  0.6307
 4565SOL    HW225155   3.750   0.130  11.640 -0.7949 -0.2611 -0.0038
 4566SOL     OW25156   0.874   3.712  14.859 -0.4981  0.2160  0.6925
 4566SOL    HW125157   0.829   3.669  14.932 -0.4043 -1.2950 -0.1364
 4566SOL    HW225158   0.808   3.769  14.821  0.2394  0.8788  0.3986
 4567SOL     OW25159   2.017   0.201   1.829 -0.9472  0.1142 -0.0188
 4567SOL    HW125160   2.079   0.149   1.881  1.0154  0.4822 -1.9765
 4567SOL    HW225161   2.000   0.132   1.765  0.9530 -0.8364  0.4974
 4568SOL     OW25162   0.566   4.468   3.547 -0.3883  0.4037  0.3193
 4568SOL    HW125163   0.530   4.383   3.571 -0.5740  0.1861 -0.7195
 4568SOL    HW225164   0.660   4.461   3.532 -0.6771  1.5535 -2.0836
 4569SOL     OW25165   0.583   0.748   7.570 -0.3776  0.0552  0.0317
 4569SOL    HW125166   0.602   0.796   7.651 -1.0222 -0.2862  0.3866
 4569SOL    HW225167   0.653   0.684   7.564 -2.6765 -2.5026  0.2772
 4570SOL     OW25168   1.554   1.641   8.409 -0.1982  0.5957 -0.0173
 4570SOL    HW125169   1.610   1.568   8.435  0.0406  0.0201 -2.1276
 4570SOL    HW225170   1.468   1.600   8.402 -0.0048  0.1551  0.2139
 4571SOL     OW25171   4.394   3.679   3.928 -0.1528  0.2576 -0.1264
 4571SOL    HW125172   4.377   3.642   4.015 -1.2590  2.6380  0.6682
 4571SOL    HW225173   4.384   3.774   3.940  1.8422  0.7523 -2.4752
 4572SOL     OW25174   0.525   4.057   6.012  0.3184  0.2115  0.0057
 4572SOL    HW125175   0.520   4.010   5.929  0.2320 -1.3098  0.8668
 4572SOL    HW225176   0.575   4.132   5.981  0.2802 -0.9350 -2.8395
 4573SOL     OW25177   2.445   1.781   4.291 -0.6034  0.5122  0.0892
 4573SOL    HW125178   2.521   1.804   4.238 -0.4960  0.2109  0.1132
 4573SOL    HW225179   2.478   1.794   4.379 -0.1637  0.7722 -0.1163
 4574SOL     OW25180   4.177   2.106   4.382 -0.2270 -0.4935  0.2520
 4574SOL    HW125181   4.109   2.163   4.348  1.6256  1.0790 -0.8222
 4574SOL    HW225182   4.232   2.099   4.304 -2.8394 -0.1651 -1.6107
 4575SOL     OW25183   1.580   2.825   3.531  0.1894  0.4591  0.0076
 4575SOL    HW125184   1.557   2.904   3.482  1.6621  0.0369 -1.3608
 4575SOL    HW225185   1.624   2.773   3.464  2.4152  2.7345 -0.2745
 4576SOL     OW25186   4.528   4.121   1.742 -0.1203  0.0075  0.0810
 4576SOL    HW125187   4.522   4.162   1.655  0.1870  1.2301  0.6383
 4576SOL    HW225188   4.622   4.101   1.745 -0.0596  0.1945 -0.4894
 4577SOL     OW25189   2.490   4.447   7.968 -0.4876 -0.1760  0.2146
 4577SOL    HW125190   2.445   4.499   7.902  2.1642  1.9002  0.0418
 4577SOL    HW225191   2.452   4.480   8.049  1.0536  2.2237 -0.0428
 4578SOL     OW25192   0.403   1.195  15.798  0.0493 -0.6185  0.0509
 4578SOL    HW125193   0.446   1.222  15.717  0.2350 -2.5650 -0.4893
 4578SOL    HW225194   0.318   1.229  15.771 -0.5035 -1.7772  0.3495
 4579SOL     OW25195   0.664   0.874   3.501 -0.1100 -0.6711 -0.0874
 4579SOL    HW125196   0.756   0.884   3.477  0.1617 -4.0389 -0.4841
 4579SOL    HW225197   0.632   0.961   3.525 -0.8875 -1.2070  0.8344
 4580SOL     OW25198   3.368   2.645   3.196 -0.0251 -0.5063 -0.1469
 4580SOL    HW125199   3.370   2.579   3.265  0.1850  0.1817  0.5131
 4580SOL    HW225200   3.457   2.680   3.199 -1.0388  1.8476  3.1771
 4581SOL     OW25201   1.063   2.581  12.500  0.1273  0.5881  0.1915
 4581SOL    HW125202   1.155   2.604  12.515  0.1895  1.0964 -0.9181
 4581SOL    HW225203   1.041   2.520  12.570  0.4085 -0.1311 -0.3435
 4582SOL     OW25204   1.123   2.224   1.182 -0.0040 -0.4629 -0.4759
 4582SOL    HW125205   1.151   2.257   1.097 -0.4870  0.5729 -0.2314
 4582SOL    HW225206   1.111   2.133   1.154  0.6137 -0.6820 -0.0333
 4583SOL     OW25207   4.724   0.747   4.884 -0.1048 -0.3139 -0.2870
 4583SOL    HW125208   4.667   0.820   4.905  1.4523  1.4858 -2.4025
 4583SOL    HW225209   4.698   0.673   4.939 -2.2219 -0.1798 -1.1296
 4584SOL     OW25210   3.334   2.724   6.615 -0.3092 -0.1054  0.4902
 4584SOL    HW125211   3.324   2.630   6.625 -2.6362  0.1532  0.5269
 4584SOL    HW225212   3.425   2.740   6.640  0.0547  1.4915 -1.8145
 4585SOL     OW25213   3.258   0.419   9.291 -0.3690 -0.0475  0.0031
 4585SOL    HW125214   3.257   0.327   9.263 -0.2596 -0.2437  0.6373
 4585SOL    HW225215   3.331   0.418   9.353  0.0419 -0.7379 -0.4932
 4586SOL     OW25216   3.570   2.377   9.910 -0.2760 -0.2832 -0.0350
 4586SOL    HW125217   3.561   2.283   9.892 -0.2123 -0.2266 -0.3564
 4586SOL    HW225218   3.598   2.374  10.002  1.7651  0.5376 -0.6318
 4587SOL     OW25219   3.974   3.150   7.815  0.6159 -0.3776  0.0826
 4587SOL    HW125220   4.066   3.138   7.794  0.5133 -0.7745 -0.1519
 4587SOL    HW225221   3.988   3.227   7.870  1.7227 -0.0575 -0.6512
 4588SOL     OW25222   0.480   0.898  15.797  0.0418 -0.1720  0.9573
 4588SOL    HW125223   0.419   0.828  15.821  0.1168 -0.7410 -0.5254
 4588SOL    HW225224   0.447   0.978  15.838 -0.3035 -1.2405  2.7590
 4589SOL     OW25225   2.961   0.106  16.176  0.3624  0.1375  0.2432
 4589SOL    HW125226   3.013   0.033  16.211 -0.5928 -1.0241 -0.7394
 4589SOL    HW225227   3.022   0.179  16.180  0.3958  0.1014  0.3870
 4590SOL     OW25228   3.530   1.775   4.311 -0.3450 -0.1718  0.6592
 4590SOL    HW125229   3.439   1.746   4.301  0.4968 -2.5107 -0.1715
 4590SOL    HW225230   3.549   1.771   4.217 -4.6324  0.3768 -0.2490
 4591SOL     OW25231   0.950   1.512  16.676 -0.1155  0.8703  0.0201
 4591SOL    HW125232   1.024   1.555  16.633 -0.3743  2.8128  1.5217
 4591SOL    HW225233   0.886   1.532  16.607 -0.2606 -1.3636 -0.5139
 4592SOL     OW25234   0.656   1.167   3.115  0.2619  0.1856  0.0853
 4592SOL    HW125235   0.694   1.208   3.037 -0.0767 -0.3892 -0.3850
 4592SOL    HW225236   0.602   1.098   3.076  0.3086  0.0916  0.1904
 4593SOL     OW25237   2.784   1.046   5.418 -0.1766  0.4492 -0.3753
 4593SOL    HW125238   2.830   1.116   5.466 -1.1948  0.2801  0.8314
 4593SOL    HW225239   2.697   1.052   5.457  0.1266  1.3391  0.1848
 4594SOL     OW25240   1.667   0.176   0.301 -0.2382  0.0975  0.0243
 4594SOL    HW125241   1.717   0.102   0.336  1.5121  2.3385  2.3514
 4594SOL    HW225242   1.592   0.166   0.359 -0.4368 -0.6295 -0.3650
 4595SOL     OW25243   4.173   4.628   0.657 -0.2590  0.5451 -0.2431
 4595SOL    HW125244   4.153   4.691   0.726  1.2725 -0.4829  1.1700
 4595SOL    HW225245   4.113   4.650   0.587  0.7968  0.6436 -1.1157
 4596SOL     OW25246   2.134   2.520  17.025 -0.0921  0.1026  0.1730
 4596SOL    HW125247   2.052   2.472  17.036  0.2330  0.1533  2.9394
 4596SOL    HW225248   2.095   2.605  17.003 -0.5473 -0.4196 -1.0434
 4597SOL     OW25249   1.460   3.901   2.619 -0.5977  0.1996 -0.9413
 4597SOL    HW125250   1.482   3.861   2.703 -1.1816  3.0813  0.6001
 4597SOL    HW225251   1.537   3.958   2.606 -0.2234  0.0118  0.4147
 4598SOL     OW25252   3.692   2.766   9.625 -0.4525 -0.3622 -0.1552
 4598SOL    HW125253   3.608   2.747   9.668 -0.3946 -1.2615 -0.4279
 4598SOL    HW225254   3.759   2.725   9.681  0.4623 -0.6765 -1.4758
 4599SOL     OW25255   2.864   0.467   1.452  0.1700  0.0217 -0.5468
 4599SOL    HW125256   2.957   0.471   1.475  0.2476  1.1681 -1.0915
 4599SOL    HW225257   2.864   0.412   1.374  2.0170  0.7309 -1.0610
 4600SOL     OW25258   3.802   0.427   6.606 -0.1430 -0.3300  0.2880
 4600SOL    HW125259   3.799   0.509   6.557  2.1460  0.3135  1.2208
 4600SOL    HW225260   3.722   0.378   6.590 -0.4730  0.1388  0.5015
 4601SOL     OW25261   4.425   0.906   0.586 -0.4805 -0.0701 -0.0245
 4601SOL    HW125262   4.370   0.938   0.657  0.6647 -1.8515  1.6718
 4601SOL    HW225263   4.494   0.879   0.647  1.0124 -2.0137 -2.5725
 4602SOL     OW25264   3.709   1.300   4.099  0.2021  0.1188 -0.6449
 4602SOL    HW125265   3.749   1.217   4.073  0.3154 -0.2968  0.8632
 4602SOL    HW225266   3.792   1.335   4.130 -1.0321  4.2461 -2.0340
 4603SOL     OW25267   4.651   2.274   2.661 -0.5267 -0.4083  0.4017
 4603SOL    HW125268   4.715   2.330   2.703  2.3436 -1.9289 -1.9279
 4603SOL    HW225269   4.591   2.345   2.638 -0.8984 -0.6867  0.5024
 4604SOL     OW25270   3.260   0.345   3.761 -0.1249  0.5751  0.0594
 4604SOL    HW125271   3.313   0.405   3.709 -1.1540  0.4933 -1.0739
 4604SOL    HW225272   3.303   0.343   3.847  0.0534  0.6484 -0.0292
 4605SOL     OW25273   3.976   1.285   6.683  0.8399  0.1800  0.2786
 4605SOL    HW125274   3.939   1.360   6.635 -2.9108 -2.3295 -0.7079
 4605SOL    HW225275   4.005   1.328   6.764 -0.3863  1.2843  0.1390
 4606SOL     OW25276   3.123   1.199   9.523  0.1846  0.9029  0.2262
 4606SOL    HW125277   3.156   1.150   9.447  1.6923 -0.4662  1.7573
 4606SOL    HW225278   3.133   1.287   9.486  0.8953  1.1987  1.1194
 4607SOL     OW25279   3.933   2.672  15.768 -0.5379 -0.0305 -0.4281
 4607SOL    HW125280   4.010   2.679  15.824 -0.3321  1.5442 -0.9167
 4607SOL    HW225281   3.973   2.683  15.682 -0.3919 -1.5438 -0.5533
 4608SOL     OW25282   4.302   4.551  13.244  0.4285 -0.4086 -0.3247
 4608SOL    HW125283   4.249   4.621  13.206 -1.3347 -1.3863  0.3322
 4608SOL    HW225284   4.389   4.572  13.210 -0.7268 -0.8557 -3.4716
 4609SOL     OW25285   4.199   3.682  11.386 -0.2032  0.3431  0.1781
 4609SOL    HW125286   4.151   3.601  11.403 -3.0287  2.0312  0.3284
 4609SOL    HW225287   4.139   3.747  11.425 -0.7604 -0.3266  0.4413
 4610SOL     OW25288   0.417   1.950   1.968  0.1905  0.0616  0.0244
 4610SOL    HW125289   0.459   1.913   2.045 -0.3525  0.4594  0.5096
 4610SOL    HW225290   0.365   2.021   2.005 -0.0786 -1.6122  2.8485
 4611SOL     OW25291   0.497   3.829   3.127  0.1095  0.0680  0.6025
 4611SOL    HW125292   0.516   3.746   3.082 -0.0037  0.7785 -0.7823
 4611SOL    HW225293   0.474   3.882   3.050  0.3192 -2.7838 -1.4276
 4612SOL     OW25294   3.419   3.123   3.902 -0.3260 -0.0874 -0.4803
 4612SOL    HW125295   3.365   3.145   3.826 -0.2190  2.7039  0.2500
 4612SOL    HW225296   3.496   3.174   3.876  0.9682 -1.4401  0.6593
 4613SOL     OW25297   2.294   2.417   6.581 -0.0331  0.2376 -0.1354
 4613SOL    HW125298   2.299   2.459   6.495  1.5082  0.4392  0.0613
 4613SOL    HW225299   2.388   2.406   6.595 -0.0949  0.5317  0.4798
 4614SOL     OW25300   0.371   0.998   1.723 -0.3245  0.3214  0.1981
 4614SOL    HW125301   0.295   1.044   1.757 -1.0814  0.4441 -1.6498
 4614SOL    HW225302   0.370   1.027   1.632  1.8160  0.4444  0.2000
 4615SOL     OW25303   0.428   3.592  10.696 -0.2400 -0.1810  0.0055
 4615SOL    HW125304   0.465   3.514  10.736  0.1923 -1.6483 -3.2562
 4615SOL    HW225305   0.478   3.661  10.739 -1.3346 -0.8323  2.3127
 4616SOL     OW25306   0.089   2.704   2.396 -0.2144 -0.0044 -0.3274
 4616SOL    HW125307   0.033   2.747   2.330 -0.3422  1.2731  0.6056
 4616SOL    HW225308   0.069   2.613   2.374  3.3503 -0.7221 -0.6295
 4617SOL     OW25309   0.104   3.710   7.446 -0.2446  0.1817  0.1291
 4617SOL    HW125310   0.072   3.755   7.368  0.0872  2.3640  1.2453
 4617SOL    HW225311   0.060   3.626   7.434  0.2299  0.0001 -0.3226
 4618SOL     OW25312   4.622   1.716   0.437  0.3161 -0.3443 -0.2995
 4618SOL    HW125313   4.556   1.746   0.499 -0.6074 -1.1229 -0.9209
 4618SOL    HW225314   4.578   1.697   0.355  0.6783  1.4074 -0.8913
 4619SOL     OW25315   0.600   4.568   1.795 -0.0901  0.5366 -0.3357
 4619SOL    HW125316   0.642   4.530   1.872 -1.5871  0.1981  0.3214
 4619SOL    HW225317   0.571   4.488   1.752 -0.1819  1.0250 -1.1768
 4620SOL     OW25318   4.702   2.720  17.371 -0.5625 -0.0146  0.3960
 4620SOL    HW125319   0.033   2.649  17.341 -0.2032  1.0692 -1.4633
 4620SOL    HW225320   4.689   2.779  17.296  1.5133 -0.0967 -0.0381
 4621SOL     OW25321   1.156   1.916   5.252  0.1710 -0.1221  0.0852
 4621SOL    HW125322   1.083   1.880   5.202 -1.2191  0.3109  1.8216
 4621SOL    HW225323   1.120   1.993   5.295 -0.1076 -0.7404  0.9573
 4622SOL     OW25324   0.479   2.779   3.210  0.4364 -0.0347 -0.2044
 4622SOL    HW125325   0.440   2.821   3.134  1.7074 -1.5164 -1.6740
 4622SOL    HW225326   0.473   2.685   3.190  3.0737 -0.3266  0.3488
 4623SOL     OW25327   3.474   1.923   6.248  0.2135 -0.4403  0.1763
 4623SOL    HW125328   3.379   1.918   6.260  0.2769  2.1723  1.7179
 4623SOL    HW225329   3.494   2.007   6.289  0.2371  0.0406 -0.8166
 4624SOL     OW25330   4.636   4.542   0.841  0.5459  0.6876  0.4581
 4624SOL    HW125331   4.678   4.627   0.834  1.9742 -0.2793 -2.8440
 4624SOL    HW225332   4.553   4.564   0.883  0.7568  0.3091  1.0724
 4625SOL     OW25333   1.655   3.909  12.451 -0.3831 -0.6957 -0.4944
 4625SOL    HW125334   1.725   3.956  12.496 -0.8041 -0.4904 -0.0597
 4625SOL    HW225335   1.584   3.953  12.498 -1.5808 -3.5679  0.3829
 4626SOL     OW25336   3.037   4.029   8.373  0.1496  0.0793 -0.4230
 4626SOL    HW125337   3.004   4.065   8.290 -4.1228 -1.7317  0.4992
 4626SOL    HW225338   3.095   4.100   8.402  0.7470 -1.2775  1.6739
 4627SOL     OW25339   0.009   1.532   8.008 -0.0098 -0.4500 -0.9128
 4627SOL    HW125340   0.075   1.601   8.002 -0.7287  0.5178  2.3051
 4627SOL    HW225341   0.029   1.479   7.931 -0.5665 -2.1305  0.1137
 4628SOL     OW25342   1.246   3.416   8.964  0.5725 -0.2654  0.0612
 4628SOL    HW125343   1.168   3.370   8.931  0.0424  1.3417 -0.9409
 4628SOL    HW225344   1.289   3.423   8.879  2.7683 -2.2748  1.0200
 4629SOL     OW25345   2.135   0.003   6.031  0.0347 -0.2273 -0.2744
 4629SOL    HW125346   2.120   0.017   5.937 -1.0653 -4.5391 -0.7442
 4629SOL    HW225347   2.211   4.671   6.032 -0.8162 -1.2959  2.1332
 4630SOL     OW25348   3.621   1.635   3.298  0.0371 -0.2991  0.0923
 4630SOL    HW125349   3.581   1.602   3.217  2.1974  1.9705 -1.9194
 4630SOL    HW225350   3.702   1.587   3.280 -0.8687 -1.5231 -0.7319
 4631SOL     OW25351   3.304   3.472   4.702 -0.1337 -0.0754 -0.5957
 4631SOL    HW125352   3.360   3.430   4.637 -0.3339  0.3824 -1.0635
 4631SOL    HW225353   3.369   3.465   4.772  0.2604 -2.8861 -1.2335
 4632SOL     OW25354   0.608   0.940   5.896 -0.2383  0.3905 -0.0502
 4632SOL    HW125355   0.536   1.001   5.910 -1.5345 -1.4368  1.1594
 4632SOL    HW225356   0.578   0.878   5.830  0.7098 -0.1306  0.0050
 4633SOL     OW25357   0.284   2.007  15.062 -0.4674 -0.3669  0.3147
 4633SOL    HW125358   0.241   2.078  15.110 -1.3958 -0.5729 -0.2091
 4633SOL    HW225359   0.209   1.955  15.034 -1.0838  1.1111 -0.8536
 4634SOL     OW25360   0.452   2.910   5.624  0.0088 -0.3806 -0.5481
 4634SOL    HW125361   0.517   2.860   5.574 -0.3571 -0.8621 -0.5442
 4634SOL    HW225362   0.374   2.885   5.575 -0.6980  0.6427  0.0662
 4635SOL     OW25363   4.607   2.883  17.177 -0.4787 -0.4855  0.1262
 4635SOL    HW125364   4.594   2.862  17.085 -1.3740 -0.7092  0.3036
 4635SOL    HW225365   4.520   2.914  17.201 -0.2079 -0.8153  1.5576
 4636SOL     OW25366   0.416   3.911   7.788  0.4194  0.2252 -0.7161
 4636SOL    HW125367   0.487   3.935   7.847  0.3138  0.2986 -0.6199
 4636SOL    HW225368   0.342   3.924   7.847  0.9330 -1.2645  0.2618
 4637SOL     OW25369   3.270   3.626   0.396 -0.0892  0.3080 -0.2418
 4637SOL    HW125370   3.288   3.663   0.482 -2.7183 -0.1297  0.4737
 4637SOL    HW225371   3.293   3.533   0.406  0.5208  0.4638 -0.1585
 4638SOL     OW25372   4.389   4.615   0.996  0.1796  0.7630 -0.5605
 4638SOL    HW125373   4.305   4.615   1.041  1.4793 -4.5262  1.9459
 4638SOL    HW225374   4.437   4.696   1.014 -2.4197  2.4088 -1.1157
 4639SOL     OW25375   1.052   2.491   8.735 -0.2756 -0.2758 -0.1083
 4639SOL    HW125376   1.108   2.533   8.669 -0.5952  0.3425  0.0169
 4639SOL    HW225377   1.007   2.572   8.760  1.4298  0.3938  0.8353
 4640SOL     OW25378   0.639   2.447   6.578 -0.1052 -0.0916 -0.9416
 4640SOL    HW125379   0.579   2.385   6.536  1.5209 -2.7514  0.6683
 4640SOL    HW225380   0.584   2.525   6.567  3.7944  2.4488 -2.2856
 4641SOL     OW25381   2.593   1.724   4.794 -0.2080  0.4408 -0.0027
 4641SOL    HW125382   2.523   1.660   4.799  0.1565 -0.0415 -0.9383
 4641SOL    HW225383   2.661   1.657   4.801 -0.5922  0.0006 -0.5219
 4642SOL     OW25384   0.450   4.036   5.019  0.7591 -0.3084  0.4082
 4642SOL    HW125385   0.390   3.973   4.980  1.0690  1.2318 -2.5754
 4642SOL    HW225386   0.471   3.998   5.104  1.7489  0.7892  0.6480
 4643SOL     OW25387   4.553   3.530  15.282  0.2818 -0.5312 -0.2588
 4643SOL    HW125388   4.548   3.600  15.347 -2.9760  1.2634 -2.4181
 4643SOL    HW225389   4.592   3.462  15.337 -0.9492 -0.9063  0.1439
 4644SOL     OW25390   1.112   2.608   3.266  0.0042 -0.2454 -0.1113
 4644SOL    HW125391   1.083   2.693   3.296 -0.6116 -0.1827 -0.8858
 4644SOL    HW225392   1.134   2.584   3.356 -1.2950 -1.1323 -0.0204
 4645SOL     OW25393   1.461   0.523   4.371 -0.2237 -0.2549  0.3283
 4645SOL    HW125394   1.415   0.532   4.288 -0.5447  0.1565  0.5526
 4645SOL    HW225395   1.409   0.576   4.431 -0.3429  0.0253 -0.0230
 4646SOL     OW25396   1.635   4.116   5.068  0.1426  0.5136  0.1298
 4646SOL    HW125397   1.621   4.038   5.015  2.9462  1.2573 -1.7320
 4646SOL    HW225398   1.672   4.161   4.991 -0.7359 -1.2982 -1.3612
 4647SOL     OW25399   1.384   1.916   8.355 -0.5317  0.3867  0.6015
 4647SOL    HW125400   1.403   1.932   8.448 -0.4370 -1.1785  0.8538
 4647SOL    HW225401   1.307   1.973   8.349 -1.4039 -0.6322  1.9708
 4648SOL     OW25402   1.344   3.626  13.291  0.0176 -0.1877  0.1440
 4648SOL    HW125403   1.272   3.689  13.292  0.0954 -0.1253  1.6795
 4648SOL    HW225404   1.404   3.671  13.351 -0.1186  0.7547 -0.4282
 4649SOL     OW25405   2.021   0.920   5.120  0.2158 -0.2191  0.6588
 4649SOL    HW125406   2.011   1.010   5.090  0.7008  0.1991  1.7484
 4649SOL    HW225407   2.073   0.895   5.044 -0.2638  1.2415 -0.1507
 4650SOL     OW25408   1.458   2.680   7.841  0.6546 -0.1376  0.4366
 4650SOL    HW125409   1.395   2.741   7.802  1.9354  1.1578  0.4092
 4650SOL    HW225410   1.514   2.747   7.881 -0.7525  1.5369 -0.3692
 4651SOL     OW25411   1.251   4.425   0.966 -0.0643  0.1119  0.2287
 4651SOL    HW125412   1.251   4.484   0.890 -0.8441  1.2970  1.1471
 4651SOL    HW225413   1.268   4.489   1.035  1.7149  0.5290 -0.5923
 4652SOL     OW25414   2.928   2.950   4.951  0.3360  0.5334 -0.0513
 4652SOL    HW125415   2.864   3.005   4.996  0.5671  0.5083  0.3106
 4652SOL    HW225416   2.883   2.896   4.886  0.8682 -0.0158  0.0339
 4653SOL     OW25417   1.282   3.503  15.489 -0.4182 -0.0633  0.0550
 4653SOL    HW125418   1.347   3.505  15.559 -0.4925 -1.3742  0.1548
 4653SOL    HW225419   1.330   3.463  15.416 -0.2659  1.0275 -0.4460
 4654SOL     OW25420   3.292   1.085  16.654  0.2217 -0.3327 -0.2087
 4654SOL    HW125421   3.262   1.152  16.717  0.8364  1.4737 -1.8358
 4654SOL    HW225422   3.225   1.025  16.687  0.3842 -0.1819  0.3951
 4655SOL     OW25423   1.649   3.819   1.854  0.6683  0.1127  0.1665
 4655SOL    HW125424   1.687   3.742   1.812 -2.3909 -1.2844 -0.0264
 4655SOL    HW225425   1.704   3.876   1.800  0.1878  0.3050 -0.1282
 4656SOL     OW25426   2.192   3.369  14.838 -0.0592  0.2241 -0.1756
 4656SOL    HW125427   2.142   3.325  14.769  3.2711 -0.7604 -1.9648
 4656SOL    HW225428   2.230   3.293  14.883 -0.4352  0.1623  0.0368
 4657SOL     OW25429   0.574   1.317   7.792  0.1044 -0.3265  0.2149
 4657SOL    HW125430   0.621   1.320   7.708 -0.3059 -1.6027 -0.0588
 4657SOL    HW225431   0.488   1.290   7.761 -0.0581 -1.0221  1.2899
 4658SOL     OW25432   3.661   3.459   4.380  0.0518 -0.5054 -0.1874
 4658SOL    HW125433   3.600   3.430   4.312  1.3426 -0.8825 -1.1739
 4658SOL    HW225434   3.737   3.455   4.322  1.6972  0.3917  1.8806
 4659SOL     OW25435   2.721   3.812   0.582  0.0997  0.5614 -0.9657
 4659SOL    HW125436   2.761   3.778   0.662 -1.2130 -0.0903 -0.5793
 4659SOL    HW225437   2.787   3.879   0.566  0.6182  0.0771 -0.8609
 4660SOL     OW25438   0.665   2.056  16.536 -0.1137  0.1016  0.0858
 4660SOL    HW125439   0.599   2.067  16.604 -1.6369 -0.3787 -1.3299
 4660SOL    HW225440   0.613   2.082  16.459  1.5559  0.0481 -1.0753
 4661SOL     OW25441   3.204   4.574   8.080 -0.5050  0.0414 -0.1402
 4661SOL    HW125442   3.250   4.515   8.140 -0.9882 -0.3354 -0.1362
 4661SOL    HW225443   3.251   4.550   8.000 -0.3562 -0.8302  0.2090
 4662SOL     OW25444   4.380   1.655   4.562  0.1258  0.0942 -0.0793
 4662SOL    HW125445   4.315   1.659   4.632  0.3505  0.9354  0.0772
 4662SOL    HW225446   4.320   1.652   4.487 -0.2255  0.0777  0.1989
 4663SOL     OW25447   1.150   0.532  11.109 -0.4172  0.3871 -0.4721
 4663SOL    HW125448   1.175   0.552  11.200 -2.7187  0.1564  0.2347
 4663SOL    HW225449   1.171   0.607  11.054  0.6939  1.0904  0.9033
 4664SOL     OW25450   3.417   4.539  11.822 -0.2226 -0.0298 -0.3703
 4664SOL    HW125451   3.433   4.631  11.800  2.0098 -0.3880 -0.2401
 4664SOL    HW225452   3.405   4.560  11.915 -1.0402 -1.2033 -0.2193
 4665SOL     OW25453   1.408   0.899   8.184 -0.5317 -0.2856  0.1189
 4665SOL    HW125454   1.461   0.823   8.211 -0.4435 -1.0911 -2.3656
 4665SOL    HW225455   1.442   0.901   8.095 -1.6582 -1.1138 -0.3363
 4666SOL     OW25456   2.885   3.019   9.250  0.0805 -0.6673  0.0140
 4666SOL    HW125457   2.883   3.081   9.323 -0.4955  1.7546 -2.0065
 4666SOL    HW225458   2.974   3.035   9.220  0.3083  1.0232  1.6391
 4667SOL     OW25459   3.570   0.642   7.447  0.1448  0.2726 -0.0481
 4667SOL    HW125460   3.486   0.618   7.485  0.0786  3.1920  1.6649
 4667SOL    HW225461   3.620   0.657   7.527 -0.5546 -1.4815  0.7078
 4668SOL     OW25462   3.969   1.323  14.181  0.2823 -0.3571  0.0094
 4668SOL    HW125463   4.056   1.290  14.205  1.2137  2.5874  0.6592
 4668SOL    HW225464   3.913   1.253  14.215  0.8996 -1.2632 -0.8308
 4669SOL     OW25465   4.139   2.634   7.224  0.0056  0.2591 -0.2662
 4669SOL    HW125466   4.068   2.581   7.186 -0.7065  0.8080  0.2804
 4669SOL    HW225467   4.220   2.587   7.204 -0.0530 -0.2419  0.6422
 4670SOL     OW25468   3.541   1.212   3.176  0.6220 -0.1444  0.4266
 4670SOL    HW125469   3.466   1.171   3.219 -1.0531  0.6431 -1.7174
 4670SOL    HW225470   3.575   1.126   3.150 -2.5576 -0.5202 -2.6234
 4671SOL     OW25471   2.176   1.595   4.856 -0.0955 -0.0241  0.0963
 4671SOL    HW125472   2.159   1.594   4.762  0.2963 -0.2417  0.0297
 4671SOL    HW225473   2.155   1.504   4.878  0.0226 -0.1242 -0.2074
 4672SOL     OW25474   4.294   2.366   2.116 -0.0946 -0.4107  0.1090
 4672SOL    HW125475   4.214   2.338   2.159  0.1877  0.8588  1.4542
 4672SOL    HW225476   4.339   2.396   2.194  1.4674  0.0662 -0.9662
 4673SOL     OW25477   0.749   0.043   8.474  0.0839  0.1024  0.4657
 4673SOL    HW125478   0.831   0.034   8.523 -0.7896 -3.2464  1.2963
 4673SOL    HW225479   0.694   0.091   8.536  0.0029  2.2187 -1.2293
 4674SOL     OW25480   1.491   4.549   0.344 -0.1326 -0.0269 -0.0863
 4674SOL    HW125481   1.397   4.546   0.326  0.0282 -0.4377 -0.8814
 4674SOL    HW225482   1.481   4.585   0.432 -0.3688  0.3216 -0.2567
 4675SOL     OW25483   1.526   0.618   5.042  0.4516 -0.2899 -0.2013
 4675SOL    HW125484   1.596   0.682   5.040  1.1107 -0.9796  0.7287
 4675SOL    HW225485   1.575   0.555   5.094  1.4650 -0.8651 -1.8583
 4676SOL     OW25486   0.088   2.439   2.243 -0.3770  0.0884  0.4291
 4676SOL    HW125487   0.041   2.362   2.274 -1.0018 -0.9770 -3.1762
 4676SOL    HW225488   0.024   2.481   2.186  0.3024 -0.1264 -0.5182
 4677SOL     OW25489   2.888   0.922   8.700  0.2162 -0.3407  0.2301
 4677SOL    HW125490   2.900   0.828   8.685 -1.9940 -0.7259  0.8963
 4677SOL    HW225491   2.837   0.911   8.781 -0.1775 -0.2930 -0.0134
 4678SOL     OW25492   0.342   1.488   4.288  0.2838 -0.0842 -0.0026
 4678SOL    HW125493   0.393   1.477   4.368 -1.4141 -0.6385  0.9901
 4678SOL    HW225494   0.356   1.580   4.268  1.8687 -0.8760 -2.6098
 4679SOL     OW25495   1.488   3.141   6.072  0.3415  0.1163 -0.2182
 4679SOL    HW125496   1.417   3.199   6.044  1.7543  1.7837 -0.3550
 4679SOL    HW225497   1.507   3.109   5.984  1.6465  1.6408 -0.5024
 4680SOL     OW25498   2.388   3.191   6.954  0.1751  0.2533 -0.1333
 4680SOL    HW125499   2.390   3.098   6.932  1.2489  0.6520 -1.7214
 4680SOL    HW225500   2.350   3.201   7.042  0.0478  0.1526 -0.1776
 4681SOL     OW25501   3.331   4.717   5.090 -0.0477 -0.6826  0.0992
 4681SOL    HW125502   3.399   0.053   5.118 -1.1417  0.8144 -0.5648
 4681SOL    HW225503   3.266   0.044   5.044 -0.0370 -0.8289 -0.0834
 4682SOL     OW25504   4.298   2.925   7.960  0.2764 -0.2782 -0.1495
 4682SOL    HW125505   4.227   2.920   8.024 -1.1453 -2.2943 -1.8684
 4682SOL    HW225506   4.339   2.840   7.972  0.5853  0.1366  1.6864
 4683SOL     OW25507   2.336   1.178   5.083 -0.2862 -0.1728  0.2533
 4683SOL    HW125508   2.281   1.254   5.062 -0.1194  0.2039  1.1568
 4683SOL    HW225509   2.381   1.217   5.158  0.6927  1.4862 -1.1967
 4684SOL     OW25510   2.414   3.166   4.640 -0.5509 -0.0888  0.8080
 4684SOL    HW125511   2.494   3.198   4.597  2.1233 -1.1851  4.9476
 4684SOL    HW225512   2.454   3.136   4.722 -1.3244 -1.5630  0.6377
 4685SOL     OW25513   3.415   2.928   9.153 -0.0663  0.7134  0.1089
 4685SOL    HW125514   3.328   2.897   9.178  0.1284 -0.5398 -0.7902
 4685SOL    HW225515   3.419   3.002   9.214 -1.5874  0.7403  0.1784
 4686SOL     OW25516   3.673   3.749   4.804  0.1178 -0.0585  0.0703
 4686SOL    HW125517   3.636   3.714   4.723  1.2600  1.7182 -1.2313
 4686SOL    HW225518   3.728   3.681   4.843 -0.8715 -1.4455 -0.9551
 4687SOL     OW25519   1.147   0.825   6.051 -0.3296 -0.0242  0.0458
 4687SOL    HW125520   1.097   0.786   5.979 -0.4989  1.3367 -0.5615
 4687SOL    HW225521   1.087   0.894   6.079 -1.2513 -1.1517  0.8762
 4688SOL     OW25522   0.561   1.713   5.176  0.0263 -0.7693  0.6335
 4688SOL    HW125523   0.592   1.759   5.098 -0.7644 -0.5619  0.4463
 4688SOL    HW225524   0.584   1.781   5.240 -1.4029 -0.1886  0.5288
 4689SOL     OW25525   0.344   1.075   6.160 -0.8289 -0.0324  0.5771
 4689SOL    HW125526   0.315   1.157   6.200 -0.5537 -0.0049  0.7193
 4689SOL    HW225527   0.330   1.085   6.066  2.4074  1.2537  0.2053
 4690SOL     OW25528   1.062   1.256   1.937  0.1821  0.4822  0.1331
 4690SOL    HW125529   0.982   1.249   1.989  1.1709 -0.1166  1.5851
 4690SOL    HW225530   1.042   1.332   1.883 -0.7351  2.3336  3.0466
 4691SOL     OW25531   0.032   4.699   6.369 -0.0732  0.2932  0.2686
 4691SOL    HW125532   0.029   0.068   6.359  0.6948  0.5745  2.7104
 4691SOL    HW225533   0.092   4.669   6.301 -0.6047  0.7290 -0.3928
 4692SOL     OW25534   1.084   2.442   1.621 -0.2966  0.2598  0.1780
 4692SOL    HW125535   1.127   2.397   1.549  1.2130 -1.5080  2.1889
 4692SOL    HW225536   1.000   2.397   1.614 -0.2067  0.0019  0.7835
 4693SOL     OW25537   1.985   0.955   2.166  0.1683 -0.0155 -0.3514
 4693SOL    HW125538   2.069   1.001   2.155  0.4007 -0.7399 -1.6737
 4693SOL    HW225539   1.931   0.990   2.095  0.1427  1.7706  0.5602
 4694SOL     OW25540   4.404   4.105   2.375  0.1928 -0.1354 -0.2508
 4694SOL    HW125541   4.429   4.184   2.328  1.2403  1.0767  2.3055
 4694SOL    HW225542   4.322   4.134   2.416 -0.8952 -0.7757 -1.9944
 4695SOL     OW25543   3.807   0.593   0.849  0.2020 -0.8625  0.5543
 4695SOL    HW125544   3.880   0.634   0.802 -2.3201  2.2546 -0.5609
 4695SOL    HW225545   3.746   0.567   0.780 -0.1571  2.3682 -0.3066
 4696SOL     OW25546   3.845   1.253   4.555  0.0776  0.6978  0.1220
 4696SOL    HW125547   3.843   1.296   4.640 -0.2856 -0.4929  0.7147
 4696SOL    HW225548   3.816   1.329   4.504 -1.6608 -0.1004 -0.0906
 4697SOL     OW25549   3.552   0.791   3.622  0.0991  0.3387 -0.1805
 4697SOL    HW125550   3.477   0.845   3.648  0.7656  1.1715 -0.0004
 4697SOL    HW225551   3.618   0.798   3.691 -0.3706 -1.2212  0.4122
 4698SOL     OW25552   1.613   1.561   6.884  0.0577 -0.6597 -0.1466
 4698SOL    HW125553   1.641   1.591   6.971  0.1265  1.4664 -0.9105
 4698SOL    HW225554   1.683   1.497   6.871  0.9924  1.1231 -3.7723
 4699SOL     OW25555   1.409   0.522   0.267  0.7866  0.5932  0.8073
 4699SOL    HW125556   1.384   0.429   0.273 -1.3705  1.2175  1.3885
 4699SOL    HW225557   1.429   0.531   0.174 -0.7161  1.1201  0.5536
 4700SOL     OW25558   3.908   2.571   4.882 -0.4765 -0.1895  0.0741
 4700SOL    HW125559   3.972   2.514   4.925  1.0896  2.4205  1.1859
 4700SOL    HW225560   3.926   2.662   4.904  1.8220  0.2181 -3.4252
 4701SOL     OW25561   2.502   3.965   4.769  0.4340 -0.0688  0.4820
 4701SOL    HW125562   2.445   3.907   4.719  0.0225  0.3896  0.4141
 4701SOL    HW225563   2.441   4.000   4.834 -0.1041  1.7798 -1.0296
 4702SOL     OW25564   0.475   2.276   5.295  0.1508 -0.3579 -0.4152
 4702SOL    HW125565   0.552   2.218   5.301  0.4232 -0.1715 -2.4052
 4702SOL    HW225566   0.471   2.276   5.200  1.0582 -2.7378 -0.4593
 4703SOL     OW25567   0.660   1.397  17.118  0.3535 -0.1665  0.5777
 4703SOL    HW125568   0.671   1.486  17.084 -3.5151  0.9572  2.2276
 4703SOL    HW225569   0.705   1.356  17.044 -1.4263  1.0229 -1.1505
 4704SOL     OW25570   2.457   2.394   2.282 -0.2321 -0.4390  0.2100
 4704SOL    HW125571   2.440   2.323   2.220 -2.6136 -0.9891  1.4767
 4704SOL    HW225572   2.368   2.400   2.318  0.3755  1.4272  1.3791
 4705SOL     OW25573   1.954   4.448  17.220 -0.0309 -0.2579 -0.3890
 4705SOL    HW125574   1.939   4.356  17.241  1.3754 -0.3114  0.3678
 4705SOL    HW225575   1.931   4.482  17.306 -0.1345 -0.5266 -0.3093
 4706SOL     OW25576   4.182   3.456  16.376  0.3355 -0.3549  0.3479
 4706SOL    HW125577   4.116   3.387  16.383 -1.1153  0.8443 -1.5918
 4706SOL    HW225578   4.165   3.472  16.283  1.6788 -0.0234  0.1632
 4707SOL     OW25579   1.772   1.181   4.778 -0.2234 -0.4714  0.2001
 4707SOL    HW125580   1.774   1.240   4.703  0.8046  0.5677  1.0568
 4707SOL    HW225581   1.681   1.177   4.807 -0.4875  0.1041 -0.5499
 4708SOL     OW25582   4.035   2.910   5.836  0.0028 -0.1227 -0.0760
 4708SOL    HW125583   3.984   2.955   5.769  2.9766 -0.8230 -2.8133
 4708SOL    HW225584   4.117   2.957   5.821  0.1185 -0.4304 -0.4103
 4709SOL     OW25585   2.166   2.513   6.781 -0.1012 -0.0614 -0.6301
 4709SOL    HW125586   2.231   2.467   6.834 -1.2741 -1.3084 -0.2649
 4709SOL    HW225587   2.184   2.475   6.695 -1.0515 -1.8321 -0.0493
 4710SOL     OW25588   0.164   1.031   9.355 -0.1420 -0.6400  0.0066
 4710SOL    HW125589   0.254   1.001   9.343  0.1728  0.3313 -0.0676
 4710SOL    HW225590   0.166   1.080   9.437 -2.2918 -0.6595  0.0875
 4711SOL     OW25591   2.664   4.275   3.897  0.1128  0.3537  0.3103
 4711SOL    HW125592   2.757   4.281   3.875 -0.4557  1.7075 -1.6750
 4711SOL    HW225593   2.664   4.274   3.993  2.0949  1.5940  0.3261
 4712SOL     OW25594   1.527   0.002   2.869 -0.6402  0.1184 -0.0871
 4712SOL    HW125595   1.489   0.070   2.925  3.7915  2.4179  0.0821
 4712SOL    HW225596   1.455   4.702   2.810 -0.6007  1.7440 -0.8283
 4713SOL     OW25597   0.670   3.378   5.383 -0.1458  0.0786  0.3457
 4713SOL    HW125598   0.611   3.314   5.344  1.4175 -2.1211  1.6100
 4713SOL    HW225599   0.757   3.337   5.379 -1.1932 -1.7035 -3.8505
 4714SOL     OW25600   1.024   2.949   3.476  0.0380 -0.1175 -0.5107
 4714SOL    HW125601   1.041   3.033   3.433  0.7147 -1.4672 -2.8934
 4714SOL    HW225602   0.981   2.916   3.398  1.5466 -1.4063 -0.7990
 4715SOL     OW25603   1.831   3.194   7.929  0.5853  0.1983 -0.0903
 4715SOL    HW125604   1.884   3.135   7.876 -0.9260  0.5780 -2.0442
 4715SOL    HW225605   1.844   3.164   8.019 -4.0670  0.3583  0.6565
 4716SOL     OW25606   2.877   2.482   8.365  0.2465 -0.3418  0.1427
 4716SOL    HW125607   2.869   2.517   8.277  1.3176 -1.3809 -0.3673
 4716SOL    HW225608   2.941   2.546   8.398  1.0791 -1.0167 -0.1654
 4717SOL     OW25609   3.716   4.475   6.063 -0.3360  0.3320 -0.5070
 4717SOL    HW125610   3.771   4.399   6.086 -0.0714  0.0689 -2.0180
 4717SOL    HW225611   3.742   4.477   5.971  2.7316 -0.1348  0.3335
 4718SOL     OW25612   2.513   3.049   5.888  0.5424  0.3730  0.3936
 4718SOL    HW125613   2.487   3.090   5.970  0.0354 -0.3429  0.5870
 4718SOL    HW225614   2.450   3.084   5.825  1.0720  0.3303 -0.1627
 4719SOL     OW25615   4.226   3.122   2.589  0.4159  0.0089 -0.2372
 4719SOL    HW125616   4.230   3.027   2.591  2.0548  0.0755 -0.1569
 4719SOL    HW225617   4.280   3.129   2.667  2.3107 -1.0934 -1.4601
 4720SOL     OW25618   3.870   0.795   7.295  0.0538  0.4062 -0.1275
 4720SOL    HW125619   3.910   0.773   7.379  1.4460 -0.1026 -0.9247
 4720SOL    HW225620   3.945   0.844   7.261  0.9159 -0.8440 -0.0222
 4721SOL     OW25621   0.157   2.005   4.831 -0.0810  0.1644  1.0047
 4721SOL    HW125622   0.168   1.914   4.805 -0.2393  0.3185  0.4053
 4721SOL    HW225623   0.109   2.031   4.753 -1.1092 -1.5340  1.0780
 4722SOL     OW25624   4.492   2.793  16.262 -0.1563 -0.1089 -0.9145
 4722SOL    HW125625   4.516   2.857  16.195  1.7434 -0.9417 -1.0199
 4722SOL    HW225626   4.430   2.842  16.316  0.9078 -0.8132  0.9424
 4723SOL     OW25627   2.677   2.637   2.095 -0.2957 -0.2321  0.4318
 4723SOL    HW125628   2.600   2.685   2.064  0.1881 -0.8287 -1.6901
 4723SOL    HW225629   2.730   2.629   2.016  0.1791  0.1144  0.7132
 4724SOL     OW25630   3.164   3.611   5.826  0.3622  0.0945 -0.8450
 4724SOL    HW125631   3.228   3.666   5.871 -1.5788  0.6869  1.1839
 4724SOL    HW225632   3.082   3.635   5.868 -1.0388 -1.6923 -2.5783
 4725SOL     OW25633   4.612   1.576   4.702  0.0280  0.1177  0.1174
 4725SOL    HW125634   4.668   1.537   4.635  0.5067  2.3095 -0.7657
 4725SOL    HW225635   4.538   1.610   4.651  0.7749 -1.2632 -1.9184
 4726SOL     OW25636   2.313   4.628  16.025 -0.3727  0.1316  0.8844
 4726SOL    HW125637   2.233   4.616  15.974  0.0523  0.9169  0.0388
 4726SOL    HW225638   2.363   4.681  15.963 -2.1272  1.3530  0.5102
 4727SOL     OW25639   0.305   1.890  16.786  0.0496 -0.8841 -0.6091
 4727SOL    HW125640   0.316   1.817  16.846 -0.1256  1.3303  2.1011
 4727SOL    HW225641   0.306   1.846  16.701  1.0760 -1.4916 -0.2760
 4728SOL     OW25642   2.286   2.943   9.005  0.3656  0.3742  0.1755
 4728SOL    HW125643   2.201   2.906   9.026  1.1078  0.4046  3.2707
 4728SOL    HW225644   2.286   3.025   9.054  1.6021  0.9128 -0.7297
 4729SOL     OW25645   3.786   0.293  13.666  0.1750  0.1949  0.5255
 4729SOL    HW125646   3.738   0.333  13.738  0.5021 -2.3795  2.1669
 4729SOL    HW225647   3.876   0.324  13.679  0.5908 -0.1222 -1.5902
 4730SOL     OW25648   4.338   2.059  16.130 -0.4682  0.1925 -0.4725
 4730SOL    HW125649   4.395   1.993  16.169 -2.6084 -2.8561 -2.4791
 4730SOL    HW225650   4.347   2.036  16.037  0.7406  0.5777 -0.4490
 4731SOL     OW25651   3.309   1.748   6.849  0.1406 -0.0575  0.5686
 4731SOL    HW125652   3.299   1.825   6.905 -1.2162 -0.4501  0.8498
 4731SOL    HW225653   3.311   1.677   6.912  1.3946  1.0299  1.7474
 4732SOL     OW25654   3.882   3.783  17.228 -0.1477 -0.2036  0.1116
 4732SOL    HW125655   3.798   3.817  17.257 -0.0297 -0.7847  1.1688
 4732SOL    HW225656   3.927   3.782  17.313 -1.6103  1.0351  0.8845
 4733SOL     OW25657   0.203   0.923   4.495  0.3582 -0.0231 -0.4077
 4733SOL    HW125658   0.264   0.975   4.549 -0.3479 -0.2641  0.6172
 4733SOL    HW225659   0.148   0.882   4.562 -1.1997  0.9966 -1.0543
 4734SOL     OW25660   2.410   2.024   6.117  0.4215  0.2736 -0.3746
 4734SOL    HW125661   2.326   1.980   6.099  0.6905  0.1986 -1.4232
 4734SOL    HW225662   2.411   2.097   6.055 -1.2760  0.9470  0.3969
 4735SOL     OW25663   0.002   1.195   8.714 -0.5357 -0.1176 -0.0079
 4735SOL    HW125664   4.667   1.232   8.778 -1.1067 -1.1104  0.0210
 4735SOL    HW225665   0.081   1.249   8.713 -1.1064  0.7329  0.9739
 4736SOL     OW25666   4.638   3.077   7.125  0.7094  0.5673 -0.3516
 4736SOL    HW125667   4.619   3.077   7.031 -2.6437 -0.9423  0.3130
 4736SOL    HW225668   0.004   3.100   7.116  0.4689  1.3552 -0.7779
 4737SOL     OW25669   0.030   3.049   6.001 -0.9338  0.1450 -0.2854
 4737SOL    HW125670   0.020   2.992   5.924  1.7367 -1.8805  0.8311
 4737SOL    HW225671   0.084   3.116   5.960 -2.6004  0.9782 -1.0681
 4738SOL     OW25672   0.812   1.151   5.930  0.2692 -0.5278  0.1194
 4738SOL    HW125673   0.888   1.110   5.889  1.1416 -0.3875  1.5890
 4738SOL    HW225674   0.741   1.116   5.877  0.0006  0.9210 -0.4800
 4739SOL     OW25675   3.509   4.189  11.484  0.3786 -0.0939 -0.2672
 4739SOL    HW125676   3.430   4.225  11.443 -0.4260 -1.3174  0.2250
 4739SOL    HW225677   3.546   4.142  11.410 -1.2558  0.4097 -1.4208
 4740SOL     OW25678   1.825   1.216   4.143  0.0394 -0.0702 -0.4233
 4740SOL    HW125679   1.854   1.307   4.151 -2.4684  0.6837  0.2601
 4740SOL    HW225680   1.793   1.201   4.232  0.7363 -1.0920 -0.3454
 4741SOL     OW25681   3.886   0.758   4.808  0.7372  0.0700 -0.1037
 4741SOL    HW125682   3.970   0.781   4.849  0.1494  1.2884  0.4060
 4741SOL    HW225683   3.871   0.803   4.726  0.2013  2.8609  1.5404
 4742SOL     OW25684   3.669   1.789   9.592 -0.5596  0.0693  0.2683
 4742SOL    HW125685   3.703   1.702   9.571 -1.0773  0.0785 -0.5832
 4742SOL    HW225686   3.601   1.801   9.526  0.6641  1.9731 -0.6430
 4743SOL     OW25687   3.353   4.442  14.489  0.2535  0.8428  0.0329
 4743SOL    HW125688   3.338   4.364  14.542 -0.5089  0.6083 -0.5256
 4743SOL    HW225689   3.297   4.432  14.412 -0.5485  2.8140  0.3736
 4744SOL     OW25690   2.090   4.417   5.219  0.0397  0.3948  0.1229
 4744SOL    HW125691   2.000   4.437   5.192  0.1854  1.4354  0.3989
 4744SOL    HW225692   2.088   4.322   5.230 -1.3253  0.4722  0.5060
 4745SOL     OW25693   1.456   2.856   1.876 -0.6101  0.0973 -0.2076
 4745SOL    HW125694   1.509   2.934   1.863  2.1664 -1.6568  0.4618
 4745SOL    HW225695   1.374   2.880   1.833  0.2304  4.4716  0.6053
 4746SOL     OW25696   0.930   1.144  13.835  0.3089 -0.0643 -0.1734
 4746SOL    HW125697   0.899   1.179  13.919  2.0497  3.4311 -1.0018
 4746SOL    HW225698   0.876   1.198  13.778 -1.3809 -0.0232  1.4596
 4747SOL     OW25699   2.913   1.554   3.743  0.2329  0.8101  0.1879
 4747SOL    HW125700   2.903   1.643   3.777 -0.1489  1.0653 -0.5954
 4747SOL    HW225701   2.834   1.508   3.771  1.7995 -1.2144  1.2161
 4748SOL     OW25702   2.250   2.892   7.975  0.2242  0.1254  0.2769
 4748SOL    HW125703   2.214   2.970   7.933  0.1776  0.7471  1.4760
 4748SOL    HW225704   2.169   2.865   8.018 -0.0107 -1.4185 -1.1141
 4749SOL     OW25705   0.569   3.924   8.837 -0.0156  0.1219 -0.5776
 4749SOL    HW125706   0.581   3.907   8.743 -3.0333  0.0290 -0.9454
 4749SOL    HW225707   0.509   3.854   8.862 -1.0696  0.4195 -2.3013
 4750SOL     OW25708   1.691   0.092   4.042  0.1246  0.1737 -0.0607
 4750SOL    HW125709   1.782   0.075   4.068 -0.5499  2.2207  3.7994
 4750SOL    HW225710   1.694   0.164   3.979 -1.2181  0.2212 -0.0689
 4751SOL     OW25711   1.579   0.255   5.559 -0.6791  0.3298 -0.4287
 4751SOL    HW125712   1.528   0.185   5.601 -1.2329  0.4623 -0.8706
 4751SOL    HW225713   1.546   0.329   5.610  1.8377  0.9738  0.2171
 4752SOL     OW25714   2.585   1.572   5.291 -0.1077 -0.1675  0.2707
 4752SOL    HW125715   2.536   1.643   5.249  2.1237  2.5220  2.2185
 4752SOL    HW225716   2.531   1.555   5.368  1.5078  0.5190  1.5349
 4753SOL     OW25717   3.854   3.367   4.158  0.5135  0.3731  0.1624
 4753SOL    HW125718   3.840   3.437   4.094  2.4114  1.1081  0.5754
 4753SOL    HW225719   3.948   3.355   4.146  0.4892  1.2375 -0.9187
 4754SOL     OW25720   2.534   1.382   3.133 -0.5966  0.0760  0.1410
 4754SOL    HW125721   2.533   1.299   3.086 -3.2393  0.1666  0.0191
 4754SOL    HW225722   2.614   1.421   3.099 -1.2198 -0.2090 -1.6486
 4755SOL     OW25723   4.535   4.287  16.317  0.6390 -0.1594  0.3566
 4755SOL    HW125724   4.577   4.240  16.389  0.4995  0.6752  0.9902
 4755SOL    HW225725   4.457   4.232  16.313 -0.0485  1.0130 -2.6170
 4756SOL     OW25726   0.310   1.645  17.555 -0.2757 -0.0236 -0.2320
 4756SOL    HW125727   0.320   1.604  17.641  1.8473 -1.0959 -0.9754
 4756SOL    HW225728   0.234   1.595  17.525 -1.0586 -0.3781  2.2930
 4757SOL     OW25729   4.275   2.996  15.988 -0.1454  0.2910 -0.0800
 4757SOL    HW125730   4.364   2.975  16.016  0.7135  1.8796 -1.6694
 4757SOL    HW225731   4.270   3.076  16.041 -1.3818 -0.4793  0.9592
 4758SOL     OW25732   0.767   1.757  14.851 -0.1835  0.2718 -0.1224
 4758SOL    HW125733   0.704   1.829  14.848 -1.1683 -0.6470 -1.0310
 4758SOL    HW225734   0.813   1.782  14.771  1.9806 -0.0812  0.9967
 4759SOL     OW25735   0.536   1.816   2.708  0.3388  0.6273  0.2013
 4759SOL    HW125736   0.571   1.816   2.797 -0.6133  1.7274  0.5802
 4759SOL    HW225737   0.602   1.758   2.670 -1.5085  0.4988 -2.7901
 4760SOL     OW25738   1.293   0.292   0.344  0.7505 -0.5442  0.0853
 4760SOL    HW125739   1.349   0.256   0.413  0.9622  1.0542  0.7441
 4760SOL    HW225740   1.207   0.261   0.373 -0.1322  0.7033 -1.2405
 4761SOL     OW25741   4.640   3.196   7.928 -0.1217  0.3523 -0.2458
 4761SOL    HW125742   4.550   3.225   7.913 -0.9343 -1.1308  1.7820
 4761SOL    HW225743   4.637   3.109   7.967 -0.5286  1.3722  1.9824
 4762SOL     OW25744   3.945   3.792  10.877 -0.8143  0.0799  0.1684
 4762SOL    HW125745   3.897   3.840  10.810 -1.4472 -0.4380  0.2556
 4762SOL    HW225746   3.958   3.869  10.933 -0.5087  0.3518 -0.2828
 4763SOL     OW25747   3.708   2.343  16.778  0.1086 -0.0826 -0.5699
 4763SOL    HW125748   3.670   2.417  16.730  0.3210  1.6061  1.8904
 4763SOL    HW225749   3.667   2.273  16.726 -0.8621 -0.7599  1.1300
 4764SOL     OW25750   0.795   2.901   5.820 -0.2241 -0.1835 -0.1664
 4764SOL    HW125751   0.753   2.833   5.874 -1.0789  0.9566  0.6060
 4764SOL    HW225752   0.758   2.982   5.855 -1.2522 -0.5551 -0.3873
 4765SOL     OW25753   0.552   3.498   9.138 -0.4576 -0.4096 -0.3976
 4765SOL    HW125754   0.524   3.587   9.116 -0.6605 -0.4180 -0.1750
 4765SOL    HW225755   0.621   3.484   9.073 -0.8512  0.5826 -1.0218
 4766SOL     OW25756   3.629   0.008  16.054 -0.7534  0.9700  0.1589
 4766SOL    HW125757   3.582   0.026  15.972  0.0700 -1.0594 -0.7620
 4766SOL    HW225758   3.711   0.057  16.048 -0.5210  0.3245 -2.2266
 4767SOL     OW25759   4.245   1.350   4.966  0.4072 -0.3713  0.3924
 4767SOL    HW125760   4.184   1.358   4.893  0.4311  0.1817  0.4273
 4767SOL    HW225761   4.229   1.436   5.005  1.3757  0.6172 -1.4086
 4768SOL     OW25762   2.387   1.289  11.881 -0.0252 -0.3136  0.1745
 4768SOL    HW125763   2.422   1.347  11.814 -1.0075 -0.0569 -0.1109
 4768SOL    HW225764   2.466   1.280  11.935 -1.3440  1.7460  2.4387
 4769SOL     OW25765   2.781   3.249   4.228 -0.3426 -0.2465 -0.4579
 4769SOL    HW125766   2.851   3.297   4.271 -0.4238  1.0215 -1.7246
 4769SOL    HW225767   2.832   3.188   4.175 -0.4759  0.2552 -1.1832
 4770SOL     OW25768   2.518   0.900  13.120 -0.4791  0.7730 -0.1190
 4770SOL    HW125769   2.529   0.815  13.078 -0.7086  0.1422  1.1217
 4770SOL    HW225770   2.476   0.956  13.054 -0.5737 -0.1716 -0.8551
 4771SOL     OW25771   4.360   3.314  11.766 -1.0307 -0.4673 -0.3886
 4771SOL    HW125772   4.298   3.244  11.748 -0.8412 -0.6670 -0.2617
 4771SOL    HW225773   4.309   3.390  11.736 -3.0266 -1.6806 -0.0473
 4772SOL     OW25774   0.184   1.953   1.471 -0.3012 -0.1681 -0.1135
 4772SOL    HW125775   0.184   2.041   1.510  0.5293  0.9269 -2.6398
 4772SOL    HW225776   0.155   1.910   1.551 -1.8274  0.8269 -0.1372
 4773SOL     OW25777   3.596   2.403  11.087 -0.3497 -0.5532 -0.1000
 4773SOL    HW125778   3.623   2.342  11.018  1.2576  3.2064 -2.7912
 4773SOL    HW225779   3.668   2.466  11.081 -1.0386  0.0199 -2.2538
 4774SOL     OW25780   3.563   1.425   7.637  0.2771 -0.1690  0.1698
 4774SOL    HW125781   3.603   1.509   7.658 -0.1137 -0.2321  1.1745
 4774SOL    HW225782   3.639   1.366   7.641 -0.1895 -0.7216  0.8554
 4775SOL     OW25783   4.126   4.071  13.166 -0.2811 -0.0101 -0.3410
 4775SOL    HW125784   4.168   4.018  13.098  0.2457  0.8860 -0.7197
 4775SOL    HW225785   4.197   4.133  13.184  1.2027 -1.2019 -2.0613
 4776SOL     OW25786   4.706   1.628   0.146 -0.2800 -0.1323  0.0498
 4776SOL    HW125787   0.018   1.586   0.069 -1.0598 -2.8164  1.1209
 4776SOL    HW225788   4.658   1.699   0.104 -0.3557  0.6140  1.3705
 4777SOL     OW25789   1.399   0.380   4.851 -0.0420  0.1354 -0.4449
 4777SOL    HW125790   1.472   0.442   4.849  1.3846 -1.5162  0.3336
 4777SOL    HW225791   1.363   0.390   4.939 -1.3645  1.5735 -1.1413
 4778SOL     OW25792   1.242   2.404   4.110 -0.2160  0.2560 -0.6448
 4778SOL    HW125793   1.230   2.321   4.064  0.4004  0.2353 -0.7737
 4778SOL    HW225794   1.214   2.467   4.044 -3.2192 -1.7165 -1.2154
 4779SOL     OW25795   0.569   1.477   3.922 -0.0730  0.1666  0.2325
 4779SOL    HW125796   0.575   1.404   3.860 -1.8058 -0.0181  0.2885
 4779SOL    HW225797   0.660   1.488   3.950  0.2597  1.2257 -1.2439
 4780SOL     OW25798   3.017   0.207   3.984  0.8197  0.1208 -0.7690
 4780SOL    HW125799   3.072   0.265   4.036 -0.4703  1.2941 -0.7287
 4780SOL    HW225800   3.082   0.168   3.925  3.3137  1.5996  0.9730
 4781SOL     OW25801   2.613   4.337   5.429  0.2175  0.5854  0.0565
 4781SOL    HW125802   2.641   4.295   5.347  0.3173  0.3051  0.2350
 4781SOL    HW225803   2.574   4.261   5.472 -0.2789  0.4021 -0.7154
 4782SOL     OW25804   2.540   3.241   7.358 -0.1583  0.4944 -0.1901
 4782SOL    HW125805   2.453   3.203   7.353  0.4482 -0.4820 -3.4148
 4782SOL    HW225806   2.592   3.176   7.405  0.5175  1.2152  0.0795
 4783SOL     OW25807   4.290   3.067   5.778  0.1542  0.0614 -0.1785
 4783SOL    HW125808   4.360   3.120   5.739  1.1899 -0.4528  1.0055
 4783SOL    HW225809   4.339   2.986   5.792 -1.7823 -0.5971  2.7462
 4784SOL     OW25810   0.323   3.439  17.649 -0.2351  0.0371 -0.0803
 4784SOL    HW125811   0.370   3.439   0.028  0.2526 -0.0563 -0.3571
 4784SOL    HW225812   0.339   3.353  17.609  0.5988  1.1526 -2.1742
 4785SOL     OW25813   3.883   3.582   3.492  0.0057 -0.5242 -0.1488
 4785SOL    HW125814   3.901   3.657   3.549  2.8333 -1.3989  0.1171
 4785SOL    HW225815   3.817   3.614   3.431  0.2322 -0.2921 -0.2737
 4786SOL     OW25816   0.868   4.697   1.990 -0.4865 -0.6707  0.1917
 4786SOL    HW125817   0.880   0.058   2.028 -1.6936 -0.4013 -0.0202
 4786SOL    HW225818   0.784   4.678   2.034 -0.7940  0.1803 -0.0320
 4787SOL     OW25819   0.642   3.330  16.818 -0.0273  0.5298 -0.8976
 4787SOL    HW125820   0.627   3.416  16.859 -0.6088 -0.3163  0.6676
 4787SOL    HW225821   0.565   3.312  16.764 -0.4159 -0.5365  0.0090
 4788SOL     OW25822   3.342   0.765  10.081  0.5204  0.2468  0.1830
 4788SOL    HW125823   3.425   0.812  10.072  0.3227  0.8623  1.6028
 4788SOL    HW225824   3.271   0.815  10.041 -0.0189 -2.0010 -1.7113
 4789SOL     OW25825   0.066   4.684   5.457 -0.2542  0.1466  0.3926
 4789SOL    HW125826   0.084   4.722   5.371  2.0314 -1.8325 -0.0040
 4789SOL    HW225827   4.697   4.680   5.467 -0.4243 -0.7169 -1.5966
 4790SOL     OW25828   0.281   1.103  17.503  0.1374 -0.7519  0.1440
 4790SOL    HW125829   0.338   1.177  17.483 -0.3022 -0.1925  0.9701
 4790SOL    HW225830   0.204   1.147  17.537 -0.3998 -0.7254 -1.1191
 4791SOL     OW25831   3.360   1.222  11.773  0.1289  0.3787  0.0877
 4791SOL    HW125832   3.333   1.273  11.697 -2.0832 -2.2076 -0.8651
 4791SOL    HW225833   3.384   1.135  11.741 -0.2334 -0.2035  1.3898
 4792SOL     OW25834   3.112   0.113   8.010 -0.0749  0.0203  0.3208
 4792SOL    HW125835   3.086   0.027   7.976  1.5929 -0.9250  1.4362
 4792SOL    HW225836   3.205   0.112   7.988 -0.2308 -1.4718 -0.3016
 4793SOL     OW25837   0.399   4.650   1.595 -0.3979 -0.2784 -0.2397
 4793SOL    HW125838   0.439   4.624   1.512  0.5259  0.2181  0.0450
 4793SOL    HW225839   0.469   4.630   1.657  0.8001  1.2552 -1.0764
 4794SOL     OW25840   4.347   1.491   6.810 -0.3734 -0.0089  0.6091
 4794SOL    HW125841   4.271   1.460   6.859 -1.2807 -3.0323 -2.7886
 4794SOL    HW225842   4.377   1.403   6.787  0.2140  0.5160 -0.6243
 4795SOL     OW25843   1.283   0.049  10.988  0.0238 -0.6136  0.8872
 4795SOL    HW125844   1.244   0.134  11.006  2.8950  0.4631  2.0764
 4795SOL    HW225845   1.329   0.025  11.068 -2.0112  0.2236  2.2998
 4796SOL     OW25846   2.723   4.011   4.920 -0.3221 -0.4651 -0.0598
 4796SOL    HW125847   2.660   3.967   4.864 -0.6103 -1.4623  1.0370
 4796SOL    HW225848   2.735   3.938   4.981  0.6404 -1.5729 -1.5737
 4797SOL     OW25849   2.898   4.590  12.640  0.1260 -0.0719  0.2328
 4797SOL    HW125850   2.946   4.539  12.575  0.6843 -0.2929  0.8171
 4797SOL    HW225851   2.971   4.606  12.699 -1.5014 -1.5655  2.6495
 4798SOL     OW25852   3.545   3.232   8.164  0.0574  0.7266  0.2293
 4798SOL    HW125853   3.537   3.320   8.202  0.4961  0.2626  1.3801
 4798SOL    HW225854   3.622   3.241   8.107 -0.4068  0.1266 -0.4985
 4799SOL     OW25855   1.968   0.468  12.480  0.4158 -0.5706 -0.1039
 4799SOL    HW125856   2.044   0.455  12.423 -1.1923  0.1687 -2.4200
 4799SOL    HW225857   1.933   0.379  12.479  1.7315 -1.0889  0.2267
 4800SOL     OW25858   2.930   2.835  12.720 -0.2979  0.0111  0.0471
 4800SOL    HW125859   2.870   2.869  12.654 -1.9956 -2.2602  0.4377
 4800SOL    HW225860   2.901   2.877  12.801 -3.1522  0.8800 -1.4303
 4801SOL     OW25861   3.342   2.498   7.498 -0.3417 -0.2556  0.0641
 4801SOL    HW125862   3.257   2.457   7.484 -0.2257 -1.2789  2.2902
 4801SOL    HW225863   3.379   2.446   7.570  0.1192  0.9560  0.7034
 4802SOL     OW25864   1.904   3.318  14.816 -0.0515  0.4237  0.5553
 4802SOL    HW125865   1.932   3.317  14.908  2.4471  2.2617 -0.1917
 4802SOL    HW225866   1.850   3.239  14.817  0.9314 -0.2360  1.2788
 4803SOL     OW25867   3.996   4.618   2.588 -1.0544 -0.3166  0.2950
 4803SOL    HW125868   3.975   4.667   2.509  1.2033  0.3386  0.0828
 4803SOL    HW225869   3.945   4.663   2.656 -0.1942  0.9843  0.0758
 4804SOL     OW25870   2.023   1.097   2.975  0.8705  0.1797 -1.0173
 4804SOL    HW125871   2.116   1.098   2.953  0.4229 -0.4340 -2.9251
 4804SOL    HW225872   2.014   1.084   3.070  1.9582  1.0457 -0.7961
 4805SOL     OW25873   0.131   3.063   8.506  0.2042  0.1610  0.0282
 4805SOL    HW125874   0.116   3.018   8.589 -0.9667 -1.2870 -0.9627
 4805SOL    HW225875   0.227   3.063   8.499  0.1206  0.3642 -1.1464
 4806SOL     OW25876   4.338   4.335   3.291 -0.0717  0.0194  0.1934
 4806SOL    HW125877   4.387   4.399   3.344 -1.6928  0.9947  0.5336
 4806SOL    HW225878   4.413   4.296   3.247 -0.4139  0.2539 -0.6016
 4807SOL     OW25879   3.264   3.970   0.954 -0.1765 -0.1423 -0.2318
 4807SOL    HW125880   3.202   4.001   0.889 -0.9953 -0.0069  0.6110
 4807SOL    HW225881   3.322   3.912   0.905 -0.8032  1.3973 -2.7660
 4808SOL     OW25882   2.880   3.826   9.502 -0.1336 -0.4130 -0.4486
 4808SOL    HW125883   2.929   3.906   9.521 -0.0006 -0.6760  0.3329
 4808SOL    HW225884   2.947   3.765   9.471 -0.2659 -1.2959  0.9728
 4809SOL     OW25885   2.152   1.629   8.221  0.2127 -0.1513  0.0291
 4809SOL    HW125886   2.066   1.668   8.235  0.6619  0.9710 -0.3299
 4809SOL    HW225887   2.117   1.540   8.209  0.5230 -0.1319 -1.0526
 4810SOL     OW25888   2.494   3.524   7.501  0.0025  0.1501 -0.3366
 4810SOL    HW125889   2.445   3.446   7.476  1.0193 -0.1346 -1.4155
 4810SOL    HW225890   2.521   3.499   7.589  2.0305  2.7731 -0.2129
 4811SOL     OW25891   3.108   2.383  14.102  0.1893 -0.8112 -0.0853
 4811SOL    HW125892   3.153   2.387  14.018  0.6049 -3.7524  0.0024
 4811SOL    HW225893   3.174   2.423  14.159 -1.3807 -0.8975  1.8059
 4812SOL     OW25894   0.774   4.255   4.381  0.3392 -0.3579  0.3315
 4812SOL    HW125895   0.745   4.340   4.415  2.0794 -0.1460  1.2858
 4812SOL    HW225896   0.690   4.210   4.373  1.2959 -1.9128 -0.9208
 4813SOL     OW25897   1.575   0.603   0.475 -0.7336  0.3080 -0.1114
 4813SOL    HW125898   1.517   0.560   0.413  0.2226  0.1948 -0.9200
 4813SOL    HW225899   1.597   0.545   0.548  1.5312  0.5459 -0.6052
 4814SOL     OW25900   0.498   2.874   2.824 -0.4515  0.1342 -0.4121
 4814SOL    HW125901   0.563   2.919   2.770 -0.5362  1.6831  0.7977
 4814SOL    HW225902   0.439   2.945   2.848 -1.8025 -1.3957  0.7254
 4815SOL     OW25903   0.236   0.548   5.740 -0.1430  0.7735 -0.8031
 4815SOL    HW125904   0.304   0.573   5.803  0.5684 -0.2217 -1.1596
 4815SOL    HW225905   0.165   0.589   5.788 -1.2573 -0.4433 -1.4301
 4816SOL     OW25906   1.070   0.677  16.000 -0.3128 -0.5941  0.2076
 4816SOL    HW125907   1.155   0.716  15.983 -0.8909  0.9639  0.8669
 4816SOL    HW225908   1.088   0.607  16.062  2.5115 -2.1040 -2.3503
 4817SOL     OW25909   1.874   3.531  12.999  0.1190  0.4244 -0.2653
 4817SOL    HW125910   1.872   3.443  13.036  1.8588 -0.3975 -2.1072
 4817SOL    HW225911   1.782   3.557  12.993 -0.4447 -0.7929  3.3101
 4818SOL     OW25912   0.746   2.572   2.398  0.1716  0.1584  0.0328
 4818SOL    HW125913   0.692   2.526   2.334  0.7481 -1.3475  0.6122
 4818SOL    HW225914   0.699   2.655   2.398 -0.7530 -0.3708  1.5741
 4819SOL     OW25915   4.548   1.801   5.017  0.0923 -0.2822 -0.3570
 4819SOL    HW125916   4.553   1.775   5.109  0.5910  1.4883  0.1079
 4819SOL    HW225917   4.550   1.711   4.985  1.2843 -0.3550 -0.0889
 4820SOL     OW25918   0.463   1.894   4.677 -0.0519  0.6218 -0.5389
 4820SOL    HW125919   0.521   1.937   4.614 -0.4214 -0.2801 -1.4922
 4820SOL    HW225920   0.467   1.953   4.753 -0.1673 -0.3202  0.1909
 4821SOL     OW25921   2.550   3.997   3.299  0.2190  0.1019 -0.5826
 4821SOL    HW125922   2.608   4.000   3.375  0.8526  0.1433 -1.0667
 4821SOL    HW225923   2.599   3.936   3.243  1.1428 -0.3397  0.7182
 4822SOL     OW25924   1.713   2.214   5.345  0.4094 -0.3175 -0.9200
 4822SOL    HW125925   1.734   2.215   5.251 -1.3066  0.3936 -1.3150
 4822SOL    HW225926   1.642   2.150   5.347 -0.7460  1.0108  0.4975
 4823SOL     OW25927   3.185   2.344   9.682  0.2591 -0.2598  0.2726
 4823SOL    HW125928   3.128   2.289   9.628  2.2589 -0.6339 -1.4721
 4823SOL    HW225929   3.119   2.364   9.749 -1.4298 -0.7299 -1.2591
 4824SOL     OW25930   0.700   4.399  11.241  0.2435 -0.4076 -0.1748
 4824SOL    HW125931   0.710   4.324  11.182  0.3302  1.0542 -2.0383
 4824SOL    HW225932   0.670   4.349  11.317 -1.1603 -1.0623 -1.1714
 4825SOL     OW25933   4.446   3.663   0.749 -0.2405 -0.1236 -0.1306
 4825SOL    HW125934   4.451   3.734   0.813  0.6236 -0.2340 -0.0683
 4825SOL    HW225935   4.526   3.669   0.696  1.5058 -2.5152  2.2040
 4826SOL     OW25936   0.222   4.244   7.572  0.0050  0.1612 -0.3417
 4826SOL    HW125937   0.184   4.156   7.578  1.8362 -0.4700  2.0831
 4826SOL    HW225938   0.253   4.248   7.481 -0.7551  1.8150 -0.5314
 4827SOL     OW25939   4.697   0.329  17.696  0.3231 -0.4570  0.0547
 4827SOL    HW125940   4.625   0.268   0.009  1.0695 -1.2029  0.4912
 4827SOL    HW225941   0.046   0.271  17.703  0.8692 -0.0807 -2.4988
 4828SOL     OW25942   0.329   2.965   9.162 -0.0971 -0.0914  0.4350
 4828SOL    HW125943   0.275   2.966   9.241  1.3143 -0.1349  1.4215
 4828SOL    HW225944   0.408   2.931   9.205  0.2972  0.1734 -0.0863
 4829SOL     OW25945   0.328   4.298  10.697 -0.5811 -0.1806 -0.1562
 4829SOL    HW125946   0.369   4.356  10.761  0.9629 -2.0391  0.5388
 4829SOL    HW225947   0.381   4.314  10.619  0.6274 -1.7888  0.3442
 4830SOL     OW25948   4.606   2.017   5.945 -0.0758  0.0021  0.2397
 4830SOL    HW125949   4.549   2.093   5.954  1.5461  1.2634 -0.0845
 4830SOL    HW225950   4.600   1.977   6.032 -0.4163  0.2603  0.3376
 4831SOL     OW25951   0.890   3.032   4.485  0.1510 -0.0229  0.1695
 4831SOL    HW125952   0.947   3.104   4.512 -0.3063  0.5497 -0.3999
 4831SOL    HW225953   0.850   3.078   4.412 -0.3934  0.7373  0.9549
 4832SOL     OW25954   3.425   0.596   2.804 -0.6034  0.1972  0.1142
 4832SOL    HW125955   3.454   0.588   2.713 -1.9635  1.5579 -0.4307
 4832SOL    HW225956   3.337   0.632   2.804 -0.4531  0.5672  0.7294
 4833SOL     OW25957   0.798   2.896   4.933  0.6864  0.1827  0.2083
 4833SOL    HW125958   0.867   2.916   4.870 -0.5795  0.6765 -1.0477
 4833SOL    HW225959   0.715   2.902   4.885  1.3646  1.4744 -0.8092
 4834SOL     OW25960   1.872   1.210   2.083  0.0073  0.0364  0.0118
 4834SOL    HW125961   1.960   1.202   2.046  0.2229  0.8893  0.3345
 4834SOL    HW225962   1.824   1.241   2.006 -0.7612  1.9951  1.2867
 4835SOL     OW25963   4.645   2.066  17.408 -0.9525  0.1204  0.2296
 4835SOL    HW125964   4.689   2.104  17.332  0.5522  0.2387  1.1449
 4835SOL    HW225965   4.720   2.055  17.468 -1.5795 -3.7605  0.2570
 4836SOL     OW25966   3.014   0.223   7.282  0.0981  0.0826 -0.0125
 4836SOL    HW125967   2.980   0.171   7.209 -1.7413 -1.7776  2.1649
 4836SOL    HW225968   2.939   0.268   7.319 -0.2335  0.5450 -1.2385
 4837SOL     OW25969   0.528   2.543   7.052  0.4941  0.3449  0.0964
 4837SOL    HW125970   0.549   2.541   6.959  1.6240  0.1581  0.3605
 4837SOL    HW225971   0.436   2.569   7.052 -0.4306 -2.9253  2.1769
 4838SOL     OW25972   2.726   3.791   2.736 -0.2044  0.4107 -0.4343
 4838SOL    HW125973   2.770   3.814   2.817  0.4011  0.7695 -0.8733
 4838SOL    HW225974   2.637   3.772   2.767  0.3244 -1.9154 -0.3217
 4839SOL     OW25975   4.012   0.998   6.498 -0.3566  0.6604  0.1648
 4839SOL    HW125976   4.036   0.952   6.417 -3.0632  0.5565 -0.5996
 4839SOL    HW225977   3.987   1.082   6.460 -1.7687  0.5302  0.7868
 4840SOL     OW25978   1.528   4.005   4.010 -0.3439  0.3815 -0.0231
 4840SOL    HW125979   1.568   4.088   3.984  1.7613 -0.9304 -0.8720
 4840SOL    HW225980   1.589   3.970   4.074  0.1549 -0.7190 -1.1033
 4841SOL     OW25981   3.509   2.465  13.218 -0.5637 -0.4706  0.1880
 4841SOL    HW125982   3.513   2.406  13.293  3.4798  1.4928  1.5271
 4841SOL    HW225983   3.600   2.493  13.228 -0.7679  0.6291 -1.0565
 4842SOL     OW25984   1.516   0.548   8.784 -0.6668  0.0616 -0.0335
 4842SOL    HW125985   1.552   0.613   8.844 -1.0796  1.3829 -1.2272
 4842SOL    HW225986   1.439   0.592   8.747 -1.3894 -1.2805 -0.1359
 4843SOL     OW25987   1.508   2.669   4.836 -0.3039 -0.1060 -0.0661
 4843SOL    HW125988   1.519   2.682   4.742  1.1089  0.1519  0.1385
 4843SOL    HW225989   1.531   2.577   4.842  2.6685  0.4711 -2.6956
 4844SOL     OW25990   0.382   1.582   4.944  0.3314 -0.1735  0.7293
 4844SOL    HW125991   0.329   1.533   5.006 -2.0365  1.7606  0.2469
 4844SOL    HW225992   0.434   1.629   5.011  0.0218  0.6315  0.4069
 4845SOL     OW25993   1.898   1.716   8.254  0.0366 -0.3113 -0.1521
 4845SOL    HW125994   1.808   1.687   8.239  1.5246 -4.7614 -0.4108
 4845SOL    HW225995   1.894   1.812   8.251 -0.7603 -0.2829  1.9886
 4846SOL     OW25996   0.273   2.655   4.786 -0.3520 -0.1950  0.3371
 4846SOL    HW125997   0.340   2.622   4.845 -0.3185 -0.6885  0.0288
 4846SOL    HW225998   0.204   2.672   4.851 -1.3547 -0.3628 -0.6757
 4847SOL     OW25999   4.667   3.980  16.677  0.3076  0.0424  0.1393
 4847SOL    HW126000   4.600   4.038  16.713  2.5051  2.5851  0.1008
 4847SOL    HW226001   0.004   3.993  16.748  0.8564  0.9062 -0.5102
 4848SOL     OW26002   3.992   4.176  11.748  0.5168  0.1910 -0.4537
 4848SOL    HW126003   3.998   4.080  11.741 -0.1643  0.2297 -1.6435
 4848SOL    HW226004   3.905   4.171  11.788  1.2217 -0.7178  0.9483
 4849SOL     OW26005   4.233   0.750  17.414  0.2120  0.0355  0.4397
 4849SOL    HW126006   4.294   0.805  17.462 -1.6956 -0.4053  3.3301
 4849SOL    HW226007   4.294   0.703  17.357  0.4783  1.5398 -0.5086
 4850SOL     OW26008   3.213   3.552   7.582  0.5987 -0.2003 -0.1828
 4850SOL    HW126009   3.294   3.601   7.565  0.3591 -0.3976 -1.9114
 4850SOL    HW226010   3.194   3.528   7.491 -1.4385  0.6211  0.0245
 4851SOL     OW26011   1.023   0.533  15.744 -0.0621 -1.2713 -0.0082
 4851SOL    HW126012   0.970   0.488  15.811 -0.1742 -1.7194 -0.4014
 4851SOL    HW226013   1.051   0.604  15.803 -0.9110  0.4066 -1.6234
 4852SOL     OW26014   2.489   2.070   2.804  0.1628 -0.6595  0.0143
 4852SOL    HW126015   2.556   2.034   2.745  0.1502 -1.7504  0.6602
 4852SOL    HW226016   2.416   2.015   2.774 -0.5811  0.8489 -0.9633
 4853SOL     OW26017   4.189   0.910   4.027 -0.4341  0.4720 -0.0376
 4853SOL    HW126018   4.135   0.918   3.948  1.1221 -1.8495 -1.3156
 4853SOL    HW226019   4.215   1.000   4.047  0.1939  0.4608 -0.8153
 4854SOL     OW26020   4.699   2.524   4.492 -0.8275 -0.4621 -0.0934
 4854SOL    HW126021   0.044   2.588   4.493 -1.2039 -0.0262 -0.8468
 4854SOL    HW226022   4.719   2.485   4.407 -0.1315 -0.4020  0.0449
 4855SOL     OW26023   2.866   4.213   6.875 -0.0083 -0.3994  0.9117
 4855SOL    HW126024   2.845   4.211   6.969 -0.0239  1.8983  0.9469
 4855SOL    HW226025   2.829   4.299   6.855  0.1716  0.3141  3.5542
 4856SOL     OW26026   2.004   3.780   5.699  0.3625 -1.2662  0.3628
 4856SOL    HW126027   1.953   3.718   5.752 -0.9079  0.5005  1.2256
 4856SOL    HW226028   2.091   3.761   5.733  0.5221 -0.3395  0.4883
 4857SOL     OW26029   0.941   2.095   4.562 -0.2738 -0.4685 -0.8151
 4857SOL    HW126030   0.895   2.179   4.554  0.7920  0.2860  1.0146
 4857SOL    HW226031   0.964   2.084   4.470 -0.9886 -0.2452 -1.0202
 4858SOL     OW26032   2.672   2.916   3.574  0.1317  0.1636  0.5423
 4858SOL    HW126033   2.746   2.917   3.634 -2.2698 -0.0736  3.5414
 4858SOL    HW226034   2.606   2.873   3.629  0.1101  0.8227  1.0291
 4859SOL     OW26035   1.064   3.102   3.093  0.1942 -0.0452  0.0298
 4859SOL    HW126036   1.129   3.151   3.044  1.3045 -1.8100 -0.2514
 4859SOL    HW226037   1.011   3.174   3.127 -1.3247 -1.5779  0.9021
 4860SOL     OW26038   1.836   0.167   3.005  0.0046 -0.3409 -0.0171
 4860SOL    HW126039   1.911   0.226   3.001  1.5733 -2.4215 -1.1842
 4860SOL    HW226040   1.855   0.117   3.085  0.5643  1.3671  0.9057
 4861SOL     OW26041   0.333   0.297   7.649 -0.2322  0.2265  0.2787
 4861SOL    HW126042   0.339   0.317   7.743  2.3942  0.6361  0.0039
 4861SOL    HW226043   0.416   0.327   7.613  0.2745 -0.3945  0.9336
 4862SOL     OW26044   2.550   3.955   9.168  0.5001 -0.4586 -0.6304
 4862SOL    HW126045   2.467   3.995   9.191  1.5615  1.2495  0.2500
 4862SOL    HW226046   2.590   4.025   9.116  0.2046 -0.2855 -0.6245
 4863SOL     OW26047   2.000   1.047  13.171 -0.3709  0.3533  0.3399
 4863SOL    HW126048   2.073   1.038  13.109  0.7035  0.2299  1.6199
 4863SOL    HW226049   1.924   1.054  13.113  0.2644 -0.4676 -0.5887
 4864SOL     OW26050   2.849   0.889  17.428 -0.2711 -0.9351 -0.2349
 4864SOL    HW126051   2.771   0.943  17.414 -0.9694 -1.9055 -0.0857
 4864SOL    HW226052   2.818   0.807  17.467 -0.4077  1.0502  3.7515
 4865SOL     OW26053   1.185   2.220   3.931 -0.4391 -0.1194 -0.4864
 4865SOL    HW126054   1.260   2.161   3.924 -0.7243 -0.5656  0.1844
 4865SOL    HW226055   1.163   2.226   3.838 -0.8010 -0.8175 -0.4454
 4866SOL     OW26056   4.621   4.225  17.334 -0.7739  0.1766 -0.0061
 4866SOL    HW126057   4.541   4.277  17.339 -0.9354 -0.1189  0.5439
 4866SOL    HW226058   4.661   4.240  17.419 -0.7755  1.2056 -0.1856
 4867SOL     OW26059   2.985   2.524   6.582  0.0402  0.3434 -0.0106
 4867SOL    HW126060   3.078   2.511   6.597 -0.1309 -0.7669  0.1078
 4867SOL    HW226061   2.965   2.460   6.513 -1.0023 -0.4537  1.0193
 4868SOL     OW26062   4.389   2.543   7.081 -0.1073 -0.2500 -0.2683
 4868SOL    HW126063   4.472   2.534   7.127  0.8155 -0.3343 -1.9521
 4868SOL    HW226064   4.404   2.607   7.012  0.0332 -0.5330 -0.4985
 4869SOL     OW26065   2.895   1.234   7.572  0.0241  0.4564 -0.5629
 4869SOL    HW126066   2.828   1.165   7.567 -0.4380  0.8977 -0.4477
 4869SOL    HW226067   2.976   1.184   7.573  0.6631  1.5529  0.8196
 4870SOL     OW26068   3.598   2.779   4.729  0.2095  0.0256  0.1979
 4870SOL    HW126069   3.618   2.696   4.771  1.7351  0.3760  0.1544
 4870SOL    HW226070   3.508   2.761   4.702 -0.3094  2.0546  0.5146
 4871SOL     OW26071   2.892   0.823   6.314 -0.1598  0.5593  0.0336
 4871SOL    HW126072   2.869   0.733   6.293 -1.7509  0.4465  2.1767
 4871SOL    HW226073   2.955   0.816   6.386  0.0053 -1.6427 -0.3407
 4872SOL     OW26074   0.152   2.092   9.000  0.7901 -0.2016 -0.0147
 4872SOL    HW126075   0.178   2.001   8.986  1.3032 -0.4153  2.3182
 4872SOL    HW226076   0.236   2.130   9.024  0.9402 -0.6607  0.1925
 4873SOL     OW26077   2.694   2.962   8.467  0.3081  1.2163  0.3729
 4873SOL    HW126078   2.708   2.903   8.393 -3.6187  0.5062  0.1873
 4873SOL    HW226079   2.675   3.044   8.420  2.9056  1.0051 -1.0277
 4874SOL     OW26080   0.116   0.760   0.896  0.4939 -0.4767  0.6077
 4874SOL    HW126081   0.192   0.811   0.867  0.0183 -0.5657 -0.7796
 4874SOL    HW226082   0.117   0.776   0.990  1.2542  0.9806  0.3505
 4875SOL     OW26083   2.468   2.440   4.102  0.1055 -0.3215  0.3059
 4875SOL    HW126084   2.378   2.414   4.119 -0.5305  2.3129  0.9258
 4875SOL    HW226085   2.471   2.522   4.152  1.2843 -1.7598  2.5919
 4876SOL     OW26086   2.098   2.053   7.173 -0.3829 -0.0773 -0.3683
 4876SOL    HW126087   2.057   2.119   7.118  0.9293  1.7364  0.8682
 4876SOL    HW226088   2.110   1.981   7.110  0.9117 -0.7697  0.6721
 4877SOL     OW26089   0.317   2.725   6.336  0.3511  0.2698  0.1588
 4877SOL    HW126090   0.296   2.652   6.277  2.1728  0.3695 -0.6163
 4877SOL    HW226091   0.291   2.798   6.281  1.8722  0.0171 -0.8988
 4878SOL     OW26092   2.043   0.044   7.753 -0.5920 -0.1415  0.7961
 4878SOL    HW126093   2.080   0.086   7.830 -2.3295  0.9995  1.0062
 4878SOL    HW226094   1.978   4.716   7.798 -4.1145  3.3664 -0.1854
 4879SOL     OW26095   1.928   4.477   6.167 -0.1525 -0.6031 -0.0347
 4879SOL    HW126096   1.886   4.555   6.131  0.4847 -0.7267 -1.0255
 4879SOL    HW226097   1.937   4.415   6.095 -2.0231  0.7891 -1.4571
 4880SOL     OW26098   2.998   1.713   0.836  0.0618  0.4542  0.2445
 4880SOL    HW126099   3.058   1.725   0.909  1.5974 -0.7468 -0.8228
 4880SOL    HW226100   2.965   1.803   0.831  0.0635  0.6235  3.6185
 4881SOL     OW26101   0.136   0.399  14.829  0.8182 -1.1712 -0.1631
 4881SOL    HW126102   0.176   0.403  14.916 -0.0630 -0.9297  0.2283
 4881SOL    HW226103   0.110   0.491  14.825  0.5373 -1.2147  0.7429
 4882SOL     OW26104   1.960   4.544  16.877  0.1371 -0.2309  0.0570
 4882SOL    HW126105   1.923   4.461  16.847 -0.0688  0.0422 -0.4395
 4882SOL    HW226106   1.925   4.604  16.812  0.3562 -0.1856 -0.0201
 4883SOL     OW26107   0.028   1.226  17.483 -0.1862  0.1651  0.4876
 4883SOL    HW126108   4.675   1.278  17.465  0.4407  0.0834 -2.5066
 4883SOL    HW226109   4.711   1.152  17.527  1.8398 -0.7682  0.8823
 4884SOL     OW26110   2.941   0.682   7.757 -0.0760 -0.0970 -0.3921
 4884SOL    HW126111   2.870   0.656   7.815 -0.9432  1.3786 -0.7947
 4884SOL    HW226112   3.020   0.636   7.786 -0.2041  0.6956  1.2355
 4885SOL     OW26113   4.410   1.125  16.529 -0.2458 -0.3775  0.3346
 4885SOL    HW126114   4.330   1.083  16.560 -0.2766 -0.2731  0.3971
 4885SOL    HW226115   4.431   1.185  16.601 -3.0287  2.3381 -1.1417
 4886SOL     OW26116   3.653   3.225   4.721  0.4387  0.2777 -0.1087
 4886SOL    HW126117   3.690   3.138   4.703 -0.1815  0.1158 -0.5994
 4886SOL    HW226118   3.569   3.199   4.757  2.4209 -1.3157  3.3308
 4887SOL     OW26119   3.231   3.205   5.091 -0.2607 -0.0211 -0.1084
 4887SOL    HW126120   3.319   3.170   5.075  0.1505 -0.1753  2.4363
 4887SOL    HW226121   3.187   3.173   5.012  0.5771 -1.9049  0.1673
 4888SOL     OW26122   0.671   2.344   4.713  0.6224  0.4078 -0.2698
 4888SOL    HW126123   0.593   2.392   4.686 -0.0709 -1.6714 -1.9949
 4888SOL    HW226124   0.719   2.401   4.773  0.4595  1.6386 -1.3135
 4889SOL     OW26125   2.110   3.011   6.134 -0.1202 -0.2986 -0.2849
 4889SOL    HW126126   2.062   3.057   6.065 -1.2131 -0.5138  0.3368
 4889SOL    HW226127   2.042   2.947   6.156 -1.5727  0.7482 -1.7322
 4890SOL     OW26128   2.813   2.888   6.007 -0.0911  0.4086  0.6688
 4890SOL    HW126129   2.883   2.897   6.072  0.4228  1.6563 -0.0495
 4890SOL    HW226130   2.814   2.975   5.966  0.3711  0.0678 -0.0368
 4891SOL     OW26131   2.980   4.127   3.717  0.6164 -0.1944 -0.0918
 4891SOL    HW126132   2.973   4.048   3.770 -1.1894 -0.1822 -0.3079
 4891SOL    HW226133   2.894   4.129   3.675  0.1946 -2.6265  0.6691
 4892SOL     OW26134   4.717   2.958   4.961  0.0633  0.1510  0.1468
 4892SOL    HW126135   4.713   2.950   4.866  2.7978 -0.8574  0.1260
 4892SOL    HW226136   0.075   2.915   4.978 -1.4205 -2.1115  1.8248
 4893SOL     OW26137   3.714   2.418   7.445  0.1810  0.9663 -0.2759
 4893SOL    HW126138   3.632   2.371   7.431 -1.1391  3.7772 -1.7366
 4893SOL    HW226139   3.765   2.343   7.476  1.5523  1.1392 -2.1576
 4894SOL     OW26140   3.029   0.522   9.020 -0.0247  0.1481  0.2627
 4894SOL    HW126141   3.011   0.464   9.093 -0.4524  1.1071  0.9143
 4894SOL    HW226142   2.961   0.516   8.952  2.1211  2.1407 -2.0610
 4895SOL     OW26143   3.673   1.005  10.528 -0.1502 -0.4432  0.1572
 4895SOL    HW126144   3.698   0.914  10.540  1.5177  0.2084  1.7457
 4895SOL    HW226145   3.672   1.036  10.619  3.0419  1.2064 -0.3535
 4896SOL     OW26146   1.631   2.294   3.330  0.0147  0.4961 -0.0535
 4896SOL    HW126147   1.559   2.322   3.386  1.6618  2.7022  0.9845
 4896SOL    HW226148   1.702   2.326   3.385 -0.6474  0.4020  0.8432
 4897SOL     OW26149   2.702   3.288  10.258  0.7391  0.5676 -0.0596
 4897SOL    HW126150   2.611   3.316  10.248  1.1131  1.0191 -2.2992
 4897SOL    HW226151   2.697   3.192  10.255 -0.3799  0.6287 -0.1313
 4898SOL     OW26152   4.214   1.280   2.563  0.1100  0.0484 -0.2828
 4898SOL    HW126153   4.283   1.329   2.610 -0.2657  1.6972 -1.4537
 4898SOL    HW226154   4.193   1.341   2.492 -0.2712  0.9532  0.5969
 4899SOL     OW26155   2.796   4.372   3.079  0.0427 -0.2697  0.2295
 4899SOL    HW126156   2.846   4.453   3.071  0.5520 -0.5384  0.6555
 4899SOL    HW226157   2.861   4.305   3.098  1.4547  0.9504 -0.3119
 4900SOL     OW26158   3.435   0.252  10.572  0.0005  0.3595  0.5462
 4900SOL    HW126159   3.485   0.176  10.540 -0.2191  0.1097  0.7975
 4900SOL    HW226160   3.359   0.215  10.617  0.2485 -2.5503 -1.4212
 4901SOL     OW26161   4.278   1.858   6.031  0.1942  0.5183  0.3144
 4901SOL    HW126162   4.232   1.912   6.096  1.3548 -0.3868  1.9006
 4901SOL    HW226163   4.233   1.888   5.952  0.2404  3.0014  1.2293
 4902SOL     OW26164   3.225   4.302   7.418 -0.4870 -0.0342  0.1187
 4902SOL    HW126165   3.190   4.247   7.488  1.6535 -1.6158 -0.0599
 4902SOL    HW226166   3.142   4.319   7.373 -0.6696  0.0993  0.5078
 4903SOL     OW26167   2.087   3.299   5.469  0.2694 -0.2974  0.5019
 4903SOL    HW126168   2.039   3.216   5.472  1.6738 -1.1133  0.6461
 4903SOL    HW226169   2.096   3.329   5.559  1.1669 -0.7418  0.5678
 4904SOL     OW26170   1.169   1.933  14.658  0.1501 -0.1841 -0.1348
 4904SOL    HW126171   1.131   2.008  14.704  1.2459 -0.4668  1.2144
 4904SOL    HW226172   1.168   1.979  14.574  1.8166 -0.6343 -0.3879
 4905SOL     OW26173   3.369   4.292  10.739  0.2658 -0.0738 -0.0511
 4905SOL    HW126174   3.358   4.198  10.757  1.0491  0.0363  1.0135
 4905SOL    HW226175   3.396   4.324  10.825  1.8581  2.4549 -1.4953
 4906SOL     OW26176   1.893   3.053   9.286  0.3832 -0.4259 -0.0812
 4906SOL    HW126177   1.932   2.974   9.322  1.5218  1.2024  2.2974
 4906SOL    HW226178   1.948   3.114   9.336 -3.5875  1.7117  1.7204
 4907SOL     OW26179   4.675   1.033   2.212 -0.3224  0.0745  0.1618
 4907SOL    HW126180   4.580   1.031   2.200 -0.0977  1.4196 -1.8125
 4907SOL    HW226181   4.693   1.063   2.301  0.0407  1.2083 -0.2911
 4908SOL     OW26182   2.162   1.691   2.289 -0.7088  0.3916 -0.2427
 4908SOL    HW126183   2.096   1.725   2.349  1.8580 -0.7680  3.2265
 4908SOL    HW226184   2.105   1.673   2.214 -2.0609 -1.7353  1.3258
 4909SOL     OW26185   3.226   1.070   5.397  0.3885  0.3732  0.4387
 4909SOL    HW126186   3.190   1.114   5.474  2.5258  0.9824  1.0779
 4909SOL    HW226187   3.219   1.136   5.327 -0.4754 -0.1151  0.0627
 4910SOL     OW26188   1.987   0.012  13.912 -0.3410 -0.0133  0.3982
 4910SOL    HW126189   1.994   4.684  13.990  0.7945  0.6085  0.7266
 4910SOL    HW226190   2.052   0.078  13.933  0.0702  0.2853 -1.8110
 4911SOL     OW26191   4.256   0.055   6.878  0.7173  0.0246 -0.3087
 4911SOL    HW126192   4.273   0.135   6.829 -0.4263  0.6671  0.3338
 4911SOL    HW226193   4.292   0.078   6.964  0.7204  1.0869 -0.5998
 4912SOL     OW26194   2.914   4.117   3.278 -0.2511  0.0601  0.0391
 4912SOL    HW126195   2.978   4.172   3.324  1.8387 -1.7134 -0.7404
 4912SOL    HW226196   2.831   4.154   3.308  0.6085  0.0031  2.4725
 4913SOL     OW26197   2.502   1.188   3.431 -0.1008  0.6698 -0.7698
 4913SOL    HW126198   2.535   1.136   3.358 -2.2301  0.3809 -1.5328
 4913SOL    HW226199   2.411   1.204   3.405  0.0197  1.1298 -0.9192
 4914SOL     OW26200   4.069   2.396   4.999 -0.0102 -0.2851 -0.5412
 4914SOL    HW126201   4.144   2.337   4.998 -0.8039 -1.3026  0.0626
 4914SOL    HW226202   3.995   2.347   4.964 -1.0720 -0.2670  1.6915
 4915SOL     OW26203   1.622   2.516  12.482 -0.0654 -0.3165 -0.4983
 4915SOL    HW126204   1.600   2.543  12.393 -0.6035  2.0815  0.3704
 4915SOL    HW226205   1.691   2.450  12.483 -0.7174 -0.9631  0.8727
 4916SOL     OW26206   2.462   1.102   6.695  0.8559 -0.4823  0.0874
 4916SOL    HW126207   2.399   1.066   6.633  0.1392 -0.8963  1.0557
 4916SOL    HW226208   2.432   1.088   6.785 -0.5867 -0.6950 -0.4257
 4917SOL     OW26209   2.305   3.604  12.919 -0.3070 -0.2440 -0.2005
 4917SOL    HW126210   2.288   3.668  12.850  0.9663 -1.8937 -2.0894
 4917SOL    HW226211   2.308   3.668  12.989  3.2578 -0.0133 -0.5341
 4918SOL     OW26212   4.112   2.279  15.437 -0.2901  0.1025  0.3145
 4918SOL    HW126213   4.069   2.248  15.517 -1.3291 -1.7004 -0.9458
 4918SOL    HW226214   4.173   2.336  15.484  0.1034 -1.6444  1.8811
 4919SOL     OW26215   0.469   2.657   2.525 -0.1752  0.2098 -0.5425
 4919SOL    HW126216   0.500   2.566   2.519 -1.3305 -0.0459 -2.6148
 4919SOL    HW226217   0.549   2.709   2.520  0.7355 -1.2446 -1.1350
 4920SOL     OW26218   3.597   2.166  11.223 -0.3804 -0.4534  0.4556
 4920SOL    HW126219   3.596   2.251  11.179 -0.6672 -1.4219 -1.4225
 4920SOL    HW226220   3.678   2.162  11.274 -0.1507 -0.0589  0.1281
 4921SOL     OW26221   0.581   1.390   0.281  0.3830  0.0142 -0.3090
 4921SOL    HW126222   0.499   1.432   0.305  1.0687  0.5495  1.1252
 4921SOL    HW226223   0.611   1.333   0.352 -0.5778  1.2011  1.0361
 4922SOL     OW26224   2.486   1.861   5.254  0.6378 -0.8711  0.0707
 4922SOL    HW126225   2.529   1.890   5.173  1.5550  0.1792  0.9271
 4922SOL    HW226226   2.545   1.886   5.326  2.2563 -0.8978 -1.2409
 4923SOL     OW26227   0.482   1.428   0.724  0.0089  0.3884  0.1448
 4923SOL    HW126228   0.531   1.428   0.642 -1.7230 -0.4484 -0.9089
 4923SOL    HW226229   0.476   1.332   0.731 -2.1654  0.5034 -0.2076
 4924SOL     OW26230   2.416   4.369   7.529  0.1230  0.7191  0.0459
 4924SOL    HW126231   2.381   4.309   7.595 -2.0456  1.8478 -0.0585
 4924SOL    HW226232   2.332   4.409   7.504  0.0889  1.1243  0.7834
 4925SOL     OW26233   2.290   1.586   0.389 -0.0216 -1.5053 -0.4079
 4925SOL    HW126234   2.365   1.617   0.440 -0.9063  0.5999 -0.3833
 4925SOL    HW226235   2.233   1.545   0.453 -0.4478  1.2117  0.9755
 4926SOL     OW26236   3.241   1.157   4.296 -0.2683 -0.0313 -0.3547
 4926SOL    HW126237   3.307   1.165   4.364 -1.1098  1.7939  0.2544
 4926SOL    HW226238   3.188   1.236   4.312 -0.3532  0.2350 -1.8888
 4927SOL     OW26239   3.848   2.531  13.701 -0.5302 -0.5458  0.5918
 4927SOL    HW126240   3.897   2.462  13.657  0.6386 -0.7795  2.2546
 4927SOL    HW226241   3.856   2.595  13.630  0.2049 -0.5328  0.6918
 4928SOL     OW26242   1.513   0.357  14.066  0.3154 -0.5802  0.0932
 4928SOL    HW126243   1.548   0.342  14.154 -1.5397 -0.5802  0.8205
 4928SOL    HW226244   1.458   0.434  14.084  0.1145 -1.2635  2.3910
 4929SOL     OW26245   3.474   2.293  14.753  0.1865 -0.1195  0.0509
 4929SOL    HW126246   3.526   2.280  14.833  1.5115  1.2877 -0.5889
 4929SOL    HW226247   3.417   2.218  14.772 -1.3583  0.4343 -2.4582
 4930SOL     OW26248   4.456   2.012   9.779  0.0005  0.4513 -1.0955
 4930SOL    HW126249   4.491   1.964   9.855 -1.9511  0.2652 -0.3198
 4930SOL    HW226250   4.445   1.936   9.722 -1.6397 -0.2580  0.1738
 4931SOL     OW26251   2.688   3.897   0.231 -0.3764 -0.2830 -0.1093
 4931SOL    HW126252   2.760   3.850   0.189  1.0922  1.2216  0.7692
 4931SOL    HW226253   2.713   3.988   0.217 -0.1088 -0.2946  0.2788
 4932SOL     OW26254   2.778   1.398   6.393 -0.1538  0.2199 -0.1082
 4932SOL    HW126255   2.687   1.427   6.406 -0.5572 -0.7691 -0.7797
 4932SOL    HW226256   2.822   1.476   6.428  0.4169 -0.4051  0.5637
 4933SOL     OW26257   4.628   3.825   8.887 -0.0367  0.4902  0.1325
 4933SOL    HW126258   4.714   3.826   8.844  0.4206  1.6808  1.0744
 4933SOL    HW226259   4.647   3.855   8.976  0.0008  0.2804  0.1956
 4934SOL     OW26260   0.723   4.407   2.028  0.1108  0.0153  0.2096
 4934SOL    HW126261   0.745   4.403   2.121 -1.8355  0.9455  0.7199
 4934SOL    HW226262   0.634   4.434   2.050 -0.0483  0.9659 -1.6360
 4935SOL     OW26263   3.623   0.037   4.409  0.7255  0.3281 -0.0378
 4935SOL    HW126264   3.592   0.126   4.424 -2.1469 -0.4920 -1.2108
 4935SOL    HW226265   3.591   0.015   4.322 -1.5239 -0.5242  0.9957
 4936SOL     OW26266   2.301   4.413   5.685 -0.4215  0.5247  0.0123
 4936SOL    HW126267   2.342   4.480   5.631  1.8591 -1.2863 -0.4978
 4936SOL    HW226268   2.215   4.414   5.643 -0.1157  0.0041 -0.6229
 4937SOL     OW26269   2.275   4.653   2.406  0.1089 -0.2023  0.1602
 4937SOL    HW126270   2.279   0.021   2.419  0.6964 -0.1015 -0.7120
 4937SOL    HW226271   2.251   4.647   2.313  3.4561  1.1373 -0.7894
 4938SOL     OW26272   3.411   1.955   4.672 -0.6353 -0.3023 -0.0864
 4938SOL    HW126273   3.493   1.907   4.657 -1.0341 -1.4441  1.4054
 4938SOL    HW226274   3.347   1.886   4.657  1.8283 -2.1601 -2.1648
 4939SOL     OW26275   2.045   0.845   9.144 -0.3903  0.4784  0.1875
 4939SOL    HW126276   2.121   0.787   9.149 -0.4140  0.4411  0.1155
 4939SOL    HW226277   1.976   0.798   9.097  0.9777 -1.6710  0.3392
 4940SOL     OW26278   1.715   4.538   8.688 -0.8250  0.6597  0.3160
 4940SOL    HW126279   1.802   4.552   8.725 -0.2394  0.0781 -0.8439
 4940SOL    HW226280   1.733   4.556   8.596 -1.4073  1.8040  0.4211
 4941SOL     OW26281   0.816   2.897  14.556 -0.4625  0.0349  0.1371
 4941SOL    HW126282   0.831   2.967  14.620 -1.4460 -0.2033  0.6318
 4941SOL    HW226283   0.721   2.909  14.545 -0.6030 -0.0498  1.2117
 4942SOL     OW26284   3.300   1.198   8.232 -0.4139 -0.4470  0.4587
 4942SOL    HW126285   3.216   1.184   8.277  0.5894  2.3433  3.1611
 4942SOL    HW226286   3.348   1.125   8.271  0.6775  0.5659  1.0059
 4943SOL     OW26287   2.503   1.266  16.625 -0.3511  0.4158 -0.1210
 4943SOL    HW126288   2.506   1.237  16.533  1.8468 -0.6210  0.2878
 4943SOL    HW226289   2.429   1.211  16.651 -1.3173  0.5439 -2.5586
 4944SOL     OW26290   4.125   1.213  16.319 -0.1785 -0.1660  0.5119
 4944SOL    HW126291   4.129   1.226  16.414  1.6694 -1.3223  0.5815
 4944SOL    HW226292   4.030   1.214  16.305 -0.3093 -1.0848  1.2698
 4945SOL     OW26293   4.472   2.002  11.946  0.5615 -0.2832  0.4300
 4945SOL    HW126294   4.506   2.076  11.997 -1.8274  2.0319 -1.3720
 4945SOL    HW226295   4.534   1.937  11.980  2.6372  2.2114  1.3877
 4946SOL     OW26296   0.506   2.524   8.583  0.2132 -0.0906 -0.5730
 4946SOL    HW126297   0.441   2.492   8.646  0.5607  0.3138 -0.0006
 4946SOL    HW226298   0.530   2.439   8.548  0.7961 -0.0642 -0.2343
 4947SOL     OW26299   2.077   3.526   8.733  0.3665 -0.2978 -0.4649
 4947SOL    HW126300   1.999   3.552   8.783  1.7146 -0.0227  1.4798
 4947SOL    HW226301   2.130   3.490   8.803  0.0222  0.1171  0.0058
 4948SOL     OW26302   2.792   2.445   6.813 -0.7106  0.2571  0.5382
 4948SOL    HW126303   2.823   2.418   6.899 -1.1946 -2.9874 -0.2983
 4948SOL    HW226304   2.865   2.457   6.752 -0.9365 -0.9696  0.0247
 4949SOL     OW26305   0.124   4.045   8.442  0.0774 -0.8601 -0.2623
 4949SOL    HW126306   0.210   4.086   8.432 -0.3198 -0.3199 -1.5163
 4949SOL    HW226307   0.117   4.059   8.536 -0.8546  0.2108 -0.4849
 4950SOL     OW26308   2.397   2.697  13.713  0.8272 -0.5187  0.0807
 4950SOL    HW126309   2.439   2.679  13.628 -0.3365 -0.7429 -0.4425
 4950SOL    HW226310   2.339   2.622  13.709 -2.1855  1.8119 -0.0310
 4951SOL     OW26311   3.247   0.535  10.565 -0.3404  0.9250  0.3559
 4951SOL    HW126312   3.326   0.485  10.542  0.9537  3.5673 -0.9436
 4951SOL    HW226313   3.170   0.497  10.523  0.0008  1.1877 -0.5039
 4952SOL     OW26314   1.900   2.853   6.146  0.3596  0.0565  0.3379
 4952SOL    HW126315   1.927   2.763   6.126  0.2574  0.1286 -0.1122
 4952SOL    HW226316   1.835   2.864   6.076  1.0407  0.9248 -0.1505
 4953SOL     OW26317   3.666   0.280  17.575  0.2527  0.5223 -0.2389
 4953SOL    HW126318   3.717   0.237  17.507 -0.7144  0.0910 -0.6822
 4953SOL    HW226319   3.593   0.307  17.520  0.8785 -0.5905 -1.6127
 4954SOL     OW26320   3.599   3.947  15.678 -0.2319  0.2664 -0.1648
 4954SOL    HW126321   3.574   3.877  15.618  0.7318 -0.6214  0.4643
 4954SOL    HW226322   3.511   3.982  15.693  0.9513  2.2895  1.8259
 4955SOL     OW26323   3.482   4.005  13.705  0.6311 -0.3023 -0.3001
 4955SOL    HW126324   3.551   4.041  13.761  0.6528  1.0584 -1.2086
 4955SOL    HW226325   3.530   4.001  13.622  0.3034  2.3067 -0.6086
 4956SOL     OW26326   2.924   2.703   4.411 -0.3813 -0.4308  0.0349
 4956SOL    HW126327   2.987   2.774   4.428 -0.5791  0.0738 -1.3664
 4956SOL    HW226328   2.880   2.738   4.334 -0.1733 -1.7037 -0.6753
 4957SOL     OW26329   4.499   3.022  13.210 -0.8101  0.1434 -0.2445
 4957SOL    HW126330   4.592   3.036  13.229 -0.8160 -1.0874  0.6770
 4957SOL    HW226331   4.476   2.966  13.284  1.0693 -0.2241  0.0645
 4958SOL     OW26332   0.822   3.577   5.542 -0.1531 -0.1521  0.0401
 4958SOL    HW126333   0.795   3.496   5.499  1.2154  0.2202 -1.5040
 4958SOL    HW226334   0.778   3.575   5.628  1.4025  1.1415  0.8633
 4959SOL     OW26335   3.075   0.611   6.925  0.4727  0.3065  0.6849
 4959SOL    HW126336   3.074   0.595   7.019 -1.0098  0.3910  0.6869
 4959SOL    HW226337   3.115   0.698   6.923  1.3786 -0.1614 -1.1867
 4960SOL     OW26338   1.459   3.976   1.970 -0.1163 -0.2286 -0.3824
 4960SOL    HW126339   1.436   4.031   1.894 -1.1239 -1.0195 -0.6549
 4960SOL    HW226340   1.499   3.898   1.932 -0.1796  0.1391 -1.2031
 4961SOL     OW26341   1.136   1.956   8.106 -0.0205 -0.3137  0.9154
 4961SOL    HW126342   1.188   1.879   8.127  3.8112  1.8365 -0.7824
 4961SOL    HW226343   1.119   1.973   8.199  1.9724  2.2980  0.8080
 4962SOL     OW26344   2.488   2.121  11.126 -0.1575  0.8630 -0.0467
 4962SOL    HW126345   2.405   2.147  11.086 -0.5458  1.4685  1.1786
 4962SOL    HW226346   2.550   2.179  11.081 -0.3183  0.2975 -0.9983
 4963SOL     OW26347   3.373   4.443  17.362 -0.7530 -0.3999  0.0861
 4963SOL    HW126348   3.383   4.506  17.434  0.7205  0.9559 -1.3164
 4963SOL    HW226349   3.327   4.373  17.410 -1.5420 -0.7295 -1.1517
 4964SOL     OW26350   3.274   0.671   6.540 -0.2278 -0.0353  0.4048
 4964SOL    HW126351   3.282   0.643   6.631  2.1685 -2.3531 -0.5193
 4964SOL    HW226352   3.180   0.652   6.535 -0.4760  1.0280  1.0816
 4965SOL     OW26353   0.068   2.377  16.812 -0.0282  0.0062 -0.2533
 4965SOL    HW126354   0.012   2.299  16.818  0.4502 -0.2261  0.9552
 4965SOL    HW226355   0.043   2.418  16.728 -1.0407  0.5099  0.2924
 4966SOL     OW26356   2.103   2.740   5.549 -0.1111  0.2247  0.7254
 4966SOL    HW126357   2.018   2.772   5.579 -1.0557 -1.2550 -0.3536
 4966SOL    HW226358   2.134   2.691   5.625 -0.5896 -1.6698 -0.2888
 4967SOL     OW26359   2.476   2.814   1.992 -0.2362  0.3247 -0.0774
 4967SOL    HW126360   2.455   2.823   1.899 -1.7271 -0.9560  0.1307
 4967SOL    HW226361   2.385   2.808   2.023  0.2483 -0.5996  1.1707
 4968SOL     OW26362   2.134   4.503   1.559 -0.2550 -0.5205 -0.3263
 4968SOL    HW126363   2.191   4.474   1.487  0.2888 -0.2635 -0.0001
 4968SOL    HW226364   2.204   4.530   1.617 -0.4346  0.0440 -0.3722
 4969SOL     OW26365   2.014   2.823   9.062  0.3649  0.3321  0.1915
 4969SOL    HW126366   2.024   2.728   9.067 -0.7384  0.2222  0.3003
 4969SOL    HW226367   2.008   2.840   9.156 -0.3742 -1.0503  0.4021
 4970SOL     OW26368   2.360   0.221   5.716 -0.6645 -0.0863 -0.3408
 4970SOL    HW126369   2.432   0.176   5.673 -1.2515 -1.3145 -0.0499
 4970SOL    HW226370   2.285   0.175   5.678 -1.4004  1.1426 -0.3651
 4971SOL     OW26371   4.114   1.180   4.327 -0.3015  0.3199 -0.6492
 4971SOL    HW126372   4.094   1.087   4.334 -2.7570  0.8984 -0.0343
 4971SOL    HW226373   4.028   1.214   4.350 -0.0672  0.1778  0.4237
 4972SOL     OW26374   1.936   4.266   2.140  0.4962  0.4677  0.0417
 4972SOL    HW126375   1.924   4.361   2.148  0.3363  0.5483 -1.1894
 4972SOL    HW226376   2.030   4.266   2.124  0.1242  0.8508 -2.1252
 4973SOL     OW26377   2.050   0.419   9.402  0.0351 -0.4336 -0.1331
 4973SOL    HW126378   2.061   0.327   9.376 -1.6481 -0.7321  0.2338
 4973SOL    HW226379   2.142   0.444   9.404 -0.3606  0.9286  1.5178
 4974SOL     OW26380   3.969   3.959  13.398 -0.1515 -0.6683 -0.3782
 4974SOL    HW126381   3.931   3.964  13.310 -1.0213 -0.8015 -0.0154
 4974SOL    HW226382   4.055   3.997  13.382  0.2762 -1.3873  0.2050
 4975SOL     OW26383   2.703   2.785  17.212  0.1316 -0.1205  0.4045
 4975SOL    HW126384   2.628   2.830  17.251 -0.4461 -1.3269  0.6777
 4975SOL    HW226385   2.689   2.802  17.119  1.0044  0.8372  0.4493
 4976SOL     OW26386   3.884   1.560  14.100  0.0903  0.2581  0.1396
 4976SOL    HW126387   3.928   1.479  14.126 -0.3074 -0.2772 -0.8549
 4976SOL    HW226388   3.958   1.620  14.086  0.4535 -0.4957 -1.2220
 4977SOL     OW26389   2.470   1.315   5.284 -0.0936 -0.5628 -0.0685
 4977SOL    HW126390   2.565   1.311   5.289  0.0995  0.5276 -3.2029
 4977SOL    HW226391   2.447   1.408   5.279  1.5569 -0.1919 -0.5379
 4978SOL     OW26392   2.122   4.311   2.803  0.6242  0.9721 -0.0471
 4978SOL    HW126393   2.104   4.217   2.793  0.4452  1.1509 -1.4565
 4978SOL    HW226394   2.069   4.345   2.731 -0.8401 -1.0711  0.0542
 4979SOL     OW26395   4.098   0.634   8.402  0.2865  0.5629 -0.5554
 4979SOL    HW126396   4.027   0.651   8.464 -2.7836 -0.7910 -3.7000
 4979SOL    HW226397   4.077   0.543   8.384 -0.0502  0.8057 -1.3979
 4980SOL     OW26398   3.857   4.243   0.275  0.1270  0.1704  0.2602
 4980SOL    HW126399   3.912   4.296   0.332 -0.3504  2.2652 -1.2107
 4980SOL    HW226400   3.784   4.215   0.330  0.5327  0.2305  0.8260
 4981SOL     OW26401   0.791   1.000  10.139 -0.2143 -0.2303 -0.3150
 4981SOL    HW126402   0.796   0.905  10.136 -1.1627 -0.2991  0.1956
 4981SOL    HW226403   0.825   1.010  10.228  0.3713 -1.0019 -0.4526
 4982SOL     OW26404   0.978   1.890   2.221  0.2444  0.9123 -0.3628
 4982SOL    HW126405   1.042   1.854   2.160  0.2883 -2.0486  1.4389
 4982SOL    HW226406   0.904   1.832   2.199  1.4097 -1.0313  0.9366
 4983SOL     OW26407   3.681   3.401   8.660 -0.1583  0.2417  0.2800
 4983SOL    HW126408   3.650   3.345   8.731  0.4348 -1.6826 -0.9819
 4983SOL    HW226409   3.648   3.349   8.586 -1.6608  0.0489  1.0872
 4984SOL     OW26410   4.026   4.527   4.142 -0.4329  0.7637 -0.0493
 4984SOL    HW126411   4.098   4.509   4.081  0.4256  0.4899  1.0404
 4984SOL    HW226412   4.051   4.486   4.225 -1.0241  2.5809  1.0328
 4985SOL     OW26413   3.564   4.315   3.021 -0.0567 -0.1234  0.6549
 4985SOL    HW126414   3.606   4.299   3.106 -1.0288 -1.5726  0.8679
 4985SOL    HW226415   3.476   4.281   3.036  0.6190 -1.5514  1.4362
 4986SOL     OW26416   1.678   3.723  12.913 -0.4632 -0.2396 -0.1046
 4986SOL    HW126417   1.749   3.782  12.938 -1.2873  0.3987  0.7351
 4986SOL    HW226418   1.650   3.686  12.997 -0.0461 -2.2067 -0.8244
 4987SOL     OW26419   0.552   3.539   6.815 -0.1991 -0.5736 -1.0998
 4987SOL    HW126420   0.566   3.627   6.780 -1.1513 -0.4723 -1.2060
 4987SOL    HW226421   0.466   3.534   6.856  0.2732  1.5930  0.1378
 4988SOL     OW26422   2.677   1.047  16.751  0.4332 -0.0822  0.1672
 4988SOL    HW126423   2.654   1.093  16.670 -0.6018 -1.1763 -0.1581
 4988SOL    HW226424   2.628   1.090  16.820 -0.5572  0.5711 -0.9420
 4989SOL     OW26425   1.319   0.543   2.280 -0.2531 -0.1377  0.2475
 4989SOL    HW126426   1.331   0.628   2.238  2.2013 -1.0598 -0.9739
 4989SOL    HW226427   1.240   0.510   2.237 -1.9293  0.0838  3.2314
 4990SOL     OW26428   1.053   3.034   9.058  0.6015 -0.3135 -1.0155
 4990SOL    HW126429   0.991   2.977   9.104  0.0994 -0.0644 -1.3802
 4990SOL    HW226430   1.078   3.084   9.136 -4.0638  0.5328 -0.0583
 4991SOL     OW26431   2.283   3.620   1.773 -0.1672 -0.4531 -0.7828
 4991SOL    HW126432   2.294   3.596   1.681  1.5592  1.2490 -1.0232
 4991SOL    HW226433   2.210   3.680   1.761 -1.3474 -1.2499  2.5122
 4992SOL     OW26434   0.541   3.046   7.978  0.2138  0.4007 -0.3960
 4992SOL    HW126435   0.455   3.064   7.939 -0.1613  3.0805  1.7149
 4992SOL    HW226436   0.599   3.083   7.911  0.9715  3.2424  1.8543
 4993SOL     OW26437   2.764   3.380  11.471  0.3649 -0.2044 -0.0977
 4993SOL    HW126438   2.738   3.337  11.553 -1.2596  1.4949  0.2696
 4993SOL    HW226439   2.836   3.434  11.503  0.5913 -0.9689  0.6820
 4994SOL     OW26440   0.374   4.285   1.440  0.6425  0.1582  0.0363
 4994SOL    HW126441   0.450   4.341   1.451  0.2896  0.2881  1.9448
 4994SOL    HW226442   0.310   4.323   1.501 -0.2939 -2.0898  0.4299
 4995SOL     OW26443   3.692   1.833  14.716  0.1938  0.0209  0.4407
 4995SOL    HW126444   3.771   1.806  14.764  0.2943  0.4031  0.4882
 4995SOL    HW226445   3.721   1.822  14.625 -0.1669  0.3593  0.2886
 4996SOL     OW26446   4.706   1.214   1.505 -0.6844  0.2020 -0.3816
 4996SOL    HW126447   0.022   1.129   1.492  0.1073  0.9900 -2.8656
 4996SOL    HW226448   4.618   1.184   1.530 -0.4514 -1.7724 -1.9413
 4997SOL     OW26449   4.560   0.624  14.594  0.6748  0.0281 -0.3301
 4997SOL    HW126450   4.584   0.574  14.516  2.0687  1.4928 -0.8437
 4997SOL    HW226451   4.473   0.589  14.612  2.3808 -2.9544  1.9192
 4998SOL     OW26452   0.576   4.229  11.464 -0.3001  0.2400 -0.4881
 4998SOL    HW126453   0.658   4.183  11.482 -0.4556 -0.4229 -1.4804
 4998SOL    HW226454   0.556   4.273  11.546 -2.8071 -0.1269 -0.9236
 4999SOL     OW26455   0.637   4.629   7.095  0.2596 -0.4895 -0.9395
 4999SOL    HW126456   0.616   4.536   7.089  0.9111 -0.7417  0.8352
 4999SOL    HW226457   0.563   4.647   7.153  1.0585  2.3888 -0.8037
 5000SOL     OW26458   1.719   1.436   8.390  0.8935 -0.1679  0.3694
 5000SOL    HW126459   1.677   1.355   8.362  2.1140 -0.6746 -0.0089
 5000SOL    HW226460   1.792   1.393   8.435 -0.6898 -2.7335  0.5063
 5001SOL     OW26461   1.922   3.864  12.979 -0.1367 -0.2045 -0.1467
 5001SOL    HW126462   1.933   3.949  12.937 -0.9696 -1.2456 -2.4497
 5001SOL    HW226463   1.901   3.884  13.071  0.3406  1.6290 -0.4324
 5002SOL     OW26464   4.634   3.467   9.217 -0.2483  0.0533  0.4447
 5002SOL    HW126465   4.596   3.424   9.293 -1.9570  1.7364  0.5391
 5002SOL    HW226466   4.553   3.480   9.167  0.2840 -2.3685 -1.0456
 5003SOL     OW26467   2.994   0.646  16.767 -0.0608  0.3054 -0.2039
 5003SOL    HW126468   2.911   0.692  16.754 -0.6597 -1.2394 -1.8203
 5003SOL    HW226469   3.062   0.711  16.747  0.2556  0.2748  0.7665
 5004SOL     OW26470   0.707   4.134   2.235 -0.1398 -0.4965  0.4110
 5004SOL    HW126471   0.715   4.103   2.325 -1.6615  0.8724  1.0352
 5004SOL    HW226472   0.612   4.133   2.222  0.3295 -1.6482 -2.9076
 5005SOL     OW26473   0.858   4.344   1.805 -0.4828  0.2198 -0.4311
 5005SOL    HW126474   0.799   4.357   1.879  0.5696 -0.4799  0.5110
 5005SOL    HW226475   0.860   4.250   1.788 -0.5057 -0.3345  2.6435
 5006SOL     OW26476   0.364   3.488   8.293  0.6543  0.3370  0.3933
 5006SOL    HW126477   0.420   3.412   8.307 -0.9989 -1.5036 -2.9813
 5006SOL    HW226478   0.274   3.458   8.308 -0.0175  2.3442  0.4061
 5007SOL     OW26479   3.476   3.733  12.957 -0.0889 -0.0621 -0.0214
 5007SOL    HW126480   3.509   3.737  13.047 -2.2139  1.5648  0.6809
 5007SOL    HW226481   3.530   3.795  12.908 -0.1103 -0.7992 -0.9702
 5008SOL     OW26482   3.492   1.157   8.841 -0.1377  0.0560 -0.3852
 5008SOL    HW126483   3.537   1.157   8.757  0.1620 -1.6522 -0.2362
 5008SOL    HW226484   3.416   1.215   8.838 -2.3530 -2.8549 -0.7075
 5009SOL     OW26485   1.865   0.843   6.846  0.2453 -0.0892 -0.4517
 5009SOL    HW126486   1.801   0.786   6.802  0.6328 -0.2576 -0.7938
 5009SOL    HW226487   1.928   0.859   6.776 -0.8293 -1.0093 -1.6377
 5010SOL     OW26488   3.529   0.990   4.113  0.3509  0.1391 -0.1097
 5010SOL    HW126489   3.473   1.060   4.079 -1.7431 -1.8920 -0.8031
 5010SOL    HW226490   3.530   0.923   4.046 -0.5236 -0.1617  0.1755
 5011SOL     OW26491   3.853   4.548   5.847 -0.1119 -0.1275 -0.1070
 5011SOL    HW126492   3.826   4.626   5.797 -0.3231  0.8912  1.6085
 5011SOL    HW226493   3.947   4.554   5.828  0.2712  0.3240  1.9088
 5012SOL     OW26494   2.980   2.547  12.764  0.6887 -0.7065  0.1574
 5012SOL    HW126495   3.000   2.626  12.715 -1.0310  0.9144  2.1122
 5012SOL    HW226496   2.913   2.585  12.820  0.4523 -2.3309  0.9734
 5013SOL     OW26497   3.274   0.554   8.039 -0.1639 -0.0606 -0.2664
 5013SOL    HW126498   3.341   0.488   8.061 -3.7020 -1.8365  5.0121
 5013SOL    HW226499   3.215   0.564   8.113 -0.5726 -1.4052 -0.3982
 5014SOL     OW26500   1.789   3.342   5.919 -0.2081 -0.2565  0.3782
 5014SOL    HW126501   1.764   3.326   5.828 -0.6732 -0.0345  0.4651
 5014SOL    HW226502   1.866   3.396   5.904 -0.9951  0.1516 -2.1277
 5015SOL     OW26503   3.068   4.316   2.909 -0.0610 -0.3002  0.5348
 5015SOL    HW126504   2.974   4.330   2.914  0.2212  0.8106  2.9374
 5015SOL    HW226505   3.087   4.356   2.824  0.4346 -0.3066  0.6394
 5016SOL     OW26506   0.683   0.766   6.089 -0.3643 -1.0310 -0.1212
 5016SOL    HW126507   0.657   0.827   6.020 -0.1889 -0.0818  0.6486
 5016SOL    HW226508   0.700   0.696   6.026 -0.0181 -0.5707 -0.5392
 5017SOL     OW26509   3.966   0.046  13.603  0.8554  0.1357 -0.1121
 5017SOL    HW126510   4.030   0.003  13.546 -0.7552 -0.8684 -1.1951
 5017SOL    HW226511   3.983   0.139  13.588  0.5247  0.6511  2.7288
 5018SOL     OW26512   1.233   2.172   5.928  0.0914  0.0338 -0.4515
 5018SOL    HW126513   1.143   2.160   5.897 -0.4520  0.1663  1.0467
 5018SOL    HW226514   1.202   2.165   6.019 -1.6103  2.9353 -0.8065
 5019SOL     OW26515   1.868   0.566   2.983  0.2368 -0.4857  0.3612
 5019SOL    HW126516   1.886   0.660   2.995  1.1377 -0.5550 -0.4742
 5019SOL    HW226517   1.798   0.560   3.048 -1.1729 -0.3154 -1.1372
 5020SOL     OW26518   0.886   0.228  17.236 -0.1795  0.1895  0.5469
 5020SOL    HW126519   0.901   0.217  17.142  1.8157  1.2192  0.7472
 5020SOL    HW226520   0.975   0.238  17.269 -0.7234  1.5626  1.5627
 5021SOL     OW26521   2.415   1.397   8.479  0.0831 -0.2915 -0.2390
 5021SOL    HW126522   2.493   1.379   8.426  1.1090 -2.5569  1.9933
 5021SOL    HW226523   2.402   1.489   8.456  0.0908  0.1517  1.5063
 5022SOL     OW26524   3.436   2.627   3.923  0.1908  0.4072  0.1296
 5022SOL    HW126525   3.404   2.714   3.900  0.1987  0.3122 -0.2455
 5022SOL    HW226526   3.373   2.565   3.886  1.6639 -0.0043 -1.6881
 5023SOL     OW26527   3.426   4.272  12.177  0.4995  0.4475 -0.1281
 5023SOL    HW126528   3.460   4.345  12.124  1.0349  0.3660  0.1135
 5023SOL    HW226529   3.385   4.306  12.256 -1.6411  0.8372 -1.3899
 5024SOL     OW26530   3.142   4.583   2.536  0.0491 -0.4232  0.6211
 5024SOL    HW126531   3.162   4.498   2.575  0.0903 -0.4363  0.5718
 5024SOL    HW226532   3.229   4.621   2.545  0.7364 -2.4591  2.6674
 5025SOL     OW26533   1.052   2.296   1.892  0.4794  0.6018 -0.3946
 5025SOL    HW126534   1.071   2.219   1.946 -1.6774 -1.3165 -2.3240
 5025SOL    HW226535   1.012   2.261   1.812  3.3935 -1.4597 -0.9617
 5026SOL     OW26536   1.514   1.781  17.034 -0.4696 -0.2963  0.0123
 5026SOL    HW126537   1.593   1.726  17.033  0.7790  1.5044 -1.6413
 5026SOL    HW226538   1.508   1.778  17.130 -0.4905 -1.5270 -0.0345
 5027SOL     OW26539   0.833   4.551   9.309  0.1429  0.0549  0.2530
 5027SOL    HW126540   0.825   4.607   9.386  0.2493 -0.2944  0.5186
 5027SOL    HW226541   0.922   4.571   9.279 -0.2901  1.3530 -0.1568
 5028SOL     OW26542   2.888   4.083   6.562  0.3076  0.3570  0.6542
 5028SOL    HW126543   2.975   4.114   6.589  1.4701 -0.5335 -2.0445
 5028SOL    HW226544   2.825   4.147   6.596  0.2821  1.1446 -0.8605
 5029SOL     OW26545   3.621   4.563   7.136 -0.0233 -0.1764 -0.1862
 5029SOL    HW126546   3.611   4.650   7.176 -2.8219 -0.6437  0.1575
 5029SOL    HW226547   3.564   4.509   7.191 -0.7124 -1.6335 -2.3229
 5030SOL     OW26548   2.033   2.856  13.529 -0.0138 -0.3116 -0.0317
 5030SOL    HW126549   1.958   2.887  13.479 -0.7511  0.9286  1.8511
 5030SOL    HW226550   2.076   2.938  13.553 -0.6787  0.7476 -2.4142
 5031SOL     OW26551   2.674   2.429   3.758 -0.1940  0.0675  0.2850
 5031SOL    HW126552   2.675   2.368   3.832  3.9894 -0.4116 -0.2221
 5031SOL    HW226553   2.624   2.379   3.694  1.4742  0.3462 -1.2257
 5032SOL     OW26554   0.700   0.239   6.508 -0.1941  0.3617 -0.3327
 5032SOL    HW126555   0.791   0.242   6.537 -0.2276  0.7066 -0.2605
 5032SOL    HW226556   0.650   0.295   6.567 -1.9013  0.4537 -1.8585
 5033SOL     OW26557   2.377   0.986  16.849  0.0695 -0.1580 -0.8188
 5033SOL    HW126558   2.386   0.900  16.807  1.9504 -0.4861  0.2387
 5033SOL    HW226559   2.417   0.967  16.934 -3.0334 -2.2487  0.1490
 5034SOL     OW26560   1.329   0.639  13.141  0.4585 -0.0505 -0.2602
 5034SOL    HW126561   1.403   0.699  13.155  1.4367 -0.3469 -4.0777
 5034SOL    HW226562   1.337   0.596  13.226  3.6305  0.5116 -0.2891
 5035SOL     OW26563   1.977   3.478  12.081 -0.1121 -0.2509 -0.0224
 5035SOL    HW126564   1.978   3.518  12.168 -0.1106  2.2009 -1.1520
 5035SOL    HW226565   1.975   3.560  12.031  0.0244 -0.3274 -0.1549
 5036SOL     OW26566   4.183   2.368   7.604  0.1612  0.2384 -0.7555
 5036SOL    HW126567   4.149   2.458   7.597  0.3950  0.3834  0.0492
 5036SOL    HW226568   4.260   2.371   7.546  0.4333  0.1772 -0.3933
 5037SOL     OW26569   0.457   2.532  15.385  0.2384  0.3866 -0.3643
 5037SOL    HW126570   0.458   2.575  15.299 -0.2840  2.1350  0.5155
 5037SOL    HW226571   0.546   2.501  15.398 -1.1696 -2.8110  1.6201
 5038SOL     OW26572   4.223   1.221   4.092 -0.4383  0.4383 -0.4513
 5038SOL    HW126573   4.195   1.312   4.088  1.1583  0.8640 -1.9742
 5038SOL    HW226574   4.201   1.206   4.184 -0.4254 -0.8633 -0.6612
 5039SOL     OW26575   4.311   3.650   5.127  0.4741  0.4331 -0.1331
 5039SOL    HW126576   4.288   3.577   5.185 -0.8620  0.4963 -0.5980
 5039SOL    HW226577   4.360   3.708   5.185 -1.0256 -0.1643  1.7580
 5040SOL     OW26578   0.246   2.772   3.007  0.1314  0.5878 -0.3327
 5040SOL    HW126579   0.244   2.861   2.972  1.9932  0.2181 -1.3873
 5040SOL    HW226580   0.255   2.727   2.923 -0.5151 -2.0500  1.0132
 5041SOL     OW26581   3.470   3.698   4.124  0.3132  0.4421 -0.0836
 5041SOL    HW126582   3.508   3.646   4.053 -0.6142 -0.2540 -0.0630
 5041SOL    HW226583   3.399   3.642   4.155  0.3898  0.2221 -0.3005
 5042SOL     OW26584   0.571   2.221   2.725  0.3010 -0.1251 -0.3900
 5042SOL    HW126585   0.484   2.181   2.720  0.6831 -0.9932  0.0675
 5042SOL    HW226586   0.616   2.144   2.759  0.2083  0.5605  1.2537
 5043SOL     OW26587   4.544   2.984  16.077  0.1077  0.2967 -0.0700
 5043SOL    HW126588   4.633   3.017  16.065  1.6788 -3.0139  2.8814
 5043SOL    HW226589   4.502   3.061  16.117  1.9441  1.0270  0.4396
 5044SOL     OW26590   0.542   0.741   0.185 -0.0630 -0.3943  0.7741
 5044SOL    HW126591   0.568   0.685   0.112 -0.2102  1.9229 -1.0683
 5044SOL    HW226592   0.476   0.789   0.135  2.1522 -0.1976 -1.9556
 5045SOL     OW26593   2.668   1.670  17.655 -0.2590  0.0440 -0.6132
 5045SOL    HW126594   2.716   1.689  17.575  0.5199 -1.5470 -0.5206
 5045SOL    HW226595   2.735   1.671   0.018 -0.2714 -1.4276 -0.5803
 5046SOL     OW26596   0.204   3.141   3.336 -0.0609  0.2350  0.5941
 5046SOL    HW126597   0.269   3.072   3.336 -0.7876 -0.4503  2.9213
 5046SOL    HW226598   0.245   3.207   3.392 -1.4197  1.8103 -0.2360
 5047SOL     OW26599   4.509   1.309   6.118 -0.3996 -0.0530  0.5403
 5047SOL    HW126600   4.447   1.275   6.182 -0.3582  2.9670  2.1768
 5047SOL    HW226601   4.513   1.401   6.142 -1.7728  0.0374  0.3613
 5048SOL     OW26602   3.657   2.607   4.464 -0.2223 -0.5330  0.0884
 5048SOL    HW126603   3.595   2.556   4.412 -0.7685 -3.3079  3.4724
 5048SOL    HW226604   3.614   2.598   4.549  0.5807 -2.7422  0.2683
 5049SOL     OW26605   1.605   2.008   7.994 -0.0557 -0.2075  0.0452
 5049SOL    HW126606   1.541   1.965   7.937 -1.1134 -0.7587  1.6415
 5049SOL    HW226607   1.678   1.946   7.984  0.6993  0.8518 -0.9101
 5050SOL     OW26608   2.737   2.174   0.808  0.2151  0.4457 -0.0665
 5050SOL    HW126609   2.651   2.203   0.838  0.8038  0.1904  1.8743
 5050SOL    HW226610   2.774   2.250   0.763  2.3788 -0.3230  0.4312
 5051SOL     OW26611   3.233   3.765   1.460 -0.1593 -0.0452 -0.2136
 5051SOL    HW126612   3.148   3.797   1.491  0.6336  0.9454  0.9293
 5051SOL    HW226613   3.230   3.819   1.380  0.3995  0.2059 -0.0630
 5052SOL     OW26614   2.634   2.637   9.938 -0.1600  0.9083 -0.9811
 5052SOL    HW126615   2.721   2.629   9.899  1.0014  0.6918  1.6090
 5052SOL    HW226616   2.656   2.624  10.030 -0.2254 -0.2453 -1.1283
 5053SOL     OW26617   3.154   3.132   9.652 -0.4945  0.0207 -0.3668
 5053SOL    HW126618   3.217   3.202   9.666  0.0811 -0.7045  0.6038
 5053SOL    HW226619   3.201   3.077   9.589 -1.8531 -0.3284 -1.0937
 5054SOL     OW26620   3.146   4.160  14.381 -0.2481 -0.7170 -0.2255
 5054SOL    HW126621   3.057   4.131  14.361 -0.9873  0.7160  0.8910
 5054SOL    HW226622   3.174   4.208  14.304  0.3060  1.4337  1.3141
 5055SOL     OW26623   2.695   3.511  11.826 -0.8232 -0.0250  0.2628
 5055SOL    HW126624   2.742   3.549  11.901 -1.0279  2.3479 -0.8195
 5055SOL    HW226625   2.738   3.427  11.810  0.6828  0.4185  1.9742
 5056SOL     OW26626   3.345   0.790   9.281 -0.4131  0.0955  0.0128
 5056SOL    HW126627   3.315   0.723   9.219  0.8205  0.2533 -0.7445
 5056SOL    HW226628   3.412   0.810   9.216 -0.7164 -1.0253 -0.6469
 5057SOL     OW26629   0.757   0.898   2.609 -0.2704  0.5605 -0.1373
 5057SOL    HW126630   0.804   0.980   2.594  1.1463  0.1285  1.9768
 5057SOL    HW226631   0.742   0.903   2.703 -0.2391  2.1826 -0.2248
 5058SOL     OW26632   0.944   0.624   8.977  0.0884  0.1231 -0.1253
 5058SOL    HW126633   1.024   0.633   8.924  2.2038  1.5848  3.3313
 5058SOL    HW226634   0.963   0.686   9.047  0.7815 -2.0119  1.5477
 5059SOL     OW26635   1.151   0.509   9.972  0.1832  0.0802  0.6021
 5059SOL    HW126636   1.132   0.574  10.039  1.4202  0.4185  0.6241
 5059SOL    HW226637   1.097   0.436  10.002  1.5149 -0.8591  0.6952
 5060SOL     OW26638   3.328   0.859   3.892 -0.2967  0.1917  0.0677
 5060SOL    HW126639   3.318   0.954   3.881 -0.8061  0.1549  0.1734
 5060SOL    HW226640   3.289   0.855   3.980 -2.4907  1.0676 -0.8602
 5061SOL     OW26641   0.912   0.320   5.646 -0.7768  0.1271 -0.3807
 5061SOL    HW126642   0.914   0.234   5.688  0.9367  0.0752 -0.5701
 5061SOL    HW226643   0.966   0.380   5.698 -1.1220  1.0666 -1.0980
 5062SOL     OW26644   1.364   1.545   4.530  0.0479 -0.4987  0.7607
 5062SOL    HW126645   1.430   1.485   4.565 -1.3060 -2.6460 -0.3792
 5062SOL    HW226646   1.284   1.501   4.557  0.9012 -3.2245 -1.1303
 5063SOL     OW26647   2.933   3.459   0.086  0.6738  0.1937  0.5084
 5063SOL    HW126648   3.021   3.475   0.053  0.9576 -2.2234  0.1018
 5063SOL    HW226649   2.942   3.369   0.116  0.3748 -0.4916 -1.4676
 5064SOL     OW26650   4.305   2.913  17.479  0.3973 -0.1039 -0.0453
 5064SOL    HW126651   4.233   2.854  17.457  0.8184 -1.2828  1.7025
 5064SOL    HW226652   4.311   2.961  17.397 -0.1624  3.2971  1.8959
 5065SOL     OW26653   1.346   3.639   7.004  0.9393 -0.5176 -0.3123
 5065SOL    HW126654   1.390   3.651   7.087  1.7526  0.6877 -0.9278
 5065SOL    HW226655   1.332   3.545   7.013  0.7871 -0.3316  1.2586
 5066SOL     OW26656   1.956   2.439   3.526  0.1888 -0.0041  0.1487
 5066SOL    HW126657   2.018   2.370   3.549  2.1392  0.8176 -2.5923
 5066SOL    HW226658   1.904   2.431   3.606 -0.6278  0.7018 -0.3090
 5067SOL     OW26659   3.865   4.048   9.067  0.4974  0.0843  0.3551
 5067SOL    HW126660   3.792   4.095   9.027 -0.1466 -0.5697  0.7745
 5067SOL    HW226661   3.885   4.107   9.140 -0.4361  0.8618 -0.0216
 5068SOL     OW26662   4.128   3.381   2.536  0.0488  0.6888  0.2130
 5068SOL    HW126663   4.161   3.292   2.547  0.3887  0.6868 -0.7795
 5068SOL    HW226664   4.121   3.361   2.442 -0.5669 -0.8538  0.5872
 5069SOL     OW26665   0.963   1.621   8.012 -0.4601 -0.2981 -0.0810
 5069SOL    HW126666   0.912   1.541   7.997 -3.0459  1.2463  0.5589
 5069SOL    HW226667   0.982   1.619   8.105  1.4004 -0.0851 -0.4617
 5070SOL     OW26668   0.766   1.652   2.631  0.1528  0.5807  0.2850
 5070SOL    HW126669   0.746   1.560   2.614 -1.4626  1.0469 -0.3183
 5070SOL    HW226670   0.813   1.662   2.548  1.3260 -1.2236  0.7239
 5071SOL     OW26671   2.746   0.459   4.342 -0.1455  0.3260  0.0063
 5071SOL    HW126672   2.669   0.484   4.393  0.4196  1.2235  0.4216
 5071SOL    HW226673   2.740   0.523   4.271  1.1652 -0.0815 -0.4799
 5072SOL     OW26674   3.461   3.360   4.207 -0.2303 -0.4153 -0.8969
 5072SOL    HW126675   3.382   3.414   4.206  0.4750  0.6195 -0.0813
 5072SOL    HW226676   3.447   3.321   4.121 -2.3589 -0.3128 -0.5929
 5073SOL     OW26677   2.146   3.145  13.671 -0.3164  0.1095 -0.4212
 5073SOL    HW126678   2.208   3.072  13.672 -1.2586 -0.6893  0.5017
 5073SOL    HW226679   2.200   3.204  13.619  0.8275 -0.1678  0.4376
 5074SOL     OW26680   0.152   2.055  16.993  0.1646  0.6599 -0.2585
 5074SOL    HW126681   0.077   1.996  16.998 -0.0831  0.8630 -1.6085
 5074SOL    HW226682   0.182   2.031  16.905 -2.8929  1.4538 -1.5278
 5075SOL     OW26683   0.782   2.748   3.854 -0.0382 -0.3052  0.8346
 5075SOL    HW126684   0.710   2.775   3.911  0.3002 -0.8202  1.5133
 5075SOL    HW226685   0.738   2.752   3.769 -0.7800  1.3052  1.2979
 5076SOL     OW26686   3.533   0.956  15.236  0.1045  0.1897  0.1180
 5076SOL    HW126687   3.510   1.037  15.281  0.5252 -0.4718  1.5222
 5076SOL    HW226688   3.588   0.913  15.302 -2.3179 -2.2602  0.5445
 5077SOL     OW26689   4.446   2.403   0.403  0.0631  0.1411  0.3677
 5077SOL    HW126690   4.395   2.395   0.322 -2.6723 -2.5999  2.3550
 5077SOL    HW226691   4.537   2.411   0.376  1.1349 -1.3360  3.5584
 5078SOL     OW26692   3.329   2.799   4.689  0.0150  0.3465 -0.3623
 5078SOL    HW126693   3.320   2.710   4.655 -1.3930  1.0957 -1.9749
 5078SOL    HW226694   3.240   2.830   4.709 -1.1796 -1.9705 -2.0220
 5079SOL     OW26695   4.106   0.725   2.240  0.1154 -0.2390 -0.9663
 5079SOL    HW126696   4.046   0.699   2.171 -0.9402 -0.0224 -0.1274
 5079SOL    HW226697   4.143   0.804   2.201  1.8419  0.4887  2.0942
 5080SOL     OW26698   2.275   2.931   8.526  0.1151 -0.5675  0.3359
 5080SOL    HW126699   2.311   3.012   8.490 -0.0474 -1.4782 -1.8750
 5080SOL    HW226700   2.202   2.964   8.577 -0.5740 -1.3685 -0.1405
 5081SOL     OW26701   3.874   1.039   6.776 -0.7052 -0.0591  0.0160
 5081SOL    HW126702   3.939   1.062   6.842  0.3033  0.1668 -1.0571
 5081SOL    HW226703   3.879   1.117   6.721 -1.5888 -0.1219 -0.1536
 5082SOL     OW26704   0.881   0.847   7.915  0.0285  0.1571 -0.4453
 5082SOL    HW126705   0.875   0.938   7.946 -1.3690 -0.8180  2.1782
 5082SOL    HW226706   0.907   0.858   7.824 -0.6431  1.6274 -0.4698
 5083SOL     OW26707   1.750   0.215   4.879 -0.0605 -0.4192 -0.3557
 5083SOL    HW126708   1.729   0.164   4.958  0.7600  0.4319  0.4076
 5083SOL    HW226709   1.811   0.155   4.837 -0.3572 -0.3755 -0.8447
 5084SOL     OW26710   1.332   0.543  14.562  0.2416 -0.0498  0.6560
 5084SOL    HW126711   1.261   0.484  14.539 -1.8018  2.3216  0.8969
 5084SOL    HW226712   1.305   0.574  14.649  0.4593  3.2246 -0.4215
 5085SOL     OW26713   0.446   4.558   2.374  0.5117 -0.0483  0.1911
 5085SOL    HW126714   0.357   4.564   2.411 -0.0506 -1.1130 -0.9781
 5085SOL    HW226715   0.500   4.521   2.444  0.3565 -0.5958  0.0203
 5086SOL     OW26716   2.818   0.851  13.886 -0.4376 -0.1652 -0.4041
 5086SOL    HW126717   2.887   0.878  13.826  2.3574 -1.9240  2.0381
 5086SOL    HW226718   2.738   0.858  13.832 -1.2832 -0.1604  0.8584
 5087SOL     OW26719   3.878   1.186   5.609 -0.0638 -0.3162  0.6911
 5087SOL    HW126720   3.808   1.220   5.666 -0.3630 -1.4929  1.0414
 5087SOL    HW226721   3.825   1.142   5.543  1.0602  1.9189 -1.6979
 5088SOL     OW26722   3.840   2.195   5.024 -0.3833  0.2583  0.4304
 5088SOL    HW126723   3.749   2.210   4.998 -0.2665  0.6538  0.2476
 5088SOL    HW226724   3.865   2.108   4.993 -1.2734  1.0099 -2.3279
 5089SOL     OW26725   0.167   4.379  13.538  0.1483  0.4090 -0.1834
 5089SOL    HW126726   0.262   4.377  13.524  0.2316 -1.6555  0.6933
 5089SOL    HW226727   0.138   4.441  13.471 -1.4862  0.3455  0.4698
 5090SOL     OW26728   0.217   4.120   6.858  0.5269  0.5749 -0.1717
 5090SOL    HW126729   0.253   4.201   6.896 -1.8428  1.6867 -0.2852
 5090SOL    HW226730   0.289   4.058   6.872  3.1522  3.8318  0.9362
 5091SOL     OW26731   4.082   2.725   7.964 -0.0748  0.2128 -0.1419
 5091SOL    HW126732   4.094   2.660   8.033 -0.9803  1.9950  1.6684
 5091SOL    HW226733   3.999   2.698   7.926 -0.6571 -1.2580  2.1865
 5092SOL     OW26734   0.854   0.081   3.576  0.7339  0.0822  0.0279
 5092SOL    HW126735   0.824   0.097   3.487  3.5813  0.8432 -0.7967
 5092SOL    HW226736   0.949   0.080   3.563  0.9247 -0.4496  1.4563
 5093SOL     OW26737   1.800   1.467   5.481 -0.2222 -0.0205 -0.0741
 5093SOL    HW126738   1.836   1.388   5.520 -0.3200 -0.0865 -0.1183
 5093SOL    HW226739   1.708   1.446   5.467 -0.9439  3.8305 -1.2442
 5094SOL     OW26740   1.855   2.475  17.103  0.4087 -0.3730  0.0302
 5094SOL    HW126741   1.784   2.526  17.143  0.4876 -0.5055  0.3329
 5094SOL    HW226742   1.820   2.474  17.014 -0.0232 -1.8474  0.2138
 5095SOL     OW26743   4.489   3.970   7.981  0.1447 -0.4007  0.3213
 5095SOL    HW126744   4.455   3.969   8.070  1.1940  2.7994  0.7740
 5095SOL    HW226745   4.577   3.933   7.990  0.3951  0.1151  0.0032
 5096SOL     OW26746   1.651   2.345   6.791  0.4191 -0.1292 -0.1027
 5096SOL    HW126747   1.575   2.293   6.818 -0.6640  0.9710 -1.0402
 5096SOL    HW226748   1.655   2.418   6.853 -0.2671  2.5067 -3.1515
 5097SOL     OW26749   3.330   2.929  15.130 -0.1713  0.3175 -0.6998
 5097SOL    HW126750   3.381   2.992  15.079 -2.8734  0.8842 -2.7535
 5097SOL    HW226751   3.300   3.001  15.186 -0.9586 -0.1300 -0.5496
 5098SOL     OW26752   2.003   0.068   4.553  0.0200  0.1512  0.1765
 5098SOL    HW126753   2.090   0.106   4.565  1.6271 -2.9844 -1.6692
 5098SOL    HW226754   1.965   0.156   4.543 -0.9366 -0.3788 -0.8057
 5099SOL     OW26755   4.157   2.926   0.700 -0.3031  0.5893  0.0331
 5099SOL    HW126756   4.237   2.979   0.705  0.7274 -0.8413 -0.8339
 5099SOL    HW226757   4.183   2.878   0.778  1.9801  1.0698 -0.4269
 5100SOL     OW26758   3.810   1.416   8.843 -0.3270  0.4571 -0.0778
 5100SOL    HW126759   3.853   1.475   8.782  2.3332 -0.3334  1.0283
 5100SOL    HW226760   3.723   1.402   8.805 -0.7869  3.8073 -0.2763
 5101SOL     OW26761   1.798   3.694   8.431 -0.1825 -0.0915  0.1621
 5101SOL    HW126762   1.780   3.664   8.521  2.5376 -3.0996 -0.2955
 5101SOL    HW226763   1.888   3.662   8.420 -0.3714 -0.8614  0.8120
 5102SOL     OW26764   0.377   0.598   8.467  0.3679 -0.3211 -0.2301
 5102SOL    HW126765   0.416   0.661   8.406  1.2175 -1.2283 -0.6147
 5102SOL    HW226766   0.414   0.619   8.552  4.8435  0.3353 -2.3170
 5103SOL     OW26767   2.544   2.582   6.094 -0.0652 -0.1291  0.1688
 5103SOL    HW126768   2.536   2.675   6.115 -0.2822 -0.4593  1.5377
 5103SOL    HW226769   2.478   2.567   6.026 -2.2247 -1.4407  2.5373
 5104SOL     OW26770   3.717   2.675   9.889 -0.2669 -0.0523 -0.6017
 5104SOL    HW126771   3.779   2.603   9.878  0.5430  0.6152 -0.4390
 5104SOL    HW226772   3.739   2.712   9.975 -0.0899  1.5348 -1.3312
 5105SOL     OW26773   4.552   3.423  13.390  0.4949  0.4948 -0.3883
 5105SOL    HW126774   4.495   3.365  13.339  0.6420 -1.3474  1.5344
 5105SOL    HW226775   4.574   3.490  13.326  0.2983  1.5275  0.6324
 5106SOL     OW26776   3.560   4.095  13.210  0.1427  0.3696 -0.1152
 5106SOL    HW126777   3.600   4.128  13.129  1.9089  1.0570  1.0221
 5106SOL    HW226778   3.505   4.169  13.234 -0.0547  0.7756 -1.7849
 5107SOL     OW26779   0.249   1.087   3.122 -0.0800 -0.7049  0.1939
 5107SOL    HW126780   0.272   1.139   3.199  3.0612 -0.1616 -1.1058
 5107SOL    HW226781   0.227   1.001   3.156 -1.8454 -0.6403 -0.7308
 5108SOL     OW26782   2.866   2.696   3.079  0.3116  0.2958  0.0672
 5108SOL    HW126783   2.809   2.694   3.002  0.5848  1.1934 -0.1597
 5108SOL    HW226784   2.949   2.722   3.039 -0.1928 -1.1646 -1.9163
 5109SOL     OW26785   1.298   0.728  11.942  0.0225 -0.1575 -0.5522
 5109SOL    HW126786   1.242   0.759  11.870  2.8749  3.0311 -1.4123
 5109SOL    HW226787   1.249   0.647  11.956  1.0442 -0.9365 -1.4046
 5110SOL     OW26788   2.202   2.064  16.449 -0.5307 -0.5750 -0.2091
 5110SOL    HW126789   2.286   2.065  16.496 -0.6171  0.1570 -0.0682
 5110SOL    HW226790   2.192   2.159  16.438  0.2875 -0.5466 -0.7567
 5111SOL     OW26791   0.219   1.663   5.433 -0.0595 -0.2620  0.2341
 5111SOL    HW126792   0.232   1.576   5.471 -0.0788 -0.4822 -0.2634
 5111SOL    HW226793   0.235   1.719   5.509 -0.1804  0.8420 -0.5571
 5112SOL     OW26794   4.098   2.309   6.620 -0.2572 -0.3525  0.2995
 5112SOL    HW126795   4.136   2.366   6.553  1.1725  0.5912  1.9447
 5112SOL    HW226796   4.122   2.367   6.692 -0.8708  0.0094  0.2132
 5113SOL     OW26797   0.780   3.460  14.370  0.3145 -0.2080  0.0911
 5113SOL    HW126798   0.859   3.471  14.316 -0.2210 -0.6513 -0.7976
 5113SOL    HW226799   0.731   3.539  14.347 -0.5581 -0.4692  1.0699
 5114SOL     OW26800   0.638   0.014   3.711 -0.4162 -0.7576 -0.5623
 5114SOL    HW126801   0.663   4.677   3.779  1.7498  1.8655  1.0473
 5114SOL    HW226802   0.722   0.038   3.674 -0.1550  0.0072  0.5336
 5115SOL     OW26803   3.882   0.679   4.486  0.1815 -0.0068  0.2524
 5115SOL    HW126804   3.812   0.631   4.529  0.1835 -1.9009 -1.8930
 5115SOL    HW226805   3.862   0.675   4.392  0.8219 -1.8115  0.1941
 5116SOL     OW26806   0.708   3.883   9.206 -0.0890 -0.3734 -0.4680
 5116SOL    HW126807   0.692   3.891   9.301 -1.2943 -1.9784 -0.5335
 5116SOL    HW226808   0.641   3.942   9.171 -0.6179 -1.3960 -1.1707
 5117SOL     OW26809   4.148   0.454   0.237 -0.5411 -0.3931  0.1830
 5117SOL    HW126810   4.242   0.462   0.253 -0.5083 -2.2455  0.9842
 5117SOL    HW226811   4.152   0.383   0.173  0.2293  1.3641 -1.7033
 5118SOL     OW26812   2.255   0.454   4.386  0.0093  0.2510 -0.4506
 5118SOL    HW126813   2.269   0.456   4.291  2.2016 -3.6183 -0.2442
 5118SOL    HW226814   2.184   0.517   4.385  0.8769  1.2196 -1.3364
 5119SOL     OW26815   2.616   3.002   9.755 -0.2758  0.1252  0.5177
 5119SOL    HW126816   2.568   2.920   9.764  0.8795 -0.5238  0.8158
 5119SOL    HW226817   2.703   2.979   9.722 -0.7507  0.2358 -0.8083
 5120SOL     OW26818   2.102   1.231   8.052 -0.0709 -0.3867  0.2306
 5120SOL    HW126819   2.153   1.250   8.131 -0.3859  0.6368  0.1938
 5120SOL    HW226820   2.026   1.288   8.064  1.5053  2.1306 -1.8166
 5121SOL     OW26821   2.107   1.741  17.475  0.1985 -0.6568  0.2648
 5121SOL    HW126822   2.195   1.777  17.468 -0.7977  1.9370  0.8320
 5121SOL    HW226823   2.070   1.803  17.538  1.4617 -2.5440  2.8478
 5122SOL     OW26824   3.532   3.667   6.549  0.1832  0.2647 -0.2932
 5122SOL    HW126825   3.551   3.755   6.581 -0.1264  0.5105 -0.7839
 5122SOL    HW226826   3.524   3.628   6.636  1.7062 -2.0891 -1.2050
 5123SOL     OW26827   0.398   2.180  17.131  0.8945  0.3253 -0.3846
 5123SOL    HW126828   0.355   2.110  17.080  1.1614  0.2604 -0.5181
 5123SOL    HW226829   0.394   2.245  17.061  3.1367 -0.8432 -1.6125
 5124SOL     OW26830   1.303   0.815   8.746 -0.5723 -0.4332 -0.9081
 5124SOL    HW126831   1.219   0.798   8.703 -0.1775  0.1790 -1.9080
 5124SOL    HW226832   1.283   0.760   8.822  0.4015  0.4904  0.0113
 5125SOL     OW26833   1.448   3.298   4.113 -0.2751 -0.1625 -0.0060
 5125SOL    HW126834   1.526   3.257   4.149 -1.6680 -0.1340  3.0743
 5125SOL    HW226835   1.461   3.285   4.019 -0.8210 -0.8113  0.0072
 5126SOL     OW26836   4.178   1.694   9.871  0.5005 -0.0069  0.7007
 5126SOL    HW126837   4.128   1.700   9.952 -1.0691 -4.4771  0.0818
 5126SOL    HW226838   4.109   1.741   9.824  0.7442  0.3125  0.6625
 5127SOL     OW26839   3.709   0.063   2.515 -0.2715 -0.6059  0.4931
 5127SOL    HW126840   3.752   0.139   2.475  1.6275 -0.8937  2.0028
 5127SOL    HW226841   3.756   0.064   2.598  1.8813  1.8755 -0.7402
 5128SOL     OW26842   3.499   2.722  13.150  0.2368  0.5284 -0.3973
 5128SOL    HW126843   3.543   2.684  13.074  1.4436  0.5790  0.2802
 5128SOL    HW226844   3.475   2.642  13.195 -0.0600  1.3244  0.8517
 5129SOL     OW26845   0.165   4.068  16.019  0.3703 -0.0386 -0.3053
 5129SOL    HW126846   0.182   4.142  16.078  2.8254 -0.9609  0.1510
 5129SOL    HW226847   0.079   4.043  16.052  0.4011  0.5868  0.2516
 5130SOL     OW26848   0.809   3.521   2.005  0.1167 -0.3371 -0.5904
 5130SOL    HW126849   0.715   3.502   1.996 -0.1575  0.7861 -0.0732
 5130SOL    HW226850   0.804   3.610   1.970  1.0988  0.7955  2.1961
 5131SOL     OW26851   2.511   1.606   9.212 -0.3714 -0.0945  0.0360
 5131SOL    HW126852   2.503   1.628   9.120  1.2258 -1.1769 -0.3705
 5131SOL    HW226853   2.423   1.616   9.248  0.2004  1.1232  1.0998
 5132SOL     OW26854   0.865   4.360   6.897  0.6593  0.4054  0.2638
 5132SOL    HW126855   0.880   4.329   6.808 -1.7175  1.3162 -0.4663
 5132SOL    HW226856   0.855   4.452   6.870 -0.2974 -0.5379 -2.5561
 5133SOL     OW26857   2.150   3.196  14.627  0.2201  0.5191  1.2973
 5133SOL    HW126858   2.210   3.168  14.558 -1.4317  0.7225 -0.2266
 5133SOL    HW226859   2.159   3.129  14.694  0.2008 -1.0044 -0.2218
 5134SOL     OW26860   4.214   0.795   3.575 -0.3298 -0.1849  0.1373
 5134SOL    HW126861   4.281   0.776   3.508  1.1748  1.8176  1.0764
 5134SOL    HW226862   4.241   0.721   3.629  1.3559  0.4574  0.1826
 5135SOL     OW26863   4.161   0.923  14.116 -0.4633  0.5392  0.7428
 5135SOL    HW126864   4.248   0.885  14.122 -0.3611  0.2965 -2.2625
 5135SOL    HW226865   4.112   0.845  14.091 -0.0085  0.0067  1.5237
 5136SOL     OW26866   1.582   3.051  17.327 -0.2981  0.6049 -1.0772
 5136SOL    HW126867   1.658   3.071  17.273 -1.0513  0.5912 -2.1444
 5136SOL    HW226868   1.531   3.000  17.263 -2.1100  1.0928 -0.0462
 5137SOL     OW26869   1.327   1.931   5.989 -0.5238  0.2647  0.0639
 5137SOL    HW126870   1.300   2.021   5.969 -0.3194  0.5958  1.3084
 5137SOL    HW226871   1.420   1.940   6.006 -0.4390 -2.8757  1.2762
 5138SOL     OW26872   3.978   3.383   6.949 -0.0083 -0.5766 -0.1814
 5138SOL    HW126873   3.937   3.331   6.880 -0.1461 -0.7104  0.0015
 5138SOL    HW226874   4.013   3.460   6.904 -2.1142 -0.9738 -2.5014
 5139SOL     OW26875   4.189   4.209   2.467  0.0657  0.4282  0.4613
 5139SOL    HW126876   4.202   4.303   2.478  1.3524  0.3297 -0.1898
 5139SOL    HW226877   4.094   4.211   2.473  0.1026  0.1302  1.0866
 5140SOL     OW26878   2.878   1.608   4.130  0.3524  0.3691 -0.2578
 5140SOL    HW126879   2.924   1.666   4.069  1.1221 -1.4239 -1.3645
 5140SOL    HW226880   2.845   1.544   4.068 -0.8520  1.3177 -0.6034
 5141SOL     OW26881   4.022   2.635  15.505 -0.2062  0.0215  0.1114
 5141SOL    HW126882   3.930   2.608  15.509 -0.8508  1.8957 -1.8010
 5141SOL    HW226883   4.066   2.564  15.459  2.5412  2.6034 -1.2288
 5142SOL     OW26884   4.281   0.350   6.816  0.4699  0.1171  0.0033
 5142SOL    HW126885   4.351   0.405   6.852  0.3688  0.5259 -0.4222
 5142SOL    HW226886   4.204   0.379   6.865  1.0242  2.6082 -0.6288
 5143SOL     OW26887   1.981   0.677   8.898  0.0354 -0.1529 -0.5390
 5143SOL    HW126888   2.038   0.600   8.899 -0.7942 -0.7221  3.2389
 5143SOL    HW226889   1.895   0.640   8.882 -0.1141 -0.3410  0.6841
 5144SOL     OW26890   4.518   2.086   2.796  0.6512 -0.2945 -0.5446
 5144SOL    HW126891   4.542   2.106   2.887 -1.0558 -1.0902  0.0641
 5144SOL    HW226892   4.556   2.164   2.755  1.4125 -0.5521 -0.3331
 5145SOL     OW26893   0.308   3.122   6.870 -0.4147  0.4519  0.1507
 5145SOL    HW126894   0.271   3.155   6.788  1.1278  1.8639  0.0106
 5145SOL    HW226895   0.397   3.157   6.881 -0.1081  0.6086 -2.8764
 5146SOL     OW26896   2.709   0.016  16.169 -0.2275  0.0551  0.4331
 5146SOL    HW126897   2.741   4.654  16.193 -0.6368 -0.1423  0.2526
 5146SOL    HW226898   2.792   0.061  16.185  0.2258 -0.5583 -0.1865
 5147SOL     OW26899   4.149   2.036   5.863 -0.4748  0.3201 -1.0185
 5147SOL    HW126900   4.174   1.989   5.783  0.4673 -0.1086 -0.4752
 5147SOL    HW226901   4.060   2.062   5.838 -0.9234  1.5923  1.9560
 5148SOL     OW26902   4.074   0.409  15.340 -0.1267 -0.1241 -0.2858
 5148SOL    HW126903   4.143   0.342  15.343  1.8640  1.9077 -1.2038
 5148SOL    HW226904   4.096   0.442  15.253  1.6386  0.5238  0.4078
 5149SOL     OW26905   3.700   1.199  13.903 -0.3350 -0.4504  0.6533
 5149SOL    HW126906   3.664   1.250  13.976 -3.0911  0.0531 -1.0641
 5149SOL    HW226907   3.672   1.108  13.918  0.9142 -0.9673 -0.1469
 5150SOL     OW26908   4.673   0.484   6.756 -0.2738 -0.0430 -0.2923
 5150SOL    HW126909   4.697   0.555   6.815 -1.0748  0.0367 -0.0585
 5150SOL    HW226910   4.586   0.469   6.792  0.1012  3.2804  1.9627
 5151SOL     OW26911   2.699   3.675   7.398 -0.3149 -0.0514 -0.3138
 5151SOL    HW126912   2.737   3.637   7.477 -1.0884  1.9139  1.0221
 5151SOL    HW226913   2.607   3.648   7.398 -0.5202  0.6075  0.7002
 5152SOL     OW26914   4.177   4.535   8.398 -0.1861 -0.1998  0.7611
 5152SOL    HW126915   4.137   4.502   8.479  1.1822 -2.0225  0.6833
 5152SOL    HW226916   4.180   4.458   8.342 -0.2012 -1.7477  2.8850
 5153SOL     OW26917   4.500   1.771  13.706  0.0751  0.2615 -0.7580
 5153SOL    HW126918   4.444   1.722  13.766 -0.4471  0.4812 -1.0752
 5153SOL    HW226919   4.518   1.694  13.651 -1.2215  0.1317 -1.0032
 5154SOL     OW26920   4.169   1.564   7.996  0.3306  0.2849 -0.2153
 5154SOL    HW126921   4.117   1.490   7.967 -1.2812  1.0183  0.8293
 5154SOL    HW226922   4.244   1.512   8.024  1.8153  1.7711 -1.4364
 5155SOL     OW26923   0.263   2.976   9.425  0.2456  0.2662  0.1044
 5155SOL    HW126924   0.197   2.952   9.490 -1.7874  0.8083 -1.7467
 5155SOL    HW226925   0.347   2.967   9.469  1.1355 -1.1342 -1.8631
 5156SOL     OW26926   0.610   3.525  15.964 -0.0284 -0.3200  0.3062
 5156SOL    HW126927   0.609   3.455  15.898  1.0609  1.3815 -1.5067
 5156SOL    HW226928   0.647   3.599  15.915 -1.3234 -0.2892 -0.6324
 5157SOL     OW26929   0.329   2.295   8.176  0.4744 -0.7667  0.1947
 5157SOL    HW126930   0.287   2.326   8.095 -0.1537 -0.4095  0.6571
 5157SOL    HW226931   0.388   2.228   8.143 -1.5686 -1.1301 -2.8163
 5158SOL     OW26932   0.118   3.274   8.822  0.1786  0.0069 -0.2892
 5158SOL    HW126933   0.129   3.182   8.799  1.3051 -0.0663  0.5859
 5158SOL    HW226934   0.026   3.263   8.844  0.3356  1.3133  1.0570
 5159SOL     OW26935   4.287   2.219   7.281 -0.1198 -0.3075 -0.4135
 5159SOL    HW126936   4.353   2.166   7.236  0.9224  1.6247 -1.1280
 5159SOL    HW226937   4.333   2.247   7.361 -0.1729  0.5853 -0.6953
 5160SOL     OW26938   3.327   3.904   5.080  1.4624 -0.5154  0.0495
 5160SOL    HW126939   3.302   3.944   5.163  2.3689 -0.3990  0.2743
 5160SOL    HW226940   3.414   3.942   5.067  0.7096  0.9693 -0.6678
 5161SOL     OW26941   0.268   3.657   2.039 -0.0803 -0.1212  0.0420
 5161SOL    HW126942   0.253   3.605   1.960  1.0389 -0.0946 -0.1819
 5161SOL    HW226943   0.186   3.705   2.050  1.4962  2.5412  0.1937
 5162SOL     OW26944   0.948   0.343   3.198  0.7740 -0.6543  0.4626
 5162SOL    HW126945   0.986   0.384   3.120 -0.7037  0.4396  0.3113
 5162SOL    HW226946   0.856   0.363   3.185  1.1974  1.1520  0.1565
 5163SOL     OW26947   4.464   1.089   4.780 -0.2986  0.1936 -0.0541
 5163SOL    HW126948   4.397   1.142   4.737  0.1019  2.4907  2.1302
 5163SOL    HW226949   4.508   1.048   4.706 -0.2868 -0.5710  0.3756
 5164SOL     OW26950   3.963   2.765   5.572  0.0463  0.1191 -0.1509
 5164SOL    HW126951   3.952   2.713   5.652 -0.5920  0.2808 -0.1379
 5164SOL    HW226952   4.040   2.716   5.543  1.9995  1.1719  3.2396
 5165SOL     OW26953   4.482   2.563   5.577  0.3536  0.5203 -0.1683
 5165SOL    HW126954   4.404   2.509   5.566  1.6409 -1.1219 -1.4796
 5165SOL    HW226955   4.541   2.519   5.515  1.3226 -1.3184  2.0586
 5166SOL     OW26956   0.969   2.262   8.254  0.1746 -0.0774 -0.6210
 5166SOL    HW126957   0.971   2.282   8.161  0.2159  0.1785 -0.5663
 5166SOL    HW226958   0.878   2.236   8.268 -0.2558  2.6175  1.6509
 5167SOL     OW26959   0.320   1.029  10.641  0.7095  0.0465  0.0933
 5167SOL    HW126960   0.393   1.050  10.583  1.2842  1.5560  1.3787
 5167SOL    HW226961   0.259   1.095  10.609  0.8046 -0.6251 -1.4614
 5168SOL     OW26962   3.742   0.079   1.505  0.5486  0.3485 -0.5356
 5168SOL    HW126963   3.834   0.097   1.526  0.4756 -0.9924  0.8878
 5168SOL    HW226964   3.742   0.063   1.411  2.6035 -0.4201 -0.3924
 5169SOL     OW26965   1.322   3.557   8.097 -0.5618 -0.1734  0.0406
 5169SOL    HW126966   1.230   3.558   8.069 -0.1868  1.3762 -1.1170
 5169SOL    HW226967   1.366   3.522   8.020 -1.9581 -3.0717  0.5210
 5170SOL     OW26968   0.237   0.833  12.686  0.2275 -0.1993 -0.3724
 5170SOL    HW126969   0.258   0.771  12.756 -0.7366 -0.0705  0.0250
 5170SOL    HW226970   0.211   0.782  12.610  1.0025  0.0964 -0.8371
 5171SOL     OW26971   0.749   0.173  16.928 -0.0063 -0.1512  0.1130
 5171SOL    HW126972   0.716   0.196  17.015  0.1088  2.0444 -0.4012
 5171SOL    HW226973   0.709   0.239  16.871 -0.9634 -1.6813 -0.9781
 5172SOL     OW26974   0.643   2.070   4.787 -0.0248 -0.0278 -0.0830
 5172SOL    HW126975   0.570   2.092   4.844 -0.9135  1.7875 -1.9078
 5172SOL    HW226976   0.646   2.145   4.727  1.1465 -0.9415 -1.1813
 5173SOL     OW26977   2.325   3.371   7.143 -0.0255  0.1672  0.0487
 5173SOL    HW126978   2.270   3.392   7.068  0.3303 -0.9134 -0.5089
 5173SOL    HW226979   2.413   3.390   7.109  0.4720 -2.6098 -0.1716
 5174SOL     OW26980   4.353   2.247   3.151 -0.4506 -0.3721  0.3990
 5174SOL    HW126981   4.289   2.210   3.090 -1.9874 -0.0575  1.8137
 5174SOL    HW226982   4.309   2.215   3.230 -0.0921 -3.1162 -0.5006
 5175SOL     OW26983   3.246   1.808   6.379 -0.0674 -0.3849 -0.1847
 5175SOL    HW126984   3.233   1.767   6.464 -1.0339  0.5025  0.0919
 5175SOL    HW226985   3.322   1.755   6.352 -0.3738  0.5298 -2.9044
 5176SOL     OW26986   4.297   2.203  10.549  0.7294 -0.0515 -0.1800
 5176SOL    HW126987   4.320   2.292  10.522  2.9466 -0.3871  0.6747
 5176SOL    HW226988   4.322   2.202  10.642 -0.3169 -1.2866  0.0847
 5177SOL     OW26989   2.907   3.160   1.397  0.1853 -0.8243 -0.0392
 5177SOL    HW126990   2.943   3.231   1.345 -1.4083 -0.3825 -0.5463
 5177SOL    HW226991   2.979   3.097   1.402 -1.0356 -1.9932  2.9150
 5178SOL     OW26992   3.818   0.799  10.336 -0.0043  0.0768 -0.1454
 5178SOL    HW126993   3.804   0.770  10.426  0.1371 -0.2753 -0.2373
 5178SOL    HW226994   3.845   0.721  10.288  0.2502  0.0383  0.0623
 5179SOL     OW26995   1.661   1.664   3.070 -0.2985  0.2847 -0.3727
 5179SOL    HW126996   1.588   1.699   3.121  1.4080  2.5373  0.5259
 5179SOL    HW226997   1.656   1.728   2.998  0.6565  0.7108 -0.0507
 5180SOL     OW26998   0.975   4.476   0.982 -0.2530  0.5219  0.3547
 5180SOL    HW126999   0.993   4.470   1.075  1.9345 -1.6426 -0.2126
 5180SOL    HW227000   1.050   4.429   0.946  0.9365  1.4073  1.6503
 5181SOL     OW27001   3.365   2.064   9.545  0.3231 -0.3067  0.3911
 5181SOL    HW127002   3.419   2.028   9.476  2.2163 -0.5932  2.0259
 5181SOL    HW227003   3.281   2.063   9.500  0.0790 -0.4939  0.8434
 5182SOL     OW27004   2.576   1.120   4.519 -0.9016  0.4453 -0.1435
 5182SOL    HW127005   2.655   1.134   4.468 -0.3621  0.5913  0.7324
 5182SOL    HW227006   2.589   1.041   4.572 -1.4907  0.3073 -0.2035
 5183SOL     OW27007   1.663   3.725   7.379 -0.5419 -0.2493  0.3190
 5183SOL    HW127008   1.648   3.662   7.449  1.2071 -0.8705  0.1241
 5183SOL    HW227009   1.697   3.800   7.426 -2.4708  1.3466 -0.8360
 5184SOL     OW27010   1.724   1.684   5.996 -0.1060  0.3130 -0.1069
 5184SOL    HW127011   1.635   1.651   6.005 -0.3674  0.9162 -0.4463
 5184SOL    HW227012   1.768   1.603   6.022  1.1915  0.9922 -0.1923
 5185SOL     OW27013   1.969   1.579   8.782 -0.2149  1.0288  0.2043
 5185SOL    HW127014   2.057   1.607   8.758  0.3978 -2.3612 -1.5758
 5185SOL    HW227015   1.926   1.617   8.706  0.7290 -0.6258 -1.1688
 5186SOL     OW27016   3.068   3.973   5.997 -0.5657  0.0399  0.5757
 5186SOL    HW127017   3.117   4.001   6.074 -3.2341 -0.6075  2.5161
 5186SOL    HW227018   3.136   3.925   5.950 -1.1079  0.9618 -1.1471
 5187SOL     OW27019   4.700   1.431   5.373  0.1913 -0.4115  0.2758
 5187SOL    HW127020   4.655   1.451   5.455  0.3473  1.3437 -0.0673
 5187SOL    HW227021   4.698   1.335   5.378 -3.8405 -0.3345 -0.3027
 5188SOL     OW27022   0.850   2.142   2.151  0.1639  0.0552  0.3415
 5188SOL    HW127023   0.777   2.187   2.193 -0.2009  1.4805 -1.7672
 5188SOL    HW227024   0.899   2.113   2.228 -0.2695 -4.3858 -1.0812
 5189SOL     OW27025   0.435   4.375   9.291  0.1164  0.0026 -0.1210
 5189SOL    HW127026   0.503   4.400   9.229  1.0804  1.2228  1.4286
 5189SOL    HW227027   0.482   4.308   9.341  0.2943 -0.4717 -0.9243
 5190SOL     OW27028   0.557   4.072   9.069  0.4928 -0.4568  0.2875
 5190SOL    HW127029   0.566   4.024   8.987  0.6126  3.1857 -1.8150
 5190SOL    HW227030   0.501   4.147   9.049 -0.1797 -0.5857  1.6891
 5191SOL     OW27031   0.622   3.657   7.946 -0.0248 -0.1375 -1.2157
 5191SOL    HW127032   0.637   3.565   7.965  0.5113  0.3190  0.5774
 5191SOL    HW227033   0.533   3.657   7.983  0.0900  2.2698 -0.8951
 5192SOL     OW27034   4.195   0.658   7.305  0.3235  0.3079 -0.4888
 5192SOL    HW127035   4.141   0.719   7.356  0.1715 -0.4114  0.2083
 5192SOL    HW227036   4.267   0.650   7.368  0.2791  2.0762 -0.2150
 5193SOL     OW27037   2.179   4.242   4.935 -0.2537 -0.5435  0.2129
 5193SOL    HW127038   2.237   4.243   4.859 -0.6210 -2.9999 -0.0974
 5193SOL    HW227039   2.218   4.315   4.983 -0.6842  0.2831 -0.7016
 5194SOL     OW27040   0.444   1.879   8.694 -0.3052 -0.4454  0.4387
 5194SOL    HW127041   0.509   1.817   8.726  1.6767 -0.3109 -3.3495
 5194SOL    HW227042   0.441   1.944   8.764  2.1906  0.1003  0.0349
 5195SOL     OW27043   3.923   2.259   3.399  0.5094  0.1595  0.2478
 5195SOL    HW127044   3.856   2.190   3.396  2.5316 -1.8339  0.4576
 5195SOL    HW227045   3.939   2.258   3.493 -1.4709  0.7677  0.5922
 5196SOL     OW27046   0.183   3.845  11.630 -0.1415 -0.4493  0.1605
 5196SOL    HW127047   0.134   3.773  11.670 -1.3126 -0.0158 -0.4857
 5196SOL    HW227048   0.134   3.923  11.657  0.6411  0.2441 -0.4711
 5197SOL     OW27049   3.722   4.168   2.574 -0.3826  0.3598  0.0862
 5197SOL    HW127050   3.807   4.168   2.532 -1.4092  0.1798 -1.9997
 5197SOL    HW227051   3.744   4.185   2.666 -0.5181 -0.9134  0.3517
 5198SOL     OW27052   2.746   1.169  13.185  0.2035  0.1513  1.2380
 5198SOL    HW127053   2.736   1.169  13.090  2.3785  2.5453  1.0093
 5198SOL    HW227054   2.840   1.187  13.184 -0.0579  1.4729  0.1610
 5199SOL     OW27055   1.690   2.733   6.882 -0.1942  0.3634 -0.5909
 5199SOL    HW127056   1.597   2.709   6.877  0.3093 -1.9467  1.3388
 5199SOL    HW227057   1.683   2.826   6.904 -0.1182  0.1681  0.2274
 5200SOL     OW27058   3.614   4.462   9.094 -0.7535  0.2105  0.0857
 5200SOL    HW127059   3.524   4.481   9.068 -0.0362  1.8297 -1.1599
 5200SOL    HW227060   3.646   4.414   9.019 -0.1749  0.3023  0.2761
 5201SOL     OW27061   1.940   2.743   4.475  0.3246 -0.2147  0.3606
 5201SOL    HW127062   1.956   2.818   4.532 -0.8819 -0.1464  0.6055
 5201SOL    HW227063   1.857   2.770   4.437  1.4134  0.5895 -1.4390
 5202SOL     OW27064   0.507   4.517   8.649  0.5197 -0.2517 -0.3896
 5202SOL    HW127065   0.512   4.596   8.703 -1.6837 -1.4131  1.4838
 5202SOL    HW227066   0.481   4.553   8.564 -0.8778 -1.9433 -0.6715
 5203SOL     OW27067   0.640   4.201   0.580  0.0458  0.4881  0.0357
 5203SOL    HW127068   0.706   4.203   0.511 -3.6841  4.0885 -3.4511
 5203SOL    HW227069   0.674   4.282   0.617 -1.1529  0.2617  1.6421
 5204SOL     OW27070   4.473   2.271   4.198 -0.4057  0.4730 -0.1219
 5204SOL    HW127071   4.388   2.306   4.170 -0.1577 -0.0658 -1.5690
 5204SOL    HW227072   4.531   2.292   4.125 -0.7711 -1.0131 -0.8429
 5205SOL     OW27073   2.383   0.541   4.140 -0.0756  0.0387  0.2200
 5205SOL    HW127074   2.370   0.633   4.115  1.2073  0.8763  2.7156
 5205SOL    HW227075   2.477   0.537   4.121 -0.4436  1.1416 -1.8929
 5206SOL     OW27076   4.497   1.819  12.247 -0.2362  0.4620  0.1758
 5206SOL    HW127077   4.437   1.747  12.230 -3.9032  3.7542 -0.8276
 5206SOL    HW227078   4.549   1.812  12.167  0.6052 -0.5247  0.8235
 5207SOL     OW27079   1.180   2.573   7.318 -0.0192 -0.5210 -0.4353
 5207SOL    HW127080   1.128   2.522   7.380 -2.9491  1.7250 -1.0861
 5207SOL    HW227081   1.271   2.553   7.339 -0.4062 -0.9645  0.8263
 5208SOL     OW27082   2.077   3.232   2.511 -0.4001  0.1833 -0.3493
 5208SOL    HW127083   2.125   3.216   2.429  0.9265  0.0939  0.4566
 5208SOL    HW227084   2.096   3.325   2.517 -0.8952  0.2967 -0.5106
 5209SOL     OW27085   3.287   4.659   2.938  0.1811  0.0678 -0.1365
 5209SOL    HW127086   3.349   4.606   2.888  1.7668  0.3609  1.5212
 5209SOL    HW227087   3.210   4.678   2.885  1.7368  1.8141 -1.7660
 5210SOL     OW27088   1.699   1.129   5.953 -0.2866 -0.6073  0.5353
 5210SOL    HW127089   1.659   1.044   5.937  1.1816 -1.0521 -0.7839
 5210SOL    HW227090   1.621   1.182   5.970 -0.6431 -0.7824 -0.5154
 5211SOL     OW27091   1.585   3.781   5.926 -0.1474  0.1926  0.1950
 5211SOL    HW127092   1.560   3.853   5.869 -2.6499 -0.5033  0.4019
 5211SOL    HW227093   1.499   3.738   5.923  1.1693 -2.4738  0.0142
 5212SOL     OW27094   0.709   2.399   7.478  0.3431 -0.0169  0.6206
 5212SOL    HW127095   0.673   2.488   7.478  1.0588  0.2831  3.4154
 5212SOL    HW227096   0.665   2.356   7.405 -0.3285  0.8195  0.5326
 5213SOL     OW27097   0.941   3.304   6.120  0.1596 -0.1131 -0.1803
 5213SOL    HW127098   0.964   3.285   6.029  1.9241  1.5497 -0.0967
 5213SOL    HW227099   0.903   3.392   6.127 -0.7241 -0.6721  1.8620
 5214SOL     OW27100   4.651   1.532  11.970  0.2944 -0.4509  0.3262
 5214SOL    HW127101   4.684   1.488  11.892 -2.0274  1.5565 -1.7273
 5214SOL    HW227102   4.713   1.486  12.028  1.0210  0.4497  0.2545
 5215SOL     OW27103   4.594   1.062   4.543 -0.0154 -0.3573 -0.2217
 5215SOL    HW127104   4.523   1.078   4.480 -0.3196 -0.1631  0.1661
 5215SOL    HW227105   4.619   0.971   4.530  1.1464 -0.5128  3.1235
 5216SOL     OW27106   3.272   2.978   6.850  0.1929 -0.3229  0.4995
 5216SOL    HW127107   3.243   2.911   6.789  0.2712  2.0935 -2.2049
 5216SOL    HW227108   3.260   2.932   6.933  0.1116 -2.8851 -0.9418
 5217SOL     OW27109   0.078   4.215  15.779  0.4365  0.1253  0.0249
 5217SOL    HW127110   0.136   4.289  15.761  0.1564  0.7012  1.4457
 5217SOL    HW227111   0.119   4.171  15.854  0.5379 -1.2743 -0.8725
 5218SOL     OW27112   2.603   1.486   2.853 -0.2025  0.0561  0.8040
 5218SOL    HW127113   2.691   1.524   2.843  0.1013 -0.1615  2.5103
 5218SOL    HW227114   2.567   1.558   2.905  0.4378  0.8324  0.1733
 5219SOL     OW27115   1.442   1.729   3.723  0.5163  0.7564  0.3271
 5219SOL    HW127116   1.412   1.767   3.640  1.0906  1.9946  0.6832
 5219SOL    HW227117   1.376   1.764   3.783 -0.4916 -0.6098  0.0209
 5220SOL     OW27118   3.256   0.833   5.220 -0.4521 -0.2352 -0.0023
 5220SOL    HW127119   3.241   0.806   5.310 -1.4061 -1.2220 -0.4543
 5220SOL    HW227120   3.227   0.924   5.223 -0.0486 -0.0643 -1.1849
 5221SOL     OW27121   4.633   4.391   1.981 -0.0343  0.3115 -0.0849
 5221SOL    HW127122   4.616   4.449   2.055 -1.5085 -0.0418 -0.1458
 5221SOL    HW227123   4.571   4.318   1.981  0.7205 -0.3310  1.1358
 5222SOL     OW27124   0.983   0.435   5.409 -0.2133 -0.4613 -0.2779
 5222SOL    HW127125   0.941   0.421   5.494 -2.9036  1.7078 -1.2362
 5222SOL    HW227126   1.074   0.412   5.424 -0.3671 -0.1011  1.1905
 5223SOL     OW27127   3.959   3.489   7.803 -0.7043 -0.4138 -0.7997
 5223SOL    HW127128   3.867   3.469   7.822 -0.0807 -2.7995 -0.3515
 5223SOL    HW227129   3.982   3.549   7.875  1.1041  0.5068 -2.1594
 5224SOL     OW27130   4.064   2.527  10.993  0.0868  0.0749  0.5003
 5224SOL    HW127131   4.084   2.579  10.916 -0.2131  1.2803  1.2485
 5224SOL    HW227132   4.099   2.439  10.976 -0.9298  0.0996 -1.7198
 5225SOL     OW27133   2.504   1.053   2.035 -1.1295 -0.7449 -0.1347
 5225SOL    HW127134   2.431   1.003   2.072 -0.8584 -0.6567  0.5106
 5225SOL    HW227135   2.457   1.136   2.023  2.2692  1.2732  0.8010
 5226SOL     OW27136   0.422   3.590   3.694 -0.8835 -0.2155  0.2366
 5226SOL    HW127137   0.359   3.591   3.621 -0.9050  1.3022  0.2711
 5226SOL    HW227138   0.377   3.653   3.751  0.8817 -0.8435  2.2871
 5227SOL     OW27139   3.556   1.443   8.696 -0.2446 -0.4051 -0.3899
 5227SOL    HW127140   3.524   1.356   8.674 -0.0129 -0.8533  1.0436
 5227SOL    HW227141   3.579   1.491   8.616  0.4447  1.5214  0.9513
 5228SOL     OW27142   0.019   2.366  17.586  0.2254  0.5477 -0.7543
 5228SOL    HW127143   0.006   2.290  17.643  0.0387  1.3624  0.2832
 5228SOL    HW227144   4.685   2.344  17.514  1.7979 -2.6069 -1.1085
 5229SOL     OW27145   3.330   2.200  12.925  0.2766  0.2865 -0.2293
 5229SOL    HW127146   3.302   2.285  12.958 -1.4836 -0.6927  0.7409
 5229SOL    HW227147   3.368   2.162  13.004 -0.2369 -0.3173 -0.2772
 5230SOL     OW27148   0.506   1.627   7.914  0.2991  0.1002 -0.0505
 5230SOL    HW127149   0.500   1.542   7.957 -1.4134  0.4689  0.4814
 5230SOL    HW227150   0.575   1.663   7.970 -2.0498  0.6402  2.5083
 5231SOL     OW27151   4.572   3.443  12.813  0.1724  0.4911 -0.4586
 5231SOL    HW127152   4.553   3.357  12.775  1.2806 -0.1514  0.4796
 5231SOL    HW227153   4.664   3.426  12.830 -0.5762 -2.1108  0.8598
 5232SOL     OW27154   0.099   0.493   2.172 -0.1398 -0.3057 -0.0449
 5232SOL    HW127155   0.074   0.450   2.254  0.7728  2.4002  1.6175
 5232SOL    HW227156   0.077   0.426   2.107 -0.8369 -0.2468  0.1291
 5233SOL     OW27157   4.468   0.714   5.078  0.0006  0.3461  0.6722
 5233SOL    HW127158   4.497   0.776   5.144 -0.1026  1.7326 -0.5884
 5233SOL    HW227159   4.375   0.735   5.088  0.2555  1.6054  0.4245
 5234SOL     OW27160   0.442   4.484   5.982  0.0809  0.3077 -0.8698
 5234SOL    HW127161   0.502   4.554   5.955  0.4640 -0.3721 -1.7944
 5234SOL    HW227162   0.397   4.537   6.047  1.3067 -0.5357  0.6781
 5235SOL     OW27163   3.284   3.100   0.608 -0.4405 -0.3881  0.2359
 5235SOL    HW127164   3.307   3.048   0.531  4.4589 -0.5989  1.8557
 5235SOL    HW227165   3.238   3.032   0.658 -1.8580  0.1530 -0.3370
 5236SOL     OW27166   1.749   0.356   9.856 -0.4253 -0.0245 -0.2507
 5236SOL    HW127167   1.791   0.401   9.783  1.8844 -1.3519  0.2775
 5236SOL    HW227168   1.704   0.426   9.904 -2.4483 -1.3651 -0.1814
 5237SOL     OW27169   2.791   3.919   6.902  0.6353 -0.2821  0.1632
 5237SOL    HW127170   2.815   3.994   6.848  1.1352 -1.3144 -1.0427
 5237SOL    HW227171   2.720   3.953   6.957  1.5162  1.9792 -0.1362
 5238SOL     OW27172   1.655   2.733   0.325 -0.2705  0.2716  0.3084
 5238SOL    HW127173   1.583   2.703   0.270 -1.0306 -0.8367  1.9333
 5238SOL    HW227174   1.619   2.738   0.413  0.9020  1.1071  0.7470
 5239SOL     OW27175   0.167   1.734   3.843  0.2530  0.7657  0.1981
 5239SOL    HW127176   0.244   1.738   3.899  1.9668 -0.8424 -2.0722
 5239SOL    HW227177   0.197   1.686   3.766  1.4265 -0.4315  1.4207
 5240SOL     OW27178   4.724   1.681  10.442  0.4993  0.1754 -0.4252
 5240SOL    HW127179   4.717   1.772  10.471 -1.6857 -0.2688  0.4648
 5240SOL    HW227180   4.688   1.687  10.353  0.4257  0.8235 -0.3506
 5241SOL     OW27181   2.741   3.067   7.469 -0.6478 -0.1544 -0.2231
 5241SOL    HW127182   2.833   3.070   7.445  0.1561 -2.0939  2.6395
 5241SOL    HW227183   2.733   3.104   7.557 -0.0757 -2.7311  0.9152
 5242SOL     OW27184   0.949   0.232   1.359  0.1416 -0.5215 -0.2824
 5242SOL    HW127185   1.022   0.257   1.415 -1.4815  0.8838  1.1985
 5242SOL    HW227186   0.939   0.143   1.393 -1.5783 -0.6456 -1.1054
 5243SOL     OW27187   1.359   3.175  13.268 -0.2265 -0.1292 -0.4987
 5243SOL    HW127188   1.303   3.127  13.328 -0.8510 -0.3752 -1.2694
 5243SOL    HW227189   1.331   3.126  13.190 -1.5163 -1.8002  1.0335
 5244SOL     OW27190   2.692   2.846   7.891 -0.1672 -0.2865  0.7022
 5244SOL    HW127191   2.726   2.917   7.837 -0.7084 -0.1750  0.5015
 5244SOL    HW227192   2.745   2.856   7.970  0.8273 -2.9072  0.3550
 5245SOL     OW27193   0.310   4.294   8.295  0.0291 -0.3535  0.0571
 5245SOL    HW127194   0.330   4.225   8.357  0.2262 -0.2990  0.0542
 5245SOL    HW227195   0.266   4.362   8.346 -1.2777 -0.6803 -0.6331
 5246SOL     OW27196   3.729   0.312   3.025  0.2407  0.1775  0.1936
 5246SOL    HW127197   3.634   0.315   3.011 -0.1033 -2.9418  1.9455
 5246SOL    HW227198   3.733   0.216   3.028 -1.1434  0.1263  0.3116
 5247SOL     OW27199   3.445   1.801   5.439  0.1139  0.2896 -0.6126
 5247SOL    HW127200   3.399   1.746   5.503  0.5973  2.2703  1.4763
 5247SOL    HW227201   3.513   1.822   5.504  1.0305  2.2990 -2.2285
 5248SOL     OW27202   1.763   2.954   5.811  0.5177  0.0394  0.2676
 5248SOL    HW127203   1.745   2.862   5.833  0.6638 -0.0515  0.0080
 5248SOL    HW227204   1.760   2.954   5.716  0.0738  2.0847  0.2802
 5249SOL     OW27205   0.172   3.282  16.589 -0.0598 -0.5348  0.7012
 5249SOL    HW127206   0.118   3.352  16.626 -0.2587  0.8993 -2.3017
 5249SOL    HW227207   0.152   3.293  16.496 -0.3115  2.8216  1.1269
 5250SOL     OW27208   0.117   4.627   1.145 -0.5273  0.0498  0.1180
 5250SOL    HW127209   0.193   4.676   1.174 -1.6046  0.5328  2.1475
 5250SOL    HW227210   0.164   4.551   1.111 -1.3848 -0.7522  0.7197
 5251SOL     OW27211   3.159   2.929   7.866  0.1386  0.1690 -0.8687
 5251SOL    HW127212   3.206   3.010   7.844 -1.1700  1.0142 -0.5455
 5251SOL    HW227213   3.208   2.865   7.815  1.1033  1.1258 -1.1454
 5252SOL     OW27214   2.556   1.806   2.903 -0.5276  0.1399 -0.4149
 5252SOL    HW127215   2.568   1.870   2.834  4.4423  0.1626  0.4944
 5252SOL    HW227216   2.464   1.781   2.893 -0.1724 -0.9987 -0.8929
 5253SOL     OW27217   3.795   1.585   9.120 -0.2979  0.7956  0.2802
 5253SOL    HW127218   3.770   1.537   9.041  3.2393 -2.1468  0.9407
 5253SOL    HW227219   3.829   1.519   9.180 -1.2531 -1.6275 -1.8505
 5254SOL     OW27220   0.567   2.198   3.886  0.1280  0.0335 -0.1300
 5254SOL    HW127221   0.653   2.231   3.910  1.0675 -0.9402 -2.1088
 5254SOL    HW227222   0.554   2.258   3.812  0.6190  0.5791  0.2282
 5255SOL     OW27223   1.547   2.790   3.076  0.0212  0.0476  0.1648
 5255SOL    HW127224   1.477   2.844   3.114  1.4167  2.3750 -0.5589
 5255SOL    HW227225   1.523   2.796   2.984  1.2601 -0.8462 -0.1987
 5256SOL     OW27226   3.378   1.570  11.832  0.0793 -0.0662 -0.5024
 5256SOL    HW127227   3.297   1.568  11.883  0.8684 -0.6986  0.7110
 5256SOL    HW227228   3.382   1.664  11.818  2.8809  0.2380  2.2990
 5257SOL     OW27229   1.799   4.648  13.487 -0.2262 -0.4295  0.5216
 5257SOL    HW127230   1.795   4.702  13.566 -0.8949  0.2740  0.0048
 5257SOL    HW227231   1.713   4.605  13.489 -1.4580  1.9841 -1.9217
 5258SOL     OW27232   1.788   0.376   2.650  0.4592 -0.8296  0.1652
 5258SOL    HW127233   1.830   0.331   2.577 -0.5316 -0.4259 -0.6572
 5258SOL    HW227234   1.725   0.308   2.671  2.4277 -2.6893  0.0921
 5259SOL     OW27235   1.469   3.176  17.559 -0.2050  0.1970 -0.2416
 5259SOL    HW127236   1.384   3.136  17.540  0.7119 -0.9160 -2.0259
 5259SOL    HW227237   1.523   3.135  17.492 -0.9809 -0.3263 -0.5501
 5260SOL     OW27238   3.812   2.193   7.210  0.3935 -0.0428  0.1590
 5260SOL    HW127239   3.854   2.212   7.126  0.5568  1.4187  0.5767
 5260SOL    HW227240   3.781   2.283   7.224  1.0268 -0.2154  2.6023
 5261SOL     OW27241   1.852   4.710  10.375  0.0490  0.1676  0.3958
 5261SOL    HW127242   1.876   0.068  10.335 -1.4464  0.1954 -0.4387
 5261SOL    HW227243   1.938   4.672  10.394  0.4730 -0.1313 -2.0514
 5262SOL     OW27244   2.950   1.486  17.062 -0.2134 -0.5205 -0.1955
 5262SOL    HW127245   2.921   1.571  17.095  0.6687 -0.5130  0.5872
 5262SOL    HW227246   3.044   1.503  17.055 -0.3237  0.2317  0.0457
 5263SOL     OW27247   2.026   4.369  10.932 -0.3309 -0.1756 -1.0252
 5263SOL    HW127248   1.988   4.329  10.854 -0.8306  0.5918 -1.1701
 5263SOL    HW227249   1.974   4.336  11.005  0.2838  1.4852  0.1601
 5264SOL     OW27250   2.126   1.463   1.966  0.0185 -0.1755 -0.6577
 5264SOL    HW127251   2.182   1.510   1.904  3.9903 -1.3778  2.0603
 5264SOL    HW227252   2.187   1.408   2.014  0.7012  2.6007  1.6632
 5265SOL     OW27253   3.891   2.924  11.520  0.0325 -0.3224 -0.3193
 5265SOL    HW127254   3.925   2.882  11.440  1.1108 -1.0848  0.5470
 5265SOL    HW227255   3.943   2.877  11.585 -0.1263 -1.2794 -0.8790
 5266SOL     OW27256   4.342   0.361  11.312 -0.4466  0.3574  0.2206
 5266SOL    HW127257   4.337   0.454  11.330  1.2730  0.4973  0.0477
 5266SOL    HW227258   4.411   0.340  11.376  1.7171 -0.4927 -2.3551
 5267SOL     OW27259   4.115   3.881   8.417 -0.0825  0.4453  0.7111
 5267SOL    HW127260   4.178   3.816   8.447  0.8554  1.8047  1.6597
 5267SOL    HW227261   4.083   3.907   8.504 -1.4938  0.9640  0.0355
 5268SOL     OW27262   3.782   2.149   6.144  0.3125 -0.1678 -0.1742
 5268SOL    HW127263   3.831   2.171   6.065  0.5806  0.2291  0.1025
 5268SOL    HW227264   3.756   2.057   6.133 -0.6433  0.0163  0.5216
 5269SOL     OW27265   2.240   1.584  11.573  0.7197  0.7271 -0.5430
 5269SOL    HW127266   2.148   1.560  11.583  1.0720  0.0793  1.3068
 5269SOL    HW227267   2.246   1.645  11.647  2.4893  1.3998 -1.2418
 5270SOL     OW27268   1.940   3.472   9.071 -0.3174 -0.4248  0.2198
 5270SOL    HW127269   2.009   3.419   9.031  0.0214 -1.3689  2.0542
 5270SOL    HW227270   1.854   3.433   9.060 -0.1325  0.3166 -3.7871
 5271SOL     OW27271   2.592   3.382   3.045 -0.1952 -0.2311 -0.2345
 5271SOL    HW127272   2.666   3.443   3.050 -0.7315  0.2636  1.6064
 5271SOL    HW227273   2.544   3.434   2.981 -0.8747 -0.7230 -0.1180
 5272SOL     OW27274   1.325   2.976   9.272 -0.3608 -0.1851 -0.8856
 5272SOL    HW127275   1.322   2.882   9.291 -1.3704 -0.0069 -0.1497
 5272SOL    HW227276   1.416   2.996   9.295  0.3956 -3.0028 -1.4426
 5273SOL     OW27277   1.059   1.338   3.968 -0.1451 -0.0506  0.0589
 5273SOL    HW127278   1.062   1.301   3.880  0.4020 -1.1773  0.5467
 5273SOL    HW227279   1.135   1.295   4.009 -0.0932  0.5170  0.5709
 5274SOL     OW27280   2.987   0.358   9.223 -0.4818 -0.0835 -0.2070
 5274SOL    HW127281   3.065   0.380   9.275  0.0236 -1.7933 -0.2506
 5274SOL    HW227282   2.997   0.264   9.209 -2.2577 -0.2699 -0.1613
 5275SOL     OW27283   2.146   1.091   4.721 -0.1693  0.0864 -0.3020
 5275SOL    HW127284   2.143   1.168   4.664 -2.1422  0.0012 -0.3238
 5275SOL    HW227285   2.062   1.092   4.766  0.7186  2.3643  1.2992
 5276SOL     OW27286   3.764   1.119   2.713  0.6250 -0.4100 -0.0366
 5276SOL    HW127287   3.690   1.179   2.719  0.6807 -0.3678  0.2200
 5276SOL    HW227288   3.837   1.170   2.679 -0.2974  0.5154 -0.6215
 5277SOL     OW27289   2.764   0.558   6.270 -0.7428 -0.3680 -0.4105
 5277SOL    HW127290   2.706   0.568   6.194 -1.3779 -1.8618 -0.1381
 5277SOL    HW227291   2.701   0.553   6.341  0.7342  0.0618  0.9291
 5278SOL     OW27292   1.581   1.065   4.527 -0.0655 -0.4859  0.3171
 5278SOL    HW127293   1.667   1.041   4.491  0.3188  0.0317  0.8819
 5278SOL    HW227294   1.602   1.130   4.594  1.2106 -1.9355  1.3354
 5279SOL     OW27295   0.387   4.287   9.028 -0.1732 -0.1420 -0.6606
 5279SOL    HW127296   0.309   4.237   9.004 -1.0377  0.9426 -0.1315
 5279SOL    HW227297   0.374   4.293   9.122 -2.6725 -1.5073 -0.9050
 5280SOL     OW27298   1.580   2.560  16.647  0.4013 -0.6189  0.2859
 5280SOL    HW127299   1.615   2.642  16.682 -0.9238 -1.1836  2.9232
 5280SOL    HW227300   1.486   2.562  16.665  0.7065 -0.6689  1.8952
 5281SOL     OW27301   2.856   2.908  14.406 -0.1836  0.0913 -0.0976
 5281SOL    HW127302   2.820   2.867  14.328 -1.1607 -1.7249  1.3140
 5281SOL    HW227303   2.791   2.961  14.453  0.8888  1.4291 -0.0890
 5282SOL     OW27304   0.080   4.302  15.038  0.0209 -0.4245 -0.3691
 5282SOL    HW127305   0.103   4.357  15.112 -0.5876  1.6769 -1.7281
 5282SOL    HW227306   0.075   4.222  15.090 -2.3427 -1.3873 -2.0242
 5283SOL     OW27307   2.713   4.310  16.005  0.2079  0.6181 -0.3278
 5283SOL    HW127308   2.722   4.216  15.987 -0.2234  0.1073  2.0665
 5283SOL    HW227309   2.619   4.324  16.013  0.4617  1.0740  1.9382
 5284SOL     OW27310   0.749   0.029  11.687  0.1890 -0.3306 -0.9520
 5284SOL    HW127311   0.708   0.058  11.605 -0.3799 -0.2378 -0.6394
 5284SOL    HW227312   0.740   4.659  11.685  1.1786 -0.4465 -0.1836
 5285SOL     OW27313   3.910   0.737   2.442 -0.0242 -0.2236  0.2977
 5285SOL    HW127314   3.978   0.754   2.508  2.2254 -2.5340 -1.4256
 5285SOL    HW227315   3.969   0.714   2.371  0.0194 -1.1640  0.6432
 5286SOL     OW27316   4.531   0.808   5.459 -0.9175 -0.2155 -0.5599
 5286SOL    HW127317   4.479   0.861   5.398 -0.5041  2.1864  1.1541
 5286SOL    HW227318   4.550   0.868   5.531  0.9539 -0.7404 -0.6318
 5287SOL     OW27319   2.472   1.716  10.128  0.3142 -0.1017 -0.3411
 5287SOL    HW127320   2.487   1.782  10.196  0.9335 -1.1880  0.5522
 5287SOL    HW227321   2.562   1.712  10.096  0.5140 -2.9245  0.5946
 5288SOL     OW27322   0.858   1.643   4.765 -0.0019 -0.2668  0.6622
 5288SOL    HW127323   0.878   1.735   4.744 -0.1705 -0.7689 -1.6722
 5288SOL    HW227324   0.875   1.594   4.685 -1.1760  0.5882 -0.1134
 5289SOL     OW27325   2.555   3.234   4.086  0.0948  0.9544 -0.5749
 5289SOL    HW127326   2.638   3.250   4.130 -0.2797 -0.2931  0.6119
 5289SOL    HW227327   2.596   3.241   4.000 -2.1601  1.3514 -1.6073
 5290SOL     OW27328   3.429   3.669   1.650 -0.0695  0.1333  0.4725
 5290SOL    HW127329   3.345   3.702   1.618 -0.0184  0.8598  1.0770
 5290SOL    HW227330   3.480   3.743   1.616  1.4569 -0.0523  2.3300
 5291SOL     OW27331   2.307   2.321  16.925  0.6006 -0.0844  0.4449
 5291SOL    HW127332   2.230   2.279  16.887  0.5675  0.6954 -0.3509
 5291SOL    HW227333   2.256   2.395  16.958  1.6332  0.2252  1.3482
 5292SOL     OW27334   0.081   0.643   2.682 -0.2192  0.6634 -0.1330
 5292SOL    HW127335   0.133   0.685   2.614  1.7447 -2.6909 -0.6887
 5292SOL    HW227336   4.715   0.672   2.680 -0.3701 -0.1715 -4.9447
 5293SOL     OW27337   3.075   1.984   0.877  0.1137 -0.3994 -0.2617
 5293SOL    HW127338   3.154   2.033   0.852  0.0082 -0.0007  0.1865
 5293SOL    HW227339   3.091   1.979   0.971  3.5846 -0.2778 -0.8279
 5294SOL     OW27340   1.172   1.261   5.952 -0.4877  0.1833 -0.4893
 5294SOL    HW127341   1.138   1.262   6.042  1.3935 -1.1784  0.2231
 5294SOL    HW227342   1.261   1.248   5.983 -0.3430  1.8187 -0.2271
 5295SOL     OW27343   3.645   0.736   2.524  0.6727  0.4749  0.0171
 5295SOL    HW127344   3.617   0.645   2.518 -0.0742  0.9601 -3.4118
 5295SOL    HW227345   3.734   0.738   2.490  1.4793  0.0305  2.0825
 5296SOL     OW27346   4.337   4.528   6.724 -0.3510 -0.2987  0.0659
 5296SOL    HW127347   4.394   4.510   6.649  0.1960 -1.2249  0.7011
 5296SOL    HW227348   4.398   4.554   6.793  0.9884 -2.3386 -0.3251
 5297SOL     OW27349   1.254   4.489  15.302  0.1719 -0.6448  0.4866
 5297SOL    HW127350   1.286   4.400  15.311  1.3762 -0.1361  1.1721
 5297SOL    HW227351   1.336   4.537  15.293  0.1146 -1.0777 -2.3996
 5298SOL     OW27352   1.937   0.726   3.368 -0.0255 -0.0738 -0.0137
 5298SOL    HW127353   1.945   0.631   3.363  2.7707  0.1089  1.0567
 5298SOL    HW227354   1.842   0.737   3.360 -0.0032  1.3695  1.6370
 5299SOL     OW27355   2.056   2.557   8.606  0.4137 -0.1265 -0.2032
 5299SOL    HW127356   1.996   2.584   8.675 -0.7345 -0.2714 -1.1405
 5299SOL    HW227357   1.988   2.535   8.543 -0.3926  1.4547  0.1163
 5300SOL     OW27358   0.640   0.026   7.491  0.4569 -0.4318 -0.6152
 5300SOL    HW127359   0.663   4.677   7.547  0.0602  0.1643  0.3447
 5300SOL    HW227360   0.545   0.029   7.500  0.5500 -1.7569  0.8680
 5301SOL     OW27361   0.873   0.223   4.676  0.8404  0.2580 -0.0625
 5301SOL    HW127362   0.905   0.244   4.588 -1.3115  1.1977 -0.6045
 5301SOL    HW227363   0.927   0.273   4.738 -1.1496  0.5141  1.4357
 5302SOL     OW27364   1.157   2.089   8.372  0.5017 -0.4324 -0.5628
 5302SOL    HW127365   1.136   2.139   8.451  1.3348  0.6640 -1.0310
 5302SOL    HW227366   1.113   2.147   8.310 -0.7710 -1.7645 -0.8894
 5303SOL     OW27367   4.315   0.705   1.685 -0.6057 -0.3893 -0.5093
 5303SOL    HW127368   4.376   0.771   1.718 -1.4733 -0.6842  1.6593
 5303SOL    HW227369   4.311   0.727   1.592  1.3251 -1.0558 -0.7600
 5304SOL     OW27370   3.691   2.747   5.210 -0.5004 -0.0630  0.3778
 5304SOL    HW127371   3.729   2.660   5.220 -1.5011 -0.8217 -2.4345
 5304SOL    HW227372   3.744   2.798   5.149 -1.7800  0.7407 -0.0687
 5305SOL     OW27373   2.742   4.106  11.642  0.3817 -0.4864  0.3893
 5305SOL    HW127374   2.725   4.113  11.548 -0.2133  2.3627  0.7083
 5305SOL    HW227375   2.658   4.062  11.656 -1.4261  1.4738 -4.0330
 5306SOL     OW27376   0.336   0.423   5.380  0.3351  0.5980 -0.0749
 5306SOL    HW127377   0.277   0.485   5.423  1.0353  2.0409 -1.1875
 5306SOL    HW227378   0.359   0.358   5.447 -1.5228  0.8449  0.8123
 5307SOL     OW27379   0.879   1.744  10.957  0.3985 -0.1561  0.4904
 5307SOL    HW127380   0.910   1.770  11.044 -1.1013  0.1694  0.9181
 5307SOL    HW227381   0.784   1.753  10.962  0.2796 -1.2372  0.0730
 5308SOL     OW27382   0.353   2.393   2.239  0.1089  0.3581  0.3897
 5308SOL    HW127383   0.333   2.310   2.282  2.3145 -0.4441 -0.1025
 5308SOL    HW227384   0.268   2.434   2.223 -0.2621 -0.1265  1.1326
 5309SOL     OW27385   2.593   2.830   7.435  0.0258 -0.4553  0.3560
 5309SOL    HW127386   2.657   2.894   7.465  2.1049 -1.0280 -2.9099
 5309SOL    HW227387   2.524   2.849   7.498  0.6673  2.9435  0.0114
 5310SOL     OW27388   0.867   2.892   5.551  0.0641 -0.1612 -0.0614
 5310SOL    HW127389   0.852   2.892   5.645  0.1133  1.3447 -0.0532
 5310SOL    HW227390   0.778   2.903   5.519  0.6040  0.9025 -1.2205
 5311SOL     OW27391   2.271   4.004   2.759  0.0415 -0.3091 -0.3555
 5311SOL    HW127392   2.175   4.002   2.759  0.0526 -0.8611 -1.0527
 5311SOL    HW227393   2.297   4.037   2.845 -1.7850  2.6494 -0.9522
 5312SOL     OW27394   1.504   0.833   4.626 -0.4717  0.1242 -0.2297
 5312SOL    HW127395   1.540   0.910   4.581  0.2184 -0.1950 -0.2216
 5312SOL    HW227396   1.572   0.836   4.694 -1.8582 -0.4235  1.1797
 5313SOL     OW27397   1.515   0.480   2.987 -0.0266 -0.7665 -0.1631
 5313SOL    HW127398   1.580   0.465   3.055  0.0213 -0.3931 -0.1292
 5313SOL    HW227399   1.523   0.574   2.973 -0.6186 -0.7281 -0.2476
 5314SOL     OW27400   1.477   3.463  16.120  0.0978  0.1346 -0.1108
 5314SOL    HW127401   1.471   3.537  16.180  1.1449 -0.1735  0.3841
 5314SOL    HW227402   1.567   3.465  16.089 -0.7408 -0.3224 -2.5687
 5315SOL     OW27403   3.116   3.749   4.359 -0.5909 -0.4702 -0.9672
 5315SOL    HW127404   3.087   3.839   4.355  2.7969  0.6526 -0.7117
 5315SOL    HW227405   3.132   3.740   4.453 -0.4313 -0.8603 -1.0291
 5316SOL     OW27406   3.230   3.382   2.444 -0.2021  0.4869  0.6879
 5316SOL    HW127407   3.150   3.429   2.468  0.2388  2.7330 -2.2786
 5316SOL    HW227408   3.251   3.333   2.524  2.1098 -1.2538 -0.9900
 5317SOL     OW27409   2.238   3.046  12.328  0.9130 -0.0494  0.2673
 5317SOL    HW127410   2.280   2.961  12.318  1.8840  0.5579 -1.0291
 5317SOL    HW227411   2.191   3.040  12.411 -0.1031  0.8692 -0.2332
 5318SOL     OW27412   0.865   1.510   1.593  0.2746  0.6191  0.2084
 5318SOL    HW127413   0.951   1.517   1.635  0.5086  0.9333 -0.3169
 5318SOL    HW227414   0.864   1.427   1.547 -0.1438  0.4289  0.5655
 5319SOL     OW27415   4.065   0.880   9.704 -0.5958 -0.4823  0.1440
 5319SOL    HW127416   3.999   0.816   9.731 -1.5213 -0.1543 -1.3301
 5319SOL    HW227417   4.042   0.893   9.612 -0.5885 -1.4398  0.0049
 5320SOL     OW27418   0.816   4.679  14.962 -0.2995  0.6297 -0.2132
 5320SOL    HW127419   0.846   4.669  15.052 -0.7933  0.9967 -0.0074
 5320SOL    HW227420   0.821   0.048  14.954  2.2131  0.5571  0.5425
 5321SOL     OW27421   4.663   3.027  10.046  0.3031  0.5943 -0.4565
 5321SOL    HW127422   4.704   2.946  10.016  0.6422  1.2429 -1.7520
 5321SOL    HW227423   4.595   3.048   9.982  1.0496 -0.1931 -1.5067
 5322SOL     OW27424   1.155   0.101   6.196  0.3244 -0.1173 -0.3896
 5322SOL    HW127425   1.081   0.154   6.165 -0.8843  0.2402  3.1406
 5322SOL    HW227426   1.103   0.049   6.257  0.2549 -1.6658 -1.7683
 5323SOL     OW27427   1.079   3.465  15.308  0.2717 -0.2628  0.1943
 5323SOL    HW127428   1.134   3.507  15.375  0.4869 -1.3329  0.6839
 5323SOL    HW227429   1.138   3.415  15.253 -2.0039 -2.7589  0.0365
 5324SOL     OW27430   4.029   1.897   9.759 -0.1581  0.2371 -0.2410
 5324SOL    HW127431   4.086   1.969   9.732 -1.3522  1.8842  1.6338
 5324SOL    HW227432   4.034   1.852   9.674 -0.7269  2.4952 -1.4583
 5325SOL     OW27433   3.956   1.596  12.003  0.0670 -0.2525  0.1322
 5325SOL    HW127434   4.047   1.576  12.026 -0.7476 -1.5094  2.2939
 5325SOL    HW227435   3.951   1.672  12.061  0.3642 -0.4430  0.4092
 5326SOL     OW27436   4.101   0.158  16.672  0.6100  0.5647 -0.7424
 5326SOL    HW127437   4.142   0.152  16.586  2.8297 -0.5294  0.3871
 5326SOL    HW227438   4.131   0.240  16.710 -1.0277  2.0662 -2.7272
 5327SOL     OW27439   3.978   2.745   0.864 -0.7083 -0.3455 -0.4845
 5327SOL    HW127440   4.043   2.766   0.931 -1.2044  1.1360 -0.4737
 5327SOL    HW227441   3.901   2.756   0.919 -0.7941 -0.9807 -0.4762
 5328SOL     OW27442   1.544   1.222   4.135 -0.3699  0.7537 -0.0794
 5328SOL    HW127443   1.582   1.136   4.118 -0.3436  0.8662 -0.5911
 5328SOL    HW227444   1.618   1.270   4.098 -0.5014 -1.5812 -3.3207
 5329SOL     OW27445   0.042   1.361   8.965  0.1726  0.5958  0.7062
 5329SOL    HW127446   0.102   1.287   8.960 -0.8049 -0.0087 -2.1850
 5329SOL    HW227447   0.077   1.414   9.037  0.5170  2.1908 -0.6487
 5330SOL     OW27448   4.703   2.885   4.682  0.0034 -0.0618 -0.2834
 5330SOL    HW127449   4.627   2.943   4.672  0.0756  0.1766  0.5348
 5330SOL    HW227450   4.716   2.869   4.589  0.9657 -1.0098  0.0163
 5331SOL     OW27451   1.553   0.100   2.540  0.0395 -0.5669  0.1538
 5331SOL    HW127452   1.474   0.152   2.554 -0.8477 -1.8635 -0.0597
 5331SOL    HW227453   1.609   0.127   2.613 -2.3205  0.9637  1.3869
 5332SOL     OW27454   3.955   3.951   3.682  0.5706 -0.1720  0.1533
 5332SOL    HW127455   3.942   4.044   3.702 -1.9278 -0.1651 -1.5239
 5332SOL    HW227456   3.909   3.904   3.751 -0.9070  0.5506 -0.3357
 5333SOL     OW27457   3.966   1.619   8.723  0.6221  0.3351  0.0858
 5333SOL    HW127458   4.009   1.534   8.729 -2.9959 -1.4826  0.6701
 5333SOL    HW227459   4.038   1.682   8.725  1.1769 -0.2874 -0.7857
 5334SOL     OW27460   0.915   2.586   4.713 -0.0974  0.3585 -0.1147
 5334SOL    HW127461   0.950   2.498   4.695 -0.3988  1.0111 -3.9165
 5334SOL    HW227462   0.921   2.627   4.626 -0.3472  0.5801 -0.0286
 5335SOL     OW27463   3.484   2.498  14.578 -0.8656 -0.5655 -0.8201
 5335SOL    HW127464   3.392   2.517  14.560 -0.7734  0.8124  0.1875
 5335SOL    HW227465   3.472   2.422  14.635 -0.7621 -0.0937 -0.1682
 5336SOL     OW27466   0.223   1.679   3.144  0.4104  0.0423  0.6210
 5336SOL    HW127467   0.142   1.721   3.116 -0.1000 -0.8696  0.7143
 5336SOL    HW227468   0.213   1.696   3.238  1.7839 -0.0820  0.7916
 5337SOL     OW27469   2.561   1.737   8.005  0.2396  0.1634  0.1297
 5337SOL    HW127470   2.639   1.687   8.027 -0.4172  0.0203  2.1647
 5337SOL    HW227471   2.546   1.783   8.088 -0.4587  0.3422 -0.0925
 5338SOL     OW27472   0.542   4.514   6.598  0.0602  0.0582  0.7740
 5338SOL    HW127473   0.556   4.453   6.525  1.3793  1.5946 -0.2498
 5338SOL    HW227474   0.447   4.505   6.603  0.3350 -1.0456  3.9943
 5339SOL     OW27475   1.257   1.665  10.037 -0.8380  0.1245 -0.6233
 5339SOL    HW127476   1.314   1.674  10.114 -0.0383 -0.2411 -1.1817
 5339SOL    HW227477   1.319   1.644   9.968 -0.0115 -1.9370  0.7467
 5340SOL     OW27478   2.687   4.125   2.831 -0.1041  0.0725 -0.2228
 5340SOL    HW127479   2.725   4.114   2.744 -1.3635 -1.1485 -0.6200
 5340SOL    HW227480   2.679   4.220   2.826 -2.3481 -0.0840  0.1494
 5341SOL     OW27481   4.355   0.558   1.333  0.0167  0.0953 -0.0227
 5341SOL    HW127482   4.315   0.633   1.377  0.4439  0.1675  0.2391
 5341SOL    HW227483   4.348   0.599   1.247  0.6002  0.3053  0.0331
 5342SOL     OW27484   2.926   3.887  13.833  0.2425  0.3038  0.3097
 5342SOL    HW127485   2.964   3.847  13.755 -1.7255 -0.3832 -0.2825
 5342SOL    HW227486   3.000   3.942  13.859 -0.9102  1.1484  1.8514
 5343SOL     OW27487   3.025   2.765   6.270  0.3720  0.3132  0.5137
 5343SOL    HW127488   2.991   2.835   6.326 -0.3111 -1.3214  2.1168
 5343SOL    HW227489   3.054   2.819   6.196 -1.6574  0.2301 -0.3524
 5344SOL     OW27490   4.120   1.812   6.926 -0.1000  0.2230 -0.1375
 5344SOL    HW127491   4.031   1.842   6.908  0.1524  2.1202  1.8035
 5344SOL    HW227492   4.099   1.774   7.012  1.0048 -0.1476 -0.0259
 5345SOL     OW27493   3.926   1.846   6.313  0.1400  0.0424  0.1480
 5345SOL    HW127494   3.963   1.934   6.321  1.7606 -0.6649  0.2632
 5345SOL    HW227495   3.968   1.802   6.387 -2.1980 -0.2142  1.3387
 5346SOL     OW27496   1.786   2.274  10.306 -0.5203 -0.5622  0.1362
 5346SOL    HW127497   1.829   2.318  10.232 -1.1257  1.1788  0.8136
 5346SOL    HW227498   1.697   2.309  10.310 -0.2076  0.0839  1.4755
 5347SOL     OW27499   1.729   1.158  12.600 -0.4432  0.7093 -0.3277
 5347SOL    HW127500   1.693   1.177  12.686 -1.1912 -0.5290 -0.3675
 5347SOL    HW227501   1.789   1.087  12.621 -1.2713  0.4228  1.0178
 5348SOL     OW27502   3.368   3.728  14.968  0.2465 -0.6845 -0.5828
 5348SOL    HW127503   3.373   3.807  14.914 -0.7561  1.8434  3.1073
 5348SOL    HW227504   3.274   3.717  14.979  0.3102 -0.9966 -0.3494
 5349SOL     OW27505   4.623   0.210  17.382 -0.7107  0.4063  0.4417
 5349SOL    HW127506   4.682   0.135  17.373  0.9122  1.6559  0.5286
 5349SOL    HW227507   4.605   0.226  17.290  1.0042  1.4241  0.2730
 5350SOL     OW27508   1.986   2.282   8.896  0.0578 -0.2119 -0.2126
 5350SOL    HW127509   2.010   2.213   8.957 -1.7114  0.0176  0.7526
 5350SOL    HW227510   2.073   2.315   8.876  0.0446  0.4427  0.7432
 5351SOL     OW27511   4.691   1.941  10.536  0.4093  0.1301 -0.5688
 5351SOL    HW127512   4.699   1.985  10.451  0.2703 -0.3733 -0.8421
 5351SOL    HW227513   4.636   2.005  10.581 -0.8061  1.8398 -4.4776
 5352SOL     OW27514   1.506   3.624   0.656 -0.6397  0.2669  0.3657
 5352SOL    HW127515   1.411   3.633   0.663 -0.6428  1.0689 -0.7044
 5352SOL    HW227516   1.514   3.528   0.656  0.5061  0.3600 -0.7806
 5353SOL     OW27517   1.800   0.436   8.993 -0.1148  0.0199 -0.0142
 5353SOL    HW127518   1.853   0.472   9.065 -0.1640  0.9290 -0.4298
 5353SOL    HW227519   1.723   0.398   9.034  1.6573 -2.3736  1.1054
 5354SOL     OW27520   0.048   1.974   7.149  0.1134 -0.1037  0.5004
 5354SOL    HW127521   0.109   1.901   7.137 -0.9220 -0.4695 -2.4349
 5354SOL    HW227522   4.701   1.914   7.168 -1.0860  1.0868 -0.3736
 5355SOL     OW27523   0.714   2.252   6.307  0.1276  0.2855  0.1708
 5355SOL    HW127524   0.625   2.273   6.336 -0.4602  1.8358 -2.7604
 5355SOL    HW227525   0.721   2.157   6.310 -0.7459  0.2182 -0.1023
 5356SOL     OW27526   4.665   2.475   7.195 -0.3205 -0.0032  0.4680
 5356SOL    HW127527   4.706   2.530   7.129  1.7784 -2.1042  0.0097
 5356SOL    HW227528   0.012   2.414   7.211  0.4657  2.0455  4.7848
 5357SOL     OW27529   3.063   3.176   7.012  0.4032  0.1203 -0.1776
 5357SOL    HW127530   2.984   3.156   6.962 -0.8337  1.8090  1.0803
 5357SOL    HW227531   3.069   3.101   7.071 -0.8311  1.2462  1.3572
 5358SOL     OW27532   2.088   4.119   4.062  0.0144  0.2831  0.1519
 5358SOL    HW127533   2.102   4.034   4.105  0.9920 -0.6766 -2.0653
 5358SOL    HW227534   2.121   4.182   4.126  0.3200  1.9680 -1.6859
 5359SOL     OW27535   3.345   4.613  12.075  0.4410  1.1678  0.7253
 5359SOL    HW127536   3.253   4.595  12.095  0.8632 -0.1030  1.5611
 5359SOL    HW227537   3.388   4.610  12.161  1.2980  0.2501  0.2570
 5360SOL     OW27538   3.756   2.212  10.864  0.3404 -0.0087 -0.4910
 5360SOL    HW127539   3.701   2.258  10.800 -2.4137 -1.8595  0.5127
 5360SOL    HW227540   3.800   2.143  10.815  0.1056 -1.4397  1.3280
 5361SOL     OW27541   4.567   3.032  13.889  0.1033  0.0506 -0.3159
 5361SOL    HW127542   4.652   3.077  13.887 -0.9095  1.8566 -1.7982
 5361SOL    HW227543   4.600   2.956  13.938  0.7918  0.3568 -0.2981
 5362SOL     OW27544   0.619   3.727   6.296  0.7078  0.2031 -0.1205
 5362SOL    HW127545   0.647   3.814   6.268 -1.7789  1.2103  0.5475
 5362SOL    HW227546   0.664   3.678   6.228 -0.5041 -2.5018  0.9922
 5363SOL     OW27547   3.787   0.987   4.642 -0.1876 -0.3848 -0.0931
 5363SOL    HW127548   3.724   0.951   4.580 -1.1710  1.0345  0.0814
 5363SOL    HW227549   3.823   1.060   4.592 -0.0566 -0.9125 -0.7640
 5364SOL     OW27550   3.839   4.075   5.006  0.2384 -0.2842  0.1780
 5364SOL    HW127551   3.808   4.059   4.917 -2.8823  0.8989  1.0439
 5364SOL    HW227552   3.893   4.153   4.991 -0.3963 -0.1045 -1.1542
 5365SOL     OW27553   1.256   0.626   1.624  0.1179 -0.0270  0.7864
 5365SOL    HW127554   1.175   0.641   1.575  0.2499 -4.9293 -0.9044
 5365SOL    HW227555   1.235   0.544   1.668 -1.2642 -0.0356  0.0940
 5366SOL     OW27556   0.630   2.662  14.050  0.0170  0.3698 -0.3779
 5366SOL    HW127557   0.716   2.699  14.026 -0.8013  2.3265 -0.3113
 5366SOL    HW227558   0.608   2.606  13.976  2.7020  0.5922 -1.3704
 5367SOL     OW27559   4.244   3.472   3.313  0.4594  0.4382  0.4332
 5367SOL    HW127560   4.214   3.474   3.222  0.6595 -1.1008  0.3458
 5367SOL    HW227561   4.334   3.505   3.304  0.9567 -0.8504  0.7505
 5368SOL     OW27562   0.036   4.277  14.120 -0.1364 -0.2365  0.0125
 5368SOL    HW127563   4.713   4.238  14.047 -1.4593 -1.6607  1.6331
 5368SOL    HW227564   0.107   4.319  14.072 -0.6717  0.9397  0.2505
 5369SOL     OW27565   3.653   2.209  14.941 -0.2291 -0.2438  0.2344
 5369SOL    HW127566   3.642   2.258  15.023  0.4534 -0.6137  0.5432
 5369SOL    HW227567   3.729   2.158  14.969 -0.1667  0.1756  0.8283
 5370SOL     OW27568   2.059   3.465   5.056 -0.4259  0.4210 -0.9465
 5370SOL    HW127569   2.050   3.560   5.056  0.6896  0.5203  0.7436
 5370SOL    HW227570   1.983   3.441   5.003 -0.0787 -2.5522 -0.1042
 5371SOL     OW27571   4.718   2.285  11.792  0.0237 -0.1019  0.6113
 5371SOL    HW127572   4.699   2.264  11.884  0.0227  2.2430  1.1595
 5371SOL    HW227573   4.722   2.381  11.797  1.0308 -0.1830  1.5000
 5372SOL     OW27574   4.447   2.452   4.581 -0.2919  0.4462  0.4976
 5372SOL    HW127575   4.458   2.360   4.556  2.0519  0.1616  2.6337
 5372SOL    HW227576   4.528   2.482   4.540 -0.0292  0.0799  0.7548
 5373SOL     OW27577   4.228   1.656   3.712 -0.6289 -0.3471  0.7184
 5373SOL    HW127578   4.172   1.628   3.784  0.1002 -0.9714  1.0429
 5373SOL    HW227579   4.253   1.579   3.660 -0.2952 -0.7396  1.4662
 5374SOL     OW27580   0.219   2.567   9.734 -0.6263  0.5623  0.0143
 5374SOL    HW127581   0.140   2.518   9.711  1.1147 -1.7106 -1.1420
 5374SOL    HW227582   0.281   2.498   9.710 -1.4077  0.0876 -0.6525
 5375SOL     OW27583   1.645   1.203  11.347 -0.5903 -0.5638 -0.3371
 5375SOL    HW127584   1.675   1.276  11.401 -0.7617 -1.7612  1.3656
 5375SOL    HW227585   1.609   1.145  11.414 -0.5112 -2.9173 -2.3191
 5376SOL     OW27586   4.679   1.980   9.175  0.1346  0.2790  0.1447
 5376SOL    HW127587   4.721   2.037   9.110 -0.0491  0.4572  0.1830
 5376SOL    HW227588   4.630   2.046   9.223 -0.8720  1.9851 -3.2277
 5377SOL     OW27589   4.464   1.625  15.260 -0.4626  0.0590 -0.3153
 5377SOL    HW127590   4.388   1.682  15.270  0.1832  0.9538 -0.5260
 5377SOL    HW227591   4.526   1.676  15.313 -0.2969  1.0146 -1.4326
 5378SOL     OW27592   0.778   2.605   1.737  0.8373 -0.0584 -0.0700
 5378SOL    HW127593   0.809   2.532   1.790 -0.0280  0.7805  1.6182
 5378SOL    HW227594   0.752   2.675   1.797  0.1665 -1.4390  1.2641
 5379SOL     OW27595   1.984   0.346  17.699 -0.9228  0.0579  0.2702
 5379SOL    HW127596   1.939   0.347   0.079 -2.0416 -1.9250 -0.3030
 5379SOL    HW227597   2.051   0.278   0.005  0.2476  0.6670 -3.4299
 5380SOL     OW27598   2.556   1.642   5.839 -0.2583 -0.1776  0.7464
 5380SOL    HW127599   2.487   1.707   5.827  1.1755  1.0600 -0.8488
 5380SOL    HW227600   2.639   1.688   5.850 -0.2214  0.2979 -1.4902
 5381SOL     OW27601   2.650   3.115   9.179 -0.2060 -0.2178  0.3289
 5381SOL    HW127602   2.737   3.090   9.211 -0.4625 -1.9364 -0.2989
 5381SOL    HW227603   2.626   3.043   9.120 -1.4932 -0.2141  0.8511
 5382SOL     OW27604   4.724   4.693  15.930 -0.2152 -0.4421 -0.0953
 5382SOL    HW127605   4.629   4.697  15.938 -0.2515 -1.2935 -0.1805
 5382SOL    HW227606   0.035   0.014  16.006  1.2218 -3.6299  1.1793
 5383SOL     OW27607   0.408   2.413   9.633  0.3294  0.1134  0.1184
 5383SOL    HW127608   0.491   2.448   9.666  1.5514 -1.2812 -1.4538
 5383SOL    HW227609   0.430   2.323   9.659 -0.6415 -0.5657 -1.3845
 5384SOL     OW27610   1.375   0.487   9.848  0.1084  0.0056  0.4432
 5384SOL    HW127611   1.366   0.398   9.815 -2.0116 -0.7567  3.0915
 5384SOL    HW227612   1.291   0.500   9.893 -0.4982  0.5084 -0.8295
 5385SOL     OW27613   4.637   1.115   3.426 -0.0193  0.2605 -0.4840
 5385SOL    HW127614   4.692   1.051   3.470 -0.9885  1.5916  2.6633
 5385SOL    HW227615   4.625   1.076   3.339  0.5325  0.9036 -0.8525
 5386SOL     OW27616   1.641   2.603  17.223 -0.7751  0.2866  0.4024
 5386SOL    HW127617   1.568   2.591  17.163  0.3898 -1.9794 -0.5700
 5386SOL    HW227618   1.600   2.622  17.307 -1.0129  0.5387  0.2291
 5387SOL     OW27619   3.485   4.582  11.494 -0.6918  0.4835  0.7188
 5387SOL    HW127620   3.476   4.544  11.581 -2.8701 -1.3023 -0.2805
 5387SOL    HW227621   3.412   4.541  11.448 -2.8041  3.2090  1.6792
 5388SOL     OW27622   1.180   0.093   7.993  0.2761 -0.2616 -0.5075
 5388SOL    HW127623   1.139   0.173   7.957 -1.2191 -0.4569  0.7612
 5388SOL    HW227624   1.182   0.118   8.085  0.2169 -0.7536 -0.3736
 5389SOL     OW27625   2.782   0.361   7.373 -0.0039 -0.2193  0.3410
 5389SOL    HW127626   2.731   0.312   7.439 -1.3245  1.1912  0.3668
 5389SOL    HW227627   2.811   0.426   7.437 -0.6156  0.4858 -0.1036
 5390SOL     OW27628   0.356   3.428   4.048 -0.2849  0.0052  0.5040
 5390SOL    HW127629   0.412   3.503   4.026 -2.1628  0.6085 -2.2146
 5390SOL    HW227630   0.278   3.462   4.004 -0.7769 -0.9658  0.6302
 5391SOL     OW27631   2.659   0.237   2.525  0.1810 -0.2786 -0.6168
 5391SOL    HW127632   2.732   0.281   2.481  2.3907 -2.4847  0.8377
 5391SOL    HW227633   2.661   0.148   2.491  0.4097 -0.4777 -0.0849
 5392SOL     OW27634   3.727   2.232   4.534  0.1230 -0.5984 -0.0711
 5392SOL    HW127635   3.651   2.284   4.506  0.2572 -1.0448 -1.2675
 5392SOL    HW227636   3.738   2.171   4.460 -0.3655  0.4383 -0.9985
 5393SOL     OW27637   2.537   1.836  10.363 -0.1038 -0.1589 -0.2372
 5393SOL    HW127638   2.552   1.930  10.376  1.0496 -0.0552 -2.3930
 5393SOL    HW227639   2.618   1.792  10.384 -0.8917 -1.6791 -0.3918
 5394SOL     OW27640   1.291   4.525   4.786 -0.1608  0.8978  0.1240
 5394SOL    HW127641   1.236   4.550   4.860  0.4886 -1.1072  1.2880
 5394SOL    HW227642   1.298   4.609   4.741  0.8974  0.4880 -0.4821
 5395SOL     OW27643   0.734   4.707  15.584  0.0120  0.3407 -0.3815
 5395SOL    HW127644   0.669   4.673  15.522 -1.6289  2.2274  0.3221
 5395SOL    HW227645   0.741   4.643  15.655  0.2115 -1.9149 -2.4383
 5396SOL     OW27646   0.501   2.239   6.050  0.5083 -0.3423  0.1287
 5396SOL    HW127647   0.451   2.161   6.075  2.9425 -1.7641  0.5921
 5396SOL    HW227648   0.535   2.212   5.965 -0.3588 -2.7034  0.5163
 5397SOL     OW27649   2.559   3.568   6.399 -0.3112 -0.5209 -0.2876
 5397SOL    HW127650   2.560   3.533   6.488 -1.1160  0.4558  0.0958
 5397SOL    HW227651   2.646   3.542   6.366  0.6930  2.2651  0.2374
 5398SOL     OW27652   2.164   0.096   5.205 -0.2460  0.5620 -0.1383
 5398SOL    HW127653   2.173   0.147   5.124  1.0023  0.5758  0.0085
 5398SOL    HW227654   2.223   0.021   5.202 -1.0359 -0.0939  1.0073
 5399SOL     OW27655   2.883   2.954   6.889 -0.2448  0.3031 -0.4394
 5399SOL    HW127656   2.853   2.908   6.811  0.5664 -0.8772 -0.0657
 5399SOL    HW227657   2.971   2.916   6.891 -0.4588 -0.2606 -1.4986
 5400SOL     OW27658   0.630   1.293   6.116 -0.1291  0.5387  0.3550
 5400SOL    HW127659   0.619   1.221   6.178  0.0367  0.7357  0.6115
 5400SOL    HW227660   0.683   1.244   6.053  1.5456  0.5429  1.7557
 5401SOL     OW27661   0.759   2.253  11.154  0.1531 -0.0946 -0.8832
 5401SOL    HW127662   0.784   2.345  11.157 -1.2882  0.2398  1.5677
 5401SOL    HW227663   0.671   2.253  11.192  0.4171 -2.0735 -0.2443
 5402SOL     OW27664   0.376   1.368   6.604 -0.2945  0.1330 -0.6672
 5402SOL    HW127665   0.300   1.424   6.620  0.1400  0.3083  0.7754
 5402SOL    HW227666   0.333   1.289   6.640 -0.3094  1.5618  2.4189
 5403SOL     OW27667   4.091   3.443   1.871 -0.1381 -0.2108 -0.2406
 5403SOL    HW127668   4.020   3.507   1.865 -0.5609 -0.5369  1.4830
 5403SOL    HW227669   4.042   3.361   1.878  1.1070 -1.1509 -2.4217
 5404SOL     OW27670   4.535   0.331  11.508 -0.3859  0.4511 -0.5555
 5404SOL    HW127671   4.615   0.364  11.549 -2.3934  3.9813  0.4716
 5404SOL    HW227672   4.561   0.238  11.508  0.7925  0.7647  2.0219
 5405SOL     OW27673   3.105   0.922   3.226 -0.2961 -0.1334 -0.0765
 5405SOL    HW127674   3.055   0.854   3.181 -0.5903  0.2112 -0.2833
 5405SOL    HW227675   3.192   0.890   3.247 -0.0594  0.0879 -0.7025
 5406SOL     OW27676   1.775   0.814   3.613  0.1461 -0.7374 -0.3380
 5406SOL    HW127677   1.854   0.812   3.667  0.4902 -0.0033 -0.8182
 5406SOL    HW227678   1.703   0.805   3.677  1.3638 -1.2197  0.9700
 5407SOL     OW27679   4.368   1.578   2.304  0.3506 -0.1746 -0.4420
 5407SOL    HW127680   4.410   1.638   2.366  0.0640  0.3779 -0.7762
 5407SOL    HW227681   4.435   1.510   2.303  2.5193  1.9564 -1.7429
 5408SOL     OW27682   3.358   4.044  12.739 -0.2225 -0.3787  0.1132
 5408SOL    HW127683   3.332   4.133  12.717 -1.1915 -0.7069 -0.0962
 5408SOL    HW227684   3.449   4.045  12.710  0.4904  2.1174  2.4516
 5409SOL     OW27685   4.238   3.474   8.387 -0.3733  0.1478 -0.4215
 5409SOL    HW127686   4.324   3.483   8.344 -0.5190  1.6036 -0.4068
 5409SOL    HW227687   4.184   3.463   8.309  0.8490  0.5308 -1.3451
 5410SOL     OW27688   2.185   1.756   4.391 -0.6431 -0.0478 -0.1491
 5410SOL    HW127689   2.207   1.689   4.326 -0.3306 -0.0313 -0.0620
 5410SOL    HW227690   2.269   1.801   4.381 -1.1198  0.5538 -1.4546
 5411SOL     OW27691   2.931   4.511   3.409  0.3910  0.6909  0.0454
 5411SOL    HW127692   2.977   4.450   3.351  0.9829  0.9198  0.2796
 5411SOL    HW227693   2.860   4.542   3.352 -0.2283  1.7770  1.4062
 5412SOL     OW27694   2.466   4.410   0.827  0.1685  0.3296  0.1095
 5412SOL    HW127695   2.425   4.328   0.801  3.5432 -0.5039 -2.5919
 5412SOL    HW227696   2.398   4.439   0.888  1.6965  0.7766  1.6158
 5413SOL     OW27697   4.203   2.115   8.757 -0.0373  0.3630  0.1714
 5413SOL    HW127698   4.196   2.023   8.782 -1.5874 -0.3950 -3.1528
 5413SOL    HW227699   4.290   2.137   8.791 -0.7763  2.7130  0.5145
 5414SOL     OW27700   1.906   4.343   5.927 -0.1402 -0.3715 -0.0869
 5414SOL    HW127701   1.827   4.297   5.953 -0.8202  0.7659 -0.1402
 5414SOL    HW227702   1.920   4.302   5.841  0.1332 -2.7607  1.1085
 5415SOL     OW27703   3.676   2.696   5.584  0.0820 -0.1649 -0.2749
 5415SOL    HW127704   3.753   2.744   5.554  0.9612 -1.0369  0.5627
 5415SOL    HW227705   3.708   2.646   5.659  1.1796  0.6128 -0.2196
 5416SOL     OW27706   3.698   4.087   7.260  0.3010 -0.2408  0.1566
 5416SOL    HW127707   3.653   4.026   7.319  0.4468  0.1174  0.6457
 5416SOL    HW227708   3.726   4.026   7.192 -3.5398 -0.1839 -1.4782
 5417SOL     OW27709   2.489   0.736   5.475 -0.1815  0.0754 -0.4431
 5417SOL    HW127710   2.579   0.707   5.489 -0.8238 -2.3445 -1.2772
 5417SOL    HW227711   2.429   0.673   5.516  1.8529 -0.5344  1.5786
 5418SOL     OW27712   0.549   1.134   0.779 -0.2074 -0.7457 -0.0888
 5418SOL    HW127713   0.484   1.130   0.708  0.6209 -2.0950 -0.7573
 5418SOL    HW227714   0.627   1.107   0.731  1.0766  0.4167  1.3369
 5419SOL     OW27715   1.762   1.373  11.545 -0.6549 -0.0996 -0.5797
 5419SOL    HW127716   1.751   1.463  11.575  1.5720 -0.1699  0.4416
 5419SOL    HW227717   1.723   1.335  11.624 -0.5541  0.3065 -0.3370
 5420SOL     OW27718   2.091   0.974   0.524 -0.1899 -0.1407 -0.1648
 5420SOL    HW127719   2.110   0.994   0.616 -2.3622 -2.0448  0.6999
 5420SOL    HW227720   1.996   0.982   0.520 -0.2389 -0.2676  0.6729
 5421SOL     OW27721   0.837   0.702   6.581  0.2325 -0.4388 -0.3316
 5421SOL    HW127722   0.818   0.761   6.508 -2.1094 -2.7091 -1.5163
 5421SOL    HW227723   0.932   0.707   6.592  0.3645 -3.0702 -0.2695
 5422SOL     OW27724   2.168   1.869   6.397  0.3087  0.3288 -0.1533
 5422SOL    HW127725   2.080   1.831   6.403  0.0049  1.0130 -0.2803
 5422SOL    HW227726   2.203   1.823   6.473  2.2210  2.1100  0.0300
 5423SOL     OW27727   3.165   2.263   3.263 -0.2292 -0.3437 -0.6118
 5423SOL    HW127728   3.105   2.327   3.226 -0.8942 -0.7553 -0.2526
 5423SOL    HW227729   3.109   2.193   3.298  0.2333 -0.4632 -0.1013
 5424SOL     OW27730   3.943   1.822   4.523 -0.4282 -0.5794  0.4667
 5424SOL    HW127731   3.894   1.878   4.464 -0.6053 -0.6607  0.5370
 5424SOL    HW227732   3.878   1.760   4.556 -2.2819 -0.0842 -2.2394
 5425SOL     OW27733   3.556   0.710   4.066 -0.1646  0.5311  0.0826
 5425SOL    HW127734   3.505   0.647   4.015  0.9261  2.2079 -3.0550
 5425SOL    HW227735   3.530   0.700   4.158  0.1988  1.0566  0.2416
 5426SOL     OW27736   1.099   1.206  15.785  0.1707 -0.4604  0.4059
 5426SOL    HW127737   1.099   1.248  15.871  1.1369  1.5943 -0.6040
 5426SOL    HW227738   1.019   1.153  15.790  0.0135 -0.0458  2.2123
 5427SOL     OW27739   0.241   2.470   7.001  0.3821 -0.2165 -0.2275
 5427SOL    HW127740   0.226   2.376   6.996  0.1430 -0.1953  0.1022
 5427SOL    HW227741   0.264   2.496   6.911 -0.5950 -2.6793 -1.1856
 5428SOL     OW27742   1.925   1.122   5.779 -0.0635  0.0543  0.3485
 5428SOL    HW127743   1.852   1.112   5.841  0.7762 -0.1700  1.2867
 5428SOL    HW227744   1.979   1.047   5.803  0.5645  1.3677  3.0015
 5429SOL     OW27745   3.361   3.956   1.659 -0.1776  0.0874 -0.2441
 5429SOL    HW127746   3.384   3.981   1.569 -0.7788 -0.6892 -0.6186
 5429SOL    HW227747   3.336   4.043   1.689 -0.9060  0.0356 -0.6959
 5430SOL     OW27748   4.582   3.087  11.007  0.0023 -0.0612 -0.1234
 5430SOL    HW127749   4.547   3.139  10.935 -1.0290 -2.2535 -1.1729
 5430SOL    HW227750   4.585   2.997  10.977 -2.0100 -0.0015 -0.4563
 5431SOL     OW27751   1.415   4.158   2.385  0.3985 -0.1331  0.6543
 5431SOL    HW127752   1.378   4.221   2.324 -0.1654  0.6806  1.8271
 5431SOL    HW227753   1.389   4.207   2.463  0.7116 -0.6069  1.0657
 5432SOL     OW27754   2.616   1.198  13.509 -0.1241 -0.0664 -0.1032
 5432SOL    HW127755   2.556   1.270  13.489 -0.2549 -0.3851 -0.8366
 5432SOL    HW227756   2.585   1.178  13.598  0.7765 -0.5823  0.0952
 5433SOL     OW27757   2.807   3.791  14.200  0.1515 -0.2770 -0.2356
 5433SOL    HW127758   2.832   3.883  14.192 -0.1985 -0.1854 -0.2559
 5433SOL    HW227759   2.893   3.752  14.185  1.1630  1.4177  1.1149
 5434SOL     OW27760   3.891   0.799   7.767  0.5719  0.5438 -0.3171
 5434SOL    HW127761   3.852   0.848   7.839 -1.4739 -0.1621 -0.9416
 5434SOL    HW227762   3.959   0.756   7.819  0.8066  0.0393 -1.0389
 5435SOL     OW27763   1.449   1.849   7.806 -0.1067  0.5222 -0.1962
 5435SOL    HW127764   1.367   1.864   7.759 -0.2804 -0.7000 -0.2864
 5435SOL    HW227765   1.514   1.829   7.739 -1.1778  0.9035 -1.3503
 5436SOL     OW27766   0.782   3.042  16.755 -0.1129 -0.6332  0.2482
 5436SOL    HW127767   0.700   2.993  16.747 -1.3071  1.8359 -2.8698
 5436SOL    HW227768   0.830   2.966  16.788  0.3413  0.4872  2.1119
 5437SOL     OW27769   2.965   3.995   4.458  0.6557 -0.5154  0.4459
 5437SOL    HW127770   2.884   3.964   4.498 -0.3762  0.3153 -0.9847
 5437SOL    HW227771   3.018   4.031   4.529  2.0249 -2.8743  0.6165
 5438SOL     OW27772   0.741   2.631  11.405 -0.2379  0.0420 -0.0680
 5438SOL    HW127773   0.755   2.708  11.460  1.4747 -0.2307 -0.1258
 5438SOL    HW227774   0.748   2.561  11.471  0.5098  0.2246  0.0474
 5439SOL     OW27775   1.473   3.409  15.321  0.3818  0.6240  0.5683
 5439SOL    HW127776   1.498   3.396  15.230 -0.4992  0.2146  0.3771
 5439SOL    HW227777   1.521   3.350  15.379 -0.0851 -0.0852  0.2271
 5440SOL     OW27778   2.201   0.624   9.110  0.3387  0.2627 -0.2044
 5440SOL    HW127779   2.225   0.532   9.120 -1.5413 -0.2428 -0.3274
 5440SOL    HW227780   2.271   0.657   9.053 -0.8766  0.8462 -1.3542
 5441SOL     OW27781   3.913   2.907  16.258 -0.1776 -0.5596 -0.1441
 5441SOL    HW127782   3.846   2.961  16.216 -0.6567 -1.0353  0.0147
 5441SOL    HW227783   3.981   2.967  16.290 -0.0440 -0.3661 -0.7857
 5442SOL     OW27784   1.507   2.599   8.365 -0.3364 -0.5695 -0.3017
 5442SOL    HW127785   1.488   2.593   8.271 -2.2885  1.5683 -0.0437
 5442SOL    HW227786   1.559   2.520   8.380 -1.7649 -2.0753 -3.1950
 5443SOL     OW27787   0.968   0.205  15.678 -0.3000 -0.1660 -0.0121
 5443SOL    HW127788   0.945   0.247  15.761 -2.0163 -0.3741 -0.3890
 5443SOL    HW227789   0.939   0.275  15.619  0.7721 -0.9241 -1.4406
 5444SOL     OW27790   0.832   0.889   5.065 -0.0890  0.0269  0.1881
 5444SOL    HW127791   0.881   0.940   5.128  0.6786 -0.7843  0.2452
 5444SOL    HW227792   0.865   0.930   4.985 -0.8296 -2.2270 -1.2860
 5445SOL     OW27793   2.279   2.420   4.962 -0.1322  0.4000 -0.4732
 5445SOL    HW127794   2.278   2.338   5.011 -1.2959 -0.6677 -2.2756
 5445SOL    HW227795   2.217   2.394   4.893  1.3759 -0.6277 -1.4252
 5446SOL     OW27796   3.822   1.557   4.199  0.2433 -0.2855 -0.3625
 5446SOL    HW127797   3.867   1.632   4.160 -1.2750 -0.1212 -1.8303
 5446SOL    HW227798   3.730   1.567   4.172 -0.3686 -3.5382  0.5251
 5447SOL     OW27799   4.128   0.587  10.243 -0.1320 -0.6946 -0.4805
 5447SOL    HW127800   4.064   0.544  10.187 -1.0532 -0.4365  0.3664
 5447SOL    HW227801   4.174   0.505  10.264  0.7026  0.4175  2.0044
 5448SOL     OW27802   2.558   1.756   6.380 -0.6091 -0.1997 -0.1688
 5448SOL    HW127803   2.594   1.819   6.317  0.6156 -2.2122 -1.4976
 5448SOL    HW227804   2.482   1.725   6.330 -0.6604 -1.7050  0.8447
 5449SOL     OW27805   1.389   1.802  14.739  0.1635 -0.4102 -0.1151
 5449SOL    HW127806   1.304   1.829  14.705 -0.0441 -3.8653 -2.2997
 5449SOL    HW227807   1.440   1.821  14.660 -2.0477 -0.4036 -1.5425
 5450SOL     OW27808   3.344   2.163   0.041 -0.0264  0.1961  0.0445
 5450SOL    HW127809   3.435   2.139   0.061 -0.2076 -0.4942  0.0358
 5450SOL    HW227810   3.340   2.252   0.075  4.2458 -0.0601  1.2331
 5451SOL     OW27811   1.979   2.434  10.599  0.7375 -0.4340  0.0531
 5451SOL    HW127812   2.027   2.510  10.631  0.4780 -0.5022  0.6104
 5451SOL    HW227813   2.050   2.381  10.564  0.9457  0.2585 -0.5919
 5452SOL     OW27814   1.527   0.170   8.226  0.2311  0.4075 -0.6354
 5452SOL    HW127815   1.576   0.144   8.304  1.9320  2.8103 -0.9219
 5452SOL    HW227816   1.600   0.181   8.166  0.7935 -0.0431 -0.0388
 5453SOL     OW27817   0.536   0.663   3.382 -0.2169 -0.3824  0.1954
 5453SOL    HW127818   0.580   0.735   3.428  1.7193 -1.3371 -0.1487
 5453SOL    HW227819   0.614   0.615   3.355  0.5074  0.9707 -0.1343
 5454SOL     OW27820   3.554   4.103   3.611  0.1988 -0.2347  0.4269
 5454SOL    HW127821   3.460   4.095   3.628  0.2531 -3.5161 -0.9110
 5454SOL    HW227822   3.591   4.053   3.684 -0.7099 -1.0151  0.3463
 5455SOL     OW27823   3.256   0.227   3.119 -0.1974  0.2522  0.3541
 5455SOL    HW127824   3.326   0.168   3.148 -0.3429  0.3014  0.8092
 5455SOL    HW227825   3.180   0.169   3.124  0.7404 -1.1460 -1.4040
 5456SOL     OW27826   2.901   0.693   5.040 -0.0262 -0.7293 -0.3036
 5456SOL    HW127827   2.874   0.628   4.975  2.6687 -2.3122  0.1458
 5456SOL    HW227828   2.824   0.689   5.097 -0.2172 -1.2189 -0.5994
 5457SOL     OW27829   0.263   0.846  14.409  0.6849 -0.4465 -0.7307
 5457SOL    HW127830   0.226   0.915  14.465 -2.0838 -0.7617 -2.2056
 5457SOL    HW227831   0.247   0.762  14.451  0.3089  0.0618  0.1425
 5458SOL     OW27832   4.450   1.103   0.375 -0.1672  0.0261 -0.2549
 5458SOL    HW127833   4.415   1.191   0.383  0.8038  0.4233 -0.3725
 5458SOL    HW227834   4.409   1.073   0.456 -0.5171 -0.1464 -0.4940
 5459SOL     OW27835   4.177   4.561   7.924  0.0055 -0.2969  0.5109
 5459SOL    HW127836   4.100   4.506   7.911  0.0417 -0.1899 -0.1683
 5459SOL    HW227837   4.169   4.610   7.842  0.1413 -2.2552 -0.6779
 5460SOL     OW27838   1.045   4.551   3.054 -0.2985  0.1516 -0.1230
 5460SOL    HW127839   1.119   4.522   3.107 -1.4239 -0.7042  0.9698
 5460SOL    HW227840   1.073   4.640   3.032  0.5121 -0.0495  0.1247
 5461SOL     OW27841   0.744   2.297   9.564  0.6150  0.4670  0.1701
 5461SOL    HW127842   0.684   2.224   9.580  0.5362  0.0493 -2.1669
 5461SOL    HW227843   0.827   2.252   9.548  0.4702 -0.2538  1.4549
 5462SOL     OW27844   2.473   0.117   1.167 -0.1033  0.3877  0.3445
 5462SOL    HW127845   2.482   0.030   1.126 -1.3230  0.7652 -0.7453
 5462SOL    HW227846   2.383   0.122   1.201 -0.5187  1.0368 -0.8617
 5463SOL     OW27847   1.599   0.341   9.145  0.2317  0.3861  0.3203
 5463SOL    HW127848   1.584   0.388   9.227 -0.3284  0.2510  0.2975
 5463SOL    HW227849   1.510   0.313   9.121  1.1257 -1.0214 -1.4234
 5464SOL     OW27850   0.901   1.813   5.542  0.1494 -0.2993 -0.2004
 5464SOL    HW127851   0.906   1.773   5.629 -1.1871  2.2541  1.0652
 5464SOL    HW227852   0.948   1.740   5.504  0.3842 -0.3351  0.1623
 5465SOL     OW27853   0.395   3.475   7.302  0.1541  0.4035 -0.1561
 5465SOL    HW127854   0.309   3.436   7.315  0.1640  0.3974 -0.1066
 5465SOL    HW227855   0.375   3.569   7.303 -0.4067  0.2930 -1.1309
 5466SOL     OW27856   3.302   0.308   4.156  0.0192 -0.2421 -0.6463
 5466SOL    HW127857   3.369   0.360   4.111 -0.3260  0.5582 -0.2328
 5466SOL    HW227858   3.314   0.217   4.130 -3.2542 -0.2866 -2.0210
 5467SOL     OW27859   1.355   4.422  14.508 -0.6436 -0.1737 -0.0719
 5467SOL    HW127860   1.439   4.418  14.462  0.7556 -1.1729  2.5559
 5467SOL    HW227861   1.377   4.447  14.598 -3.2682  1.4581  0.1172
 5468SOL     OW27862   3.231   1.838   8.637 -0.8647 -0.3728 -0.2053
 5468SOL    HW127863   3.186   1.753   8.636 -0.4069 -0.6059 -0.9666
 5468SOL    HW227864   3.278   1.827   8.555 -1.2578  0.8934 -0.5903
 5469SOL     OW27865   0.170   3.219  14.728 -0.4657  0.2378  0.0387
 5469SOL    HW127866   0.191   3.178  14.812  2.1869  1.8793  0.1700
 5469SOL    HW227867   0.100   3.280  14.751 -1.0857 -0.1601 -0.8016
 5470SOL     OW27868   2.303   4.496   4.229  0.2978 -0.1220  0.8150
 5470SOL    HW127869   2.391   4.533   4.234  0.3884 -0.3576  0.9933
 5470SOL    HW227870   2.254   4.570   4.194  1.3767 -0.1888 -0.8530
 5471SOL     OW27871   0.560   3.399   0.097 -0.2792  0.7638 -0.4985
 5471SOL    HW127872   0.541   3.337   0.167 -1.4047  0.1883 -1.3109
 5471SOL    HW227873   0.637   3.445   0.129 -0.5271  0.4774  0.4936
 5472SOL     OW27874   0.677   0.131  11.434 -0.0078 -0.2589 -0.0494
 5472SOL    HW127875   0.648   0.222  11.440 -1.1229 -0.7808  2.6792
 5472SOL    HW227876   0.678   0.115  11.340  0.7609 -1.6606  0.1978
 5473SOL     OW27877   1.556   4.516   5.649  0.1949 -0.2831 -0.4064
 5473SOL    HW127878   1.645   4.496   5.678 -0.5442  1.1975  2.8359
 5473SOL    HW227879   1.509   4.441   5.685  0.6044 -0.3345  0.0105
 5474SOL     OW27880   4.549   0.886  16.273 -0.3110 -0.1702 -0.2928
 5474SOL    HW127881   4.572   0.965  16.224  0.8142  0.9158  1.9979
 5474SOL    HW227882   4.574   0.811  16.220 -1.9259 -2.1484  1.7326
 5475SOL     OW27883   4.664   0.724   9.920 -0.6488  0.0640  0.0760
 5475SOL    HW127884   4.658   0.806   9.871 -0.5714  1.2257  1.9976
 5475SOL    HW227885   4.587   0.670   9.904 -0.5643 -0.5045  1.5589
 5476SOL     OW27886   3.622   3.853  16.361  0.2280 -0.1711  0.1971
 5476SOL    HW127887   3.699   3.888  16.406  0.0850  0.0361  0.2832
 5476SOL    HW227888   3.554   3.879  16.424  0.9427 -0.0582  0.9266
 5477SOL     OW27889   2.753   1.663   6.960  0.6112  0.0303 -0.2579
 5477SOL    HW127890   2.697   1.632   7.031  1.5874 -0.5565  0.2508
 5477SOL    HW227891   2.820   1.594   6.965 -0.0982 -0.5955  0.6449
 5478SOL     OW27892   4.293   1.282   5.566  0.6039 -0.6517  0.3199
 5478SOL    HW127893   4.284   1.370   5.528  1.0832 -1.9134 -2.7102
 5478SOL    HW227894   4.235   1.283   5.642  1.5629 -0.5747  1.0554
 5479SOL     OW27895   2.318   3.096   7.396  0.5154 -0.1035  0.1342
 5479SOL    HW127896   2.332   3.035   7.469 -3.4611 -0.0784  0.9062
 5479SOL    HW227897   2.298   3.029   7.330 -1.9042  1.4968 -0.7355
 5480SOL     OW27898   1.232   2.105  16.854  0.1197 -0.0947 -0.0306
 5480SOL    HW127899   1.316   2.078  16.891 -0.8970  0.8750  2.9449
 5480SOL    HW227900   1.173   2.074  16.922  0.7151  0.4297  0.7257
 5481SOL     OW27901   3.105   3.763   7.001  0.3441  0.1510  0.1476
 5481SOL    HW127902   3.084   3.784   7.092  1.5540 -0.8581  0.6570
 5481SOL    HW227903   3.135   3.675   7.023  0.6039 -0.1459 -1.3975
 5482SOL     OW27904   1.164   4.187   7.848  0.2719 -0.2901  0.0307
 5482SOL    HW127905   1.208   4.228   7.773 -0.1671  1.0112  0.4909
 5482SOL    HW227906   1.196   4.237   7.922  0.2697 -0.7057  0.3111
 5483SOL     OW27907   3.492   0.456   6.158  0.0016 -0.0703  0.0789
 5483SOL    HW127908   3.443   0.538   6.153  1.1148  0.7179  1.7723
 5483SOL    HW227909   3.417   0.409   6.195  1.8811 -2.4314  0.8760
 5484SOL     OW27910   0.044   0.767  16.365  0.3462  0.6687  0.0021
 5484SOL    HW127911   4.688   0.817  16.360  0.3330  0.6688  0.2013
 5484SOL    HW227912   0.074   0.794  16.452  3.1474 -2.0790 -0.1315
 5485SOL     OW27913   4.342   1.764  10.950 -0.0502 -0.2698  0.2373
 5485SOL    HW127914   4.404   1.836  10.937  0.4423 -0.6856  0.2589
 5485SOL    HW227915   4.290   1.775  10.871 -0.5124 -0.6363  0.4934
 5486SOL     OW27916   1.667   0.771   3.379 -0.3297  1.2509 -0.2941
 5486SOL    HW127917   1.647   0.677   3.388  1.0398  0.9488 -0.4728
 5486SOL    HW227918   1.702   0.794   3.465 -1.7484  1.6723  0.1692
 5487SOL     OW27919   2.258   0.167  15.029 -0.4113 -0.3536 -0.0593
 5487SOL    HW127920   2.234   0.172  14.936 -2.4570  0.3791  0.5141
 5487SOL    HW227921   2.184   0.220  15.056 -0.5018 -0.1817 -0.6391
 5488SOL     OW27922   1.763   4.695   3.236 -0.0245  0.6738 -0.6112
 5488SOL    HW127923   1.691   4.667   3.180  0.3017 -0.7353 -0.3286
 5488SOL    HW227924   1.790   4.611   3.274  0.7629  0.0954 -2.4520
 5489SOL     OW27925   1.483   0.946   3.255  0.2263  0.1078 -0.1896
 5489SOL    HW127926   1.563   0.900   3.280  0.5679  0.4433 -0.6664
 5489SOL    HW227927   1.527   1.010   3.199 -0.3510 -0.0398 -0.8056
 5490SOL     OW27928   3.289   1.683  17.494 -0.2515 -0.4022  0.8655
 5490SOL    HW127929   3.224   1.625  17.456  2.6290 -3.4378  0.5711
 5490SOL    HW227930   3.247   1.768  17.484  0.2909 -0.5436 -2.6991
 5491SOL     OW27931   2.899   3.883  16.514 -0.1060 -0.0891 -0.2057
 5491SOL    HW127932   2.809   3.916  16.520  0.1977  0.9772 -1.5364
 5491SOL    HW227933   2.945   3.921  16.589  1.2974  0.5724 -1.4030
 5492SOL     OW27934   1.758   2.718   5.918 -0.1269  0.2249 -0.2764
 5492SOL    HW127935   1.731   2.651   5.855  0.5153 -0.0838 -0.2136
 5492SOL    HW227936   1.707   2.699   5.996  1.2524 -0.6517  0.3883
 5493SOL     OW27937   0.145   3.569   9.174  0.2530  0.2865 -0.0483
 5493SOL    HW127938   0.057   3.534   9.183  0.3504  0.3623  1.1002
 5493SOL    HW227939   0.181   3.528   9.095  2.7693  1.8998  0.2579
 5494SOL     OW27940   4.512   1.403  15.080  0.4305  0.5692 -0.2585
 5494SOL    HW127941   4.431   1.373  15.039  0.1297  2.8391 -1.3103
 5494SOL    HW227942   4.474   1.473  15.134 -3.2653  0.1781 -2.3881
 5495SOL     OW27943   2.935   3.707   8.021  0.6369 -0.1095  0.1289
 5495SOL    HW127944   2.942   3.701   8.116 -2.6589  0.4832  0.3971
 5495SOL    HW227945   3.007   3.767   8.001  2.6362 -1.7613  2.3733
 5496SOL     OW27946   3.381   1.208   7.695  0.2797 -0.1049  0.2349
 5496SOL    HW127947   3.439   1.284   7.688  0.1675  0.0271  0.7696
 5496SOL    HW227948   3.441   1.139   7.722  0.0237 -0.1582  0.6665
 5497SOL     OW27949   4.293   4.666   7.522 -0.0520  1.0326 -0.0684
 5497SOL    HW127950   4.375   4.621   7.541 -0.5889  0.3346  0.5798
 5497SOL    HW227951   4.308   0.026   7.561  1.0219  0.5232  0.6161
 5498SOL     OW27952   1.332   1.723   1.750 -0.1424  0.4597  0.3526
 5498SOL    HW127953   1.290   1.800   1.711  1.2171  0.2329 -1.5040
 5498SOL    HW227954   1.308   1.752   1.839  1.8093  0.7392  0.7781
 5499SOL     OW27955   0.403   2.090   4.900 -0.0349  0.2323 -0.8319
 5499SOL    HW127956   0.314   2.068   4.873  0.6002  0.1751 -2.8599
 5499SOL    HW227957   0.399   2.151   4.974 -1.6475  0.3010 -0.9565
 5500SOL     OW27958   3.169   4.249  16.443  0.4473 -0.0041 -0.3208
 5500SOL    HW127959   3.186   4.233  16.536 -1.3524  0.4939  0.0952
 5500SOL    HW227960   3.178   4.156  16.421 -0.9025  0.2455 -1.9401
 5501SOL     OW27961   1.587   0.161   7.087  0.0691 -0.1760 -0.0687
 5501SOL    HW127962   1.601   0.247   7.047  0.9866  0.1871  1.0161
 5501SOL    HW227963   1.504   0.132   7.051 -0.0149 -1.7232  1.3948
 5502SOL     OW27964   2.018   1.494  11.729  0.1729 -0.1313 -0.2080
 5502SOL    HW127965   2.007   1.410  11.774  1.3108 -0.3796 -0.3912
 5502SOL    HW227966   1.930   1.531  11.742 -0.8194 -2.9202  1.2087
 5503SOL     OW27967   3.446   0.619  15.541 -0.0347 -0.2683  0.6804
 5503SOL    HW127968   3.500   0.664  15.476 -0.0090  0.2312  1.0423
 5503SOL    HW227969   3.361   0.644  15.504  0.9737 -1.3427 -2.3802
 5504SOL     OW27970   1.744   4.309   7.171  0.4174  0.5691 -0.3440
 5504SOL    HW127971   1.787   4.246   7.114 -2.4322 -2.2733  0.6030
 5504SOL    HW227972   1.673   4.347   7.120  0.3334 -0.6408 -1.1177
 5505SOL     OW27973   3.463   1.402   7.377  0.1906  0.7989  0.1725
 5505SOL    HW127974   3.510   1.484   7.362  1.2149  0.8479  3.4981
 5505SOL    HW227975   3.493   1.390   7.468  0.3371  0.8577  0.1322
 5506SOL     OW27976   3.102   0.895   7.013  0.0943  0.0665  0.2916
 5506SOL    HW127977   3.054   0.978   7.008 -2.9316 -1.8329 -2.4059
 5506SOL    HW227978   3.128   0.889   7.105 -0.5935  1.5834  0.5857
 5507SOL     OW27979   0.231   3.073   2.939  0.1801  0.1444 -0.3061
 5507SOL    HW127980   0.283   3.134   2.886  0.5351 -0.8390 -1.0853
 5507SOL    HW227981   0.193   3.131   3.005 -1.5414  1.1328 -2.1714
 5508SOL     OW27982   3.732   4.552   3.013 -0.4784  0.1060 -0.0475
 5508SOL    HW127983   3.652   4.504   2.992 -0.4290 -0.2061  0.4713
 5508SOL    HW227984   3.714   4.643   2.989  3.4567  0.7314 -0.6277
 5509SOL     OW27985   0.264   3.928   3.002 -0.7135 -0.2893 -0.5959
 5509SOL    HW127986   0.200   3.987   3.042  0.8710  0.6484  0.5966
 5509SOL    HW227987   0.260   3.852   3.060  2.5059  0.5581  0.7750
 5510SOL     OW27988   2.143   4.688   2.177  0.3445 -0.2093 -0.1725
 5510SOL    HW127989   2.193   4.691   2.096  2.0601  0.6300  0.9248
 5510SOL    HW227990   2.059   4.647   2.156  0.8947 -1.1453 -0.5459
 5511SOL     OW27991   4.388   4.050  16.542 -0.6457 -0.0924 -1.1164
 5511SOL    HW127992   4.348   3.978  16.592  0.8015  1.3809  2.1194
 5511SOL    HW227993   4.362   4.030  16.452 -0.8183  2.0481 -1.5396
 5512SOL     OW27994   4.027   1.022   8.806  0.2785 -0.1147 -0.2690
 5512SOL    HW127995   4.004   0.987   8.720 -1.6278  0.6308 -0.0631
 5512SOL    HW227996   4.107   1.071   8.787 -1.2249  1.7286 -1.7620
 5513SOL     OW27997   1.202   4.394  10.336  0.1491  0.5734  0.2125
 5513SOL    HW127998   1.286   4.436  10.351  1.3123 -1.4629 -0.6525
 5513SOL    HW227999   1.218   4.371  10.245 -0.2180  1.3855 -0.0574
 5514SOL     OW28000   0.422   4.467  10.878 -0.1908 -0.1982 -0.0506
 5514SOL    HW128001   0.508   4.489  10.913 -1.8156  1.4540  2.8459
 5514SOL    HW228002   0.365   4.488  10.952 -0.3030  1.6912 -0.6868
 5515SOL     OW28003   4.293   3.696   2.324  0.4523 -0.3895 -0.1400
 5515SOL    HW128004   4.302   3.640   2.247 -0.1493 -0.6295 -0.0350
 5515SOL    HW228005   4.280   3.779   2.280  2.4260  0.1701  0.3173
 5516SOL     OW28006   2.206   4.345   2.124  0.6011 -0.0117  0.3657
 5516SOL    HW128007   2.236   4.309   2.208 -0.1848  0.7076  0.9510
 5516SOL    HW228008   2.281   4.402   2.109  0.4120  0.0167 -0.4562
 5517SOL     OW28009   1.856   3.737   3.532  0.9370  0.1555  0.2664
 5517SOL    HW128010   1.880   3.700   3.447 -1.1755  0.3696 -0.4342
 5517SOL    HW228011   1.920   3.808   3.536 -1.7592  2.4562  2.8142
 5518SOL     OW28012   2.639   1.888   6.145 -0.4679  0.9814 -0.1653
 5518SOL    HW128013   2.562   1.939   6.121 -1.9570 -0.7013  0.9702
 5518SOL    HW228014   2.683   1.863   6.064 -1.4995  1.9224 -1.0088
 5519SOL     OW28015   0.452   4.534   0.339  0.2835 -0.2373  0.3432
 5519SOL    HW128016   0.542   4.554   0.364  0.5431  0.3602 -1.0969
 5519SOL    HW228017   0.401   4.598   0.388 -0.5337 -1.0730  0.5950
 5520SOL     OW28018   4.393   1.071   2.222  0.4770 -0.1215  0.2014
 5520SOL    HW128019   4.320   1.019   2.187  0.1079  0.0237  0.7391
 5520SOL    HW228020   4.391   1.151   2.169 -2.4127 -0.1434  0.2505
 5521SOL     OW28021   0.187   0.247   0.242  0.0942  0.0721  0.3191
 5521SOL    HW128022   0.221   0.312   0.180 -1.2128  0.1611 -0.3152
 5521SOL    HW228023   0.170   0.175   0.182  1.0612  0.0769  0.0392
 5522SOL     OW28024   4.491   3.676  15.497  0.1217 -0.1528 -0.9005
 5522SOL    HW128025   4.518   3.759  15.536 -0.5578  0.5669 -1.9476
 5522SOL    HW228026   4.423   3.646  15.556  0.1037 -1.2725 -1.4867
 5523SOL     OW28027   3.965   0.222   5.382 -0.2905  0.0938  0.8133
 5523SOL    HW128028   3.873   0.211   5.359 -0.1852 -0.6914  0.7695
 5523SOL    HW228029   4.007   0.235   5.297  1.0049 -0.1547  1.4178
 5524SOL     OW28030   4.371   3.449   1.807  0.3642  0.1768 -0.7886
 5524SOL    HW128031   4.350   3.516   1.742 -2.1692 -0.0613 -0.2421
 5524SOL    HW228032   4.280   3.426   1.830  1.6170 -2.7507  1.2610
 5525SOL     OW28033   1.849   1.160   6.855  0.0844 -0.3637 -0.3238
 5525SOL    HW128034   1.781   1.093   6.866 -1.5947  1.2303 -1.0366
 5525SOL    HW228035   1.930   1.108   6.849 -0.2116 -0.7647 -0.8182
 5526SOL     OW28036   2.147   3.244  10.929  0.2444 -0.4037 -0.1704
 5526SOL    HW128037   2.096   3.261  11.008  2.0533  1.0147  0.7095
 5526SOL    HW228038   2.175   3.154  10.949 -0.3164 -0.3710  0.7662
 5527SOL     OW28039   3.004   0.454   2.700  1.0373 -0.0089 -0.1015
 5527SOL    HW128040   2.939   0.523   2.705  0.1960 -0.9124  1.5624
 5527SOL    HW228041   2.980   0.395   2.772  1.6105 -1.9437 -1.5113
 5528SOL     OW28042   4.614   0.066   0.490  0.0116  0.1811  0.0151
 5528SOL    HW128043   4.627   0.122   0.414 -0.7089  2.4355  1.5781
 5528SOL    HW228044   4.527   0.087   0.526  0.2820 -0.1893  0.8779
 5529SOL     OW28045   3.255   1.674   5.859 -0.1011 -0.2814  0.1465
 5529SOL    HW128046   3.325   1.684   5.924  0.3605 -0.8385 -0.2586
 5529SOL    HW228047   3.177   1.673   5.915  0.2194 -0.3745  0.5946
 5530SOL     OW28048   4.147   0.932   0.093  0.1374  0.1051  0.6940
 5530SOL    HW128049   4.238   0.909   0.111  0.5697 -0.0289 -1.6973
 5530SOL    HW228050   4.107   0.848   0.073 -0.5103  0.1049  1.9801
 5531SOL     OW28051   1.434   2.982   9.001  0.2664 -0.3042  0.7386
 5531SOL    HW128052   1.409   2.890   9.009 -2.6272  0.1461 -2.6917
 5531SOL    HW228053   1.392   3.012   9.081 -0.3798 -0.2572  0.3841
 5532SOL     OW28054   0.999   0.421   4.825 -0.3864  0.5954  0.2225
 5532SOL    HW128055   1.005   0.484   4.897  2.2657 -1.2394  1.5954
 5532SOL    HW228056   0.967   0.473   4.751  0.1735 -1.9599 -1.8153
 5533SOL     OW28057   2.938   2.814   8.904  0.6119  0.1748  0.4799
 5533SOL    HW128058   2.858   2.819   8.956  1.3033  1.8781  1.3854
 5533SOL    HW228059   2.931   2.720   8.889 -0.6383  0.2349  0.6805
 5534SOL     OW28060   2.418   4.625   1.580 -0.4289 -0.2503  0.5364
 5534SOL    HW128061   2.422   4.717   1.556  1.5186 -0.3857  0.3209
 5534SOL    HW228062   2.455   4.619   1.668  1.7692  0.7026 -0.3226
 5535SOL     OW28063   4.269   2.261  13.522  0.1889  0.1133 -0.3535
 5535SOL    HW128064   4.307   2.174  13.532  1.6462  0.7864  0.0803
 5535SOL    HW228065   4.291   2.262  13.429  2.1213  1.5168  0.1158
 5536SOL     OW28066   3.210   1.426   9.410  0.1875  0.6882  0.3537
 5536SOL    HW128067   3.250   1.450   9.327  0.5322 -1.4209 -0.1001
 5536SOL    HW228068   3.291   1.440   9.459  1.1384 -0.0226 -1.0043
 5537SOL     OW28069   1.711   1.265   1.619  0.3506 -0.1085  0.1274
 5537SOL    HW128070   1.685   1.179   1.584  1.5586 -0.2283 -0.4836
 5537SOL    HW228071   1.667   1.326   1.560  0.8879 -0.6846 -0.8831
 5538SOL     OW28072   3.243   1.097   6.815 -0.2769  0.0152  0.2141
 5538SOL    HW128073   3.172   1.151   6.781  1.0066  0.8540 -1.1381
 5538SOL    HW228074   3.209   1.007   6.815 -0.8955  0.2508 -0.4283
 5539SOL     OW28075   0.093   0.571   8.457  0.5479 -0.5093 -0.1887
 5539SOL    HW128076   0.058   0.657   8.434  1.8787 -0.2316 -1.2040
 5539SOL    HW228077   0.187   0.586   8.467  0.2651 -0.2210  2.0269
 5540SOL     OW28078   2.046   3.926   3.568  0.4817 -0.7226 -0.2942
 5540SOL    HW128079   2.039   4.008   3.616 -1.3916  0.3519 -2.3809
 5540SOL    HW228080   2.126   3.939   3.518  0.5858 -0.1887  0.0080
 5541SOL     OW28081   3.199   0.433  16.507 -0.7136  0.8141 -0.8123
 5541SOL    HW128082   3.213   0.527  16.496  0.4599  0.7165 -0.1712
 5541SOL    HW228083   3.111   0.431  16.471 -1.2389 -1.5407  0.5776
 5542SOL     OW28084   2.851   2.162   9.091 -0.1386 -0.4137  0.1067
 5542SOL    HW128085   2.927   2.162   9.149  0.4269 -0.0419 -0.6408
 5542SOL    HW228086   2.801   2.088   9.125  0.5452 -1.0372 -0.2419
 5543SOL     OW28087   1.598   3.886  11.380 -0.1273 -0.3287  0.1970
 5543SOL    HW128088   1.691   3.882  11.404 -0.7976 -1.1398  2.7281
 5543SOL    HW228089   1.614   3.911  11.289 -0.7486  2.7623  0.9071
 5544SOL     OW28090   2.614   0.068   5.603 -0.3514 -0.5126 -0.1456
 5544SOL    HW128091   2.564   4.716   5.578  0.9430 -1.4517  0.2125
 5544SOL    HW228092   2.636   0.107   5.518 -1.3039  2.4077  0.9516
 5545SOL     OW28093   3.685   1.533   7.103  1.1474 -0.7335  0.6374
 5545SOL    HW128094   3.701   1.549   7.196 -1.4614  1.3427  0.7245
 5545SOL    HW228095   3.635   1.613   7.085  1.4927 -0.0061  2.9395
 5546SOL     OW28096   1.014   4.614   6.306  0.0475  0.0647 -0.4241
 5546SOL    HW128097   1.025   4.576   6.393  0.2630 -0.4658 -0.6828
 5546SOL    HW228098   1.015   4.542   6.242 -0.2154 -0.3869  0.0835
 5547SOL     OW28099   1.946   4.166   7.853  0.4402 -0.3218  0.6487
 5547SOL    HW128100   1.997   4.247   7.852  2.6075 -1.6798  0.1860
 5547SOL    HW228101   2.000   4.088   7.838 -0.1286 -0.5181 -0.3857
 5548SOL     OW28102   4.096   1.239   7.487 -0.0608  0.4569 -0.2785
 5548SOL    HW128103   4.145   1.279   7.415  2.2547 -1.1405  0.4200
 5548SOL    HW228104   4.148   1.250   7.566  2.0812  0.5198 -1.7159
 5549SOL     OW28105   3.828   0.868  14.474 -0.2677  0.8952  0.0677
 5549SOL    HW128106   3.830   0.884  14.569  1.9069  2.0679 -0.1772
 5549SOL    HW228107   3.897   0.930  14.450  0.8527 -0.4295 -0.1938
 5550SOL     OW28108   3.548   0.998   7.752 -0.2961  0.2111 -0.0178
 5550SOL    HW128109   3.541   0.908   7.786 -0.1920  0.6722  1.2150
 5550SOL    HW228110   3.626   0.987   7.698  0.7499  2.1698  1.1245
 5551SOL     OW28111   4.599   3.774   6.283 -0.3844 -0.4667 -0.0225
 5551SOL    HW128112   4.638   3.687   6.292 -0.8712 -0.3325  3.2416
 5551SOL    HW228113   4.511   3.757   6.251  0.6117 -0.6695 -2.6845
 5552SOL     OW28114   2.443   1.035   6.154  0.4845  0.3267  0.4059
 5552SOL    HW128115   2.413   0.949   6.183 -0.8199  0.3470 -0.8600
 5552SOL    HW228116   2.490   1.003   6.077 -0.8537  0.3612 -0.4222
 5553SOL     OW28117   1.332   3.688   5.934 -0.3365  0.1819 -0.2082
 5553SOL    HW128118   1.324   3.715   6.025  1.7779  0.3247 -0.0589
 5553SOL    HW228119   1.244   3.651   5.925 -1.1898  2.3848 -1.1509
 5554SOL     OW28120   2.860   3.697   6.200 -0.3809 -0.0900 -0.1902
 5554SOL    HW128121   2.865   3.623   6.260  0.9910 -0.5377 -0.8409
 5554SOL    HW228122   2.848   3.776   6.251 -0.6721  0.3043 -0.8634
 5555SOL     OW28123   1.534   2.748   6.365  0.1171  0.1741 -0.2627
 5555SOL    HW128124   1.476   2.823   6.349 -0.1824  0.4502  2.0025
 5555SOL    HW228125   1.562   2.737   6.274  0.0295 -0.2005 -0.2427
 5556SOL     OW28126   3.196   0.285   5.998  0.1886 -0.0205 -0.4562
 5556SOL    HW128127   3.105   0.306   6.018  0.5510  1.0818  0.0513
 5556SOL    HW228128   3.186   0.258   5.907 -0.8639  2.2849 -1.0343
 5557SOL     OW28129   0.527   4.506   1.395  0.3252  0.3953 -0.5792
 5557SOL    HW128130   0.613   4.497   1.435  0.1289 -0.1262 -0.2704
 5557SOL    HW228131   0.556   4.489   1.305 -0.7704  2.1517 -1.2610
 5558SOL     OW28132   0.633   4.226   5.297  0.3882  0.5687  0.4933
 5558SOL    HW128133   0.602   4.231   5.207  1.1116 -2.5191  0.0896
 5558SOL    HW228134   0.708   4.167   5.289 -0.8784 -1.0498  0.5352
 5559SOL     OW28135   2.724   2.126   7.267  0.4722  0.0245  0.7210
 5559SOL    HW128136   2.689   2.049   7.221  0.8235  1.4387 -1.8903
 5559SOL    HW228137   2.643   2.170   7.293  0.1269 -1.0908  1.5445
 5560SOL     OW28138   0.367   0.122   1.872  0.7950 -0.8136  0.3526
 5560SOL    HW128139   0.334   0.033   1.857 -1.4477  0.5364 -2.7206
 5560SOL    HW228140   0.406   0.110   1.959  1.1082 -1.9518  0.0606
 5561SOL     OW28141   4.436   1.213   8.271  0.3524  0.0885 -0.4306
 5561SOL    HW128142   4.523   1.226   8.234 -1.3145 -0.1709 -4.4959
 5561SOL    HW228143   4.448   1.149   8.342  0.6036 -1.1594 -1.5980
 5562SOL     OW28144   0.124   1.969  11.139 -0.2007  0.1592 -0.8451
 5562SOL    HW128145   0.046   1.921  11.169 -0.0228 -0.1456 -0.8677
 5562SOL    HW228146   0.135   2.036  11.206 -2.4212 -0.4471  0.1367
 5563SOL     OW28147   3.977   4.716   0.494  0.2208  0.2798  0.1217
 5563SOL    HW128148   3.941   0.074   0.466 -1.1161 -0.6304 -0.8426
 5563SOL    HW228149   3.904   4.665   0.530 -1.1180  3.2717  1.6232
 5564SOL     OW28150   3.425   4.145   8.015  0.3153  0.2042 -0.4730
 5564SOL    HW128151   3.477   4.070   7.986  0.9356 -0.8056  3.2272
 5564SOL    HW228152   3.496   4.206   8.036 -1.6494  2.3238 -0.0129
 5565SOL     OW28153   2.212   0.292   2.673 -0.4547  0.4092  0.3905
 5565SOL    HW128154   2.130   0.333   2.700  0.4690  1.8498  1.0346
 5565SOL    HW228155   2.268   0.325   2.744  0.0543  3.1276 -1.2607
 5566SOL     OW28156   1.477   3.785  12.710 -0.1934  0.1925  0.3887
 5566SOL    HW128157   1.546   3.755  12.770 -0.8415  0.8140  1.4366
 5566SOL    HW228158   1.520   3.866  12.682 -2.0522  0.8740 -0.4860
 5567SOL     OW28159   2.873   2.423   4.493 -0.1469  0.0659  0.4708
 5567SOL    HW128160   2.876   2.490   4.425 -0.8252 -0.1862  0.1927
 5567SOL    HW228161   2.820   2.462   4.562  1.6472  1.1260  1.2475
 5568SOL     OW28162   3.163   1.160   7.535 -0.4107  0.7482 -0.0963
 5568SOL    HW128163   3.248   1.152   7.577 -0.1994  3.2399 -0.0688
 5568SOL    HW228164   3.191   1.150   7.444  1.0583 -1.3787  0.5889
 5569SOL     OW28165   2.970   3.862   3.187  0.1844  0.7024 -0.5985
 5569SOL    HW128166   2.926   3.855   3.102  0.1442 -0.9171 -0.4366
 5569SOL    HW228167   2.972   3.957   3.199 -0.5224  0.4056  1.7629
 5570SOL     OW28168   3.844   3.666  13.170  0.1793  0.2332  0.1588
 5570SOL    HW128169   3.848   3.760  13.150 -2.5941  0.3702  0.2718
 5570SOL    HW228170   3.933   3.663  13.207 -0.5909 -1.1294  1.8669
 5571SOL     OW28171   1.219   0.612  14.849 -0.0908  0.4721 -0.1147
 5571SOL    HW128172   1.200   0.548  14.918  1.4494 -0.4417 -0.5272
 5571SOL    HW228173   1.279   0.656  14.909  0.0450 -0.8467  0.7231
 5572SOL     OW28174   3.310   0.936   7.974  0.5991  0.0081 -0.0643
 5572SOL    HW128175   3.325   0.893   8.058 -3.2982 -1.7248 -0.2537
 5572SOL    HW228176   3.399   0.972   7.975  2.1407 -3.8159  2.1695
 5573SOL     OW28177   4.543   1.844   5.742  0.4266  0.1160  0.2925
 5573SOL    HW128178   4.569   1.913   5.802  2.6690 -0.4182 -0.0657
 5573SOL    HW228179   4.606   1.854   5.671  1.4159  0.0717  1.1557
 5574SOL     OW28180   0.983   4.443   4.801  0.2401  0.2047 -0.1061
 5574SOL    HW128181   1.043   4.369   4.799 -0.7639 -0.6289  0.3046
 5574SOL    HW228182   0.895   4.403   4.800  0.0155  0.7186 -0.4727
 5575SOL     OW28183   2.230   2.575   3.273 -0.1648 -0.3762 -0.0614
 5575SOL    HW128184   2.202   2.639   3.208  2.5755  1.8600  0.9859
 5575SOL    HW228185   2.149   2.526   3.287  0.4714 -1.4678 -0.1536
 5576SOL     OW28186   0.069   2.481   6.457  0.0279 -0.0410 -0.4904
 5576SOL    HW128187   4.720   2.421   6.459 -1.4062  1.7429  0.0383
 5576SOL    HW228188   0.068   2.494   6.363 -2.0989 -0.6575 -0.5673
 5577SOL     OW28189   3.366   2.113   4.381 -0.0797  0.1747  0.0151
 5577SOL    HW128190   3.272   2.129   4.386 -0.0859  0.1103  0.1152
 5577SOL    HW228191   3.372   2.047   4.451 -1.8375  0.9459  0.8914
 5578SOL     OW28192   4.489   4.684   3.668  0.5162  0.2314 -0.3499
 5578SOL    HW128193   4.568   4.710   3.715  1.8774 -1.4076 -1.7599
 5578SOL    HW228194   4.430   0.026   3.702 -2.3626 -1.6279 -1.6598
 5579SOL     OW28195   2.948   3.095   4.081 -0.2215 -0.3843  0.5398
 5579SOL    HW128196   3.040   3.116   4.098  0.7108 -2.6566 -1.7788
 5579SOL    HW228197   2.953   3.079   3.987  0.1688  1.5784  0.2246
 5580SOL     OW28198   3.206   0.664  15.438  0.7857 -0.9215 -0.5365
 5580SOL    HW128199   3.210   0.750  15.396  0.3480  0.6224  2.5704
 5580SOL    HW228200   3.120   0.625  15.422 -0.1192  0.7301  0.2546
 5581SOL     OW28201   4.275   3.100   4.594  0.6789 -0.0233  0.5462
 5581SOL    HW128202   4.368   3.077   4.592  0.6621  0.1934 -2.3061
 5581SOL    HW228203   4.249   3.077   4.505 -0.4853 -1.9228  1.3712
 5582SOL     OW28204   0.165   1.351  15.761 -0.2204 -0.4321 -0.0578
 5582SOL    HW128205   0.126   1.377  15.844 -1.1727  1.4437 -1.0968
 5582SOL    HW228206   0.178   1.437  15.721 -2.1042 -0.7525 -1.3819
 5583SOL     OW28207   1.390   4.195   1.479 -0.1057  0.2334  0.1422
 5583SOL    HW128208   1.436   4.260   1.427  1.8018  0.0964  1.6857
 5583SOL    HW228209   1.395   4.115   1.426 -0.0457  0.8897 -0.8436
 5584SOL     OW28210   2.848   3.053   7.782  0.0263  0.8894 -0.0297
 5584SOL    HW128211   2.884   3.142   7.787 -0.8950  1.2170  0.7086
 5584SOL    HW228212   2.932   3.015   7.757 -1.1056 -2.5226  1.3993
 5585SOL     OW28213   0.624   2.817  15.053  0.1571 -0.4979 -0.2552
 5585SOL    HW128214   0.700   2.762  15.030  0.6515 -0.6286  1.6667
 5585SOL    HW228215   0.659   2.878  15.118 -2.7185  1.5427 -0.6722
 5586SOL     OW28216   3.702   2.984   8.173 -0.1421 -0.1444 -0.8921
 5586SOL    HW128217   3.690   3.073   8.140 -2.3476  0.4921  1.6370
 5586SOL    HW228218   3.795   2.977   8.151 -0.4236 -3.3623 -0.9626
 5587SOL     OW28219   4.164   2.681  16.748  0.0358 -0.2782 -0.0277
 5587SOL    HW128220   4.129   2.619  16.812 -1.1772  0.9193  0.4781
 5587SOL    HW228221   4.258   2.668  16.753  0.0228 -0.9599 -1.5671
 5588SOL     OW28222   1.091   0.773   5.788 -0.6492 -0.1701  0.0634
 5588SOL    HW128223   0.999   0.790   5.766 -0.3032  0.2683 -1.0131
 5588SOL    HW228224   1.128   0.818   5.712  0.2228 -1.4386 -0.2545
 5589SOL     OW28225   0.155   0.098   6.788 -0.3191 -1.0308 -0.1121
 5589SOL    HW128226   0.205   0.042   6.848 -0.8490 -1.2620  0.1234
 5589SOL    HW228227   0.083   0.037   6.767  0.4556 -1.9601 -0.0685
 5590SOL     OW28228   0.725   1.569   7.691  0.1112 -0.0034  0.2937
 5590SOL    HW128229   0.766   1.524   7.765 -3.3323 -0.2634  2.0724
 5590SOL    HW228230   0.660   1.624   7.735 -0.3101 -1.4880  1.5420
 5591SOL     OW28231   2.517   0.382   7.872  0.7742 -0.4353  0.6947
 5591SOL    HW128232   2.437   0.330   7.863 -0.9974  2.3010  0.7531
 5591SOL    HW228233   2.569   0.342   7.802  2.3735 -0.2087  1.7552
 5592SOL     OW28234   1.191   2.747   4.789  0.5772 -0.8200 -0.2409
 5592SOL    HW128235   1.214   2.658   4.762 -0.2791 -1.5175  1.2857
 5592SOL    HW228236   1.214   2.743   4.882 -1.3270 -0.4837  0.2603
 5593SOL     OW28237   3.770   1.494  12.261  0.0753 -0.7204  0.0187
 5593SOL    HW128238   3.792   1.416  12.210  0.9621 -1.1694  1.0762
 5593SOL    HW228239   3.709   1.540  12.203 -0.9340 -0.4958  1.2691
 5594SOL     OW28240   3.430   4.429   7.578  0.5886 -0.0788 -0.2434
 5594SOL    HW128241   3.476   4.346   7.565 -0.4218 -0.8689  1.2386
 5594SOL    HW228242   3.346   4.407   7.536  0.6266  0.2818 -0.5124
 5595SOL     OW28243   0.801   4.058   1.089  0.3129  0.0497  0.1465
 5595SOL    HW128244   0.857   3.981   1.078 -0.6433 -0.1389 -3.6256
 5595SOL    HW228245   0.786   4.076   0.996  0.7833 -0.7790 -0.0965
 5596SOL     OW28246   0.582   3.862   8.543 -0.0001 -0.0243 -0.4298
 5596SOL    HW128247   0.582   3.766   8.545  4.7668 -0.0195 -0.3076
 5596SOL    HW228248   0.664   3.874   8.495  0.4506 -0.0541  0.3446
 5597SOL     OW28249   3.638   0.989   6.464  0.4550  0.1603  0.4241
 5597SOL    HW128250   3.614   1.078   6.490  2.3973  0.8027  0.0672
 5597SOL    HW228251   3.727   0.971   6.495  0.7232  1.7171  0.5779
 5598SOL     OW28252   3.816   2.025   6.673  0.2769  0.2270 -0.1191
 5598SOL    HW128253   3.848   2.009   6.762  0.1779  1.1111  0.0761
 5598SOL    HW228254   3.809   2.118   6.694  3.6127  0.7729 -1.4285
 5599SOL     OW28255   4.340   3.694  16.396  0.2540  0.3024 -0.3591
 5599SOL    HW128256   4.375   3.719  16.482  0.7844 -1.9741  0.0854
 5599SOL    HW228257   4.246   3.685  16.413 -0.5579 -0.1463 -5.0849
 5600SOL     OW28258   0.382   4.717   7.531  0.3562 -0.1368 -0.2351
 5600SOL    HW128259   0.393   4.644   7.592  0.1426  0.4311  0.4824
 5600SOL    HW228260   0.302   0.033   7.562  1.4555  1.4060  0.5413
 5601SOL     OW28261   3.734   4.169   8.184 -0.1993  0.1524  0.1601
 5601SOL    HW128262   3.691   4.139   8.265  0.0215  1.2095  0.6698
 5601SOL    HW228263   3.744   4.084   8.141  0.0263  0.9664 -1.3941
 5602SOL     OW28264   0.362   2.520   5.932 -0.7302 -0.4182  0.0832
 5602SOL    HW128265   0.410   2.495   6.011  0.4517  1.8657  0.0920
 5602SOL    HW228266   0.351   2.445   5.874 -3.4008  0.0204  0.0107
 5603SOL     OW28267   4.199   0.158   5.069 -0.3842  0.2840 -0.2501
 5603SOL    HW128268   4.106   0.153   5.046 -0.3607  0.3592 -0.3580
 5603SOL    HW228269   4.232   0.219   5.004  2.6232 -0.3983  0.6207
 5604SOL     OW28270   0.731   1.494  14.052  0.6834 -1.0076 -0.5413
 5604SOL    HW128271   0.749   1.588  14.051  0.3706 -0.9408  0.1048
 5604SOL    HW228272   0.695   1.474  14.139  1.0842  1.1504  0.1235
 5605SOL     OW28273   0.173   1.922  17.547 -0.9274 -0.3983  0.0219
 5605SOL    HW128274   0.211   1.835  17.533 -0.1472 -0.0440 -0.0571
 5605SOL    HW228275   0.239   1.984  17.515 -2.6472 -0.1440 -2.9833
 5606SOL     OW28276   2.536   4.154   8.948 -0.0078  0.2704 -0.5319
 5606SOL    HW128277   2.499   4.071   8.917 -0.4412  0.5560 -0.7867
 5606SOL    HW228278   2.485   4.231   8.921 -0.3798 -0.1045 -0.9139
 5607SOL     OW28279   1.704   0.372  16.476  0.2252 -0.3856  0.4717
 5607SOL    HW128280   1.747   0.435  16.533 -0.1147  0.1739  0.1130
 5607SOL    HW228281   1.779   0.315  16.458 -0.2891 -0.8144 -0.3327
 5608SOL     OW28282   1.320   2.897   7.726  0.1050  0.3948  0.3892
 5608SOL    HW128283   1.365   2.974   7.761  2.9358 -0.8585 -0.5347
 5608SOL    HW228284   1.234   2.929   7.698 -0.0154 -0.3216 -0.0572
 5609SOL     OW28285   1.951   2.526   2.964  0.5598  0.0955 -0.0341
 5609SOL    HW128286   1.967   2.489   3.051 -3.3565 -2.6730 -0.4846
 5609SOL    HW228287   1.937   2.450   2.907  0.0855 -0.2991  0.6190
 5610SOL     OW28288   2.922   2.872   8.602 -0.4151  0.4794 -0.4002
 5610SOL    HW128289   2.880   2.952   8.571 -0.9472 -0.1921 -1.4403
 5610SOL    HW228290   2.947   2.889   8.693  0.2656  0.0895 -0.5117
 5611SOL     OW28291   0.155   2.718   4.431  0.2299 -0.0993  0.1142
 5611SOL    HW128292   0.133   2.811   4.436 -1.1022 -0.4602  0.8274
 5611SOL    HW228293   0.251   2.714   4.436  0.1359  0.1884  2.2452
 5612SOL     OW28294   4.369   0.374  12.480 -0.0257  0.0874 -0.5866
 5612SOL    HW128295   4.317   0.411  12.409 -0.7105 -1.8161 -1.0763
 5612SOL    HW228296   4.348   0.282  12.467 -0.6081  0.0289  0.6635
 5613SOL     OW28297   1.195   3.054   4.503 -0.6679  0.0395 -0.4134
 5613SOL    HW128298   1.210   3.066   4.409 -0.8944  2.3935 -0.1242
 5613SOL    HW228299   1.149   3.137   4.514  0.5099  0.5341  0.8053
 5614SOL     OW28300   3.991   4.169   4.500 -0.3798 -0.1757 -0.3737
 5614SOL    HW128301   4.037   4.111   4.561 -0.2370 -0.8165 -1.0914
 5614SOL    HW228302   3.927   4.115   4.455 -0.6066 -1.5324  1.6210
 5615SOL     OW28303   4.457   0.199   4.474  0.3346  0.2564  0.4657
 5615SOL    HW128304   4.551   0.182   4.465  0.2347  0.3328 -0.7161
 5615SOL    HW228305   4.416   0.138   4.413 -0.8836  0.6787  0.8501
 5616SOL     OW28306   1.413   3.597   8.482  0.4614 -0.3168 -0.2350
 5616SOL    HW128307   1.425   3.691   8.496  0.3047 -0.1524 -1.2042
 5616SOL    HW228308   1.328   3.599   8.439  0.8291 -1.1281 -1.0189
 5617SOL     OW28309   0.091   3.867   5.246  0.2239  0.7417 -0.6526
 5617SOL    HW128310   0.182   3.889   5.270  0.8388  0.1924 -2.5291
 5617SOL    HW228311   0.071   3.811   5.321  0.5406  1.8360  0.2592
 5618SOL     OW28312   2.711   1.337   3.534 -0.0118 -0.9319  0.5074
 5618SOL    HW128313   2.736   1.391   3.459  1.0523  0.7542  2.0787
 5618SOL    HW228314   2.643   1.277   3.506 -1.5864  1.2829 -0.4720
 5619SOL     OW28315   4.168   1.850   9.456 -0.0051  0.0257  0.0929
 5619SOL    HW128316   4.241   1.800   9.419  0.6594 -0.1316  1.6167
 5619SOL    HW228317   4.212   1.935   9.451  0.4674 -0.3917 -2.7833
 5620SOL     OW28318   1.524   2.060   1.671  0.2673  0.9060  0.2128
 5620SOL    HW128319   1.477   2.093   1.748  1.0535 -0.0713  1.1095
 5620SOL    HW228320   1.612   2.063   1.710  1.3054 -1.1540 -2.0244
 5621SOL     OW28321   4.163   1.716   4.696 -0.1060 -0.5499  0.3778
 5621SOL    HW128322   4.106   1.773   4.644  0.6953 -0.4576 -0.3907
 5621SOL    HW228323   4.200   1.777   4.760  1.4186 -0.7754 -0.2818
 5622SOL     OW28324   0.844   3.259  15.083  0.6377 -0.4828  0.2960
 5622SOL    HW128325   0.807   3.273  14.995  0.9667  1.3981  0.4558
 5622SOL    HW228326   0.855   3.353  15.097  0.9344 -0.5818  0.7107
 5623SOL     OW28327   4.492   4.438   3.094 -0.4622 -0.3044  0.3562
 5623SOL    HW128328   4.481   4.525   3.131 -1.3341 -0.9272  1.5648
 5623SOL    HW228329   4.426   4.426   3.027 -0.1648 -0.5342  0.1029
 5624SOL     OW28330   0.898   2.501   3.833 -0.3829  0.3390 -0.2715
 5624SOL    HW128331   0.864   2.590   3.839 -1.0837  0.0444  0.0055
 5624SOL    HW228332   0.992   2.518   3.835  0.1030 -2.6478  3.4930
 5625SOL     OW28333   0.711   3.058   3.400  0.3718 -0.5576  1.2391
 5625SOL    HW128334   0.707   3.121   3.329  1.0720 -1.2501  0.5776
 5625SOL    HW228335   0.728   3.112   3.476 -0.1133  1.0723  0.1785
 5626SOL     OW28336   1.777   3.317  16.633 -0.1130 -0.2110 -0.4262
 5626SOL    HW128337   1.777   3.246  16.569  1.9782  0.0299 -0.6894
 5626SOL    HW228338   1.694   3.290  16.673  0.5585 -0.0196  1.0823
 5627SOL     OW28339   0.411   2.065  15.500  0.1469  0.0560  0.5402
 5627SOL    HW128340   0.341   2.012  15.461  1.4350 -1.8170  0.7437
 5627SOL    HW228341   0.356   2.119  15.557  1.2817 -1.6976  3.3375
 5628SOL     OW28342   1.697   0.762  12.147 -0.1285  0.5894  0.2214
 5628SOL    HW128343   1.703   0.840  12.092 -1.6177 -0.9309 -2.1117
 5628SOL    HW228344   1.602   0.767  12.164 -0.4402 -0.1668 -1.2912
 5629SOL     OW28345   2.271   0.288   9.668 -0.3662 -0.0583 -0.0687
 5629SOL    HW128346   2.197   0.346   9.686 -0.7667  0.2283 -2.6375
 5629SOL    HW228347   2.258   0.250   9.581  2.1220  1.0333 -0.9384
 5630SOL     OW28348   0.218   0.891   4.089 -0.2009 -0.1891  0.1929
 5630SOL    HW128349   0.167   0.818   4.054 -1.0595 -0.0196  1.1063
 5630SOL    HW228350   0.148   0.925   4.145  1.4819  2.3920  0.7446
 5631SOL     OW28351   0.064   2.260   7.302 -0.4401 -0.2969 -0.0042
 5631SOL    HW128352   4.715   2.249   7.362  0.7824 -1.3388  1.3439
 5631SOL    HW228353   0.095   2.170   7.287 -0.4789 -0.1964 -0.6784
 5632SOL     OW28354   3.334   2.079   7.602 -0.4498  0.5068  0.9588
 5632SOL    HW128355   3.310   2.152   7.659  3.2387  2.0321  0.5013
 5632SOL    HW228356   3.262   2.090   7.540 -0.3901 -1.8919  0.4661
 5633SOL     OW28357   4.011   0.034   1.508  0.1127  0.4522 -0.4863
 5633SOL    HW128358   4.051   4.695   1.451  2.2177  1.6821 -0.3976
 5633SOL    HW228359   4.090   0.050   1.559 -0.5987  0.6112  0.5765
 5634SOL     OW28360   1.692   2.794  14.597  0.1853 -0.5549 -0.2934
 5634SOL    HW128361   1.734   2.879  14.585  1.9370 -1.4228 -0.3536
 5634SOL    HW228362   1.599   2.815  14.585  0.1215 -0.2738  0.7091
 5635SOL     OW28363   0.741   0.409   8.153  0.2198 -0.2672 -0.0632
 5635SOL    HW128364   0.661   0.356   8.161  1.4841 -2.0038  1.1333
 5635SOL    HW228365   0.708   0.472   8.090  0.4740 -1.4210 -1.3601
 5636SOL     OW28366   4.015   3.742   8.801  0.3289 -0.0408  0.2053
 5636SOL    HW128367   4.106   3.722   8.777  0.6824  1.0497  0.6592
 5636SOL    HW228368   3.975   3.656   8.816  0.0127  0.2042  0.7672
 5637SOL     OW28369   4.212   3.461   5.323  0.7921 -0.1768  0.7016
 5637SOL    HW128370   4.220   3.366   5.318 -0.3700 -0.2323 -0.3899
 5637SOL    HW228371   4.225   3.483   5.415 -1.6462  0.1762  0.9695
 5638SOL     OW28372   1.194   4.399   9.286  0.2684 -0.7757  0.1107
 5638SOL    HW128373   1.121   4.373   9.343  0.0075 -1.9653 -0.7819
 5638SOL    HW228374   1.205   4.326   9.225  2.4998 -0.7252  0.4362
 5639SOL     OW28375   0.650   0.248   4.484  0.4051  0.0917 -0.2612
 5639SOL    HW128376   0.726   0.222   4.536  0.4896  0.4203 -0.2204
 5639SOL    HW228377   0.652   0.343   4.492 -2.1137  0.1625 -0.4883
 5640SOL     OW28378   1.988   2.583   9.357 -0.4821 -0.0591  0.6599
 5640SOL    HW128379   2.001   2.496   9.395 -1.7611 -0.0481  1.1309
 5640SOL    HW228380   1.898   2.581   9.324 -0.1552 -1.6487 -0.1554
 5641SOL     OW28381   2.239   1.469   7.728 -0.3169  0.0745  0.2605
 5641SOL    HW128382   2.304   1.533   7.756  0.5270 -0.7269  0.1281
 5641SOL    HW228383   2.268   1.468   7.637  2.7647 -4.2119  1.2946
 5642SOL     OW28384   0.649   0.359   5.987  0.3095 -0.2087  0.0570
 5642SOL    HW128385   0.651   0.330   6.079  3.2300 -2.2566 -0.6591
 5642SOL    HW228386   0.654   0.275   5.942 -3.0801 -0.9331  1.0223
 5643SOL     OW28387   4.676   1.766   9.363  0.0543  0.4348  0.3379
 5643SOL    HW128388   4.668   1.838   9.301 -1.9612  0.0542  0.1553
 5643SOL    HW228389   4.687   1.692   9.303 -1.7840  0.4472 -0.0087
 5644SOL     OW28390   4.433   3.813   8.683  0.2102 -0.5189  0.1755
 5644SOL    HW128391   4.409   3.905   8.697  1.1339 -0.1897 -0.3703
 5644SOL    HW228392   4.498   3.812   8.752  1.4305 -0.2187 -0.9648
 5645SOL     OW28393   2.804   2.611   8.136  0.0493  0.2921  0.0010
 5645SOL    HW128394   2.774   2.574   8.053 -0.7850  1.6113 -0.2709
 5645SOL    HW228395   2.728   2.665   8.156  0.4789  0.3071  1.6053
 5646SOL     OW28396   4.526   4.539   7.532 -0.3589 -0.2443 -0.4478
 5646SOL    HW128397   4.519   4.476   7.460  0.3540 -1.1653  0.2771
 5646SOL    HW228398   4.620   4.527   7.550 -0.6825  0.0711  1.3733
 5647SOL     OW28399   0.077   1.857  16.246 -0.4207 -0.0272  0.4073
 5647SOL    HW128400   0.166   1.874  16.215 -1.5012  1.0390 -2.1553
 5647SOL    HW228401   0.088   1.900  16.331  2.2368 -2.3232  1.2174
 5648SOL     OW28402   4.007   4.064   1.291  0.0570  0.0212  0.1486
 5648SOL    HW128403   4.077   4.107   1.242 -0.8833 -0.3632 -1.5306
 5648SOL    HW228404   4.053   3.980   1.298 -2.8291 -1.4216  1.9260
 5649SOL     OW28405   3.498   3.500  13.798 -0.3723 -0.1884 -0.7532
 5649SOL    HW128406   3.450   3.440  13.741 -1.4996 -0.0577  0.0593
 5649SOL    HW228407   3.497   3.578  13.743  2.8948 -0.7361 -1.5900
 5650SOL     OW28408   3.445   3.111   0.223  0.5961 -0.4592  0.2581
 5650SOL    HW128409   3.467   3.146   0.137 -0.1939  2.9171  1.4553
 5650SOL    HW228410   3.467   3.186   0.278  0.2990 -2.3049  2.8935
 5651SOL     OW28411   4.267   3.900   5.529  0.1308  0.0412 -0.1029
 5651SOL    HW128412   4.197   3.875   5.468  0.9058  3.0273 -2.2417
 5651SOL    HW228413   4.217   3.911   5.610  0.5957  1.0888  0.0415
 5652SOL     OW28414   3.273   4.532   6.331 -0.3346  0.3520  0.1295
 5652SOL    HW128415   3.184   4.568   6.331 -0.3498  0.3284  2.3157
 5652SOL    HW228416   3.294   4.526   6.424  0.2380  1.1877  0.0580
 5653SOL     OW28417   0.263   2.654   8.807  0.1837 -0.8376 -0.1070
 5653SOL    HW128418   0.224   2.688   8.887  1.0177  1.6812 -0.7569
 5653SOL    HW228419   0.345   2.616   8.838  1.5077  1.9204 -0.1856
 5654SOL     OW28420   2.012   0.080   6.959  0.4354 -0.1085 -0.8727
 5654SOL    HW128421   2.084   0.082   7.023 -0.4481 -1.9894  0.1821
 5654SOL    HW228422   1.948   0.142   6.996 -0.1713 -1.2448 -0.0284
 5655SOL     OW28423   2.970   3.370   4.814 -0.0923  0.2874  0.0355
 5655SOL    HW128424   3.045   3.399   4.866  1.3983 -0.5538 -1.6312
 5655SOL    HW228425   2.890   3.407   4.852 -0.4583 -1.1872  0.6945
 5656SOL     OW28426   4.252   3.815  10.368  0.6857  0.0256 -0.1964
 5656SOL    HW128427   4.201   3.885  10.407  0.8387 -0.6947  1.3061
 5656SOL    HW228428   4.228   3.738  10.419  2.4580 -1.1395 -1.1062
 5657SOL     OW28429   3.708   0.871   7.973 -0.1633  0.1950 -0.1055
 5657SOL    HW128430   3.669   0.863   8.060  1.0719  1.3194  0.5601
 5657SOL    HW228431   3.647   0.827   7.914 -1.3019 -0.6705  1.7081
 5658SOL     OW28432   0.076   2.802   6.448  0.1486  0.1973 -0.6079
 5658SOL    HW128433   0.080   2.879   6.391 -0.9270  0.9036  0.2816
 5658SOL    HW228434   0.170   2.783   6.453  0.0368  1.0267  4.4421
 5659SOL     OW28435   3.319   0.289   2.448 -0.6750  0.3735 -0.4698
 5659SOL    HW128436   3.349   0.198   2.455  0.5115  0.9040  1.5083
 5659SOL    HW228437   3.353   0.323   2.532 -0.5546 -1.1568  0.1031
 5660SOL     OW28438   3.289   4.063   7.294 -0.0466 -0.2194  0.4677
 5660SOL    HW128439   3.256   4.151   7.316  1.1975  0.7230 -1.3914
 5660SOL    HW228440   3.376   4.094   7.270  0.0282 -1.4978 -0.8618
 5661SOL     OW28441   2.362   3.136   2.087 -0.4424  0.1413 -0.2620
 5661SOL    HW128442   2.368   3.164   1.996 -2.1434  0.2642 -0.3374
 5661SOL    HW228443   2.451   3.137   2.122  0.0255  0.9977 -1.4846
 5662SOL     OW28444   1.318   4.147   9.424  0.1003 -0.0977 -0.5189
 5662SOL    HW128445   1.282   4.107   9.344  0.6953 -2.7507  0.5238
 5662SOL    HW228446   1.290   4.238   9.421  1.6896  0.3088 -3.0364
 5663SOL     OW28447   0.002   0.236  12.881  0.0795 -0.1172  0.1343
 5663SOL    HW128448   0.046   0.311  12.921  0.0322  0.6333 -1.2325
 5663SOL    HW228449   0.078   0.186  12.852  0.2178  0.4412 -0.4580
 5664SOL     OW28450   4.338   2.984  16.420 -0.2938  0.3250 -0.4634
 5664SOL    HW128451   4.341   3.075  16.391  0.4471  0.3329 -0.3571
 5664SOL    HW228452   4.243   2.972  16.423 -0.1302 -0.6268  1.0731
 5665SOL     OW28453   2.819   1.470   0.395 -0.3538  0.3025  0.9149
 5665SOL    HW128454   2.872   1.544   0.427  1.0883 -1.5602  2.8166
 5665SOL    HW228455   2.842   1.467   0.302  0.5958 -0.9143  1.1939
 5666SOL     OW28456   0.708   2.517   4.934 -0.2273  0.3038  0.0897
 5666SOL    HW128457   0.745   2.452   4.993  1.0732  0.9344 -0.0365
 5666SOL    HW228458   0.791   2.559   4.911  0.8689 -0.8022  2.0125
 5667SOL     OW28459   4.598   1.762   7.141  0.0631  0.0485  0.0418
 5667SOL    HW128460   4.519   1.745   7.090  0.1425 -1.1114  0.2938
 5667SOL    HW228461   4.578   1.738   7.231  0.0804  1.9149  0.5427
 5668SOL     OW28462   2.791   1.950   5.673 -0.3157 -0.0743 -0.1998
 5668SOL    HW128463   2.746   1.963   5.756 -0.4712 -0.0146 -0.2929
 5668SOL    HW228464   2.860   1.891   5.701 -0.6495 -0.5997 -0.4826
 5669SOL     OW28465   1.049   4.537   6.590 -0.2840 -0.0209 -0.5567
 5669SOL    HW128466   0.978   4.574   6.642 -0.6924 -1.1058 -0.3484
 5669SOL    HW228467   1.050   4.443   6.608  2.1168  0.0378 -0.3141
 5670SOL     OW28468   0.854   3.940   8.092  0.4396  0.4447  0.1562
 5670SOL    HW128469   0.897   3.972   8.013  2.8628  0.7854  1.6253
 5670SOL    HW228470   0.872   4.008   8.158  1.8948 -0.4440  0.6788
 5671SOL     OW28471   2.302   3.618   3.999  0.1965  0.1072  0.2260
 5671SOL    HW128472   2.371   3.619   3.932  0.4526 -3.1023  0.4449
 5671SOL    HW228473   2.234   3.666   3.953  1.0010 -1.0865 -2.2654
 5672SOL     OW28474   0.415   0.671   7.370  0.2323  0.5439  0.2000
 5672SOL    HW128475   0.330   0.701   7.403 -0.3815 -1.3170  0.3158
 5672SOL    HW228476   0.467   0.699   7.445  0.0764  0.0392  0.5000
 5673SOL     OW28477   1.699   0.135   7.612  0.1122  0.8512  0.1117
 5673SOL    HW128478   1.689   0.146   7.518  2.5920 -0.0762 -0.2640
 5673SOL    HW228479   1.772   0.195   7.627  0.1859  0.7814  0.0302
 5674SOL     OW28480   4.183   0.890   5.591  0.4801  0.3760 -0.4059
 5674SOL    HW128481   4.130   0.895   5.511  0.2274  1.5958 -0.1698
 5674SOL    HW228482   4.248   0.823   5.569 -0.3327 -0.5069 -0.0792
 5675SOL     OW28483   2.143   4.164   1.292 -0.3805 -0.2446 -0.1226
 5675SOL    HW128484   2.214   4.156   1.356  0.3293 -1.3569 -1.0459
 5675SOL    HW228485   2.135   4.073   1.262 -1.6138  0.4793 -1.9114
 5676SOL     OW28486   2.064   0.936  16.686  0.6551  0.2531 -0.2232
 5676SOL    HW128487   2.023   0.948  16.771 -0.2596 -2.4588 -0.3059
 5676SOL    HW228488   2.013   0.867  16.645  0.6881 -0.5767  1.1663
 5677SOL     OW28489   4.631   3.081   6.851  0.7797  0.0370 -0.4815
 5677SOL    HW128490   4.663   3.061   6.763  0.4067  1.8550 -1.0459
 5677SOL    HW228491   4.587   3.165   6.834  0.6246 -0.0762 -0.6347
 5678SOL     OW28492   3.159   2.116   6.306  0.3593 -0.1587  0.2141
 5678SOL    HW128493   3.162   2.036   6.254 -1.4183  0.2842 -0.5442
 5678SOL    HW228494   3.236   2.107   6.363  0.5804 -2.2753 -0.4296
 5679SOL     OW28495   4.290   3.610   5.595 -0.0627 -0.2208  0.1875
 5679SOL    HW128496   4.274   3.699   5.564  0.5084  0.3496  1.5322
 5679SOL    HW228497   4.306   3.621   5.688  2.5076 -0.9743 -0.1541
 5680SOL     OW28498   0.925   2.852   8.332  0.3927  0.1309 -0.0382
 5680SOL    HW128499   0.925   2.920   8.264 -0.0627  2.0580  1.8731
 5680SOL    HW228500   1.020   2.846   8.333  0.3145 -0.9046  0.7676
 5681SOL     OW28501   1.812   2.630   2.651  0.3870  0.2410  0.0002
 5681SOL    HW128502   1.788   2.635   2.559 -1.0288  0.1619  0.3727
 5681SOL    HW228503   1.782   2.542   2.673 -2.4017  1.4795  1.1813
 5682SOL     OW28504   1.285   2.142   5.646  0.8180 -0.2079 -0.0774
 5682SOL    HW128505   1.192   2.157   5.630  0.8015  1.0246  1.1784
 5682SOL    HW228506   1.294   2.203   5.718 -1.3051 -1.3735  1.1827
 5683SOL     OW28507   1.490   3.556  14.174  0.6732  0.7562 -0.0949
 5683SOL    HW128508   1.419   3.516  14.226 -0.4685  2.9135 -0.0058
 5683SOL    HW228509   1.557   3.511  14.225 -0.3750 -0.6826  0.0235
 5684SOL     OW28510   0.003   1.406   1.683 -0.3229 -0.0991 -0.3841
 5684SOL    HW128511   0.053   1.479   1.648 -0.1981  0.1602  0.3491
 5684SOL    HW228512   0.005   1.346   1.609 -4.3128  1.1660 -1.5370
 5685SOL     OW28513   0.555   0.875   1.881 -0.1207 -0.1503  0.1751
 5685SOL    HW128514   0.479   0.897   1.827  0.9873 -1.7285 -2.0278
 5685SOL    HW228515   0.627   0.898   1.823 -1.5876  1.3179 -1.0585
 5686SOL     OW28516   0.400   2.513  10.942  0.4699 -0.5124 -1.0117
 5686SOL    HW128517   0.375   2.592  10.991  0.5732 -2.1376  1.6678
 5686SOL    HW228518   0.377   2.446  11.006  0.4158  1.1351  0.7113
 5687SOL     OW28519   1.465   3.404  15.683 -0.1154 -0.0018  0.0367
 5687SOL    HW128520   1.539   3.385  15.742 -0.9305 -1.4043  0.6305
 5687SOL    HW228521   1.464   3.316  15.646 -0.6908 -0.7892  1.8750
 5688SOL     OW28522   4.214   3.461   3.575 -0.2078  0.1843  0.0995
 5688SOL    HW128523   4.226   3.455   3.480  1.2262 -1.3253  0.3697
 5688SOL    HW228524   4.278   3.398   3.609 -0.4825  1.3320  2.7673
 5689SOL     OW28525   3.892   4.062  15.412 -0.0798 -0.1950 -0.0375
 5689SOL    HW128526   3.806   4.080  15.450 -0.2292 -0.2657 -0.3477
 5689SOL    HW228527   3.902   3.967  15.421  2.3616  0.0116 -0.5306
 5690SOL     OW28528   0.234   1.504   7.493 -0.0384  0.0033 -0.3300
 5690SOL    HW128529   0.266   1.449   7.565 -0.8562  1.7969  1.4202
 5690SOL    HW228530   0.153   1.459   7.468 -0.1574 -0.3054  0.6021
 5691SOL     OW28531   1.238   0.693  11.306 -0.2737  0.4043 -0.3526
 5691SOL    HW128532   1.325   0.663  11.280  0.4383  0.4006  2.0414
 5691SOL    HW228533   1.238   0.773  11.254 -2.4722 -0.6211 -1.9068
 5692SOL     OW28534   3.637   4.032   3.936  0.4960 -0.7450  0.4114
 5692SOL    HW128535   3.560   4.013   3.990  0.6222  1.2138  1.2933
 5692SOL    HW228536   3.644   4.127   3.935 -0.1418 -0.6874  1.6378
 5693SOL     OW28537   0.359   1.115  11.863  0.3544 -0.2391  0.8047
 5693SOL    HW128538   0.312   1.041  11.902  1.2738 -1.2524  0.0168
 5693SOL    HW228539   0.308   1.194  11.878  1.3609  0.8755 -1.7021
 5694SOL     OW28540   4.070   3.650   6.353 -0.0188  0.1028  0.2189
 5694SOL    HW128541   4.085   3.727   6.408  2.2911  0.6302 -1.1485
 5694SOL    HW228542   4.112   3.585   6.409 -2.5353 -0.2455  1.7061
 5695SOL     OW28543   1.201   4.652   5.609 -0.0856  0.0647  0.0300
 5695SOL    HW128544   1.141   4.627   5.538  1.7881  2.3382 -2.3247
 5695SOL    HW228545   1.134   4.659   5.678  1.4060  1.7893  1.3064
 5696SOL     OW28546   4.209   2.480   6.807  0.1819 -0.2120 -0.1668
 5696SOL    HW128547   4.150   2.539   6.855 -1.2792 -1.5234 -0.3250
 5696SOL    HW228548   4.291   2.520   6.836 -0.4050  0.5463  0.4420
 5697SOL     OW28549   3.983   0.085   6.686 -0.1666 -0.2731  0.5363
 5697SOL    HW128550   3.982   0.174   6.721  4.6002  0.0589 -0.2006
 5697SOL    HW228551   3.892   0.078   6.656 -0.3585 -2.1230  1.5153
 5698SOL     OW28552   4.091   1.406   2.365 -0.0506 -0.0969 -0.1786
 5698SOL    HW128553   4.006   1.447   2.350  0.7757  1.1289 -1.5072
 5698SOL    HW228554   4.134   1.421   2.281  0.9990 -0.8511  0.2222
 5699SOL     OW28555   0.124   0.142   3.353 -0.0740 -0.4466  0.0874
 5699SOL    HW128556   0.078   0.074   3.303  0.7343 -0.6035 -0.4399
 5699SOL    HW228557   0.132   0.102   3.440  1.5046  0.5999  0.4292
 5700SOL     OW28558   4.100   3.377   4.018 -0.1894 -0.2790  0.0183
 5700SOL    HW128559   4.071   3.341   3.935 -1.6789  1.6116 -0.2893
 5700SOL    HW228560   4.109   3.464   3.979  2.9579 -1.1976 -1.3216
 5701SOL     OW28561   4.481   0.545   2.476  0.2008  0.2579  0.9177
 5701SOL    HW128562   4.499   0.638   2.488  3.4995 -0.0908 -1.2466
 5701SOL    HW228563   4.567   0.515   2.448 -0.6904 -1.5289  0.0875
 5702SOL     OW28564   3.021   2.368   9.922 -0.1441  0.3242 -0.3087
 5702SOL    HW128565   2.995   2.295   9.978 -1.6495 -0.0695 -1.5277
 5702SOL    HW228566   3.017   2.440   9.985  0.6481 -0.3996  0.5745
 5703SOL     OW28567   0.129   4.115   4.291  0.1589  0.4064 -0.0348
 5703SOL    HW128568   0.134   4.078   4.379 -2.5772 -0.7436 -0.3642
 5703SOL    HW228569   0.131   4.038   4.234  1.3093  0.1713  0.3132
 5704SOL     OW28570   1.412   2.590   8.090 -0.1480  0.0725  0.5240
 5704SOL    HW128571   1.481   2.524   8.092  0.6228  0.8732 -0.0912
 5704SOL    HW228572   1.447   2.637   8.014 -1.6869  1.3395  0.5859
 5705SOL     OW28573   2.156   2.604  10.702  0.2227 -0.1775  0.3861
 5705SOL    HW128574   2.211   2.650  10.766  0.4629  0.1430 -0.0539
 5705SOL    HW228575   2.151   2.655  10.621 -0.7164 -0.5432  0.2097
 5706SOL     OW28576   2.398   3.926   6.342  0.2613 -0.2185  0.8355
 5706SOL    HW128577   2.377   3.836   6.318  2.8122 -0.9991  1.5610
 5706SOL    HW228578   2.396   3.970   6.257 -0.1064 -2.1574 -0.1586
 5707SOL     OW28579   1.878   3.040   7.228  0.1272  0.1156 -0.4479
 5707SOL    HW128580   1.816   3.078   7.290  0.3220 -0.2442 -0.0344
 5707SOL    HW228581   1.918   3.113   7.181  0.2201 -0.5080 -1.3457
 5708SOL     OW28582   1.534   0.179   0.796  0.1713 -0.3713 -0.4735
 5708SOL    HW128583   1.577   0.093   0.801 -1.1410 -1.0460 -0.9880
 5708SOL    HW228584   1.550   0.217   0.882 -3.0566 -0.5327  0.1896
 5709SOL     OW28585   1.038   4.576  15.486 -0.2819  0.4852  0.4012
 5709SOL    HW128586   1.064   4.553  15.575  2.5046 -0.6772 -0.7199
 5709SOL    HW228587   1.104   4.549  15.422 -0.2927 -0.3264  0.7334
 5710SOL     OW28588   4.410   1.204  17.552  0.3479 -0.3378 -0.6646
 5710SOL    HW128589   4.436   1.156  17.473  1.1532 -0.6771 -0.1914
 5710SOL    HW228590   4.315   1.193  17.559  0.4832 -1.2241 -0.2253
 5711SOL     OW28591   2.773   2.893   3.241 -0.4894  0.1423 -0.7317
 5711SOL    HW128592   2.863   2.923   3.257  0.0647 -1.9158 -0.0100
 5711SOL    HW228593   2.795   2.817   3.187 -0.0816  0.8602 -1.5960
 5712SOL     OW28594   3.735   2.328   3.073  0.0902 -0.1835  0.1035
 5712SOL    HW128595   3.793   2.373   3.012 -0.7747  0.3960 -0.2726
 5712SOL    HW228596   3.792   2.308   3.148  1.0279  0.2553 -0.4859
 5713SOL     OW28597   1.828   4.609   4.402 -0.4464 -0.3943  0.3394
 5713SOL    HW128598   1.817   4.519   4.433 -1.1905 -0.4524 -0.0886
 5713SOL    HW228599   1.888   4.648   4.466 -1.4171  2.2506 -0.3671
 5714SOL     OW28600   4.121   3.842  10.645 -0.3783 -0.2520 -0.6670
 5714SOL    HW128601   4.051   3.884  10.594  1.0111  2.9968  0.0957
 5714SOL    HW228602   4.099   3.858  10.737  0.1228 -1.0983 -0.3995
 5715SOL     OW28603   2.820   3.441   5.937  0.1202  0.1353 -0.4201
 5715SOL    HW128604   2.910   3.439   5.972 -0.5085  3.5086  1.4303
 5715SOL    HW228605   2.801   3.519   5.885 -0.0957 -0.4818 -1.2590
 5716SOL     OW28606   2.718   1.838  17.406  0.2092 -0.4931  0.3626
 5716SOL    HW128607   2.789   1.890  17.446 -0.2177 -0.0935  0.6074
 5716SOL    HW228608   2.764   1.836  17.322 -1.5079  0.6034 -0.6197
 5717SOL     OW28609   1.844   0.762  15.847 -0.5762  0.3541  0.4378
 5717SOL    HW128610   1.772   0.822  15.865  1.8905  3.2279  0.8541
 5717SOL    HW228611   1.881   0.811  15.773  1.3862 -0.8417  0.6105
 5718SOL     OW28612   4.548   0.223   4.165  0.1809 -0.0198  0.0094
 5718SOL    HW128613   4.589   0.162   4.103 -1.1279 -2.1880  1.2964
 5718SOL    HW228614   4.475   0.168   4.191  1.3383 -1.7180 -0.3265
 5719SOL     OW28615   1.264   0.279   8.235  0.0412  0.3445  0.0190
 5719SOL    HW128616   1.291   0.328   8.313 -1.7488 -1.0364  1.4948
 5719SOL    HW228617   1.338   0.221   8.217  0.8912  1.7888 -1.1632
 5720SOL     OW28618   2.119   4.090   8.285 -0.3327 -0.2356 -0.0627
 5720SOL    HW128619   2.154   4.014   8.331  0.1437 -0.1986 -0.3655
 5720SOL    HW228620   2.144   4.149   8.356  0.7691 -1.1095  0.2743
 5721SOL     OW28621   2.440   1.905   5.773  0.4814 -0.7447 -0.4071
 5721SOL    HW128622   2.355   1.944   5.795  1.5088  0.3822  1.5139
 5721SOL    HW228623   2.497   1.982   5.776 -1.8234  0.9057  0.6609
 5722SOL     OW28624   0.523   2.398  11.259 -0.1134 -0.0523  0.3928
 5722SOL    HW128625   0.486   2.483  11.284 -0.4778 -0.1347  0.1420
 5722SOL    HW228626   0.445   2.364  11.215  0.3226 -0.4325 -0.0822
 5723SOL     OW28627   4.556   0.513   4.114  0.2747  0.2602 -0.0437
 5723SOL    HW128628   4.572   0.425   4.146  1.4380 -0.5298 -2.8135
 5723SOL    HW228629   4.565   0.498   4.020  1.2810 -0.8872  0.2485
 5724SOL     OW28630   0.094   2.160   5.262  0.7668  0.2448  0.7351
 5724SOL    HW128631   0.096   2.072   5.225 -0.3454  0.3656  0.3892
 5724SOL    HW228632   0.023   2.194   5.207  2.0459  2.1796  0.2873
 5725SOL     OW28633   2.917   2.521   8.786 -0.3719 -0.3313  0.2191
 5725SOL    HW128634   2.925   2.431   8.816 -0.6962 -0.5487 -0.3463
 5725SOL    HW228635   2.832   2.532   8.743 -0.2436  0.0450  0.0626
 5726SOL     OW28636   0.150   0.574   3.815 -0.1739 -0.3163 -0.2199
 5726SOL    HW128637   0.125   0.633   3.886  0.0025 -1.8285  1.1073
 5726SOL    HW228638   0.183   0.495   3.857 -0.7190 -1.5364 -2.1023
 5727SOL     OW28639   3.128   2.324   5.157 -0.2589  0.1100 -0.9787
 5727SOL    HW128640   3.085   2.239   5.166  0.8836 -0.4747 -0.9861
 5727SOL    HW228641   3.049   2.374   5.137  0.1963  1.1235 -0.2348
 5728SOL     OW28642   2.178   2.736   6.405  0.0153 -0.8145  0.1698
 5728SOL    HW128643   2.240   2.665   6.389  2.0154  0.9134  0.4468
 5728SOL    HW228644   2.246   2.796   6.435  1.0615 -2.0385  0.2500
 5729SOL     OW28645   4.595   2.786   8.742  0.2527  0.2257  0.8100
 5729SOL    HW128646   4.560   2.697   8.744  2.3081 -0.5811  0.8309
 5729SOL    HW228647   4.596   2.809   8.649 -0.3116 -0.7964  0.5457
 5730SOL     OW28648   1.346   4.209  14.884  0.6549 -0.3858  0.1548
 5730SOL    HW128649   1.284   4.184  14.816 -0.5485  0.7776  0.8289
 5730SOL    HW228650   1.365   4.122  14.922  0.1457 -0.9896 -1.0006
 5731SOL     OW28651   0.897   1.251   3.289  0.4757 -0.4029 -0.6280
 5731SOL    HW128652   0.825   1.222   3.232  0.8092 -2.1074 -0.1729
 5731SOL    HW228653   0.856   1.334   3.314 -0.4655 -1.2823  0.7823
 5732SOL     OW28654   1.059   3.921  14.622 -1.0433 -0.1230 -0.2948
 5732SOL    HW128655   1.008   3.847  14.590 -1.7288 -1.0293  2.9620
 5732SOL    HW228656   1.122   3.877  14.679 -0.7334 -0.4860 -0.9225
 5733SOL     OW28657   4.405   1.317   5.205  0.1111  0.2169  0.6769
 5733SOL    HW128658   4.438   1.405   5.225  1.0978  0.1278 -0.4830
 5733SOL    HW228659   4.353   1.335   5.127 -0.4888  0.6676  1.1806
 5734SOL     OW28660   4.401   2.144  13.933  0.3627 -0.5701  0.5905
 5734SOL    HW128661   4.491   2.152  13.965  1.5275  1.1636 -3.1514
 5734SOL    HW228662   4.382   2.221  13.880  1.7137 -0.1339  0.7627
 5735SOL     OW28663   4.488   1.507   9.543  0.4639  0.1746 -0.0125
 5735SOL    HW128664   4.542   1.446   9.492  1.4482  0.8066  0.2621
 5735SOL    HW228665   4.543   1.530   9.618  1.4220  1.7261 -1.1805
 5736SOL     OW28666   2.912   3.457   9.182  0.1510  0.0772  0.5748
 5736SOL    HW128667   2.994   3.426   9.144  0.9402 -1.4333  3.4804
 5736SOL    HW228668   2.850   3.459   9.110  1.2909  0.6814 -0.3965
 5737SOL     OW28669   1.252   0.794  12.643  0.3375  0.3055  0.3807
 5737SOL    HW128670   1.303   0.813  12.564 -0.5636 -0.1174 -0.2991
 5737SOL    HW228671   1.187   0.865  12.642  0.5843  0.5220 -0.9033
 5738SOL     OW28672   1.039   4.338   7.420  0.2842 -0.1050 -0.0361
 5738SOL    HW128673   0.947   4.355   7.439  0.5873  2.4549 -0.8308
 5738SOL    HW228674   1.028   4.308   7.330 -2.7678  1.8236 -0.2690
 5739SOL     OW28675   3.593   1.912   6.564 -0.0638 -0.0390  0.4234
 5739SOL    HW128676   3.569   1.969   6.491  1.5302 -1.7717 -1.4344
 5739SOL    HW228677   3.675   1.954   6.590  0.0546  0.6235 -1.0232
 5740SOL     OW28678   0.594   2.698   5.470  0.3225  0.0568 -0.2195
 5740SOL    HW128679   0.578   2.667   5.381  1.5371 -0.2910 -0.3156
 5740SOL    HW228680   0.539   2.637   5.518 -1.1334  0.7002 -1.0634
 5741SOL     OW28681   1.427   2.849   2.235 -0.1422  0.0407 -0.2304
 5741SOL    HW128682   1.370   2.793   2.182 -0.6990 -0.2535  0.6727
 5741SOL    HW228683   1.507   2.818   2.193 -1.1691  0.1333 -2.2646
 5742SOL     OW28684   4.322   0.396  10.327 -0.1405  0.4380  0.2469
 5742SOL    HW128685   4.404   0.429  10.364 -0.7442  2.0754  0.0910
 5742SOL    HW228686   4.349   0.306  10.307  0.5941  0.9469 -1.0440
 5743SOL     OW28687   4.493   3.362   0.727 -0.1833  0.0352 -0.0570
 5743SOL    HW128688   4.575   3.400   0.695 -0.7078 -0.0483 -1.4762
 5743SOL    HW228689   4.438   3.441   0.732 -0.5079 -0.1063 -1.4862
 5744SOL     OW28690   1.206   2.739   2.090 -0.2107 -0.0396  0.2692
 5744SOL    HW128691   1.193   2.685   2.012 -0.0308  1.4909 -0.8133
 5744SOL    HW228692   1.121   2.737   2.134 -1.6836 -1.6054 -2.6970
 5745SOL     OW28693   2.117   3.885   6.773  0.7951  0.0241 -0.2262
 5745SOL    HW128694   2.206   3.920   6.769  1.4840 -1.9595 -2.3767
 5745SOL    HW228695   2.106   3.865   6.866  1.6414 -1.2527 -0.4025
 5746SOL     OW28696   1.925   0.963  12.666 -0.2830 -0.1038  0.4999
 5746SOL    HW128697   1.882   0.964  12.752  1.6251 -0.7056  1.4515
 5746SOL    HW228698   1.954   0.872  12.659 -0.5444 -0.1471 -0.1057
 5747SOL     OW28699   4.694   3.849   6.718  0.2290 -0.8165  0.2304
 5747SOL    HW128700   4.680   3.909   6.791  2.0442  0.0450 -0.1477
 5747SOL    HW228701   0.040   3.893   6.674 -0.8400 -0.0507 -0.7320
 5748SOL     OW28702   1.203   2.646   4.321  0.3227  0.0799 -0.6224
 5748SOL    HW128703   1.250   2.665   4.240 -1.1231  2.5326 -0.8968
 5748SOL    HW228704   1.242   2.560   4.338 -1.7421 -0.4971  1.2280
 5749SOL     OW28705   3.046   0.505   8.439 -0.7705 -0.1438  0.0964
 5749SOL    HW128706   2.977   0.568   8.459 -0.5703  0.3267 -0.6868
 5749SOL    HW228707   2.995   0.439   8.392  0.7763 -2.2591  1.3602
 5750SOL     OW28708   4.686   1.253   8.149  0.6849 -0.4367  0.0621
 5750SOL    HW128709   0.045   1.218   8.119 -0.0042 -1.5440 -0.5967
 5750SOL    HW228710   4.708   1.344   8.130  2.2072 -0.6464  0.8445
 5751SOL     OW28711   3.682   4.177   7.752 -0.7053  0.1505  0.0380
 5751SOL    HW128712   3.777   4.174   7.760 -0.8375 -3.2810  0.3401
 5751SOL    HW228713   3.657   4.101   7.804 -2.2907  2.6698  2.9864
 5752SOL     OW28714   0.003   1.064  11.980 -0.0323  0.5121  0.7091
 5752SOL    HW128715   0.092   1.031  11.993 -0.3043 -0.0872  1.0193
 5752SOL    HW228716   0.018   1.157  11.962  1.5522  0.2979  0.8820
 5753SOL     OW28717   1.964   4.266  13.316 -0.1239  0.3378 -0.5215
 5753SOL    HW128718   1.946   4.251  13.224  0.2256  2.1018 -0.8685
 5753SOL    HW228719   2.047   4.219  13.326 -1.1121 -1.0183  1.5595
 5754SOL     OW28720   1.578   2.373  13.759 -0.3242 -0.0399 -0.3717
 5754SOL    HW128721   1.496   2.413  13.729 -0.4871 -0.1630 -0.0899
 5754SOL    HW228722   1.566   2.280  13.745  0.2712 -0.6835  3.2205
 5755SOL     OW28723   1.052   1.874   8.888 -0.0579 -0.2228 -0.0864
 5755SOL    HW128724   1.031   1.807   8.823 -0.4310 -0.6846  0.5054
 5755SOL    HW228725   1.073   1.807   8.954  2.4269  0.6813  0.0234
 5756SOL     OW28726   2.500   3.187   5.053 -0.2949 -0.1745  0.0982
 5756SOL    HW128727   2.426   3.220   5.003 -1.7966 -1.8987  1.1529
 5756SOL    HW228728   2.448   3.121   5.098 -0.0056 -0.2883  0.2680
 5757SOL     OW28729   1.113   3.686   6.627  0.1415 -0.0952 -0.1773
 5757SOL    HW128730   1.146   3.607   6.669 -0.1763 -1.0802 -1.7723
 5757SOL    HW228731   1.167   3.693   6.548 -0.5352  0.4602 -0.5959
 5758SOL     OW28732   1.199   3.727   8.793  0.3655 -0.0554  0.1140
 5758SOL    HW128733   1.158   3.798   8.842  0.7992  0.6885 -0.6089
 5758SOL    HW228734   1.192   3.650   8.850  0.1291  0.0328  0.2045
 5759SOL     OW28735   2.064   3.894   5.437 -0.0399 -0.0237 -0.0098
 5759SOL    HW128736   2.066   3.879   5.532 -0.1109 -0.8943 -0.1474
 5759SOL    HW228737   2.050   3.804   5.407  0.8156 -0.4343  0.8264
 5760SOL     OW28738   4.616   3.649   1.111  0.0128  0.2139 -0.1438
 5760SOL    HW128739   4.529   3.677   1.138  1.7068  2.1469  3.3445
 5760SOL    HW228740   4.623   3.564   1.156  1.0573 -1.0489 -2.6848
 5761SOL     OW28741   1.723   2.341   4.345 -0.1162  0.0967 -0.0993
 5761SOL    HW128742   1.700   2.300   4.428  3.0474  0.3230  0.8917
 5761SOL    HW228743   1.695   2.430   4.366 -1.4525 -0.1881 -0.6777
 5762SOL     OW28744   0.314   2.703   2.007 -0.4551  0.2484 -0.4053
 5762SOL    HW128745   0.336   2.623   1.959 -0.4357 -1.0832  1.8210
 5762SOL    HW228746   0.337   2.683   2.098 -0.3111 -0.8656 -0.6895
 5763SOL     OW28747   1.031   1.588   3.119 -0.4190  0.4005  0.0661
 5763SOL    HW128748   1.011   1.599   3.026  1.4657 -1.5741 -0.5678
 5763SOL    HW228749   0.967   1.640   3.168  0.5882  0.8426  0.9031
 5764SOL     OW28750   2.973   0.958   6.684 -0.3571 -0.2303  0.2685
 5764SOL    HW128751   2.916   1.036   6.683 -0.1845 -0.1011  0.4913
 5764SOL    HW228752   2.935   0.909   6.757 -0.1187 -0.9615 -0.1003
 5765SOL     OW28753   2.551   0.768   6.496  0.4001  0.2063 -0.0594
 5765SOL    HW128754   2.518   0.721   6.573 -2.0000  1.7202 -0.1962
 5765SOL    HW228755   2.505   0.723   6.425  0.0985  2.0214 -1.0139
 5766SOL     OW28756   1.225   4.110   7.363  0.4098  0.2445 -0.4785
 5766SOL    HW128757   1.313   4.146   7.356  0.0314  1.2643  0.0230
 5766SOL    HW228758   1.167   4.174   7.320  1.1233  0.0141 -1.7808
 5767SOL     OW28759   1.696   2.023   3.602  0.6098 -0.0797 -0.1133
 5767SOL    HW128760   1.697   2.053   3.692 -0.0633  1.3871 -0.6085
 5767SOL    HW228761   1.788   2.044   3.583  1.1426 -0.5902  1.9299
 5768SOL     OW28762   0.117   2.493   3.628  0.0980  0.2936 -0.0265
 5768SOL    HW128763   0.097   2.466   3.539  1.5683  1.7575 -0.8012
 5768SOL    HW228764   0.145   2.584   3.621  0.6605  0.2291  1.2917
 5769SOL     OW28765   2.616   3.448   7.731  0.6105 -0.5743 -0.0675
 5769SOL    HW128766   2.617   3.358   7.765  1.0859 -0.4112  0.3574
 5769SOL    HW228767   2.609   3.498   7.813 -0.9372 -0.2595 -0.3887
 5770SOL     OW28768   0.764   4.069   1.766  0.0010  0.8222  0.2491
 5770SOL    HW128769   0.677   4.087   1.730  1.1856 -1.2917 -3.6883
 5770SOL    HW228770   0.738   4.013   1.840  0.1705  1.8413  1.0828
 5771SOL     OW28771   1.457   3.277   6.440 -0.5855 -0.0408  0.1837
 5771SOL    HW128772   1.438   3.371   6.437  1.4633  0.3426 -0.5884
 5771SOL    HW228773   1.379   3.238   6.480 -0.2116 -0.3868  0.5785
 5772SOL     OW28774   0.374   2.604  16.636  0.1341  0.2069 -0.1426
 5772SOL    HW128775   0.339   2.661  16.568 -1.0152  2.2748  2.2006
 5772SOL    HW228776   0.358   2.666  16.707 -1.1903 -0.5876  0.2705
 5773SOL     OW28777   3.411   2.558   7.916 -0.3743 -0.1634  0.1564
 5773SOL    HW128778   3.502   2.585   7.916 -1.3353  2.9698 -2.0678
 5773SOL    HW228779   3.410   2.488   7.982 -0.7570 -0.1483  0.1716
 5774SOL     OW28780   2.022   4.649  15.078  0.1434 -0.2435  0.4879
 5774SOL    HW128781   1.953   4.705  15.042  0.0890  0.5428  1.7962
 5774SOL    HW228782   1.994   4.564  15.046  0.4017 -0.5865  1.1791
 5775SOL     OW28783   4.395   1.126   4.360 -0.0043 -0.3980 -0.1757
 5775SOL    HW128784   4.419   1.218   4.375 -2.9688  0.2816  0.4054
 5775SOL    HW228785   4.306   1.119   4.395  1.1025  4.9445  3.7606
 5776SOL     OW28786   2.762   0.377   7.672  0.1382 -0.0573  0.1129
 5776SOL    HW128787   2.848   0.380   7.715  0.8992 -0.2083 -1.3853
 5776SOL    HW228788   2.745   0.284   7.656 -0.3583  0.2004 -0.8437
 5777SOL     OW28789   0.799   1.212   4.936 -0.4719 -0.0287  0.1294
 5777SOL    HW128790   0.786   1.269   5.011 -0.0336 -0.7652  0.7695
 5777SOL    HW228791   0.887   1.238   4.906 -0.2518 -0.1911  0.6296
 5778SOL     OW28792   4.075   4.124   7.504  0.1155  0.2214  0.0632
 5778SOL    HW128793   4.016   4.147   7.432 -0.3481 -0.9851  0.0570
 5778SOL    HW228794   4.115   4.210   7.518  2.4235 -0.6581 -1.1036
 5779SOL     OW28795   3.424   4.410   1.945 -1.0393 -0.2795 -0.1849
 5779SOL    HW128796   3.386   4.466   2.012 -1.2511 -0.2490 -0.3309
 5779SOL    HW228797   3.470   4.467   1.883 -0.8203 -1.5506 -1.2151
 5780SOL     OW28798   0.868   1.776   1.030  0.2541 -0.1979 -0.4994
 5780SOL    HW128799   0.836   1.686   1.044  0.5138 -0.2789 -0.4257
 5780SOL    HW228800   0.962   1.766   1.046 -0.0311 -1.5206  0.3713
 5781SOL     OW28801   3.788   0.474   2.765  0.2052 -0.5139  0.7125
 5781SOL    HW128802   3.882   0.460   2.757  0.1738  0.4294 -1.4282
 5781SOL    HW228803   3.778   0.433   2.851 -0.5595 -0.9933  0.4000
 5782SOL     OW28804   0.757   1.933   5.985 -0.9372  0.4096 -0.1679
 5782SOL    HW128805   0.794   1.982   6.058 -0.7353  1.5730 -1.0457
 5782SOL    HW228806   0.724   1.851   6.021  1.7165 -1.8154 -2.7487
 5783SOL     OW28807   4.587   2.922  12.107 -0.2230 -0.2023 -0.7129
 5783SOL    HW128808   4.605   3.014  12.087 -0.7357 -0.3121 -1.6479
 5783SOL    HW228809   4.494   2.915  12.087 -0.3971  1.2951 -0.4574
 5784SOL     OW28810   2.973   2.376   3.968 -0.0413  0.3079 -0.6736
 5784SOL    HW128811   2.970   2.365   3.873 -1.1147 -1.7830 -0.4054
 5784SOL    HW228812   2.881   2.377   3.995 -0.0169  2.9138 -0.6562
 5785SOL     OW28813   1.739   4.210  17.656 -0.1126  0.1698 -0.5166
 5785SOL    HW128814   1.645   4.226  17.650 -0.2229 -1.3334 -2.5156
 5785SOL    HW228815   1.740   4.141   0.018  0.4395  0.0107 -0.6859
 5786SOL     OW28816   1.724   4.119  10.870 -0.4159  0.5850 -0.3080
 5786SOL    HW128817   1.758   4.190  10.815  0.3335 -0.8440 -1.6915
 5786SOL    HW228818   1.800   4.097  10.924  0.0883  0.3096 -1.1272
 5787SOL     OW28819   2.023   1.044   1.536 -0.2225  0.0907  0.5057
 5787SOL    HW128820   2.091   1.030   1.602 -0.8283  3.1714  1.8075
 5787SOL    HW228821   2.010   0.952   1.515 -2.0026  0.5664 -0.4792
 5788SOL     OW28822   2.554   4.278   9.200 -0.2912  0.2636  0.2229
 5788SOL    HW128823   2.630   4.335   9.205  0.0126 -0.1576  0.4346
 5788SOL    HW228824   2.556   4.236   9.113  2.5275 -2.5555  1.6246
 5789SOL     OW28825   1.134   2.170  15.578 -0.6456  1.0107  0.1270
 5789SOL    HW128826   1.196   2.232  15.540 -0.4065  1.4057  1.1854
 5789SOL    HW228827   1.055   2.214  15.545 -1.4735  1.4853  2.7358
 5790SOL     OW28828   3.870   1.202   3.083 -0.2875  0.9709 -0.1705
 5790SOL    HW128829   3.927   1.170   3.152 -1.6002  0.6178  0.7493
 5790SOL    HW228830   3.935   1.206   3.012  0.2756 -0.5130  0.2510
 5791SOL     OW28831   3.852   3.697   2.461  0.1521  0.6340 -0.0523
 5791SOL    HW128832   3.763   3.695   2.427  0.5864  0.4013 -1.1888
 5791SOL    HW228833   3.889   3.661   2.380 -0.2001 -1.2144  0.6255
 5792SOL     OW28834   2.230   2.731   2.049  0.1263 -0.2709 -0.0683
 5792SOL    HW128835   2.236   2.775   2.134 -1.9233 -0.8469  0.3642
 5792SOL    HW228836   2.214   2.640   2.073  0.0121 -0.3311 -0.3729
 5793SOL     OW28837   2.445   4.685   3.202  0.3321 -0.4095 -0.1379
 5793SOL    HW128838   2.469   4.598   3.236 -1.5545 -1.1465 -0.6908
 5793SOL    HW228839   2.533   4.701   3.166 -0.3579 -0.6953 -1.9244
 5794SOL     OW28840   0.870   2.527  11.172  0.0923  0.4155  0.4120
 5794SOL    HW128841   0.957   2.499  11.199 -0.4666 -0.3893  1.3931
 5794SOL    HW228842   0.828   2.557  11.252 -2.6368 -0.6054 -0.6235
 5795SOL     OW28843   2.986   3.044   3.347 -0.2003 -0.2577  0.4140
 5795SOL    HW128844   2.912   3.087   3.389  1.8472  2.9118  0.7670
 5795SOL    HW228845   3.019   3.124   3.305  0.6247 -1.5942 -1.4918
 5796SOL     OW28846   3.247   4.721   3.414  0.1697  0.1477  0.4905
 5796SOL    HW128847   3.190   0.035   3.480  0.6296  1.6984 -0.0666
 5796SOL    HW228848   3.246   4.632   3.451 -1.5637 -0.6384 -1.4353
 5797SOL     OW28849   0.716   2.386  16.255 -0.0247  0.2412  0.1435
 5797SOL    HW128850   0.642   2.438  16.224  0.7191 -0.9139 -3.6471
 5797SOL    HW228851   0.768   2.379  16.174  0.9550  1.6474  0.6584
 5798SOL     OW28852   2.946   3.364   1.228  0.2451  0.1662  0.6165
 5798SOL    HW128853   2.887   3.308   1.178 -1.8126  1.5050  1.5337
 5798SOL    HW228854   2.881   3.430   1.252  0.6628  0.6954  0.3107
 5799SOL     OW28855   2.223   1.887  13.741 -0.1553  0.2045 -0.2920
 5799SOL    HW128856   2.306   1.854  13.774 -0.5359  0.3412  0.8246
 5799SOL    HW228857   2.227   1.975  13.778  3.1021 -0.3458  0.6685
 5800SOL     OW28858   2.933   2.170   5.452 -0.0432 -0.2334  0.2291
 5800SOL    HW128859   2.937   2.181   5.547 -1.8056 -0.7858  0.3754
 5800SOL    HW228860   3.021   2.198   5.426  1.1823 -1.3546  3.2542
 5801SOL     OW28861   1.173   2.637   6.834 -0.4290  0.6909  0.1019
 5801SOL    HW128862   1.105   2.677   6.888 -0.5313  0.3110  0.2500
 5801SOL    HW228863   1.116   2.597   6.769  1.5757 -1.7734 -0.1640
 5802SOL     OW28864   0.352   0.889  15.253 -0.5288 -0.1088 -0.8503
 5802SOL    HW128865   0.381   0.801  15.275  0.2150 -0.0651 -1.6358
 5802SOL    HW228866   0.411   0.916  15.182  0.2007  0.6021  0.0345
 5803SOL     OW28867   4.482   4.655   3.999 -0.1846  0.0078 -0.1378
 5803SOL    HW128868   4.491   4.594   4.073  1.1766  0.3875 -0.0022
 5803SOL    HW228869   4.569   4.644   3.960  0.2779  1.3141  0.5386
 5804SOL     OW28870   0.446   3.308  14.933 -0.2337 -0.1987  0.3476
 5804SOL    HW128871   0.417   3.219  14.949 -1.1444  0.2650  1.2753
 5804SOL    HW228872   0.535   3.314  14.969  0.0454  3.9006 -1.0361
 5805SOL     OW28873   0.548   4.650  12.542 -0.1081  0.2870  0.3470
 5805SOL    HW128874   0.619   4.587  12.554 -0.6358 -0.8403 -2.3463
 5805SOL    HW228875   0.491   4.626  12.615 -3.3318  0.4931 -2.1096
 5806SOL     OW28876   3.744   2.044   4.137 -0.5084  0.3526  0.2542
 5806SOL    HW128877   3.650   2.027   4.131 -0.0824 -1.2024 -1.7979
 5806SOL    HW228878   3.743   2.138   4.119 -1.0480  0.1292 -0.8455
 5807SOL     OW28879   1.431   4.289   7.307  0.9178 -0.4301 -0.5410
 5807SOL    HW128880   1.454   4.355   7.372 -0.2980  0.5475 -1.1184
 5807SOL    HW228881   1.469   4.325   7.227 -0.0473  0.1466 -0.7368
 5808SOL     OW28882   2.565   4.019   7.484 -0.0055 -0.0383 -0.3269
 5808SOL    HW128883   2.652   4.024   7.445 -0.6132  2.6498 -1.3405
 5808SOL    HW228884   2.506   4.024   7.408 -0.7507 -0.1097  0.2529
 5809SOL     OW28885   4.461   2.601   7.808 -0.3040  0.4103  0.5840
 5809SOL    HW128886   4.386   2.642   7.851  0.1388 -1.9181  3.5736
 5809SOL    HW228887   4.442   2.589   7.715 -2.7489 -0.4449  1.1993
 5810SOL     OW28888   4.483   0.571   5.324 -0.2280  0.0218  0.1719
 5810SOL    HW128889   4.573   0.547   5.303 -0.1950  1.6846 -1.5276
 5810SOL    HW228890   4.501   0.645   5.381 -0.3246 -0.4102  0.7679
 5811SOL     OW28891   0.013   4.047  11.740  0.1756 -0.2094  0.5002
 5811SOL    HW128892   0.068   4.102  11.796 -2.6306  1.5734  1.5008
 5811SOL    HW228893   4.686   4.009  11.811  0.8568  0.2247  1.2354
 5812SOL     OW28894   1.227   2.610   6.481  0.6475 -0.1288  0.2884
 5812SOL    HW128895   1.282   2.659   6.542 -0.2163  1.4220 -0.1840
 5812SOL    HW228896   1.152   2.589   6.538  0.7352  1.1998  0.8963
 5813SOL     OW28897   1.186   3.920  16.621  0.6840 -0.0280  0.3597
 5813SOL    HW128898   1.227   3.946  16.539  1.6223  0.4638  0.9920
 5813SOL    HW228899   1.094   3.936  16.597  0.5667 -0.4827  0.4990
 5814SOL     OW28900   2.279   2.207   2.960  0.0489  0.6251 -0.9282
 5814SOL    HW128901   2.303   2.132   2.906  1.1053  0.9221 -0.8757
 5814SOL    HW228902   2.258   2.159   3.040 -1.4133 -1.6850 -2.7237
 5815SOL     OW28903   3.195   2.757  11.641 -0.7109  0.5447  0.0770
 5815SOL    HW128904   3.230   2.693  11.579  2.6576  1.9025  0.6015
 5815SOL    HW228905   3.159   2.823  11.582 -4.0553 -1.8202 -0.5297
 5816SOL     OW28906   4.441   0.476   2.976 -0.4243  0.1544 -0.0852
 5816SOL    HW128907   4.345   0.484   2.979 -0.1556  3.1713  0.4733
 5816SOL    HW228908   4.455   0.491   3.069 -2.1887 -0.3191  0.2602
 5817SOL     OW28909   4.374   0.331   6.096  0.6217  0.2536 -0.2175
 5817SOL    HW128910   4.340   0.412   6.059  0.6634 -0.1139 -1.0685
 5817SOL    HW228911   4.380   0.356   6.188 -5.7187  0.6545  0.1021
 5818SOL     OW28912   4.625   3.714  15.033 -0.2339 -0.2995  0.3509
 5818SOL    HW128913   4.602   3.650  15.100 -0.5028 -1.5911 -0.9789
 5818SOL    HW228914   4.670   3.777  15.089  1.2803 -2.5690  1.7157
 5819SOL     OW28915   4.074   1.936  10.986  0.0919  0.0715 -0.2156
 5819SOL    HW128916   4.075   1.857  11.041  2.1126 -0.1834 -0.5981
 5819SOL    HW228917   3.992   1.979  11.010 -0.9111 -1.6188 -0.5638
 5820SOL     OW28918   3.580   1.453   5.925  0.1456  0.6862  0.2415
 5820SOL    HW128919   3.545   1.407   6.002  0.5941 -0.5642 -0.3199
 5820SOL    HW228920   3.541   1.538   5.948  1.4325  1.6026 -0.9473
 5821SOL     OW28921   4.043   0.335   4.729  0.0664  0.0123  0.1925
 5821SOL    HW128922   3.964   0.389   4.719  0.4703  0.3535 -1.1349
 5821SOL    HW228923   4.075   0.338   4.639  0.8663  0.8054  0.4973
 5822SOL     OW28924   1.226   1.402   2.268 -0.0229 -0.3480 -0.5667
 5822SOL    HW128925   1.261   1.364   2.188 -0.8861 -1.4012 -0.4475
 5822SOL    HW228926   1.298   1.393   2.330 -1.7439 -1.5560  1.2513
 5823SOL     OW28927   3.141   3.336   5.812 -0.1857 -0.4010 -0.3937
 5823SOL    HW128928   3.149   3.431   5.810  0.5125 -0.4689 -0.9859
 5823SOL    HW228929   3.118   3.322   5.720 -0.3583 -1.9568 -0.1097
 5824SOL     OW28930   0.127   4.206   7.859 -0.0857 -0.7192  0.4331
 5824SOL    HW128931   0.084   4.291   7.859 -0.0434 -0.6963  0.5688
 5824SOL    HW228932   0.064   4.145   7.821 -0.0993 -2.2161  2.8075
 5825SOL     OW28933   0.903   2.401   6.424 -0.0426  0.2779 -0.5135
 5825SOL    HW128934   0.830   2.350   6.390  0.7094 -0.9739 -0.2266
 5825SOL    HW228935   0.853   2.480   6.445 -0.7408  0.2304 -1.9783
 5826SOL     OW28936   0.831   1.896   4.679  0.7097  0.5468  0.0006
 5826SOL    HW128937   0.873   1.965   4.627 -1.1000  1.2239 -0.5559
 5826SOL    HW228938   0.775   1.954   4.729 -0.2160  0.3158 -0.7637
 5827SOL     OW28939   4.632   3.009  17.603  0.1749  0.0676  0.1916
 5827SOL    HW128940   4.648   3.034  17.512  0.9591 -1.4908 -0.0975
 5827SOL    HW228941   4.664   3.088  17.648 -3.4053  1.2264  0.6814
 5828SOL     OW28942   2.705   1.038   8.318 -0.5171  0.4350  0.6239
 5828SOL    HW128943   2.650   1.109   8.285  2.4929  2.8247  0.8046
 5828SOL    HW228944   2.751   1.082   8.389  2.0998 -0.2480 -0.6760
 5829SOL     OW28945   3.665   0.622   5.905  0.0068  0.2897 -0.2187
 5829SOL    HW128946   3.634   0.703   5.946  1.5795  1.6011 -1.6180
 5829SOL    HW228947   3.673   0.563   5.980  1.2609 -0.5966 -1.0369
 5830SOL     OW28948   1.920   2.834   4.090 -0.2921  0.0130  0.3724
 5830SOL    HW128949   1.844   2.795   4.046  1.0293 -1.4263 -0.6039
 5830SOL    HW228950   1.995   2.780   4.066 -0.0799  0.0547  0.9539
 5831SOL     OW28951   4.289   1.243   4.640 -0.2605 -0.1253  0.2504
 5831SOL    HW128952   4.324   1.305   4.575 -0.1426 -1.5089 -1.0170
 5831SOL    HW228953   4.210   1.292   4.663 -1.0104 -0.6965 -1.0493
 5832SOL     OW28954   0.734   1.120  16.005 -0.0716  0.3085  0.3529
 5832SOL    HW128955   0.773   1.094  15.921 -0.7654 -0.7237  0.3506
 5832SOL    HW228956   0.716   1.037  16.048 -0.4558  0.3487  0.2667
 5833SOL     OW28957   0.895   1.732   1.896 -0.1933  0.2618  0.7867
 5833SOL    HW128958   0.867   1.823   1.904 -0.2492  0.2445  0.7919
 5833SOL    HW228959   0.846   1.703   1.973  0.1487  0.9661  1.2648
 5834SOL     OW28960   0.633   4.568  11.040 -0.0517  0.5286 -0.3737
 5834SOL    HW128961   0.615   4.511  11.114 -0.9311  1.4583  0.1329
 5834SOL    HW228962   0.639   4.653  11.084 -2.5270 -1.0033  2.8392
 5835SOL     OW28963   4.541   2.669   0.850 -0.3604 -0.2568 -0.1112
 5835SOL    HW128964   4.560   2.622   0.931 -0.9556 -0.6074 -0.1734
 5835SOL    HW228965   4.528   2.590   0.798 -2.2070 -0.3357  0.4695
 5836SOL     OW28966   1.822   2.590  11.950 -0.0566  0.1856 -0.1748
 5836SOL    HW128967   1.851   2.609  11.861 -0.2125  2.9539  0.3717
 5836SOL    HW228968   1.902   2.545  11.976  0.5882  1.5036  0.1176
 5837SOL     OW28969   3.056   0.510   3.654 -0.0473 -0.3505  0.1056
 5837SOL    HW128970   3.085   0.600   3.663 -1.3727 -0.2165  3.0211
 5837SOL    HW228971   3.132   0.464   3.692  1.2539  1.7593  0.0528
 5838SOL     OW28972   0.602   3.143   5.603 -0.0127  0.4972  0.0054
 5838SOL    HW128973   0.538   3.073   5.606  0.8030 -0.2277  0.5912
 5838SOL    HW228974   0.654   3.107   5.532 -1.0777 -0.4317 -0.2943
 5839SOL     OW28975   2.394   0.363   2.871 -0.4598 -0.6204 -0.2235
 5839SOL    HW128976   2.370   0.344   2.962  0.1836 -1.0063 -0.1345
 5839SOL    HW228977   2.469   0.304   2.861  1.0286  1.2797 -0.1706
 5840SOL     OW28978   2.068   1.136   7.144  0.1370  0.2763  0.4422
 5840SOL    HW128979   2.012   1.090   7.080 -0.4312  0.9262  0.4714
 5840SOL    HW228980   2.114   1.057   7.173 -1.6426 -0.0085  2.4904
 5841SOL     OW28981   3.065   2.607  11.367  0.1736 -0.1520 -0.0043
 5841SOL    HW128982   3.148   2.565  11.389  0.9283  1.1435 -0.3420
 5841SOL    HW228983   3.021   2.562  11.438  3.0722 -0.5657  1.5044
 5842SOL     OW28984   0.414   1.277   7.300 -0.0727 -0.2059  0.7305
 5842SOL    HW128985   0.437   1.370   7.293  1.4934 -0.8313 -2.0611
 5842SOL    HW228986   0.473   1.243   7.367 -0.0646 -0.6168  0.5145
 5843SOL     OW28987   0.399   3.832   6.633 -0.2684  0.2158  0.1408
 5843SOL    HW128988   0.462   3.770   6.598  0.1965  0.0010  1.3320
 5843SOL    HW228989   0.323   3.837   6.575 -0.1782 -0.2942 -0.0223
 5844SOL     OW28990   0.595   0.675   3.687 -0.1246 -0.0314 -0.2974
 5844SOL    HW128991   0.562   0.708   3.770 -2.1527  2.4037 -2.0810
 5844SOL    HW228992   0.631   0.754   3.645 -0.6516  0.4384  0.1347
 5845SOL     OW28993   1.785   4.425   0.992  0.0941 -0.2441 -0.2531
 5845SOL    HW128994   1.712   4.393   1.044  0.8054 -2.5769 -0.6870
 5845SOL    HW228995   1.861   4.384   1.032 -0.1003  0.8546  1.2485
 5846SOL     OW28996   1.659   1.855   8.534  0.4088 -0.0879 -0.0633
 5846SOL    HW128997   1.624   1.795   8.468 -0.3917 -2.3260  2.3697
 5846SOL    HW228998   1.587   1.915   8.558  0.7340  0.3240 -0.1248
 5847SOL     OW28999   3.328   1.242   7.015 -0.1314  0.1900  0.1299
 5847SOL    HW129000   3.418   1.261   6.991 -0.5159  0.8786 -0.7681
 5847SOL    HW229001   3.283   1.190   6.948 -0.2872  1.0603 -0.4414
 5848SOL     OW29002   0.139   3.666   5.443  0.4779 -0.0539 -0.3010
 5848SOL    HW129003   0.107   3.592   5.495 -0.8606  1.1456  0.5865
 5848SOL    HW229004   0.210   3.627   5.392 -0.2002 -1.2715 -0.3158
 5849SOL     OW29005   0.404   2.565  15.710  0.2604 -0.2247 -0.1708
 5849SOL    HW129006   0.452   2.595  15.634  1.2172 -0.2969  0.4016
 5849SOL    HW229007   0.315   2.580  15.680 -0.1411 -0.2710  0.9895
 5850SOL     OW29008   3.838   4.497   3.435 -0.4535 -1.0031 -0.7252
 5850SOL    HW129009   3.933   4.487   3.429 -0.2443 -0.9422  2.2741
 5850SOL    HW229010   3.797   4.411   3.423  1.1299 -2.3935  3.7203
 5851SOL     OW29011   3.591   2.436   9.613  0.4592  0.2749 -0.6146
 5851SOL    HW129012   3.563   2.444   9.704 -0.7616  0.9108 -1.0401
 5851SOL    HW229013   3.670   2.383   9.628  0.1310 -0.5103 -1.6360
 5852SOL     OW29014   4.007   1.334   8.260  0.1815  0.2791 -0.0011
 5852SOL    HW129015   3.997   1.425   8.286  0.2861  1.0710 -2.7237
 5852SOL    HW229016   3.970   1.338   8.172  1.3864  0.9846 -0.4640
 5853SOL     OW29017   1.602   0.176  14.375 -0.1210 -0.2870 -0.5813
 5853SOL    HW129018   1.591   0.081  14.366  1.3255 -0.5119  0.0592
 5853SOL    HW229019   1.697   0.176  14.384 -0.1142  0.2704 -0.6809
 5854SOL     OW29020   1.332   4.554   2.153  0.4552 -0.0387  0.0286
 5854SOL    HW129021   1.375   4.483   2.105 -0.3213 -0.7264  0.3485
 5854SOL    HW229022   1.241   4.541   2.126  1.5630 -2.7249 -2.5662
 5855SOL     OW29023   2.446   2.474   4.423  0.2368  0.1494 -0.1216
 5855SOL    HW129024   2.481   2.551   4.467  1.1590  1.0675 -2.4451
 5855SOL    HW229025   2.422   2.524   4.344  1.1298  2.2745  0.9621
 5856SOL     OW29026   3.787   3.774  11.897  0.2160 -0.6767  0.1537
 5856SOL    HW129027   3.792   3.780  11.993  0.1834  1.2482  0.0392
 5856SOL    HW229028   3.712   3.833  11.887 -1.1769 -2.7823 -1.7437
 5857SOL     OW29029   2.215   4.354   0.576 -1.0749  0.0772 -0.2327
 5857SOL    HW129030   2.214   4.333   0.669  0.3067  1.8321  0.1620
 5857SOL    HW229031   2.197   4.446   0.592  0.7719  0.6900 -1.7792
 5858SOL     OW29032   3.914   2.340   8.286  0.5283  0.0284  0.1512
 5858SOL    HW129033   3.970   2.391   8.228 -0.6378 -0.6137 -1.5517
 5858SOL    HW229034   3.837   2.332   8.230 -1.5388 -0.6646  3.0535
 5859SOL     OW29035   0.188   1.268   3.403  0.3792  0.1404  0.3244
 5859SOL    HW129036   0.152   1.182   3.429 -0.8413  1.3505  2.6745
 5859SOL    HW229037   0.278   1.282   3.430  1.2454 -3.4216 -0.6796
 5860SOL     OW29038   4.677   2.134   0.094 -0.4030  0.3657  0.6042
 5860SOL    HW129039   0.036   2.138   0.139 -0.1114 -0.7862  0.1533
 5860SOL    HW229040   4.617   2.119   0.168 -0.8283  1.0232  0.3882
 5861SOL     OW29041   3.276   0.639   4.429  0.3786 -0.5597  0.4920
 5861SOL    HW129042   3.284   0.666   4.520  1.8224  0.2122  0.1398
 5861SOL    HW229043   3.206   0.699   4.403  0.1127 -2.8356 -4.0920
 5862SOL     OW29044   4.460   1.690   6.620 -0.1315 -0.4799  0.0404
 5862SOL    HW129045   4.501   1.603   6.621  0.3514 -0.2804 -1.8733
 5862SOL    HW229046   4.374   1.665   6.652 -0.2812  0.3148  0.2466
 5863SOL     OW29047   2.206   2.406   4.149 -0.7729 -0.2800 -0.2333
 5863SOL    HW129048   2.194   2.478   4.211  0.8513 -0.8877  0.7927
 5863SOL    HW229049   2.205   2.329   4.206 -0.5244 -3.1121 -4.0546
 5864SOL     OW29050   3.416   2.362   3.802 -0.2944  0.6944 -0.1353
 5864SOL    HW129051   3.470   2.368   3.881  0.2740  0.6575 -0.5284
 5864SOL    HW229052   3.481   2.360   3.733  0.2169 -2.7135  0.4618
 5865SOL     OW29053   2.991   2.595  10.053 -0.1161 -0.0246  0.2361
 5865SOL    HW129054   2.930   2.596  10.127 -0.3302 -1.6816  0.0815
 5865SOL    HW229055   2.979   2.680  10.011 -0.9767 -0.2401  0.0451
 5866SOL     OW29056   1.223   1.853   9.818  0.3928  0.4583  0.0869
 5866SOL    HW129057   1.210   1.831   9.910 -0.8773 -0.8031 -0.4049
 5866SOL    HW229058   1.153   1.808   9.771  0.6865  1.1356 -1.0198
 5867SOL     OW29059   0.617   1.188   2.379 -0.3562 -0.6117 -0.2680
 5867SOL    HW129060   0.710   1.169   2.365 -1.1396 -2.5826 -2.7001
 5867SOL    HW229061   0.569   1.181   2.297  1.0513 -2.0145 -0.9784
 5868SOL     OW29062   0.650   4.434   9.861  0.0723  0.3729 -0.1534
 5868SOL    HW129063   0.742   4.460   9.864  0.6437 -1.5169 -1.2806
 5868SOL    HW229064   0.607   4.515   9.891 -0.9771  1.3427 -4.3702
 5869SOL     OW29065   4.208   2.970   8.272  0.3799  0.1406  0.6771
 5869SOL    HW129066   4.275   3.017   8.323  2.6831 -1.0688 -1.2601
 5869SOL    HW229067   4.203   2.884   8.315 -0.3262 -0.4279 -0.5601
 5870SOL     OW29068   4.286   1.422   8.268  0.2760 -0.1425 -0.0649
 5870SOL    HW129069   4.194   1.397   8.266  0.3816 -0.4858 -0.5272
 5870SOL    HW229070   4.333   1.340   8.282  0.9345  0.0623 -1.0840
 5871SOL     OW29071   3.264   0.750  12.334 -1.0324 -1.0290 -0.1748
 5871SOL    HW129072   3.357   0.767  12.324 -1.0418 -2.0105 -2.0352
 5871SOL    HW229073   3.249   0.808  12.408  1.5468 -0.9150  0.2421
 5872SOL     OW29074   2.002   0.041   7.307  0.3784  0.1835 -0.2086
 5872SOL    HW129075   2.056   0.075   7.378  0.4588  0.7568 -0.5417
 5872SOL    HW229076   2.070   0.026   7.241 -1.1400  1.1978 -2.0166
 5873SOL     OW29077   3.677   3.755   5.231  0.1968 -0.1427 -0.2259
 5873SOL    HW129078   3.615   3.685   5.209 -0.6217  0.3383  0.6123
 5873SOL    HW229079   3.759   3.714   5.258 -1.4732 -2.1508  1.7889
 5874SOL     OW29080   4.569   2.583   7.450  0.1139  0.7491 -0.3423
 5874SOL    HW129081   4.635   2.619   7.510  0.9359 -0.4237 -0.5517
 5874SOL    HW229082   4.612   2.595   7.365  2.5877 -1.5022  0.5594
 5875SOL     OW29083   3.330   2.581  11.480 -0.1801 -0.2075  0.0377
 5875SOL    HW129084   3.388   2.523  11.528  2.5399  2.1202 -0.4903
 5875SOL    HW229085   3.379   2.588  11.398  0.9010 -2.0295  0.5171
 5876SOL     OW29086   2.607   1.785  12.061  0.0044  0.0880 -0.5475
 5876SOL    HW129087   2.514   1.793  12.081  0.2408  0.8204  0.2325
 5876SOL    HW229088   2.650   1.839  12.126 -0.2131  0.1028 -0.4156
 5877SOL     OW29089   4.367   2.364   2.798  0.8081 -0.1685  0.0924
 5877SOL    HW129090   4.276   2.377   2.825  0.1943 -0.2294 -1.9402
 5877SOL    HW229091   4.363   2.427   2.725 -0.9897 -0.8525 -0.3982
 5878SOL     OW29092   0.857   2.179  14.436  0.0477  0.2421  0.7145
 5878SOL    HW129093   0.940   2.137  14.412  0.9239  1.8131  0.9722
 5878SOL    HW229094   0.804   2.102  14.455  0.9279 -0.1636  1.5693
 5879SOL     OW29095   3.029   1.520   9.914  0.4372  0.5834  0.1455
 5879SOL    HW129096   2.959   1.455   9.904 -0.4330  1.6142 -0.4655
 5879SOL    HW229097   3.051   1.529   9.821 -1.1421  2.3803 -0.0649
 5880SOL     OW29098   0.648   0.260   6.233 -0.0045 -0.0787  0.1586
 5880SOL    HW129099   0.680   0.173   6.210 -3.8726 -1.3219 -0.4957
 5880SOL    HW229100   0.639   0.255   6.328  1.3356 -0.2980  0.2786
 5881SOL     OW29101   2.378   3.619   9.342  0.6472  0.2473 -0.9984
 5881SOL    HW129102   2.388   3.577   9.428  0.6151  0.6749 -0.7871
 5881SOL    HW229103   2.313   3.688   9.358  1.6149  0.7381  0.9065
 5882SOL     OW29104   1.283   1.748   2.045  0.3987 -0.1863  0.6864
 5882SOL    HW129105   1.333   1.829   2.036  0.0629  0.0604  1.0320
 5882SOL    HW229106   1.350   1.685   2.071  3.0179  2.2515 -0.1908
 5883SOL     OW29107   3.623   2.531   2.730  0.2821  0.1845 -0.2064
 5883SOL    HW129108   3.624   2.493   2.642  0.5560  0.9989 -0.5595
 5883SOL    HW229109   3.575   2.462   2.775 -1.0772  1.6432  0.6076
 5884SOL     OW29110   1.509   0.044   8.973 -0.2384 -0.1329 -0.4592
 5884SOL    HW129111   1.421   0.008   8.968 -0.2461 -0.2015  0.2492
 5884SOL    HW229112   1.493   0.132   8.939 -1.0402 -0.3567 -0.6602
 5885SOL     OW29113   4.491   0.138  17.627  0.0766  0.0834 -0.4586
 5885SOL    HW129114   4.508   0.139  17.532 -0.6763 -0.5601 -0.6045
 5885SOL    HW229115   4.508   0.044  17.627 -0.8555 -0.0747  0.2033
 5886SOL     OW29116   0.898   0.092   1.122  0.5084  0.0786  0.0947
 5886SOL    HW129117   0.893   0.141   1.204 -2.8221 -1.1893  0.6498
 5886SOL    HW229118   0.862   0.006   1.144 -0.4353  0.2807 -0.6219
 5887SOL     OW29119   2.789   1.924  15.694  0.2249  0.0033 -0.5619
 5887SOL    HW129120   2.813   2.002  15.744  0.2718  0.0992 -0.7351
 5887SOL    HW229121   2.699   1.937  15.663  0.1603 -0.8569 -0.7340
 5888SOL     OW29122   2.039   1.513   3.613 -0.7571 -0.1640 -0.6593
 5888SOL    HW129123   1.970   1.563   3.568  0.5240 -0.2250 -2.6812
 5888SOL    HW229124   2.017   1.537   3.704  1.8145 -0.6488  0.0676
 5889SOL     OW29125   3.589   4.291   9.862  0.6960  0.3907  0.2546
 5889SOL    HW129126   3.557   4.250   9.782  1.0220  0.7350 -0.0477
 5889SOL    HW229127   3.521   4.262   9.924  0.5276  0.5295  0.1348
 5890SOL     OW29128   3.440   3.292   3.644  0.4904  0.1929 -0.0859
 5890SOL    HW129129   3.415   3.235   3.571 -0.8064 -0.5843  0.9538
 5890SOL    HW229130   3.535   3.284   3.642  0.5578  0.9958  0.1151
 5891SOL     OW29131   0.932   1.061  12.898  0.3835 -0.2879  0.4070
 5891SOL    HW129132   0.908   1.009  12.975  3.8518 -0.9194  1.0545
 5891SOL    HW229133   1.018   1.091  12.927  1.4429  0.0965 -3.1542
 5892SOL     OW29134   0.675   2.379   1.995  0.5170 -0.1435 -0.1754
 5892SOL    HW129135   0.740   2.448   2.003 -1.5600  1.5081  2.3082
 5892SOL    HW229136   0.726   2.300   2.009  0.8913  0.5407  2.2284
 5893SOL     OW29137   0.806   0.324   2.889  0.2288  0.2587 -0.1668
 5893SOL    HW129138   0.825   0.235   2.919  0.1660 -0.3824 -2.0378
 5893SOL    HW229139   0.890   0.368   2.899  0.0473  0.2171  1.5180
 5894SOL     OW29140   3.543   2.310  10.367  0.1645 -0.2597 -0.3535
 5894SOL    HW129141   3.592   2.239  10.409 -1.8040 -2.1346 -1.2081
 5894SOL    HW229142   3.570   2.292  10.277 -0.3396 -0.8728 -0.3885
 5895SOL     OW29143   2.922   2.509   5.156 -0.0440  0.0556  0.2179
 5895SOL    HW129144   2.963   2.570   5.094 -1.7319 -0.8446 -1.7996
 5895SOL    HW229145   2.857   2.564   5.200 -0.5534  0.2618 -0.7830
 5896SOL     OW29146   2.638   1.680   3.884  0.2944  0.5660  0.4345
 5896SOL    HW129147   2.628   1.647   3.973 -1.4020 -2.4807 -0.8879
 5896SOL    HW229148   2.646   1.597   3.837 -0.1480  0.5180  0.4398
 5897SOL     OW29149   1.539   2.857   5.228 -0.1014 -0.3125 -0.5315
 5897SOL    HW129150   1.535   2.763   5.244  1.5614  0.1722  2.7296
 5897SOL    HW229151   1.513   2.856   5.136 -2.4763  2.0594  0.0908
 5898SOL     OW29152   2.540   4.716   6.867 -0.1779  0.4287 -0.2041
 5898SOL    HW129153   2.537   0.075   6.910  0.1139 -0.6336  1.9274
 5898SOL    HW229154   2.501   4.645   6.917  1.8948 -0.8519 -0.3755
 5899SOL     OW29155   0.114   3.474   2.914 -0.5059 -0.1314 -0.0416
 5899SOL    HW129156   0.069   3.543   2.866  1.2270  0.3823 -0.9458
 5899SOL    HW229157   0.078   3.478   3.003  1.0946  0.9740  0.5548
 5900SOL     OW29158   4.567   0.279   0.893 -0.2357  0.1874  0.2055
 5900SOL    HW129159   4.586   0.195   0.851  1.5666  0.4342  0.4930
 5900SOL    HW229160   4.593   0.255   0.983 -0.3446  0.2501  0.2532
 5901SOL     OW29161   4.101   2.662  12.487 -0.0998  0.0460 -0.2183
 5901SOL    HW129162   4.091   2.753  12.515  3.7217  0.0652  1.1298
 5901SOL    HW229163   4.011   2.637  12.508  0.6748 -2.2194  0.4086
 5902SOL     OW29164   0.006   0.262   2.036 -0.6603 -0.0277 -0.0953
 5902SOL    HW129165   4.718   0.195   1.970 -0.0730  0.3634 -0.6159
 5902SOL    HW229166   4.643   0.296   2.045 -0.4489 -0.0714  2.1214
 5903SOL     OW29167   3.486   2.045  10.682  0.3143  0.1017 -0.1986
 5903SOL    HW129168   3.421   2.027  10.614 -0.6291  0.1787  0.6785
 5903SOL    HW229169   3.530   2.125  10.654 -0.6886  0.4522 -0.7716
 5904SOL     OW29170   2.642   4.699   9.508  0.5597 -0.3600  0.4248
 5904SOL    HW129171   2.704   0.025   9.457 -0.9366 -1.3030 -2.3821
 5904SOL    HW229172   2.568   4.690   9.448 -0.2402 -0.2726  1.3931
 5905SOL     OW29173   2.100   2.582   7.688 -0.1184  0.3174 -0.2542
 5905SOL    HW129174   2.114   2.504   7.634 -1.0100 -1.4739  2.0954
 5905SOL    HW229175   2.191   2.594   7.714 -0.3972  1.3784  0.2171
 5906SOL     OW29176   1.337   1.626   0.126  0.0495  0.7547  0.0760
 5906SOL    HW129177   1.251   1.605   0.089  0.4612  0.8992 -0.9441
 5906SOL    HW229178   1.325   1.677   0.206 -0.5360 -0.5791  0.8427
 5907SOL     OW29179   1.680   0.414   5.148 -0.2657  0.2959 -0.2836
 5907SOL    HW129180   1.612   0.365   5.195 -0.6144 -1.2461 -2.3643
 5907SOL    HW229181   1.749   0.352   5.125  0.5897  1.0031  0.4159
 5908SOL     OW29182   2.011   0.684   5.958 -0.7115 -0.0290  0.3638
 5908SOL    HW129183   2.024   0.719   6.046 -0.9567  1.6056 -0.2418
 5908SOL    HW229184   2.039   0.762   5.910 -1.0303 -2.0831 -3.1008
 5909SOL     OW29185   4.252   1.392   9.192 -0.1166  0.3463  0.4703
 5909SOL    HW129186   4.208   1.412   9.110  0.5943  0.1400  0.0327
 5909SOL    HW229187   4.341   1.390   9.156  0.3364 -1.1373  1.7088
 5910SOL     OW29188   0.577   3.100   3.642 -0.2305 -0.1091 -0.6441
 5910SOL    HW129189   0.498   3.130   3.686  0.0026 -2.2765  1.2236
 5910SOL    HW229190   0.598   3.177   3.589  0.3558 -0.1645 -0.4951
 5911SOL     OW29191   3.506   1.489  15.342  0.3342 -0.4787 -0.0734
 5911SOL    HW129192   3.458   1.522  15.266 -1.4306 -1.7099  0.5023
 5911SOL    HW229193   3.517   1.397  15.318  2.8770  0.2319 -1.6328
 5912SOL     OW29194   3.852   3.080   5.701 -0.0064  0.2413  0.0588
 5912SOL    HW129195   3.785   3.090   5.633  3.2565  0.6252 -3.1169
 5912SOL    HW229196   3.854   3.173   5.723  1.7867  0.5805 -1.4609
 5913SOL     OW29197   1.288   3.700  16.752  0.3671 -0.2384 -0.5614
 5913SOL    HW129198   1.244   3.712  16.836  0.3585  0.2322 -0.6329
 5913SOL    HW229199   1.247   3.770  16.701  1.3503 -0.3756 -1.5436
 5914SOL     OW29200   1.938   2.797   2.831  0.5439 -0.3715 -0.1503
 5914SOL    HW129201   1.935   2.725   2.894 -0.0809 -1.2041 -1.1398
 5914SOL    HW229202   1.896   2.751   2.759  0.5665 -0.8327  0.1315
 5915SOL     OW29203   3.130   2.005   2.857 -0.2247  0.5920  0.5919
 5915SOL    HW129204   3.036   1.997   2.844 -0.0356  0.6703 -0.8411
 5915SOL    HW229205   3.136   2.100   2.856  0.1246  0.5643 -0.6116
 5916SOL     OW29206   0.951   2.764   7.465  0.0503 -0.0046  0.2807
 5916SOL    HW129207   1.020   2.811   7.418  0.7616  0.6792  2.0199
 5916SOL    HW229208   0.996   2.685   7.495  1.5335  0.2581 -1.2600
 5917SOL     OW29209   3.659   3.345   5.883 -0.3478 -0.5529 -0.2203
 5917SOL    HW129210   3.706   3.297   5.951  0.9201  1.8128  0.5693
 5917SOL    HW229211   3.733   3.392   5.845 -1.2169  1.4862  0.5877
 5918SOL     OW29212   2.771   4.683   7.327  0.0290 -0.0714  0.1795
 5918SOL    HW129213   2.756   4.593   7.357  0.0877  0.1061  0.7494
 5918SOL    HW229214   2.744   0.006   7.405  1.6529 -1.1304  1.4123
 5919SOL     OW29215   0.274   0.667   3.532 -0.0574  0.1893 -0.7211
 5919SOL    HW129216   0.365   0.665   3.502  1.0937 -3.6738  3.0425
 5919SOL    HW229217   0.283   0.603   3.602 -0.0406  0.1893 -0.7232
 5920SOL     OW29218   1.543   4.542   2.461  0.1481 -0.2556 -0.3458
 5920SOL    HW129219   1.549   4.632   2.491 -0.8882  0.1048 -1.2125
 5920SOL    HW229220   1.577   4.549   2.372 -0.4444  1.8029 -0.4142
 5921SOL     OW29221   3.880   4.272   6.131  0.2384  0.0011  0.4067
 5921SOL    HW129222   3.863   4.218   6.053  1.1663  1.6661 -0.9581
 5921SOL    HW229223   3.856   4.208   6.198 -0.4659 -1.3642 -1.1514
 5922SOL     OW29224   0.934   1.777   5.825 -0.2647  0.2201  0.4154
 5922SOL    HW129225   0.902   1.851   5.877 -2.4457 -0.3437 -0.1503
 5922SOL    HW229226   1.011   1.742   5.870  0.5182  1.5278  0.1214
 5923SOL     OW29227   0.251   2.394   3.324 -0.0284  0.0587  0.2646
 5923SOL    HW129228   0.257   2.444   3.243 -1.3060 -1.5850 -0.8363
 5923SOL    HW229229   0.338   2.355   3.326 -0.6472 -1.1548  3.0401
 5924SOL     OW29230   3.135   3.148   4.850 -0.2013 -0.0994 -0.5752
 5924SOL    HW129231   3.062   3.085   4.856 -0.7309  0.5014 -0.7323
 5924SOL    HW229232   3.090   3.224   4.814 -1.6000 -0.0426  1.2792
 5925SOL     OW29233   0.023   0.666   6.957 -0.2576 -0.2096  0.2355
 5925SOL    HW129234   0.025   0.744   7.011  2.2776 -0.6549  0.7601
 5925SOL    HW229235   0.070   0.601   7.009 -0.6623  1.3984  2.6095
 5926SOL     OW29236   3.306   3.959  11.916 -0.1361  0.0017 -0.1697
 5926SOL    HW129237   3.313   3.956  12.011  0.9522 -1.6793 -0.2893
 5926SOL    HW229238   3.293   4.053  11.904 -2.2259 -0.6594 -2.9548
 5927SOL     OW29239   3.099   4.282   6.627  0.2289 -0.0716  0.2296
 5927SOL    HW129240   3.083   4.258   6.718 -0.9311  1.9899  0.5666
 5927SOL    HW229241   3.160   4.354   6.643  0.7519 -0.5269  0.2771
 5928SOL     OW29242   0.250   4.159   6.245 -0.5538  0.1971  0.2187
 5928SOL    HW129243   0.160   4.172   6.274 -1.4017 -1.7902 -1.5291
 5928SOL    HW229244   0.310   4.212   6.297  1.7282 -1.8609 -0.2918
 5929SOL     OW29245   4.139   0.064   8.264 -0.1967 -0.5970 -0.2070
 5929SOL    HW129246   4.225   0.092   8.233 -0.7411  1.7647  0.4372
 5929SOL    HW229247   4.164   4.713   8.316 -0.2607 -1.0984 -0.9064
 5930SOL     OW29248   1.370   0.106   6.911  0.7538 -0.2538  0.3294
 5930SOL    HW129249   1.374   0.045   6.837 -1.5437  2.5914 -2.1166
 5930SOL    HW229250   1.300   0.079   6.970  0.2064 -0.9563 -0.6409
 5931SOL     OW29251   4.411   2.577   2.610  0.2771  0.4213  0.0836
 5931SOL    HW129252   4.330   2.621   2.587 -0.0262  0.5658  1.4781
 5931SOL    HW229253   4.444   2.641   2.673  0.8418  1.0283 -0.8109
 5932SOL     OW29254   4.644   3.894   9.161 -0.2139 -0.3049  0.0859
 5932SOL    HW129255   4.594   3.835   9.219 -3.3736  0.3556 -1.9266
 5932SOL    HW229256   4.595   3.975   9.174  1.7809  0.8641  0.2096
 5933SOL     OW29257   3.447   4.078   2.439  0.2516  0.1249  0.2924
 5933SOL    HW129258   3.509   4.140   2.477 -0.8347  2.3042 -1.4657
 5933SOL    HW229259   3.466   4.089   2.346 -1.5659 -1.8066 -0.3030
 5934SOL     OW29260   1.663   4.137   9.405  0.4337  0.3125  0.8059
 5934SOL    HW129261   1.737   4.111   9.350  1.5039  1.7629  1.5766
 5934SOL    HW229262   1.599   4.077   9.365  0.1296  0.9563  0.3407
 5935SOL     OW29263   0.028   0.878  14.966  0.3816 -0.1919  0.1454
 5935SOL    HW129264   0.007   0.971  14.962 -0.0278 -0.2606  0.5674
 5935SOL    HW229265   4.681   0.841  15.017 -0.3771 -0.6540 -1.2482
 5936SOL     OW29266   0.793   1.800   7.006  0.3539 -0.5214 -0.0127
 5936SOL    HW129267   0.707   1.839   6.989  1.7887  1.8275 -1.9821
 5936SOL    HW229268   0.836   1.868   7.059  1.5142  0.3826 -2.1025
 5937SOL     OW29269   3.511   4.350   1.664 -0.2274 -0.4315 -0.3406
 5937SOL    HW129270   3.435   4.401   1.637  2.3042  2.3043 -2.2750
 5937SOL    HW229271   3.472   4.267   1.691  1.0597 -1.0291 -0.3466
 5938SOL     OW29272   2.969   4.576   4.558 -0.7347 -0.3659  0.4749
 5938SOL    HW129273   2.906   4.638   4.521 -1.4603 -0.7115  1.1229
 5938SOL    HW229274   2.924   4.565   4.642 -2.7158  1.5283 -0.3388
 5939SOL     OW29275   3.159   2.999  12.647  0.0641  0.4033 -0.6195
 5939SOL    HW129276   3.153   2.995  12.551 -1.9665 -1.7731 -0.4128
 5939SOL    HW229277   3.097   2.929  12.669 -0.4077  1.3047  0.9142
 5940SOL     OW29278   0.459   4.258   0.902  0.5070  0.4404 -0.0706
 5940SOL    HW129279   0.427   4.188   0.845 -0.1760  1.2194 -0.6533
 5940SOL    HW229280   0.467   4.214   0.987 -0.1611 -1.3820 -0.9306
 5941SOL     OW29281   3.333   0.568   6.787 -0.6147  0.6270  0.3575
 5941SOL    HW129282   3.354   0.476   6.803  0.6158  0.3983 -2.6681
 5941SOL    HW229283   3.413   0.612   6.759 -0.0468 -1.6860 -1.6630
 5942SOL     OW29284   1.428   2.323   2.583  0.0363  0.4784 -0.4556
 5942SOL    HW129285   1.390   2.307   2.670 -0.6475 -0.5536 -0.9405
 5942SOL    HW229286   1.390   2.256   2.526 -0.1157 -0.1316  0.3681
 5943SOL     OW29287   3.324   2.269   1.021 -0.6595 -0.1028 -0.5497
 5943SOL    HW129288   3.238   2.284   1.061 -0.8930  1.2465 -1.5848
 5943SOL    HW229289   3.301   2.236   0.934  2.0947 -0.5432 -1.1147
 5944SOL     OW29290   1.973   4.007   4.809 -0.0797 -0.2809  0.5774
 5944SOL    HW129291   2.019   3.924   4.807  0.3081 -0.0355 -0.5121
 5944SOL    HW229292   1.968   4.025   4.903  0.4485  2.9883  0.0029
 5945SOL     OW29293   2.539   2.128   1.895  0.3825 -0.2157  0.2950
 5945SOL    HW129294   2.498   2.086   1.819  3.5580 -0.4445 -1.2926
 5945SOL    HW229295   2.624   2.145   1.856  0.5583  0.4956  0.9984
 5946SOL     OW29296   1.405   2.352   5.217 -0.0148 -0.0115  0.0462
 5946SOL    HW129297   1.341   2.420   5.234  0.4922  0.3546  0.5121
 5946SOL    HW229298   1.386   2.291   5.289 -1.4054 -0.3499 -0.6194
 5947SOL     OW29299   4.523   3.804   8.390  0.3738  0.2759 -0.1905
 5947SOL    HW129300   4.518   3.767   8.478 -0.5303 -0.8472 -0.7197
 5947SOL    HW229301   4.618   3.793   8.382  0.3642 -0.0252  0.1243
 5948SOL     OW29302   4.525   0.107   5.516 -0.2811  0.0405 -0.4251
 5948SOL    HW129303   4.560   0.119   5.605  1.3193 -1.9091 -0.7752
 5948SOL    HW229304   4.439   0.147   5.520 -0.1830  0.2369 -0.2611
 5949SOL     OW29305   4.221   4.589   6.088  0.0603 -0.4747  0.0215
 5949SOL    HW129306   4.204   4.495   6.080  1.5466 -0.7328 -0.1638
 5949SOL    HW229307   4.148   4.597   6.150 -1.0965  2.0826 -1.6487
 5950SOL     OW29308   1.900   1.727   8.575 -0.1127 -0.0481 -0.2609
 5950SOL    HW129309   1.814   1.766   8.556  0.2993  0.7686 -0.4600
 5950SOL    HW229310   1.920   1.691   8.489 -0.4765  1.9960 -1.1966
 5951SOL     OW29311   2.117   3.033   3.004 -0.6072 -0.1597 -0.4790
 5951SOL    HW129312   2.210   3.034   3.027 -0.9528  4.3713  0.8947
 5951SOL    HW229313   2.120   3.030   2.908  0.3253 -1.1298 -0.4142
 5952SOL     OW29314   0.504   3.947  15.847  0.3415  0.6835  0.0036
 5952SOL    HW129315   0.553   4.003  15.787  1.1358 -0.2626 -0.2384
 5952SOL    HW229316   0.566   3.875  15.837  1.0532  1.1265  1.1910
 5953SOL     OW29317   0.762   4.149  11.096 -0.2910 -0.8916  0.2481
 5953SOL    HW129318   0.811   4.188  11.024 -1.3856  1.7935  0.9373
 5953SOL    HW229319   0.676   4.126  11.060 -0.0858  1.3482 -1.6690
 5954SOL     OW29320   3.757   4.153  11.868  0.3967  0.0424  0.5687
 5954SOL    HW129321   3.669   4.148  11.833  0.9511  2.2114 -1.1273
 5954SOL    HW229322   3.749   4.099  11.947  2.3934  0.0100  0.7589
 5955SOL     OW29323   2.209   3.755   7.004 -0.2874  0.0078 -0.6499
 5955SOL    HW129324   2.290   3.711   6.977 -0.0061  0.0815  0.0512
 5955SOL    HW229325   2.148   3.684   6.987 -1.6420  1.0682 -0.1824
 5956SOL     OW29326   1.851   3.020  14.645 -0.1527 -0.3655  0.0674
 5956SOL    HW129327   1.904   2.945  14.668 -0.8579 -0.2388  2.1008
 5956SOL    HW229328   1.923   3.081  14.628 -1.6250  1.0967 -0.9443
 5957SOL     OW29329   3.884   0.104   4.504 -0.3111  0.2504  0.0704
 5957SOL    HW129330   3.801   0.062   4.479 -0.7541  0.8696  0.4873
 5957SOL    HW229331   3.867   0.125   4.596  1.2119  0.0008  0.4035
 5958SOL     OW29332   3.717   2.577  15.888 -0.1472  0.1621 -0.1367
 5958SOL    HW129333   3.746   2.534  15.969  0.9971  2.0145  0.4412
 5958SOL    HW229334   3.799   2.610  15.853  0.9725 -0.1445  2.1629
 5959SOL     OW29335   2.807   0.262  15.694  0.0037 -0.6425  0.1891
 5959SOL    HW129336   2.889   0.259  15.743 -0.4005 -1.3915  0.8180
 5959SOL    HW229337   2.780   0.174  15.718  1.6888 -0.8490  1.2597
 5960SOL     OW29338   4.306   1.414  14.939 -0.1819 -0.2133  0.2562
 5960SOL    HW129339   4.251   1.448  14.869  0.9769  0.3878 -0.3722
 5960SOL    HW229340   4.393   1.434  14.904 -0.5021  0.6346 -0.0501
 5961SOL     OW29341   3.079   2.721   8.038  0.1908  0.3152 -0.2614
 5961SOL    HW129342   3.016   2.754   8.102 -2.0389 -0.6292 -1.9928
 5961SOL    HW229343   3.099   2.804   7.995  0.1804  0.6285  0.3398
 5962SOL     OW29344   0.965   3.081   2.644 -0.3686 -0.3307 -0.3184
 5962SOL    HW129345   1.028   3.135   2.596 -1.2480  0.7964 -0.2326
 5962SOL    HW229346   1.000   3.098   2.732  1.0395 -0.9521 -0.7603
 5963SOL     OW29347   4.326   4.116   5.118  0.1270 -0.1713  0.5363
 5963SOL    HW129348   4.262   4.127   5.188  0.4620 -0.7461  0.9297
 5963SOL    HW229349   4.376   4.197   5.121 -0.6858  0.3139  0.7314
 5964SOL     OW29350   3.227   0.263  12.865 -0.4697  0.8852  0.2337
 5964SOL    HW129351   3.260   0.252  12.776  0.2792 -3.4811  1.0308
 5964SOL    HW229352   3.298   0.310  12.908 -0.6423  1.0606  0.3282
 5965SOL     OW29353   2.133   1.718   6.717 -0.0126  0.0276 -0.0128
 5965SOL    HW129354   2.076   1.729   6.641 -0.5915 -0.9011  0.2760
 5965SOL    HW229355   2.215   1.747   6.678 -0.3840  1.6012  0.3723
 5966SOL     OW29356   0.685   4.059   3.436  0.4321 -0.1327 -0.3865
 5966SOL    HW129357   0.616   4.105   3.388  0.8441  0.2184 -0.6463
 5966SOL    HW229358   0.761   4.111   3.410  1.8304 -2.5442 -1.0492
 5967SOL     OW29359   1.258   2.220   4.476  0.5256  0.0569 -0.2217
 5967SOL    HW129360   1.295   2.171   4.550  0.9476 -0.0562 -0.5080
 5967SOL    HW229361   1.241   2.148   4.415  2.4223 -0.3435 -0.3036
 5968SOL     OW29362   0.579   3.455  15.209 -0.2011 -0.0138 -0.2248
 5968SOL    HW129363   0.600   3.542  15.174  2.8963 -0.6502  0.0555
 5968SOL    HW229364   0.643   3.455  15.280  0.5626  0.2870 -0.9047
 5969SOL     OW29365   3.049   2.048   5.078  0.0873 -0.7376  0.5168
 5969SOL    HW129366   2.979   2.073   5.018  0.4918 -1.3001 -0.2017
 5969SOL    HW229367   3.120   2.042   5.013 -0.4336 -2.1448  0.0861
 5970SOL     OW29368   4.585   1.687   9.085 -0.1745  0.4596  0.3875
 5970SOL    HW129369   4.631   1.605   9.099  1.8662  0.9328 -3.6785
 5970SOL    HW229370   4.627   1.747   9.023  1.3926  0.1152  1.1282
 5971SOL     OW29371   0.963   0.512  12.231  0.3998  0.4955  0.0462
 5971SOL    HW129372   1.020   0.466  12.169 -0.5834 -0.3890 -0.2054
 5971SOL    HW229373   1.016   0.584  12.264  0.9972  0.0120  0.1326
 5972SOL     OW29374   0.800   0.870   1.428  0.5415  0.2023 -0.5605
 5972SOL    HW129375   0.717   0.823   1.414 -0.8245  2.3826  0.2518
 5972SOL    HW229376   0.840   0.874   1.341  0.2528  1.9119 -0.6084
 5973SOL     OW29377   1.827   4.243   4.178 -0.0150  0.2449 -0.0681
 5973SOL    HW129378   1.887   4.314   4.158 -0.0539  0.1765 -0.4207
 5973SOL    HW229379   1.808   4.253   4.271  2.3033  1.7284  0.2342
 5974SOL     OW29380   1.173   3.634  15.046 -0.0032 -0.2384 -0.4032
 5974SOL    HW129381   1.195   3.544  15.070  0.7408  0.4206  1.3980
 5974SOL    HW229382   1.236   3.679  15.103 -0.3628  0.8809 -0.9013
 5975SOL     OW29383   0.733   0.389  16.518 -0.2655  0.2212 -0.1913
 5975SOL    HW129384   0.658   0.354  16.470 -0.5965 -0.1766  0.6243
 5975SOL    HW229385   0.783   0.313  16.546  0.1470  0.6075  0.1182
 5976SOL     OW29386   1.902   4.207   5.657  0.1404  0.1939 -0.8556
 5976SOL    HW129387   1.870   4.117   5.651  1.9312 -0.6230  1.7166
 5976SOL    HW229388   1.833   4.252   5.608 -0.6141 -0.7710 -0.6872
 5977SOL     OW29389   0.880   1.447  11.685  0.0710  0.4688 -0.1933
 5977SOL    HW129390   0.969   1.414  11.699 -0.5218 -0.2469  1.8270
 5977SOL    HW229391   0.896   1.541  11.688  0.5132  0.4168 -1.1281
 5978SOL     OW29392   1.005   2.548   6.642 -0.0134  0.2492  0.1428
 5978SOL    HW129393   0.958   2.465   6.641 -1.3334  0.9944  0.4204
 5978SOL    HW229394   0.935   2.607   6.615  0.9813  1.7793  0.8800
 5979SOL     OW29395   1.170   1.639   0.836 -0.0025 -0.3150  0.3334
 5979SOL    HW129396   1.094   1.581   0.829 -2.4433  2.9010  0.0094
 5979SOL    HW229397   1.132   1.727   0.832 -1.9861 -1.1391  0.8039
 5980SOL     OW29398   3.706   0.401   5.739  0.1132  0.2673 -0.0566
 5980SOL    HW129399   3.694   0.471   5.803  2.7473 -0.1288  0.8709
 5980SOL    HW229400   3.636   0.343   5.767  0.2021  0.5214  0.6863
 5981SOL     OW29401   3.959   4.443   2.897  0.0072 -0.1817  0.2994
 5981SOL    HW129402   3.883   4.479   2.944 -0.0168 -1.4712  1.2420
 5981SOL    HW229403   4.010   4.524   2.891  0.2556 -0.1755  2.3920
 5982SOL     OW29404   0.572   3.118  15.876 -0.1253  0.3018  0.4200
 5982SOL    HW129405   0.612   3.188  15.823  0.0608 -0.2673 -0.1935
 5982SOL    HW229406   0.609   3.044  15.828 -1.3832 -0.1163  0.1123
 5983SOL     OW29407   2.348   3.536   3.662 -0.8227  0.1610  0.2542
 5983SOL    HW129408   2.287   3.466   3.684  2.5932 -2.8971 -0.0344
 5983SOL    HW229409   2.419   3.529   3.727  0.2883 -0.8764 -1.0825
 5984SOL     OW29410   4.007   0.686   0.692 -0.3527 -0.5594  0.0223
 5984SOL    HW129411   4.013   0.673   0.597 -2.0244 -1.9017  0.1190
 5984SOL    HW229412   4.100   0.687   0.717  0.4261  0.2618 -2.8279
 5985SOL     OW29413   3.461   2.385   8.826 -0.3693 -0.0829 -0.0026
 5985SOL    HW129414   3.391   2.326   8.852 -0.1624  0.3083  1.4479
 5985SOL    HW229415   3.526   2.321   8.854 -0.8716 -1.3103 -1.6598
 5986SOL     OW29416   0.649   1.201   8.105  0.0617 -0.0568 -0.0573
 5986SOL    HW129417   0.635   1.275   8.164 -1.8009 -0.7644  0.3943
 5986SOL    HW229418   0.559   1.171   8.090  0.0141 -0.2706  0.6791
 5987SOL     OW29419   3.092   1.388   3.337 -0.4161  0.2204  0.2842
 5987SOL    HW129420   3.081   1.477   3.304  0.1732 -0.2025 -1.0671
 5987SOL    HW229421   3.009   1.349   3.308  0.1052 -1.4599  1.0997
 5988SOL     OW29422   0.500   1.929   3.785 -0.5233  0.0336  0.0204
 5988SOL    HW129423   0.407   1.940   3.766 -0.6512  0.0420  0.6436
 5988SOL    HW229424   0.519   2.021   3.806  3.8079 -0.7456 -0.3177
 5989SOL     OW29425   2.775   3.657   4.251  0.5256  0.3001  0.4855
 5989SOL    HW129426   2.778   3.610   4.334 -1.8401 -0.0920  0.3485
 5989SOL    HW229427   2.829   3.728   4.287 -3.1354  3.2387  0.1079
 5990SOL     OW29428   3.957   4.295  13.140 -0.1158  0.0588 -0.1614
 5990SOL    HW129429   4.015   4.235  13.094 -0.0624  2.0411 -2.6665
 5990SOL    HW229430   3.998   4.378  13.118 -0.1395  0.4660  1.3060
 5991SOL     OW29431   1.713   2.241   2.304 -0.3433  0.2132 -0.6374
 5991SOL    HW129432   1.706   2.288   2.386  0.4089  0.0896 -0.5013
 5991SOL    HW229433   1.644   2.175   2.319  0.1971 -0.7080 -2.1666
 5992SOL     OW29434   1.934   0.712   2.272  0.3270  0.2304  0.0085
 5992SOL    HW129435   1.922   0.788   2.216 -0.6902 -0.0924 -0.2143
 5992SOL    HW229436   1.853   0.664   2.257 -0.0343  0.4751  1.1573
 5993SOL     OW29437   3.680   0.966   8.277  0.4466  0.1002  0.3675
 5993SOL    HW129438   3.717   0.881   8.301 -1.1669 -1.7640 -3.8777
 5993SOL    HW229439   3.750   1.025   8.308  0.9675  0.2750 -1.1597
 5994SOL     OW29440   4.179   3.144   3.165  0.1782 -0.2407  0.3314
 5994SOL    HW129441   4.150   3.227   3.129 -1.9099 -1.0045  0.2631
 5994SOL    HW229442   4.093   3.103   3.171 -0.0111  0.2343  0.8526
 5995SOL     OW29443   2.833   0.339  17.182 -0.1972 -0.3128 -0.1430
 5995SOL    HW129444   2.789   0.370  17.261 -2.9331 -2.0110 -1.0097
 5995SOL    HW229445   2.915   0.312  17.223 -1.2936  0.1188  2.3526
 5996SOL     OW29446   3.126   3.945   4.003 -0.0701  0.4744  0.5181
 5996SOL    HW129447   3.034   3.969   4.000  0.5689  2.5381 -2.3497
 5996SOL    HW229448   3.145   4.035   4.031  0.5686  0.5607 -0.1761
 5997SOL     OW29449   2.051   0.286   8.192 -0.2860  0.4312 -0.2725
 5997SOL    HW129450   2.057   0.294   8.288 -1.1008 -0.0626 -0.1797
 5997SOL    HW229451   1.956   0.287   8.181 -0.3036  0.7086 -0.1073
 5998SOL     OW29452   4.649   2.204   4.996  0.4693  0.1974  0.0059
 5998SOL    HW129453   4.566   2.252   4.988  0.5280  0.8866  3.5871
 5998SOL    HW229454   4.622   2.119   4.960 -0.7968  1.0955 -1.1725
 5999SOL     OW29455   0.295   3.164   6.165 -0.4500 -0.4755 -0.0789
 5999SOL    HW129456   0.384   3.147   6.135  0.3433 -0.4315  2.2090
 5999SOL    HW229457   0.255   3.077   6.159 -1.7029 -0.0316  1.4958
 6000SOL     OW29458   2.650   2.097   4.244 -0.2318 -0.1221 -0.0411
 6000SOL    HW129459   2.745   2.106   4.234 -0.1619  0.4969  1.1232
 6000SOL    HW229460   2.650   2.001   4.237 -1.1080 -0.1428  0.2683
 6001SOL     OW29461   0.084   1.310  16.484  0.1984 -0.1605 -0.3053
 6001SOL    HW129462   0.129   1.228  16.502 -1.0971 -0.8995 -0.4378
 6001SOL    HW229463   0.027   1.289  16.410 -0.8023  0.7951  0.1800
 6002SOL     OW29464   4.559   0.615   7.955 -0.5605  0.4997  0.1988
 6002SOL    HW129465   4.512   0.532   7.957  2.1429 -1.0279  1.5569
 6002SOL    HW229466   4.544   0.645   7.866 -3.1582  0.9682  0.7850
 6003SOL     OW29467   3.059   1.973   2.503  0.4776 -0.2058 -0.0657
 6003SOL    HW129468   3.125   2.008   2.563 -0.4611 -2.4357  2.2643
 6003SOL    HW229469   2.993   2.041   2.512  1.5190  0.7352  0.4613
 6004SOL     OW29470   2.586   2.493   4.928 -0.0428  0.4774 -0.2782
 6004SOL    HW129471   2.505   2.466   4.973 -0.8618  1.9001 -0.8864
 6004SOL    HW229472   2.637   2.547   4.988 -1.0136 -0.3365  1.2998
 6005SOL     OW29473   4.612   2.678   6.326  0.1814  0.4324  0.1484
 6005SOL    HW129474   4.672   2.704   6.396 -0.5717 -0.0396  0.9627
 6005SOL    HW229475   4.564   2.609   6.370  1.8835 -1.6810 -1.2884
 6006SOL     OW29476   0.599   3.465   9.823  0.1324  0.1861  0.0099
 6006SOL    HW129477   0.618   3.390   9.767  0.1810 -0.1420  0.4698
 6006SOL    HW229478   0.662   3.462   9.894  1.0274  0.5754 -0.7618
 6007SOL     OW29479   0.672   2.014  17.485 -0.4117  0.2861  0.1222
 6007SOL    HW129480   0.746   2.073  17.467  1.0916 -1.7285 -0.3639
 6007SOL    HW229481   0.594   2.069  17.481 -1.9390 -1.7193  2.0436
 6008SOL     OW29482   3.682   4.447   7.795  0.1259 -0.0774 -0.4161
 6008SOL    HW129483   3.776   4.435   7.806 -0.1020  1.2425  3.0783
 6008SOL    HW229484   3.648   4.357   7.795  0.1826 -0.0958  0.6577
 6009SOL     OW29485   3.892   2.891   3.120 -0.2832  0.7783 -0.5516
 6009SOL    HW129486   3.930   2.908   3.034 -1.7421  0.3633 -1.2802
 6009SOL    HW229487   3.862   2.980   3.140  0.1387  0.3133  2.1111
 6010SOL     OW29488   0.012   1.886   8.258  0.3081  0.7269  0.1509
 6010SOL    HW129489   4.667   1.939   8.221 -0.8958  0.7280  2.3973
 6010SOL    HW229490   0.091   1.915   8.214  0.0508  1.5711  0.2503
 6011SOL     OW29491   0.250   1.179   1.248 -0.3550  0.2918 -0.2550
 6011SOL    HW129492   0.289   1.159   1.163 -0.1154  3.4932 -0.8844
 6011SOL    HW229493   0.173   1.230   1.222 -1.1303 -0.8788 -0.2581
 6012SOL     OW29494   0.128   2.507  12.752  0.0815  0.6395  0.0149
 6012SOL    HW129495   0.098   2.460  12.674 -1.0497 -0.2963  0.9998
 6012SOL    HW229496   0.169   2.585  12.715 -0.5469  0.4782 -1.0047
 6013SOL     OW29497   4.384   2.758   9.134 -1.0727 -0.2010 -0.0237
 6013SOL    HW129498   4.346   2.786   9.051  3.9066 -1.9415 -2.8975
 6013SOL    HW229499   4.476   2.752   9.110 -1.4730 -1.0044 -1.3319
 6014SOL     OW29500   3.036   3.723  11.614 -0.2597  0.5206 -0.1925
 6014SOL    HW129501   2.989   3.782  11.673 -1.3432  0.4275 -0.9582
 6014SOL    HW229502   3.089   3.787  11.566  1.9160 -2.2651 -1.4932
 6015SOL     OW29503   0.551   0.376   5.244  0.1677 -0.4292  0.3187
 6015SOL    HW129504   0.479   0.389   5.306  0.7320 -0.0637  0.8924
 6015SOL    HW229505   0.512   0.327   5.171 -1.8163 -0.8995  1.6938
 6016SOL     OW29506   4.724   2.622  17.060  0.6088  0.6346  0.4443
 6016SOL    HW129507   4.675   2.563  17.003 -0.0518  1.3115  0.2978
 6016SOL    HW229508   4.664   2.696  17.045  1.6065  1.6198  1.3693
 6017SOL     OW29509   0.229   1.363  14.417 -0.1838  0.4282 -0.4833
 6017SOL    HW129510   0.275   1.348  14.334  0.3123  0.6441 -0.2520
 6017SOL    HW229511   0.149   1.402  14.381  0.4817 -0.7512 -3.2222
 6018SOL     OW29512   2.279   3.154   6.386 -0.3815 -0.3721  0.1285
 6018SOL    HW129513   2.212   3.102   6.431  0.6893  0.9239  3.2698
 6018SOL    HW229514   2.354   3.100   6.412  0.6278  0.8914 -0.1342
 6019SOL     OW29515   4.484   1.400  10.180 -0.0163  0.3159 -0.3117
 6019SOL    HW129516   4.489   1.320  10.232 -1.5581 -0.6439 -1.6197
 6019SOL    HW229517   4.392   1.416  10.200 -0.5859 -1.0430 -1.7870
 6020SOL     OW29518   2.204   4.094   5.941  0.0911  0.2510 -0.0232
 6020SOL    HW129519   2.122   4.065   5.981  0.8407 -0.2822  1.1479
 6020SOL    HW229520   2.216   4.176   5.989  0.8915 -1.9539  3.5837
 6021SOL     OW29521   4.549   3.441   9.538  0.0721  0.4645  0.1960
 6021SOL    HW129522   4.643   3.453   9.544  0.2703 -1.3870  0.8231
 6021SOL    HW229523   4.512   3.506   9.598 -0.8588  0.4366 -0.3398
 6022SOL     OW29524   4.054   4.701   2.933 -0.4020 -0.1779  0.0362
 6022SOL    HW129525   4.149   4.705   2.929 -0.3069 -1.0386  1.4057
 6022SOL    HW229526   4.047   0.040   3.003  0.6007  0.3898 -0.3940
 6023SOL     OW29527   2.156   3.669  16.405 -0.5948  0.5126  0.3954
 6023SOL    HW129528   2.154   3.576  16.429  0.5913 -0.2915 -2.5721
 6023SOL    HW229529   2.066   3.696  16.384 -0.9108 -0.9917 -0.1851
 6024SOL     OW29530   0.383   2.674   9.480 -0.3127  0.5130 -0.2552
 6024SOL    HW129531   0.305   2.704   9.436  0.9325  0.5696 -2.4044
 6024SOL    HW229532   0.369   2.583   9.505  1.1556  0.3780  0.0758
 6025SOL     OW29533   1.043   3.171  17.058  0.0171 -0.4526 -0.1864
 6025SOL    HW129534   0.955   3.162  17.095 -0.3489 -0.5580 -1.0749
 6025SOL    HW229535   1.021   3.230  16.986 -1.4859 -0.7398  0.0242
 6026SOL     OW29536   0.677   2.697   8.329 -0.0202  0.1610 -0.0227
 6026SOL    HW129537   0.623   2.620   8.314 -1.2534  0.5518  2.4907
 6026SOL    HW229538   0.702   2.716   8.238  0.5206  1.2157  0.3490
 6027SOL     OW29539   3.261   4.104   3.647 -0.0279 -0.1507  0.0136
 6027SOL    HW129540   3.266   4.139   3.558 -2.2390  0.2954  0.0795
 6027SOL    HW229541   3.170   4.119   3.672  1.0879  1.2240  3.2311
 6028SOL     OW29542   0.927   1.041   9.833  0.1905 -0.8749  0.2972
 6028SOL    HW129543   0.846   0.999   9.863  0.3162 -0.9996  0.4619
 6028SOL    HW229544   0.967   1.083   9.909 -1.8467 -1.0190  1.4597
 6029SOL     OW29545   0.100   2.883   2.604 -0.2681  0.3080  0.0223
 6029SOL    HW129546   0.066   2.826   2.535 -0.4722  0.4150  0.0328
 6029SOL    HW229547   0.015   2.903   2.642  0.3734 -0.2516  1.7338
 6030SOL     OW29548   3.950   2.272   3.667 -0.0080 -0.8216 -0.4313
 6030SOL    HW129549   3.998   2.227   3.737  1.0602 -0.6454 -1.0563
 6030SOL    HW229550   4.001   2.352   3.669  1.3835 -1.6998 -0.5287
 6031SOL     OW29551   1.545   0.560   4.692  0.4450  0.7136  0.1618
 6031SOL    HW129552   1.488   0.496   4.649  2.0409 -1.1331  0.7773
 6031SOL    HW229553   1.510   0.643   4.660  0.1611  0.7176  0.4822
 6032SOL     OW29554   0.403   1.735   3.945  1.3571  0.1094 -0.2545
 6032SOL    HW129555   0.456   1.794   3.890  1.0745  0.9515  0.3802
 6032SOL    HW229556   0.446   1.650   3.933 -0.0603 -0.3353 -2.0835
 6033SOL     OW29557   2.308   2.395  13.572 -0.2139 -0.8443 -0.1602
 6033SOL    HW129558   2.239   2.429  13.515  0.5704  0.1206 -0.5275
 6033SOL    HW229559   2.306   2.300  13.563 -0.6614 -0.8286 -0.1991
 6034SOL     OW29560   3.705   2.737   0.869  0.4050  0.6997 -0.5973
 6034SOL    HW129561   3.735   2.657   0.827 -1.5728  0.4981 -1.5898
 6034SOL    HW229562   3.620   2.700   0.893  1.3522  0.0008  1.7036
 6035SOL     OW29563   4.413   0.308   2.013  0.1968 -0.3761 -0.0840
 6035SOL    HW129564   4.390   0.373   2.080 -2.8498 -2.4542  0.8919
 6035SOL    HW229565   4.468   0.362   1.957 -0.9356 -0.0480 -0.8589
 6036SOL     OW29566   3.672   3.300   3.492  0.5871 -0.4234 -0.0267
 6036SOL    HW129567   3.750   3.354   3.478  0.6866 -1.3645 -3.1949
 6036SOL    HW229568   3.643   3.309   3.401  1.1437 -0.6436 -0.2267
 6037SOL     OW29569   3.574   2.153   3.268 -0.4781  0.5949  0.0085
 6037SOL    HW129570   3.645   2.193   3.218  0.0333 -1.5712 -1.0240
 6037SOL    HW229571   3.622   2.088   3.319  0.4088  0.0342 -1.5348
 6038SOL     OW29572   2.471   4.108   3.004 -0.1874  0.1881 -0.0265
 6038SOL    HW129573   2.471   4.203   3.006  1.8859  0.1900  0.2348
 6038SOL    HW229574   2.535   4.095   2.934 -1.7861  1.2459 -1.6802
 6039SOL     OW29575   1.432   4.441  15.692  0.1833  0.0855 -0.1904
 6039SOL    HW129576   1.490   4.471  15.621 -1.5632  1.9341 -0.8413
 6039SOL    HW229577   1.457   4.349  15.698  0.7961  0.1542 -1.8068
 6040SOL     OW29578   0.526   2.344   7.260 -0.5747  0.0206 -0.2922
 6040SOL    HW129579   0.544   2.258   7.222  0.7184  0.2821 -0.2843
 6040SOL    HW229580   0.518   2.415   7.196 -0.7680  0.4982  0.2504
 6041SOL     OW29581   1.235   2.069   8.766  0.0871 -0.1835  0.1452
 6041SOL    HW129582   1.204   2.126   8.836  1.5629 -0.4164  0.9807
 6041SOL    HW229583   1.192   1.991   8.800  1.6156 -1.9372 -1.9384
 6042SOL     OW29584   1.115   4.210   3.309 -0.2688 -0.3084  0.3274
 6042SOL    HW129585   1.123   4.150   3.383  0.0313 -1.5753 -0.7324
 6042SOL    HW229586   1.020   4.222   3.311 -0.0919  1.3769 -1.2933
 6043SOL     OW29587   4.032   3.891   4.580  0.3945 -0.0036 -0.1232
 6043SOL    HW129588   4.002   3.884   4.489 -1.3509 -0.2091  0.4669
 6043SOL    HW229589   4.111   3.838   4.575 -0.0538 -0.9283  2.3208
 6044SOL     OW29590   3.205   1.701   1.041  0.0204  0.7713  0.0576
 6044SOL    HW129591   3.297   1.726   1.038  0.0758  0.3094 -2.2138
 6044SOL    HW229592   3.176   1.779   1.090  3.0389  1.1985  1.1242
 6045SOL     OW29593   0.954   2.813   2.720  0.3856 -0.0803 -0.0591
 6045SOL    HW129594   0.930   2.900   2.689  0.5548 -0.2723 -0.7500
 6045SOL    HW229595   1.042   2.797   2.684  0.5588  1.5446 -0.3552
 6046SOL     OW29596   1.658   0.656   9.188  0.0173 -1.0198  0.2118
 6046SOL    HW129597   1.742   0.611   9.193  0.3898 -0.3513 -0.1766
 6046SOL    HW229598   1.610   0.591   9.241 -0.0645 -3.2910 -2.6321
 6047SOL     OW29599   4.623   2.585   9.287  0.5181  0.2144 -0.2712
 6047SOL    HW129600   4.564   2.512   9.304  1.4614 -0.1391  1.4320
 6047SOL    HW229601   4.571   2.651   9.333  0.0406 -1.3985  1.4592
 6048SOL     OW29602   3.513   3.010   8.368 -0.1518  0.7185 -0.1287
 6048SOL    HW129603   3.567   2.997   8.290  1.2120  0.0561  0.9316
 6048SOL    HW229604   3.549   2.942   8.425 -2.8641 -1.7056 -1.2709
 6049SOL     OW29605   3.702   2.691   9.383  0.2641  0.0843 -0.4329
 6049SOL    HW129606   3.725   2.717   9.472  1.0036  0.6420 -0.7864
 6049SOL    HW229607   3.636   2.624   9.400 -1.2692  1.7077  0.0362
 6050SOL     OW29608   3.913   0.792   8.561  0.0030 -0.6182  0.3540
 6050SOL    HW129609   3.851   0.756   8.498  1.3903  2.7067 -2.8701
 6050SOL    HW229610   3.849   0.834   8.618 -0.2302 -0.3021 -0.1458
 6051SOL     OW29611   1.019   1.166  10.059 -0.1812  0.1434  0.1732
 6051SOL    HW129612   1.058   1.126  10.137 -2.1408 -0.0645  1.0463
 6051SOL    HW229613   0.926   1.150  10.077 -1.2134  3.5719 -2.1757
 6052SOL     OW29614   2.863   2.367   4.867  0.4015 -0.0330  0.2743
 6052SOL    HW129615   2.910   2.449   4.884 -1.0092  0.6796  0.7549
 6052SOL    HW229616   2.790   2.395   4.812 -0.1260 -0.3706  0.8140
 6053SOL     OW29617   3.155   0.022  13.239 -0.2028 -0.4233  0.0441
 6053SOL    HW129618   3.119   0.062  13.318  1.1620  2.6140 -0.8724
 6053SOL    HW229619   3.248   0.028  13.263 -0.2343 -0.9344  0.2964
 6054SOL     OW29620   2.769   3.153   2.546  0.0078  0.1226  0.2031
 6054SOL    HW129621   2.861   3.176   2.559  0.6646 -2.3293 -0.1617
 6054SOL    HW229622   2.731   3.219   2.605  1.0261 -0.5880  1.6522
 6055SOL     OW29623   3.952   2.977   4.283 -0.0057  0.3938 -0.2331
 6055SOL    HW129624   3.888   2.955   4.351  0.6675  0.1670  0.3388
 6055SOL    HW229625   3.922   2.926   4.208  1.7632  0.4832 -1.0086
 6056SOL     OW29626   1.834   2.816   0.992  0.3080 -0.3037 -0.2817
 6056SOL    HW129627   1.763   2.872   1.023  0.1528 -0.2871 -0.6661
 6056SOL    HW229628   1.834   2.826   0.897 -0.7911  0.9417 -0.1447
 6057SOL     OW29629   4.584   0.557   3.259  0.8517 -0.2658  0.2324
 6057SOL    HW129630   4.583   0.462   3.262  0.7859 -0.3387 -2.2145
 6057SOL    HW229631   4.677   0.571   3.271  1.0384  0.7268 -2.3821
 6058SOL     OW29632   4.224   1.618   7.192 -0.0569  0.1188  0.1139
 6058SOL    HW129633   4.290   1.642   7.127 -0.4787  0.7684 -0.0752
 6058SOL    HW229634   4.212   1.706   7.226  1.3670 -0.1336  1.2569
 6059SOL     OW29635   2.927   4.133   4.834 -0.0160  0.4565 -0.3667
 6059SOL    HW129636   3.009   4.089   4.860 -2.7872 -2.6192  3.2068
 6059SOL    HW229637   2.847   4.085   4.853  0.3585  0.0086  0.0842
 6060SOL     OW29638   0.923   0.993   3.432 -0.1023  0.4580 -0.2941
 6060SOL    HW129639   0.960   0.974   3.345  2.1126 -0.9806  0.9689
 6060SOL    HW229640   0.900   1.085   3.416  1.1994  0.8164 -0.1184
 6061SOL     OW29641   2.970   1.984   9.552 -0.2426  0.1354  0.6485
 6061SOL    HW129642   2.923   1.992   9.469 -2.3640  1.9671  2.0451
 6061SOL    HW229643   2.957   2.072   9.587  2.4026  0.4650  0.7788
 6062SOL     OW29644   3.251   2.688   7.708 -0.0711 -0.7212  0.8700
 6062SOL    HW129645   3.277   2.640   7.630  1.1668  0.1364  0.7532
 6062SOL    HW229646   3.313   2.650   7.771 -0.9727 -0.5776  1.8326
 6063SOL     OW29647   2.521   2.281   7.319 -0.3614 -0.3054 -0.3240
 6063SOL    HW129648   2.516   2.361   7.266 -2.7612  0.3482  0.8728
 6063SOL    HW229649   2.492   2.314   7.404  1.9646 -0.7693  0.6425
 6064SOL     OW29650   2.913   3.729   5.935  0.2689  0.4436  0.3824
 6064SOL    HW129651   2.887   3.714   6.026  0.1693 -0.9912  0.1111
 6064SOL    HW229652   2.935   3.822   5.938 -1.9652  0.9745  0.2270
 6065SOL     OW29653   1.510   1.477   7.339  0.4755  0.6009  0.2505
 6065SOL    HW129654   1.555   1.490   7.422 -0.2312 -0.8977  0.8629
 6065SOL    HW229655   1.588   1.444   7.295  0.2608  2.5264 -1.5742
 6066SOL     OW29656   2.726   0.226   6.463 -0.4329  0.6613  0.3912
 6066SOL    HW129657   2.640   0.189   6.443 -0.7452  1.0718  0.9819
 6066SOL    HW229658   2.760   0.209   6.375 -0.8699 -1.3571  0.6193
 6067SOL     OW29659   3.381   1.559   5.225 -0.2850  0.3320  0.2019
 6067SOL    HW129660   3.404   1.505   5.149  1.0923  0.0115  0.8372
 6067SOL    HW229661   3.431   1.638   5.206 -1.6818  1.2835  0.5405
 6068SOL     OW29662   2.716   3.319   8.200  0.4196 -0.1177 -0.0950
 6068SOL    HW129663   2.647   3.260   8.229 -1.2000  1.5417 -0.5223
 6068SOL    HW229664   2.682   3.366   8.123 -1.1817 -1.2315 -0.0759
 6069SOL     OW29665   0.676   2.222   0.791 -0.5061 -0.2748 -0.2430
 6069SOL    HW129666   0.699   2.160   0.860 -1.7197  0.8527  1.1608
 6069SOL    HW229667   0.614   2.174   0.735  0.2705 -1.3776 -0.1519
 6070SOL     OW29668   4.072   3.997   3.976  0.3579 -0.1258  0.3063
 6070SOL    HW129669   4.036   4.063   3.916  1.1489 -1.6307 -1.8218
 6070SOL    HW229670   4.065   4.041   4.061  0.4015  0.9750 -0.2616
 6071SOL     OW29671   0.527   2.485   6.169  0.8314  0.5251 -0.7416
 6071SOL    HW129672   0.546   2.397   6.135 -0.5417  0.3163 -0.9590
 6071SOL    HW229673   0.488   2.468   6.255 -1.1183  1.4110 -1.4486
 6072SOL     OW29674   0.242   1.727   7.090  0.4611 -0.0582 -0.4124
 6072SOL    HW129675   0.258   1.715   7.184 -1.1013  1.0555 -0.0034
 6072SOL    HW229676   0.271   1.640   7.063 -1.1972 -0.5793 -0.4662
 6073SOL     OW29677   0.725   4.272   7.141 -0.2509 -0.4566  0.3996
 6073SOL    HW129678   0.775   4.285   7.060  0.8093 -0.8658  0.9769
 6073SOL    HW229679   0.638   4.302   7.116  0.2658 -0.9524 -1.9650
 6074SOL     OW29680   0.009   4.347   9.070  0.1712 -0.2833 -0.3044
 6074SOL    HW129681   4.698   4.431   9.044  0.9559  0.1255 -0.1015
 6074SOL    HW229682   0.035   4.366   9.160  2.5148  2.2257 -1.5215
 6075SOL     OW29683   0.647   3.304  12.080 -0.2671  0.3510  0.0506
 6075SOL    HW129684   0.733   3.316  12.040  0.6445 -0.6676  1.7082
 6075SOL    HW229685   0.650   3.328  12.173 -0.3855 -0.0939  0.1702
 6076SOL     OW29686   3.003   3.256   7.840 -0.2350 -0.7542  0.7393
 6076SOL    HW129687   2.999   3.306   7.921  1.5960 -2.6201  1.9479
 6076SOL    HW229688   3.087   3.281   7.800 -1.2668  0.3840 -0.7495
 6077SOL     OW29689   3.026   4.238  13.671 -0.8059  0.9264 -0.2195
 6077SOL    HW129690   3.109   4.191  13.662 -1.0092  0.8338 -1.7515
 6077SOL    HW229691   3.037   4.308  13.607  2.2194 -0.6320 -1.4617
 6078SOL     OW29692   1.043   2.989  10.051 -0.4499 -0.0492 -0.4767
 6078SOL    HW129693   0.971   2.926  10.058 -2.3913  2.4741  3.1063
 6078SOL    HW229694   1.070   2.982  10.143  0.0045 -0.1320 -0.6180
 6079SOL     OW29695   2.892   2.756   4.749 -1.0483 -0.6132  0.2851
 6079SOL    HW129696   2.919   2.802   4.670  0.3015  0.0473  1.1276
 6079SOL    HW229697   2.832   2.690   4.714  1.9185 -2.5382 -1.1546
 6080SOL     OW29698   3.965   0.893  17.120  0.5799  0.2436 -0.3276
 6080SOL    HW129699   4.052   0.889  17.081  0.8561  0.6050  0.2512
 6080SOL    HW229700   3.921   0.833  17.059  0.1922  0.8457 -0.6418
 6081SOL     OW29701   3.796   4.551   2.178  0.0501 -0.2462  0.8996
 6081SOL    HW129702   3.835   4.465   2.197  0.8055  0.3430  1.9882
 6081SOL    HW229703   3.726   4.524   2.118 -0.0456 -1.5605  1.5929
 6082SOL     OW29704   1.532   1.957   4.426 -0.0328  0.2199 -0.3911
 6082SOL    HW129705   1.490   1.873   4.406  2.3506 -1.4532  1.7013
 6082SOL    HW229706   1.538   1.996   4.339  0.6587  1.4608  0.2095
 6083SOL     OW29707   2.324   1.167   5.466 -0.1886 -0.0620 -0.1393
 6083SOL    HW129708   2.261   1.233   5.496  1.2165  0.5882  1.3536
 6083SOL    HW229709   2.371   1.215   5.397  0.3659  1.2576  1.1730
 6084SOL     OW29710   4.516   2.660   1.372  0.4395  0.0176  0.0529
 6084SOL    HW129711   4.543   2.751   1.363 -1.2275  0.3535 -1.2673
 6084SOL    HW229712   4.507   2.645   1.467 -0.3963 -3.7680 -0.5971
 6085SOL     OW29713   1.331   3.763  15.221 -0.0025 -0.2739 -0.5543
 6085SOL    HW129714   1.369   3.707  15.290  1.5302  1.9862  0.4572
 6085SOL    HW229715   1.407   3.819  15.203  0.3430 -0.4706  0.2671
 6086SOL     OW29716   3.695   2.458   7.773  0.0749  0.2984 -0.2839
 6086SOL    HW129717   3.779   2.502   7.766  0.0970  0.1748 -0.8006
 6086SOL    HW229718   3.662   2.458   7.683 -0.7334  0.2359  0.0091
 6087SOL     OW29719   2.522   0.844   6.881  0.4934 -0.3547  0.0381
 6087SOL    HW129720   2.601   0.881   6.842 -0.7364 -0.6984 -2.7843
 6087SOL    HW229721   2.538   0.755   6.850  1.3943  0.0592 -0.6989
 6088SOL     OW29722   3.681   0.068   6.691 -0.8180 -0.8067 -0.1798
 6088SOL    HW129723   3.656   0.007   6.761 -1.5793 -0.9289 -0.5523
 6088SOL    HW229724   3.647   0.153   6.718 -1.3187 -0.6945 -1.1608
 6089SOL     OW29725   4.120   3.834   1.244 -0.3752  0.5439 -0.0087
 6089SOL    HW129726   4.060   3.760   1.232 -0.3209  0.5786 -0.5224
 6089SOL    HW229727   4.117   3.869   1.155  2.5130  0.5927 -0.1100
 6090SOL     OW29728   4.573   0.856   1.021 -0.5387 -0.0187  0.3002
 6090SOL    HW129729   4.599   0.844   0.930  2.1080 -0.3316  1.1001
 6090SOL    HW229730   4.541   0.946   1.024  1.5120  0.6449  1.7965
 6091SOL     OW29731   1.904   4.264   1.612 -0.2366 -0.3058  0.1443
 6091SOL    HW129732   1.969   4.286   1.679 -0.8386 -2.4472  1.4365
 6091SOL    HW229733   1.902   4.168   1.618 -0.3256 -0.1623  2.7495
 6092SOL     OW29734   1.965   1.711   6.507  0.1600 -0.5965 -0.3258
 6092SOL    HW129735   1.937   1.629   6.468 -1.6368  0.7771 -1.9429
 6092SOL    HW229736   1.879   1.725   6.546  1.6862  1.4280  2.3277
 6093SOL     OW29737   4.616   3.520   0.491 -0.1440  0.1716 -0.3818
 6093SOL    HW129738   4.699   3.500   0.532 -0.7115  0.6063  0.9721
 6093SOL    HW229739   4.615   3.615   0.503 -3.0539  0.0713  0.3072
 6094SOL     OW29740   4.648   1.073   7.216  0.1346  0.2430  0.4109
 6094SOL    HW129741   4.716   1.131   7.253  0.1165  0.9641 -0.6809
 6094SOL    HW229742   4.695   0.992   7.199  2.0890  1.6849 -1.0842
 6095SOL     OW29743   1.877   1.428   0.701 -0.8130  0.2427 -0.4181
 6095SOL    HW129744   1.873   1.385   0.615 -1.3847 -0.4976 -0.0155
 6095SOL    HW229745   1.845   1.361   0.761 -0.9907  1.8441  1.2500
 6096SOL     OW29746   2.065   4.267   0.328 -0.1654  0.1344  0.3574
 6096SOL    HW129747   2.108   4.182   0.334  1.0991  0.6179 -1.8140
 6096SOL    HW229748   2.113   4.304   0.403  2.7821 -1.7296 -0.5843
 6097SOL     OW29749   0.311   0.934   8.870 -0.3795  0.3080 -0.8714
 6097SOL    HW129750   0.260   0.993   8.925  1.5470  0.1821  1.0677
 6097SOL    HW229751   0.342   0.994   8.802 -2.4582  1.2528 -0.9968
 6098SOL     OW29752   0.563   0.300   4.819  1.0926 -0.1695 -0.7891
 6098SOL    HW129753   0.481   0.300   4.769  0.1486 -1.1418  0.7581
 6098SOL    HW229754   0.611   0.374   4.783 -0.0721  1.4526  0.9496
 6099SOL     OW29755   4.561   0.176   8.767  0.6113  0.0273 -0.5290
 6099SOL    HW129756   4.482   0.164   8.819  1.8793 -3.1958  0.6865
 6099SOL    HW229757   4.627   0.199   8.832  2.1348  1.3996 -2.5342
 6100SOL     OW29758   0.986   0.204   8.217  0.2296  0.2501 -0.1683
 6100SOL    HW129759   1.041   0.185   8.293 -1.7084  2.2979  1.7402
 6100SOL    HW229760   0.977   0.299   8.218  0.7263  0.2557  3.6246
 6101SOL     OW29761   1.574   4.536  16.445 -0.0119  0.3922 -0.0908
 6101SOL    HW129762   1.644   4.471  16.446  0.5771  1.0086 -1.6298
 6101SOL    HW229763   1.609   4.606  16.500 -0.5547  0.8818 -0.3661
 6102SOL     OW29764   3.190   3.444   6.699 -0.0301  0.5209 -0.0991
 6102SOL    HW129765   3.178   3.534   6.730 -0.9292  0.8218 -1.3548
 6102SOL    HW229766   3.256   3.420   6.764 -0.0276 -0.3941 -0.4494
 6103SOL     OW29767   3.070   1.408   2.627 -0.0552  0.0379  0.0171
 6103SOL    HW129768   3.038   1.443   2.544 -1.2159  0.2245  0.5373
 6103SOL    HW229769   3.011   1.333   2.632  0.0196  0.0170  0.5787
 6104SOL     OW29770   3.351   3.950   5.607  1.1181  0.1352 -0.0068
 6104SOL    HW129771   3.344   3.854   5.609  1.9959  0.0171 -4.0149
 6104SOL    HW229772   3.402   3.941   5.527 -0.0924  0.7459 -0.8388
 6105SOL     OW29773   3.466   4.394  17.690 -0.1479 -0.3463 -0.1685
 6105SOL    HW129774   3.444   4.446   0.063 -0.6716 -2.1795  0.8927
 6105SOL    HW229775   3.520   4.326   0.026  0.0515 -0.5378 -0.7602
 6106SOL     OW29776   2.010   3.583  14.786 -0.2165  0.2320 -0.6489
 6106SOL    HW129777   2.076   3.533  14.834  0.6631 -1.7838 -3.9471
 6106SOL    HW229778   1.962   3.502  14.772  0.2304  0.0050 -0.8515
 6107SOL     OW29779   0.176   0.591   5.484 -0.0696 -0.0528 -0.0371
 6107SOL    HW129780   0.153   0.683   5.493  1.2929  0.1310  1.5180
 6107SOL    HW229781   0.195   0.566   5.574  1.2819  2.4427  0.3676
 6108SOL     OW29782   2.667   2.626   0.318  0.4514  0.1394  0.7229
 6108SOL    HW129783   2.620   2.555   0.273  0.2702  1.6451 -1.4587
 6108SOL    HW229784   2.726   2.574   0.372  4.0093  1.9808 -1.4354
 6109SOL     OW29785   2.970   4.301   3.921  0.6045  0.1538 -0.1258
 6109SOL    HW129786   3.032   4.274   3.988  0.0564  4.0657  1.9727
 6109SOL    HW229787   2.997   4.244   3.849  0.2860  0.6440 -0.6419
 6110SOL     OW29788   1.625   0.941   2.168 -0.2489 -0.2894  0.3137
 6110SOL    HW129789   1.681   0.945   2.091 -1.1446 -0.3907 -0.3431
 6110SOL    HW229790   1.657   1.013   2.222  0.8571  0.5559 -1.4737
 6111SOL     OW29791   0.232   0.497   7.080 -0.0367  0.0743 -0.0249
 6111SOL    HW129792   0.312   0.544   7.102 -0.4626  1.2242 -0.9408
 6111SOL    HW229793   0.264   0.410   7.059 -1.6118 -0.6012  0.3942
 6112SOL     OW29794   2.892   3.233   4.579 -0.3743 -0.2166  0.0695
 6112SOL    HW129795   2.916   3.287   4.654  1.4614 -0.9295 -0.0025
 6112SOL    HW229796   2.918   3.287   4.505  3.7132  0.8467  2.2589
 6113SOL     OW29797   0.343   1.197   5.106 -0.0030  0.2090  0.5936
 6113SOL    HW129798   0.401   1.216   5.180 -0.8673 -1.3763  1.6665
 6113SOL    HW229799   0.284   1.272   5.104  3.1724  2.7470  0.7676
 6114SOL     OW29800   2.616   3.721   5.866  0.9308 -0.6207 -0.0165
 6114SOL    HW129801   2.566   3.790   5.822  2.1307 -0.3968 -1.0375
 6114SOL    HW229802   2.695   3.715   5.812  0.7572 -0.5115 -0.2846
 6115SOL     OW29803   4.152   3.375   7.193 -0.0014 -0.0473 -0.7932
 6115SOL    HW129804   4.146   3.292   7.240  0.7774  0.3948  0.0827
 6115SOL    HW229805   4.094   3.361   7.118 -0.5390 -0.9382 -0.2152
 6116SOL     OW29806   3.933   3.205   8.370 -0.2603 -0.1447  0.3650
 6116SOL    HW129807   3.980   3.244   8.444  2.2906  0.9597 -1.8302
 6116SOL    HW229808   3.987   3.127   8.357  0.6891  0.4876  0.5352
 6117SOL     OW29809   0.843   2.638   2.947 -0.1207 -0.4791  0.3446
 6117SOL    HW129810   0.903   2.670   2.880 -0.3057 -2.3101 -0.6968
 6117SOL    HW229811   0.820   2.712   3.003  1.2076  1.5192 -1.7364
 6118SOL     OW29812   4.320   3.993   5.948 -0.1448  0.0945  0.3700
 6118SOL    HW129813   4.334   4.060   5.881  0.7031  1.0022  1.4526
 6118SOL    HW229814   4.294   3.927   5.884 -0.7316  0.5466  0.1457
 6119SOL     OW29815   1.267   3.667  15.940  0.0419  0.0986 -0.5407
 6119SOL    HW129816   1.262   3.577  15.973  1.4093  0.4593  0.6659
 6119SOL    HW229817   1.333   3.651  15.873  0.1516  0.8007 -0.6011
 6120SOL     OW29818   0.037   0.388   7.813 -0.4574 -0.5916  0.1040
 6120SOL    HW129819   0.099   0.429   7.753 -0.1666 -0.4301  0.5170
 6120SOL    HW229820   0.071   0.410   7.900  0.8305  0.4696 -0.6702
 6121SOL     OW29821   0.357   0.464   2.879 -0.7570  0.0908 -0.0086
 6121SOL    HW129822   0.334   0.502   2.964  1.3845  0.5366  0.3801
 6121SOL    HW229823   0.284   0.502   2.830 -1.1502  0.0131  0.5264
 6122SOL     OW29824   3.674   1.284  11.665 -0.4706  0.2974  0.3474
 6122SOL    HW129825   3.652   1.244  11.581 -0.5488  1.8064 -0.3421
 6122SOL    HW229826   3.721   1.213  11.710 -0.5818  0.1831  0.2835
 6123SOL     OW29827   3.860   2.285   9.240 -0.3380  0.0941  0.3303
 6123SOL    HW129828   3.768   2.270   9.263 -0.0818 -1.3952  0.3629
 6123SOL    HW229829   3.900   2.277   9.327 -1.1401 -3.5458  0.3882
 6124SOL     OW29830   1.173   0.876  11.733 -0.5048 -0.3923  0.4853
 6124SOL    HW129831   1.241   0.916  11.679  0.5852  2.2358  3.8291
 6124SOL    HW229832   1.086   0.901  11.704  0.0017  0.6434 -0.1267
 6125SOL     OW29833   3.240   2.340  13.387 -0.8260 -0.4326  0.1856
 6125SOL    HW129834   3.249   2.429  13.422  1.5936 -0.1944 -0.9828
 6125SOL    HW229835   3.200   2.308  13.468  0.7596 -2.2924  0.2379
 6126SOL     OW29836   3.070   2.417   7.983  0.0063  0.6480  0.8819
 6126SOL    HW129837   3.127   2.362   8.037  0.2167  0.2343  0.2422
 6126SOL    HW229838   3.081   2.498   8.032  1.1148  0.2417  1.3115
 6127SOL     OW29839   4.491   2.029  15.020  0.1236  0.6279 -0.0243
 6127SOL    HW129840   4.424   1.962  15.021 -0.2125  0.9168 -2.5603
 6127SOL    HW229841   4.468   2.072  15.102  0.6383  1.7694 -0.4626
 6128SOL     OW29842   1.731   0.997   7.942 -0.4742  0.3106 -0.1401
 6128SOL    HW129843   1.665   0.928   7.930  0.9227 -1.4103  2.1329
 6128SOL    HW229844   1.795   0.984   7.871 -1.3620  3.0582 -1.4240
 6129SOL     OW29845   1.005   4.150   4.792  0.2452 -0.1333 -0.0786
 6129SOL    HW129846   1.057   4.126   4.869  0.4146  0.7840  0.0938
 6129SOL    HW229847   1.058   4.123   4.718  0.2627 -0.7719  0.1688
 6130SOL     OW29848   4.550   0.948   8.238  0.6640 -0.7129  0.9285
 6130SOL    HW129849   4.601   0.980   8.164 -0.3615  0.2325  0.6283
 6130SOL    HW229850   4.618   0.898   8.282  1.2552 -0.6777  0.0560
 6131SOL     OW29851   2.909   4.614   2.415  0.2237  0.2399  0.1952
 6131SOL    HW129852   2.888   4.526   2.384  1.1760  0.1406 -0.1644
 6131SOL    HW229853   2.995   4.599   2.455  0.3186  2.7563  0.9701
 6132SOL     OW29854   0.453   1.297  17.527 -0.0361  0.4125  0.4134
 6132SOL    HW129855   0.476   1.264  17.613 -3.0097  0.2444  1.1514
 6132SOL    HW229856   0.448   1.392  17.544 -0.6700  0.7335 -1.5306
 6133SOL     OW29857   0.068   3.174  11.844  0.0757  0.2834  0.5285
 6133SOL    HW129858   0.118   3.102  11.883  0.1110  0.4176  0.7348
 6133SOL    HW229859   4.717   3.131  11.806 -0.5608  1.6527  0.2733
 6134SOL     OW29860   3.283   4.004  13.209  0.4868  0.3191 -0.2015
 6134SOL    HW129861   3.245   3.949  13.141 -0.5013  0.6350  0.0977
 6134SOL    HW229862   3.377   4.004  13.187  0.7413 -3.7198  0.7976
 6135SOL     OW29863   2.293   2.739  10.905 -0.1818  0.0755 -0.2608
 6135SOL    HW129864   2.353   2.772  10.838  1.1799 -1.7704  0.0343
 6135SOL    HW229865   2.284   2.812  10.966  0.4043 -0.4211  0.4187
 6136SOL     OW29866   1.763   2.893   4.324 -0.0191  0.4521 -0.0361
 6136SOL    HW129867   1.670   2.898   4.302 -0.2427 -1.8279  0.3906
 6136SOL    HW229868   1.804   2.855   4.246  0.8008  2.5117 -0.6019
 6137SOL     OW29869   0.133   1.421   5.154  0.7603 -0.0735 -0.5914
 6137SOL    HW129870   0.209   1.470   5.186 -0.2002  0.9478  0.1667
 6137SOL    HW229871   0.067   1.435   5.222  1.3200 -3.8899  0.7533
 6138SOL     OW29872   0.135   3.718   4.455  0.4778  0.1142 -0.2075
 6138SOL    HW129873   0.215   3.693   4.410 -0.1913 -1.2145 -0.6533
 6138SOL    HW229874   0.103   3.801   4.417 -0.2850 -0.4681 -0.8487
 6139SOL     OW29875   0.146   0.433  11.571 -0.2385 -0.2251 -0.6521
 6139SOL    HW129876   0.176   0.521  11.596  0.9161 -0.5219 -0.9940
 6139SOL    HW229877   0.207   0.417  11.500 -0.4989  2.0479 -1.3955
 6140SOL     OW29878   1.984   1.117   4.937 -0.3255 -0.0186  0.1253
 6140SOL    HW129879   1.986   1.208   4.966  1.0907 -0.3739  1.1970
 6140SOL    HW229880   1.891   1.110   4.918  0.0771 -1.6440 -1.1730
 6141SOL     OW29881   2.999   1.222   8.796 -0.1161  0.2198  0.0455
 6141SOL    HW129882   3.080   1.273   8.790 -0.2311  0.5048  0.9068
 6141SOL    HW229883   3.017   1.151   8.735 -2.4778 -1.0973  0.8754
 6142SOL     OW29884   1.257   3.681   2.601  0.0138 -0.5427  0.0236
 6142SOL    HW129885   1.266   3.773   2.575  2.5680  0.7730  5.5435
 6142SOL    HW229886   1.189   3.652   2.540 -1.6519  0.7423  1.2553
 6143SOL     OW29887   2.108   3.775   4.572 -0.3944  0.0293  0.0506
 6143SOL    HW129888   2.146   3.728   4.647  0.8844  1.1408  0.1135
 6143SOL    HW229889   2.150   3.728   4.500  0.8338  0.4957  0.4474
 6144SOL     OW29890   1.318   3.737   9.230 -0.0421  0.1626  0.4286
 6144SOL    HW129891   1.333   3.789   9.309 -2.0706 -1.1907  1.7136
 6144SOL    HW229892   1.351   3.652   9.260  1.9666  0.0041 -2.2929
 6145SOL     OW29893   4.382   0.155   0.619  0.0725  0.2052  0.5115
 6145SOL    HW129894   4.339   0.211   0.555  1.3922  0.1393 -0.4272
 6145SOL    HW229895   4.319   0.088   0.646  0.8612 -1.6791 -2.2957
 6146SOL     OW29896   3.729   4.578   8.305 -0.0476  0.5957 -0.1994
 6146SOL    HW129897   3.761   4.666   8.289 -1.9057  1.5256  1.2155
 6146SOL    HW229898   3.778   4.552   8.383  1.2557 -0.1723 -1.2867
 6147SOL     OW29899   3.251   2.300  11.617 -0.3509 -0.7484 -0.1084
 6147SOL    HW129900   3.266   2.394  11.629 -2.4806 -0.5191  0.6074
 6147SOL    HW229901   3.210   2.298  11.530  1.6407 -2.4149 -1.0421
 6148SOL     OW29902   3.942   2.584  10.333  0.3841 -0.0014 -0.0913
 6148SOL    HW129903   4.025   2.586  10.381  0.4474  0.5820 -0.2266
 6148SOL    HW229904   3.982   2.569  10.247  0.7637  0.9148 -0.0710
 6149SOL     OW29905   0.993   0.907   1.224  0.3368 -0.1046  0.1215
 6149SOL    HW129906   1.044   0.840   1.268 -0.2407 -0.4203  0.3187
 6149SOL    HW229907   1.052   0.934   1.153 -0.3733 -1.1931 -0.8916
 6150SOL     OW29908   2.396   3.656   2.437  0.5775 -0.4415  0.8250
 6150SOL    HW129909   2.424   3.733   2.389  1.0765 -0.5257  0.9704
 6150SOL    HW229910   2.445   3.588   2.390 -0.3812  0.8228 -1.9947
 6151SOL     OW29911   0.260   0.494   5.125 -0.0981 -0.0020  1.3292
 6151SOL    HW129912   0.243   0.588   5.129 -1.7353 -0.1789 -1.5114
 6151SOL    HW229913   0.296   0.481   5.213  1.8039 -4.6381 -0.1085
 6152SOL     OW29914   1.742   2.872  10.908  0.4292  0.4077 -0.6333
 6152SOL    HW129915   1.719   2.962  10.887  0.4702  0.7363  0.7073
 6152SOL    HW229916   1.828   2.882  10.950 -0.5031  0.3588  1.2900
 6153SOL     OW29917   4.595   2.723  12.784  0.4558 -0.1005 -0.0607
 6153SOL    HW129918   4.680   2.678  12.777 -0.5277 -2.0145  0.2173
 6153SOL    HW229919   4.556   2.668  12.717  1.6205  1.3826 -1.9394
 6154SOL     OW29920   1.124   1.040   0.179  0.1993 -0.7040 -0.7323
 6154SOL    HW129921   1.200   1.098   0.186 -1.6308  1.6588 -0.3021
 6154SOL    HW229922   1.105   1.043   0.273 -2.3741 -0.1244 -1.2473
 6155SOL     OW29923   0.486   1.931   1.055  0.1987  0.0007 -0.2526
 6155SOL    HW129924   0.516   1.869   1.121 -1.4559 -0.9823 -0.4259
 6155SOL    HW229925   0.392   1.923   1.070  0.0803 -2.0028 -2.2156
 6156SOL     OW29926   4.658   0.516  14.348 -0.4864  0.0393  0.5847
 6156SOL    HW129927   4.591   0.464  14.303  0.7515  0.0905 -1.2755
 6156SOL    HW229928   4.710   0.444  14.383 -0.2899 -0.1143 -0.0261
 6157SOL     OW29929   1.125   3.089   5.475 -0.0369  0.2529  0.1541
 6157SOL    HW129930   1.109   3.045   5.558 -2.5931  1.6222  0.3578
 6157SOL    HW229931   1.218   3.098   5.495 -0.1887  0.4316  0.7717
 6158SOL     OW29932   0.975   0.858   7.662 -0.3628  0.2812  0.0599
 6158SOL    HW129933   1.035   0.921   7.622 -0.6272  0.3474 -0.2354
 6158SOL    HW229934   0.960   0.802   7.586 -0.5644 -1.1623  1.1536
 6159SOL     OW29935   0.501   2.317   9.947  0.2227 -0.1602 -0.0626
 6159SOL    HW129936   0.593   2.307   9.923  0.3718  3.1292 -0.9499
 6159SOL    HW229937   0.482   2.237   9.996 -2.2244  0.4487  0.0235
 6160SOL     OW29938   1.538   3.887   4.853 -0.1035  0.0273 -0.3834
 6160SOL    HW129939   1.563   3.946   4.782 -0.5567  0.1945 -0.4021
 6160SOL    HW229940   1.444   3.872   4.837 -0.3439 -0.8472  1.9052
 6161SOL     OW29941   3.278   4.716   0.363 -0.2564  0.0016  0.3826
 6161SOL    HW129942   3.207   0.004   0.425 -0.1651  0.1439  0.4557
 6161SOL    HW229943   3.351   0.038   0.403 -0.6132 -0.6163  1.7617
 6162SOL     OW29944   2.664   0.381   1.614 -0.0998  0.4602 -0.5058
 6162SOL    HW129945   2.736   0.404   1.556 -1.5866  0.4348 -2.3690
 6162SOL    HW229946   2.614   0.329   1.551 -0.0558 -1.5678  1.1182
 6163SOL     OW29947   4.496   0.924  13.502 -0.1335 -0.0785  0.6622
 6163SOL    HW129948   4.461   0.998  13.552 -0.2865 -1.5845  2.7282
 6163SOL    HW229949   4.575   0.910  13.554 -1.5544 -3.2641  1.8905
 6164SOL     OW29950   0.944   2.459   7.031 -0.1447  0.1527  0.3224
 6164SOL    HW129951   0.897   2.529   7.077  1.7550  3.2303 -2.5094
 6164SOL    HW229952   0.870   2.437   6.975  0.4688  0.8152 -0.7370
 6165SOL     OW29953   3.841   0.492   8.262  0.3837 -0.0198 -0.5821
 6165SOL    HW129954   3.780   0.419   8.260  0.8931 -0.4082 -1.6515
 6165SOL    HW229955   3.920   0.451   8.227  1.4883  1.3085  0.3545
 6166SOL     OW29956   2.412   2.873   6.468  0.5318  0.7670 -0.3006
 6166SOL    HW129957   2.453   2.822   6.538  0.6416  0.7430 -0.3842
 6166SOL    HW229958   2.481   2.933   6.441  0.0433  0.5483 -2.0030
 6167SOL     OW29959   4.189   2.870   8.668  0.2425  0.2647 -0.5298
 6167SOL    HW129960   4.209   2.962   8.653 -4.9614  1.1107 -2.1220
 6167SOL    HW229961   4.102   2.863   8.628  1.0084  1.2611 -2.3531
 6168SOL     OW29962   2.968   4.215   8.800 -0.1837 -0.3100 -0.4501
 6168SOL    HW129963   2.909   4.224   8.875  0.7733 -2.7739  0.5989
 6168SOL    HW229964   2.984   4.305   8.770  0.6515 -0.0453  0.7350
 6169SOL     OW29965   0.313   4.527   0.114  0.1973 -0.5261 -0.0240
 6169SOL    HW129966   0.320   4.432   0.102  2.6209 -0.2997 -0.4690
 6169SOL    HW229967   0.370   4.540   0.189  1.2982 -2.1118 -0.5913
 6170SOL     OW29968   0.551   4.394  10.559 -0.3517  0.2530  0.0023
 6170SOL    HW129969   0.612   4.321  10.546  0.2830  0.6902  0.5427
 6170SOL    HW229970   0.612   4.465  10.578 -0.3352 -0.1855  1.5667
 6171SOL     OW29971   3.964   1.204  11.013  0.2708  0.6032  0.3587
 6171SOL    HW129972   3.897   1.179  10.951 -1.0008  0.1788  1.8973
 6171SOL    HW229973   4.040   1.165  10.970  0.6453 -0.0726  1.6423
 6172SOL     OW29974   3.810   2.870   7.039 -0.7860 -0.8018 -0.2318
 6172SOL    HW129975   3.750   2.921   7.095  0.6612  0.9777 -0.2993
 6172SOL    HW229976   3.751   2.813   6.990 -2.0147 -0.7174  1.1533
 6173SOL     OW29977   1.481   0.058  12.330 -0.5669 -0.2756  0.0296
 6173SOL    HW129978   1.489   0.139  12.382  0.7112 -0.6260  0.3593
 6173SOL    HW229979   1.563   0.061  12.282 -1.5776 -0.2631 -1.6712
 6174SOL     OW29980   1.928   1.993   8.661 -0.4010  0.3986 -0.5976
 6174SOL    HW129981   1.881   1.966   8.740  1.4530  0.6280  0.5677
 6174SOL    HW229982   1.954   1.905   8.633 -0.1914 -0.4708  2.3284
 6175SOL     OW29983   4.707   0.762   6.412  0.4013 -0.4345  0.4040
 6175SOL    HW129984   4.651   0.787   6.338  0.7816 -0.8958 -0.0375
 6175SOL    HW229985   4.724   0.668   6.402  0.9908 -0.3389  0.4718
 6176SOL     OW29986   1.963   3.101   1.756 -0.4350 -0.4278  0.0406
 6176SOL    HW129987   2.033   3.165   1.768 -0.9084 -0.3104  2.2680
 6176SOL    HW229988   1.997   3.014   1.779  0.7038  0.4354  1.6659
 6177SOL     OW29989   2.094   3.075   2.066 -0.2145  0.1918 -0.3451
 6177SOL    HW129990   2.064   3.165   2.079  0.6091  0.5754 -1.1773
 6177SOL    HW229991   2.179   3.078   2.110  0.5365  2.4201 -1.9595
 6178SOL     OW29992   0.693   3.088   2.748  0.2943  0.1768  0.2863
 6178SOL    HW129993   0.780   3.064   2.715  0.2875 -0.2581  0.5923
 6178SOL    HW229994   0.693   3.181   2.722  0.2198  0.2032  0.3807
 6179SOL     OW29995   2.267   1.415   2.305 -0.0063 -0.6430 -0.2973
 6179SOL    HW129996   2.219   1.498   2.314  1.4256 -0.0338  2.0039
 6179SOL    HW229997   2.347   1.459   2.275 -0.2333 -1.6895 -2.3391
 6180SOL     OW29998   3.941   2.058   1.786 -0.3700  0.3869  0.2875
 6180SOL    HW129999   3.939   2.147   1.821 -3.3614  0.4513 -0.1024
 6180SOL    HW230000   3.970   2.021   1.870 -1.5650  1.4818  1.1879
 6181SOL     OW30001   1.183   2.245   2.732  0.4929 -0.5076 -0.0213
 6181SOL    HW130002   1.178   2.340   2.742 -0.8240 -0.8336  2.3489
 6181SOL    HW230003   1.099   2.216   2.697  0.1029  1.2018 -0.4854
 6182SOL     OW30004   3.230   1.450  17.104 -0.0101  0.7759  0.2919
 6182SOL    HW130005   3.318   1.470  17.071 -0.4130  2.3951  0.1664
 6182SOL    HW230006   3.249   1.387  17.174 -1.3551  0.2686  0.1902
 6183SOL     OW30007   0.770   2.019   7.614  0.5777  0.4895  0.4672
 6183SOL    HW130008   0.719   2.070   7.677  0.0875  1.3672 -0.6425
 6183SOL    HW230009   0.818   2.086   7.566 -1.2179  0.7211 -0.9947
 6184SOL     OW30010   1.253   1.284   5.528 -0.1377  0.5376 -0.2922
 6184SOL    HW130011   1.259   1.380   5.532 -0.6441  0.6021 -1.0551
 6184SOL    HW230012   1.324   1.262   5.588 -1.3800  0.4047  1.1150
 6185SOL     OW30013   4.414   0.113   9.481 -0.1878  0.3633 -0.3162
 6185SOL    HW130014   4.437   0.200   9.449 -2.4964 -0.5219 -4.2958
 6185SOL    HW230015   4.354   0.125   9.555 -0.9443  2.0358 -1.2246
 6186SOL     OW30016   1.770   0.457  14.204 -0.4386  0.5448  0.0395
 6186SOL    HW130017   1.815   0.435  14.286  0.1594  1.8940  0.0680
 6186SOL    HW230018   1.683   0.470  14.242  0.1078  1.5839  0.9186
 6187SOL     OW30019   0.022   3.152   2.755  0.2590 -0.3248 -1.0461
 6187SOL    HW130020   0.061   3.211   2.691 -0.6545  1.6774  0.2425
 6187SOL    HW230021   0.085   3.146   2.827 -0.6086 -0.4285 -0.2843
 6188SOL     OW30022   3.165   1.675  13.646 -0.0872  0.0192 -0.4377
 6188SOL    HW130023   3.228   1.681  13.719 -1.0813 -1.4771  0.5353
 6188SOL    HW230024   3.162   1.766  13.614  1.6877  0.3005  0.1829
 6189SOL     OW30025   3.806   2.379   5.593 -0.6357 -0.2609 -0.2870
 6189SOL    HW130026   3.758   2.304   5.630  0.4416 -1.1566 -0.7021
 6189SOL    HW230027   3.803   2.448   5.658  1.8766 -0.5575  0.1552
 6190SOL     OW30028   4.320   4.650   4.462 -0.2025 -0.0963  0.3298
 6190SOL    HW130029   4.397   4.622   4.512  0.0752 -0.8083 -0.5066
 6190SOL    HW230030   4.281   4.697   4.536  0.6026  0.7093  0.2343
 6191SOL     OW30031   3.578   2.409   6.188 -0.0644  0.1852 -0.3945
 6191SOL    HW130032   3.654   2.466   6.184 -0.7340  1.1087  0.0526
 6191SOL    HW230033   3.506   2.471   6.179  0.2563  1.0128  2.8340
 6192SOL     OW30034   3.695   0.824   2.204  0.3090 -0.3898 -0.1603
 6192SOL    HW130035   3.779   0.849   2.243  1.2723 -1.5186 -1.5072
 6192SOL    HW230036   3.662   0.751   2.256  0.5177  0.1301  0.7045
 6193SOL     OW30037   0.898   3.998   1.536  0.2668 -0.0482 -0.4221
 6193SOL    HW130038   0.946   3.921   1.568 -2.4823 -2.0609 -1.0710
 6193SOL    HW230039   0.840   4.000   1.612 -0.6554  1.4017 -1.1687
 6194SOL     OW30040   0.228   2.556  13.010  0.3152 -0.4070 -0.2027
 6194SOL    HW130041   0.222   2.536  12.916 -0.9110 -2.0161  0.2177
 6194SOL    HW230042   0.323   2.549  13.018  0.4518  1.4797 -0.1973
 6195SOL     OW30043   1.263   0.617   4.510 -0.4909  0.0730 -0.2471
 6195SOL    HW130044   1.199   0.593   4.578 -0.8476  1.3276 -0.1452
 6195SOL    HW230045   1.223   0.685   4.456  2.0957  1.3013 -0.6139
 6196SOL     OW30046   0.410   2.639  12.769  1.0187 -0.0078 -0.3524
 6196SOL    HW130047   0.352   2.667  12.698 -0.7471 -2.9959 -0.0696
 6196SOL    HW230048   0.446   2.726  12.790  0.1388  0.4011 -0.5569
 6197SOL     OW30049   2.447   3.493   9.580  0.7229  0.0474  0.3590
 6197SOL    HW130050   2.513   3.430   9.610 -0.7173 -1.8632 -0.4530
 6197SOL    HW230051   2.464   3.565   9.640  0.8100  0.9477 -0.7605
 6198SOL     OW30052   1.184   3.510   6.199  0.1211 -0.5339 -0.9135
 6198SOL    HW130053   1.246   3.465   6.141  0.7374  0.9720 -1.4396
 6198SOL    HW230054   1.118   3.441   6.198  1.2255 -1.5905 -0.6242
 6199SOL     OW30055   3.539   0.115   5.578  0.0406 -0.0390  0.5708
 6199SOL    HW130056   3.489   0.086   5.654  0.8017  1.3517  1.6094
 6199SOL    HW230057   3.588   0.034   5.565 -0.5820  0.0510 -2.3540
 6200SOL     OW30058   0.193   3.898   6.483 -0.0301  0.3161  0.3428
 6200SOL    HW130059   0.111   3.929   6.444 -0.4376  0.1479  1.0822
 6200SOL    HW230060   0.245   3.938   6.413  1.2851  1.1850  1.8188
 6201SOL     OW30061   1.859   1.398   3.241 -0.4798 -0.2870 -0.1464
 6201SOL    HW130062   1.918   1.370   3.311 -3.4125 -1.7622  1.7167
 6201SOL    HW230063   1.779   1.424   3.286  0.7166  0.2101  1.7001
 6202SOL     OW30064   1.572   0.750  13.205  0.2192  0.4558  0.0311
 6202SOL    HW130065   1.635   0.822  13.201  0.0131  0.5894 -0.6841
 6202SOL    HW230066   1.616   0.689  13.265  0.1179  0.9040  0.5628
 6203SOL     OW30067   0.435   4.331   1.750  0.4492 -0.1448 -0.0273
 6203SOL    HW130068   0.462   4.263   1.688 -0.5784 -2.0998  1.6503
 6203SOL    HW230069   0.360   4.285   1.788 -1.3168  1.2338 -1.8690
 6204SOL     OW30070   3.367   0.327  14.960 -0.3016  0.0202  0.1518
 6204SOL    HW130071   3.357   0.251  14.903 -1.0001 -0.2494  0.6280
 6204SOL    HW230072   3.336   0.288  15.042  1.5245 -1.5808  0.0580
 6205SOL     OW30073   2.432   0.182   1.473 -0.5052  0.4642  0.4396
 6205SOL    HW130074   2.374   0.155   1.402  0.6321 -1.2506  0.1585
 6205SOL    HW230075   2.513   0.202   1.426 -1.2454 -1.7646 -1.7733
 6206SOL     OW30076   4.534   4.552   0.295 -0.1830  0.0494  0.1032
 6206SOL    HW130077   4.628   4.571   0.292 -0.2582  0.1647 -1.5018
 6206SOL    HW230078   4.524   4.529   0.387 -0.1843  0.2238  0.1458
 6207SOL     OW30079   2.119   0.989   1.198 -0.1382 -0.3853  0.2745
 6207SOL    HW130080   2.097   1.064   1.143  0.9324 -0.4027 -0.1872
 6207SOL    HW230081   2.203   1.013   1.238  1.6577 -0.3481 -3.5205
 6208SOL     OW30082   1.865   1.214   2.499 -0.5401 -0.0985 -0.8555
 6208SOL    HW130083   1.840   1.213   2.592 -0.0724  1.7689 -0.7177
 6208SOL    HW230084   1.956   1.194   2.517 -0.9603  0.3882  1.8212
 6209SOL     OW30085   2.234   1.405   5.053  0.0108  0.4861  0.6888
 6209SOL    HW130086   2.143   1.402   5.022 -0.3130  2.5497  1.4222
 6209SOL    HW230087   2.234   1.488   5.100  2.0488 -0.1038  1.7282
 6210SOL     OW30088   3.809   0.899   3.199 -0.3677  0.2423 -0.4647
 6210SOL    HW130089   3.773   0.960   3.134  0.5288  0.8738 -0.3730
 6210SOL    HW230090   3.751   0.823   3.203  0.5816 -0.5986 -2.4591
 6211SOL     OW30091   2.059   4.162   5.340  0.2513 -0.1470  0.1983
 6211SOL    HW130092   1.966   4.143   5.354  0.4420  0.4151  2.1574
 6211SOL    HW230093   2.095   4.114   5.415  0.4484 -1.5155 -0.7714
 6212SOL     OW30094   1.951   1.264   3.492 -0.6279 -0.2338  0.4561
 6212SOL    HW130095   1.884   1.262   3.560 -0.8646 -0.7519  0.2134
 6212SOL    HW230096   2.000   1.336   3.530 -1.1678 -0.2521  1.1782
 6213SOL     OW30097   0.352   3.798   1.742 -0.4778  0.0082 -0.2713
 6213SOL    HW130098   0.392   3.713   1.757 -2.5488 -1.0161 -0.5989
 6213SOL    HW230099   0.395   3.847   1.812 -0.3085 -0.9891  0.3108
 6214SOL     OW30100   0.201   2.214   3.893 -0.6226  0.1721 -0.2341
 6214SOL    HW130101   0.246   2.144   3.847 -1.0104 -1.0009  1.1605
 6214SOL    HW230102   0.270   2.279   3.902 -1.4933  1.1794 -0.8048
 6215SOL     OW30103   4.142   0.101  15.132 -0.1664  0.2487 -0.0383
 6215SOL    HW130104   4.234   0.110  15.155 -0.3823 -0.5836  1.1258
 6215SOL    HW230105   4.133   0.159  15.056  0.0457 -0.8999 -0.9383
 6216SOL     OW30106   3.558   0.049   0.469 -0.3711  0.2788  0.2901
 6216SOL    HW130107   3.535   0.088   0.553 -0.1368  0.9358  0.0501
 6216SOL    HW230108   3.643   0.010   0.490  1.0415  1.5332 -3.0531
 6217SOL     OW30109   3.386   2.098   8.896 -0.3330  0.4363 -0.3050
 6217SOL    HW130110   3.379   2.103   8.800  1.3372 -1.5946 -0.5242
 6217SOL    HW230111   3.448   2.026   8.901  0.4960  1.0334 -1.9529
 6218SOL     OW30112   3.868   0.617   6.951  0.2545 -0.6034  0.3477
 6218SOL    HW130113   3.841   0.683   7.015  1.5889 -0.8745  1.1813
 6218SOL    HW230114   3.837   0.659   6.871  1.8715  0.6414  0.3868
 6219SOL     OW30115   0.462   4.002   8.169  0.1346  0.4026 -0.1774
 6219SOL    HW130116   0.492   3.914   8.192  0.6755  0.8198  0.7112
 6219SOL    HW230117   0.376   3.973   8.137  0.0375  0.6930 -0.1789
 6220SOL     OW30118   2.653   0.745  14.095 -0.3700 -0.3160 -0.2962
 6220SOL    HW130119   2.710   0.778  14.027 -0.1899 -0.9770 -0.4661
 6220SOL    HW230120   2.606   0.675  14.050  0.1581 -1.1118  0.3822
 6221SOL     OW30121   4.674   4.234   4.128  0.2849  0.3124  0.1992
 6221SOL    HW130122   0.018   4.224   4.193  1.5223  0.5063 -1.0890
 6221SOL    HW230123   0.002   4.218   4.050 -0.3511  0.9703 -0.3733
 6222SOL     OW30124   2.515   3.216  11.891 -0.0742 -0.1378 -0.1177
 6222SOL    HW130125   2.609   3.231  11.877 -0.3969  1.4164 -0.5927
 6222SOL    HW230126   2.494   3.206  11.799 -0.3789  2.9553 -0.4054
 6223SOL     OW30127   0.589   3.770  10.839  0.2093  0.1177  0.0972
 6223SOL    HW130128   0.601   3.851  10.789  0.1026  0.4269  0.5632
 6223SOL    HW230129   0.574   3.794  10.931  2.9039 -1.9941  1.0865
 6224SOL     OW30130   3.166   1.380   5.936  0.3471 -0.3390 -0.1468
 6224SOL    HW130131   3.237   1.390   5.872  1.7928 -1.4329  1.2803
 6224SOL    HW230132   3.145   1.287   5.939 -0.2669 -0.2242 -1.1627
 6225SOL     OW30133   3.008   1.092   4.693  0.1475 -0.0823 -0.2413
 6225SOL    HW130134   2.995   1.048   4.777 -3.2560 -0.7654 -1.1488
 6225SOL    HW230135   3.103   1.108   4.694 -0.1095  1.4714 -0.6365
 6226SOL     OW30136   3.856   2.638   6.602  0.0392  0.0772 -0.0031
 6226SOL    HW130137   3.946   2.623   6.634 -0.5856 -0.4183  1.5369
 6226SOL    HW230138   3.858   2.708   6.537 -0.3072 -0.9453 -1.1058
 6227SOL     OW30139   2.635   4.708  12.639 -0.3521 -0.0789 -0.6305
 6227SOL    HW130140   2.677   0.046  12.695 -0.8218  0.0584 -0.4302
 6227SOL    HW230141   2.703   4.647  12.611 -0.9306 -1.0677  0.1179
 6228SOL     OW30142   2.910   1.969   6.901  0.2650  0.5912  0.0128
 6228SOL    HW130143   2.854   2.029   6.851 -2.1594 -0.8724  0.9641
 6228SOL    HW230144   2.980   2.028   6.928  2.3158 -1.4696 -0.8291
 6229SOL     OW30145   2.943   2.943   6.453 -0.0817  0.4450 -0.2789
 6229SOL    HW130146   2.926   2.882   6.525 -1.0126  1.0224 -0.0079
 6229SOL    HW230147   2.897   3.025   6.467  1.1953  1.2501 -0.7350
 6230SOL     OW30148   0.230   1.255  11.575  0.1937  0.2748  0.4543
 6230SOL    HW130149   0.155   1.204  11.546 -0.3395  2.0460 -1.2255
 6230SOL    HW230150   0.301   1.191  11.564 -0.6324 -0.4234 -0.7885
 6231SOL     OW30151   4.608   3.613  13.181 -0.2534 -0.1931  0.1243
 6231SOL    HW130152   4.678   3.641  13.122 -0.0954  1.7766  1.2741
 6231SOL    HW230153   4.572   3.696  13.210 -1.6777 -0.1704 -1.7246
 6232SOL     OW30154   4.550   4.186   7.472 -0.2977 -0.0006  0.0654
 6232SOL    HW130155   4.528   4.181   7.565 -0.1963  0.8293  0.1407
 6232SOL    HW230156   4.500   4.260   7.435 -3.3991 -2.5816 -0.8934
 6233SOL     OW30157   2.970   0.996   6.118  0.5590 -0.1760 -0.2492
 6233SOL    HW130158   2.901   1.052   6.151  0.1785  0.3311 -1.8812
 6233SOL    HW230159   2.961   0.925   6.182 -0.1988 -0.5865 -0.8113
 6234SOL     OW30160   3.871   0.355  10.655 -0.2775 -0.3548  0.0145
 6234SOL    HW130161   3.810   0.423  10.628  1.2353  1.4192  1.1333
 6234SOL    HW230162   3.920   0.343  10.573  0.0041 -1.8913  0.3890
 6235SOL     OW30163   3.553   3.887   6.133 -0.0164 -0.2895  0.0202
 6235SOL    HW130164   3.470   3.912   6.174  0.8587 -0.1743  1.7073
 6235SOL    HW230165   3.547   3.793   6.113  0.1888 -0.4384  0.6467
 6236SOL     OW30166   3.175   1.194   7.900  0.1724  0.0343 -0.3927
 6236SOL    HW130167   3.231   1.173   7.825  0.7043  0.4900 -0.1255
 6236SOL    HW230168   3.188   1.115   7.951 -1.2300 -0.6018 -1.0408
 6237SOL     OW30169   1.340   2.015   4.646  0.0470  0.5918 -0.4262
 6237SOL    HW130170   1.346   1.954   4.720  2.8503 -0.3328 -1.4058
 6237SOL    HW230171   1.325   1.950   4.577 -4.9517  1.8861 -0.5377
 6238SOL     OW30172   2.259   2.506   3.699 -0.2010 -0.3267  0.3471
 6238SOL    HW130173   2.347   2.517   3.736  1.0605 -1.0116 -2.4280
 6238SOL    HW230174   2.217   2.491   3.783  1.4206 -0.6668  1.0913
 6239SOL     OW30175   1.838   1.436   6.808  0.0999  0.3188 -0.4985
 6239SOL    HW130176   1.900   1.445   6.735  0.1416  0.7105 -0.4099
 6239SOL    HW230177   1.832   1.344   6.834  1.6523  0.2405 -0.4271
 6240SOL     OW30178   2.654   2.609  10.867 -0.7445  1.2207  0.2409
 6240SOL    HW130179   2.615   2.531  10.828  1.4210 -0.2695  1.0355
 6240SOL    HW230180   2.732   2.584  10.916 -0.7399  0.9414  0.0922
 6241SOL     OW30181   4.638   2.220   8.698  0.2146 -0.5993 -0.1057
 6241SOL    HW130182   4.726   2.194   8.727 -0.8643 -1.4511  2.4467
 6241SOL    HW230183   4.591   2.138   8.680  0.0637 -0.4538 -0.3625
 6242SOL     OW30184   2.065   3.561   5.395  0.3167  0.0749  0.0156
 6242SOL    HW130185   2.055   3.482   5.448 -2.4805 -0.0066 -0.6185
 6242SOL    HW230186   2.160   3.561   5.409  0.3292 -3.0957 -0.2220
 6243SOL     OW30187   0.619   1.663  10.854 -0.1580  0.3425 -0.6722
 6243SOL    HW130188   0.576   1.593  10.904 -2.0881  1.1733 -1.1862
 6243SOL    HW230189   0.549   1.689  10.795 -1.1360  2.8725  1.6134
 6244SOL     OW30190   4.676   2.991   3.936 -0.5800 -0.1957 -0.6362
 6244SOL    HW130191   4.616   3.065   3.950 -0.8393 -0.1225 -2.1586
 6244SOL    HW230192   4.618   2.919   3.961  0.5606 -1.3766 -1.4171
 6245SOL     OW30193   0.601   1.759  16.330 -0.2848 -0.2060  0.6300
 6245SOL    HW130194   0.519   1.803  16.352 -1.2472 -1.3413 -0.6620
 6245SOL    HW230195   0.664   1.812  16.379 -1.5847  1.5831  0.3548
 6246SOL     OW30196   1.853   4.426   0.291 -0.4268  0.3830  0.4567
 6246SOL    HW130197   1.927   4.372   0.262 -0.1769  0.1416  1.5592
 6246SOL    HW230198   1.818   4.374   0.363  0.7720 -0.7471  0.2457
 6247SOL     OW30199   4.193   2.527   9.371  0.0634 -0.3923  0.1944
 6247SOL    HW130200   4.176   2.536   9.278  1.9724 -0.4407 -0.1757
 6247SOL    HW230201   4.140   2.599   9.404  2.3968  1.3429  0.1824
 6248SOL     OW30202   0.982   1.424   2.648  0.0715  0.3128  0.1694
 6248SOL    HW130203   1.016   1.388   2.567  0.6806  2.1161 -0.3861
 6248SOL    HW230204   0.903   1.372   2.664  0.4864 -0.2338  0.4263
 6249SOL     OW30205   1.595   2.676  10.763  0.4613 -0.0512 -0.1123
 6249SOL    HW130206   1.536   2.750  10.749 -0.8216 -0.9924  0.3081
 6249SOL    HW230207   1.672   2.723  10.796  0.0454  0.1027  0.6383
 6250SOL     OW30208   1.624   3.662  13.164  0.0644 -0.1436  0.2277
 6250SOL    HW130209   1.540   3.633  13.201  0.2572  1.1171  1.6468
 6250SOL    HW230210   1.673   3.657  13.246 -2.8032 -1.2050  1.8953
 6251SOL     OW30211   1.820   1.280   3.733 -0.0738 -0.0919  0.0015
 6251SOL    HW130212   1.757   1.213   3.760 -1.2378  0.0983 -2.2867
 6251SOL    HW230213   1.789   1.356   3.783  3.7305  1.5386 -0.0922
 6252SOL     OW30214   4.114   3.954   5.761  0.1716  0.3676 -0.0364
 6252SOL    HW130215   4.103   4.048   5.780 -0.7588  0.0346  1.0624
 6252SOL    HW230216   4.036   3.916   5.801  0.5034  0.3549  0.6046
 6253SOL     OW30217   3.042   0.408  16.884 -0.4790  0.5152 -0.1487
 6253SOL    HW130218   3.000   0.480  16.838  0.5096  1.8301  1.0194
 6253SOL    HW230219   2.981   0.335  16.880 -1.7251  1.5374  0.4940
 6254SOL     OW30220   2.122   2.822  15.781  0.2049  0.6937 -0.2582
 6254SOL    HW130221   2.068   2.844  15.857 -0.5893  1.4206 -1.0207
 6254SOL    HW230222   2.084   2.886  15.720 -1.9745 -0.7874 -0.4747
 6255SOL     OW30223   4.702   0.829   9.322 -0.4846  0.2851  0.0012
 6255SOL    HW130224   4.635   0.894   9.342  1.1589  1.9596  0.0467
 6255SOL    HW230225   0.033   0.891   9.278  0.6293 -2.6699 -2.7746
 6256SOL     OW30226   4.134   4.247   4.803 -0.0364  0.0574  0.2949
 6256SOL    HW130227   4.038   4.252   4.809 -0.2051 -1.2971 -1.4353
 6256SOL    HW230228   4.164   4.329   4.766  0.5927 -0.6279 -0.7035
 6257SOL     OW30229   2.237   2.157   1.758  0.0757 -0.3322 -0.5931
 6257SOL    HW130230   2.232   2.248   1.727  0.5177 -0.5065 -1.1753
 6257SOL    HW230231   2.281   2.105   1.691 -2.4715 -2.7003 -0.4508
 6258SOL     OW30232   3.757   4.315  15.629  0.0433 -0.2092 -0.6406
 6258SOL    HW130233   3.751   4.398  15.676  2.4253 -0.8310  0.7560
 6258SOL    HW230234   3.847   4.320  15.598  0.7006 -0.4733  1.2373
 6259SOL     OW30235   1.380   4.061   3.242  0.3093 -0.0508 -0.1681
 6259SOL    HW130236   1.289   4.069   3.269  0.5233 -3.6499  1.6501
 6259SOL    HW230237   1.417   4.057   3.330  1.0750  0.2326 -0.4800
 6260SOL     OW30238   0.147   4.069   3.420  0.2884 -0.5407  0.0840
 6260SOL    HW130239   0.236   4.038   3.431 -0.5910 -1.6425  4.1944
 6260SOL    HW230240   0.142   4.064   3.325  1.1650 -0.6222  0.0460
 6261SOL     OW30241   1.168   4.180  14.691 -0.5713  0.1677 -0.1323
 6261SOL    HW130242   1.144   4.092  14.661  0.2346  0.3418 -1.2808
 6261SOL    HW230243   1.125   4.232  14.623 -0.2650 -1.1167 -1.3093
 6262SOL     OW30244   4.678   2.196   3.707  0.0081 -0.1911  0.5699
 6262SOL    HW130245   4.605   2.163   3.759 -1.0419 -0.5601 -1.1402
 6262SOL    HW230246   0.025   2.211   3.767 -1.0863  0.3308  1.7600
 6263SOL     OW30247   4.030   3.939   0.999  0.2071 -0.2495 -0.0114
 6263SOL    HW130248   4.069   4.007   0.945  0.4391 -0.0465  0.4111
 6263SOL    HW230249   3.953   3.989   1.024  0.8342  0.1750  1.0751
 6264SOL     OW30250   0.649   3.013   5.377 -0.3408 -0.1603 -0.2420
 6264SOL    HW130251   0.681   2.949   5.314  0.0387  0.7068 -0.9375
 6264SOL    HW230252   0.624   3.081   5.314  2.8938  1.8457  0.6419
 6265SOL     OW30253   1.534   3.965   9.244  0.7289 -0.2321  0.4053
 6265SOL    HW130254   1.505   3.976   9.154  1.0866  0.6777  0.4032
 6265SOL    HW230255   1.479   3.892   9.274  0.9125 -1.2847 -1.8068
 6266SOL     OW30256   2.590   1.128   7.989 -0.2581  0.4904 -0.3665
 6266SOL    HW130257   2.548   1.066   8.048  0.3174  0.3693 -0.0830
 6266SOL    HW230258   2.517   1.187   7.969 -0.8156  0.1038  0.5219
 6267SOL     OW30259   3.950   1.599   8.245 -0.1407 -0.5528 -0.5028
 6267SOL    HW130260   3.887   1.654   8.200 -0.1516 -0.0479  0.1302
 6267SOL    HW230261   4.031   1.650   8.238  0.1672 -1.0566 -0.6686
 6268SOL     OW30262   0.547   1.733   1.268  0.3326  0.2664  0.0187
 6268SOL    HW130263   0.520   1.643   1.249 -1.9475  0.9130  0.1912
 6268SOL    HW230264   0.641   1.731   1.250  0.4137 -3.0477  0.7939
 6269SOL     OW30265   4.402   3.874  16.002 -0.2507 -0.1467 -0.2256
 6269SOL    HW130266   4.341   3.901  15.932  3.7049 -0.2114 -3.7169
 6269SOL    HW230267   4.475   3.936  15.993  0.6526 -1.1528  0.1670
 6270SOL     OW30268   2.031   0.270   6.077  0.2751  0.2170  0.0329
 6270SOL    HW130269   2.075   0.185   6.084  0.7348  0.4164 -0.4619
 6270SOL    HW230270   2.043   0.293   5.985  0.4732 -0.8580 -0.2068
 6271SOL     OW30271   3.092   3.720  14.958 -0.4314 -0.4809  0.0474
 6271SOL    HW130272   3.073   3.717  14.864 -2.7362 -2.1212  0.5474
 6271SOL    HW230273   3.031   3.653  14.990 -0.0361 -0.1811  1.3997
 6272SOL     OW30274   4.520   4.276   4.885 -0.0722  0.6741 -0.5062
 6272SOL    HW130275   4.463   4.319   4.949  0.1984 -0.3706  0.4310
 6272SOL    HW230276   4.477   4.288   4.800  0.0945 -0.8689 -0.8121
 6273SOL     OW30277   2.309   0.160  15.298  0.2857 -0.4997 -0.0935
 6273SOL    HW130278   2.304   0.165  15.203 -1.0373 -0.1012 -0.0073
 6273SOL    HW230279   2.227   0.114  15.316 -0.2018  1.2306  2.1408
 6274SOL     OW30280   4.708   0.285  11.916  0.0994 -0.1900 -0.4155
 6274SOL    HW130281   4.622   0.258  11.884  0.6930 -2.7312  0.1542
 6274SOL    HW230282   4.685   0.326  11.999  1.9659  1.5592 -0.7617
 6275SOL     OW30283   2.353   1.344   6.978 -0.1087  0.2757 -0.0102
 6275SOL    HW130284   2.408   1.392   6.916 -0.1243  0.0934 -0.1644
 6275SOL    HW230285   2.269   1.386   6.958 -1.9939 -2.6453  1.7811
 6276SOL     OW30286   2.942   4.066   5.318  0.2569 -0.3464 -0.0846
 6276SOL    HW130287   2.981   4.135   5.370 -3.4301  1.4239  0.3106
 6276SOL    HW230288   2.881   4.122   5.270 -0.4821 -0.3729  0.8514
 6277SOL     OW30289   4.597   4.270   8.730 -0.0657 -0.2870 -0.1784
 6277SOL    HW130290   4.659   4.324   8.681 -1.5178  1.1345 -0.4472
 6277SOL    HW230291   4.566   4.340   8.788  0.2119  1.3744 -2.0066
 6278SOL     OW30292   2.348   2.092   5.005  0.6113 -0.1449  0.0346
 6278SOL    HW130293   2.277   2.034   4.977 -1.4234  1.4468  1.9300
 6278SOL    HW230294   2.428   2.057   4.968  0.2801  0.6775 -1.4904
 6279SOL     OW30295   1.228   0.976   2.493 -0.5594 -0.0375  0.2676
 6279SOL    HW130296   1.290   1.048   2.484 -2.2703  1.4301  0.3254
 6279SOL    HW230297   1.171   0.995   2.419  0.9251 -0.5541 -1.0145
 6280SOL     OW30298   0.899   3.155   7.645  0.5506  0.2061  0.2486
 6280SOL    HW130299   0.844   3.185   7.717 -1.0777 -3.5721  0.5870
 6280SOL    HW230300   0.872   3.220   7.581  1.1201  1.5363  1.3586
 6281SOL     OW30301   0.790   3.242   7.851  0.3157  0.4136  0.3537
 6281SOL    HW130302   0.797   3.200   7.937 -0.5796 -0.6318 -0.0879
 6281SOL    HW230303   0.755   3.327   7.879  1.5562  1.0937 -0.1783
 6282SOL     OW30304   1.246   2.799   5.872  0.1743 -0.3938 -0.5064
 6282SOL    HW130305   1.274   2.728   5.930 -1.9133 -0.3606  0.5251
 6282SOL    HW230306   1.323   2.812   5.816  1.7350 -0.2675  1.6714
 6283SOL     OW30307   3.877   2.366  15.705  0.5199  0.1780 -0.2398
 6283SOL    HW130308   3.850   2.393  15.617  1.8968 -1.2913 -1.1037
 6283SOL    HW230309   3.848   2.276  15.713  0.0629  0.4127  0.7124
 6284SOL     OW30310   3.483   1.672   6.650 -0.3168 -0.4934 -0.3659
 6284SOL    HW130311   3.421   1.699   6.718  1.7954  0.3360  1.2378
 6284SOL    HW230312   3.523   1.754   6.622 -0.7770  0.4210  1.7175
 6285SOL     OW30313   4.133   2.396   2.415  0.7421  0.1057 -0.1763
 6285SOL    HW130314   4.057   2.422   2.466 -0.9298 -1.1520 -2.0410
 6285SOL    HW230315   4.179   2.480   2.410 -0.4587  0.8495  1.3859
 6286SOL     OW30316   0.323   1.520   0.095 -0.1175 -0.1517  0.2467
 6286SOL    HW130317   0.375   1.578   0.152  0.8609 -2.7019  1.9667
 6286SOL    HW230318   0.244   1.530   0.148 -0.2760 -0.5449  0.0782
 6287SOL     OW30319   3.080   4.464   5.082  0.1624  0.2200 -0.4062
 6287SOL    HW130320   3.172   4.475   5.055  0.6381  3.7531  2.5980
 6287SOL    HW230321   3.046   4.554   5.081 -1.0525 -0.2279  0.7094
 6288SOL     OW30322   0.685   0.975  13.879 -0.7670  0.1888 -0.2404
 6288SOL    HW130323   0.593   0.949  13.874 -0.5660 -1.0521  2.7239
 6288SOL    HW230324   0.667   1.069  13.887  1.5897  0.7493 -1.6438
 6289SOL     OW30325   0.717   1.362   2.596 -0.2317 -0.5026 -0.0410
 6289SOL    HW130326   0.785   1.296   2.578 -0.6683 -0.9994  0.1598
 6289SOL    HW230327   0.644   1.335   2.541  0.2774 -0.2638 -0.8301
 6290SOL     OW30328   2.507   0.626   2.873 -0.0917 -0.3428  0.0497
 6290SOL    HW130329   2.462   0.664   2.949  0.0973 -0.8151  0.3960
 6290SOL    HW230330   2.466   0.541   2.863 -2.0123  0.3155  2.2498
 6291SOL     OW30331   3.113   4.390   3.682 -0.2402 -0.0480 -0.6943
 6291SOL    HW130332   3.051   4.433   3.740 -0.2495 -1.4840  0.3700
 6291SOL    HW230333   3.069   4.314   3.644 -2.0733 -0.5989  2.5359
 6292SOL     OW30334   2.095   1.728  13.358  0.5035 -0.1248 -0.0896
 6292SOL    HW130335   2.125   1.689  13.439  0.9594  0.4406  0.0146
 6292SOL    HW230336   2.043   1.666  13.307  0.2629 -0.8250  1.0160
 6293SOL     OW30337   1.113   0.744   6.609 -0.0127  0.3294  0.2402
 6293SOL    HW130338   1.135   0.801   6.535 -1.6996  1.3943  0.5273
 6293SOL    HW230339   1.151   0.795   6.681 -1.3186 -0.9119  1.7946
 6294SOL     OW30340   1.712   4.272   5.479  0.4816  0.1693  0.0889
 6294SOL    HW130341   1.745   4.192   5.439  1.2138  0.7583 -0.4805
 6294SOL    HW230342   1.626   4.247   5.514  0.4509 -1.2139 -0.9668
 6295SOL     OW30343   1.644   3.888   3.574 -0.2355 -0.4373 -0.2773
 6295SOL    HW130344   1.732   3.852   3.585 -0.4159 -0.9326 -0.4607
 6295SOL    HW230345   1.650   3.940   3.494  1.6284 -1.2423 -0.6720
 6296SOL     OW30346   1.296   4.313  11.359  0.2027 -0.4384  0.3026
 6296SOL    HW130347   1.209   4.292  11.393  0.1031 -0.4612  0.0355
 6296SOL    HW230348   1.347   4.356  11.427 -0.9875  0.5251  0.5626
 6297SOL     OW30349   4.581   2.678  10.179 -0.4951 -0.0382 -0.1493
 6297SOL    HW130350   4.654   2.718  10.132  0.7904 -0.5225  1.4428
 6297SOL    HW230351   4.616   2.589  10.177  0.0539  0.1921 -0.5969
 6298SOL     OW30352   2.705   1.791  15.936  0.0172  0.0497  0.2615
 6298SOL    HW130353   2.613   1.817  15.949  0.4772  1.9373 -0.2502
 6298SOL    HW230354   2.742   1.842  15.864  0.7656  0.3759  0.8751
 6299SOL     OW30355   2.930   0.738   8.214  0.3156  0.2709  0.4951
 6299SOL    HW130356   3.011   0.788   8.223  1.4198 -1.4038 -0.1352
 6299SOL    HW230357   2.959   0.656   8.174 -0.9414  0.3339 -0.5809
 6300SOL     OW30358   3.798   0.604   6.372  0.0567 -0.0455 -0.1329
 6300SOL    HW130359   3.798   0.582   6.278  3.2990  0.3796 -0.2285
 6300SOL    HW230360   3.706   0.593   6.396  0.2836  0.2191  0.8512
 6301SOL     OW30361   0.121   4.652   5.715 -0.2456 -0.0659 -0.3021
 6301SOL    HW130362   0.113   4.649   5.620 -1.5268 -0.0219 -0.2014
 6301SOL    HW230363   0.073   0.008   5.728  0.6993  0.5069 -0.4282
 6302SOL     OW30364   2.084   1.450   5.998 -0.4703 -0.1575  0.2639
 6302SOL    HW130365   2.010   1.461   6.058  1.2131  4.0087  1.5520
 6302SOL    HW230366   2.105   1.357   6.007 -0.0070 -0.0439  0.3445
 6303SOL     OW30367   2.444   0.899   7.452 -0.3593  0.2949  0.5909
 6303SOL    HW130368   2.447   0.921   7.545 -0.4949  0.2707  0.6010
 6303SOL    HW230369   2.494   0.819   7.465 -4.3311 -2.3468 -0.5024
 6304SOL     OW30370   2.250   4.518   7.355 -0.6311  0.1784  0.1697
 6304SOL    HW130371   2.176   4.485   7.304  1.6393 -0.6342 -2.6142
 6304SOL    HW230372   2.266   4.604   7.316  2.4096 -0.3248  0.3019
 6305SOL     OW30373   1.167   2.562   3.850  0.0287  0.0860 -0.0758
 6305SOL    HW130374   1.170   2.658   3.846 -0.1365  0.1122  0.5128
 6305SOL    HW230375   1.258   2.530   3.848  0.1289  0.4070 -0.7906
 6306SOL     OW30376   3.222   4.125   4.625  0.3476  0.0319 -0.2441
 6306SOL    HW130377   3.180   4.123   4.710 -0.5838  0.5731 -0.6916
 6306SOL    HW230378   3.278   4.049   4.642 -2.4995 -1.8808  0.6004
 6307SOL     OW30379   2.512   4.167   5.936 -0.0223  0.1422  0.4376
 6307SOL    HW130380   2.422   4.137   5.924  0.2330  0.3698 -2.0683
 6307SOL    HW230381   2.539   4.097   5.994  0.7097  1.4124  1.6256
 6308SOL     OW30382   2.069   2.132   7.727 -0.3576 -0.3765 -0.1222
 6308SOL    HW130383   2.003   2.201   7.728 -0.4996 -0.5201  0.4325
 6308SOL    HW230384   2.144   2.166   7.679 -1.8805 -1.3186 -3.1261
 6309SOL     OW30385   0.553   3.951   1.917  0.4002  0.1295  0.1848
 6309SOL    HW130386   0.534   3.990   2.002  1.6763  1.1521  0.0043
 6309SOL    HW230387   0.572   3.861   1.945 -1.2321  0.3676  2.0494
 6310SOL     OW30388   1.379   0.783   5.831  0.3805 -0.1046  0.5134
 6310SOL    HW130389   1.303   0.780   5.888 -1.3683  1.8829 -1.7041
 6310SOL    HW230390   1.333   0.790   5.747  0.0992 -0.5614  0.6279
 6311SOL     OW30391   4.161   1.019   2.630  0.2718  0.0662  0.1597
 6311SOL    HW130392   4.199   1.022   2.717  0.1310  1.0262  0.1805
 6311SOL    HW230393   4.161   1.110   2.599  0.1810 -0.6701 -2.0450
 6312SOL     OW30394   4.518   1.260   7.844  0.6138 -0.0605  0.0585
 6312SOL    HW130395   4.488   1.285   7.931 -0.3648  2.9148 -1.1221
 6312SOL    HW230396   4.447   1.294   7.789  1.5313  0.9911 -0.4754
 6313SOL     OW30397   3.149   0.023   3.832 -0.1558 -0.2857  0.4780
 6313SOL    HW130398   3.145   4.717   3.742  0.2776  1.7966 -0.2563
 6313SOL    HW230399   3.118   4.675   3.885  2.1508 -1.4728  0.1557
 6314SOL     OW30400   0.302   4.129   2.338  0.3199 -0.1429  0.3945
 6314SOL    HW130401   0.263   4.181   2.409 -0.6622 -1.3711  0.7746
 6314SOL    HW230402   0.307   4.041   2.375 -0.3399  0.4900  2.0391
 6315SOL     OW30403   1.622   0.429   0.691  0.4683 -1.0476  0.1165
 6315SOL    HW130404   1.554   0.371   0.724 -0.3977  1.7060  3.1504
 6315SOL    HW230405   1.699   0.380   0.720  0.3974 -0.9586  0.4552
 6316SOL     OW30406   0.032   3.734   2.383  0.7599 -0.1334  0.0033
 6316SOL    HW130407   4.715   3.718   2.467 -1.6334 -1.1063 -1.4085
 6316SOL    HW230408   4.711   3.810   2.350 -1.1879 -1.5656 -0.5285
 6317SOL     OW30409   3.898   2.548   9.753 -0.3497 -0.1688  0.1469
 6317SOL    HW130410   3.874   2.462   9.719  2.2647 -0.0226 -2.0769
 6317SOL    HW230411   3.990   2.533   9.776 -0.5204 -1.7537 -0.2227
 6318SOL     OW30412   2.983   3.767  16.915  0.1374  0.5785  0.2257
 6318SOL    HW130413   2.979   3.849  16.864 -5.1857  0.5800  0.6756
 6318SOL    HW230414   2.893   3.757  16.945  0.4548 -1.5642  0.4707
 6319SOL     OW30415   3.910   0.386   1.046  0.0348  0.4832 -0.4453
 6319SOL    HW130416   3.989   0.439   1.039  0.6901 -0.6719 -1.7598
 6319SOL    HW230417   3.865   0.405   0.963  0.5780 -1.6851 -1.2206
 6320SOL     OW30418   0.950   1.119   6.860 -0.2455  0.0657 -0.4660
 6320SOL    HW130419   0.876   1.084   6.909 -0.6294  1.7455  0.1165
 6320SOL    HW230420   0.904   1.151   6.783 -0.1218 -0.2070 -0.6562
 6321SOL     OW30421   1.450   2.530  13.471  0.0111 -0.7359  0.6018
 6321SOL    HW130422   1.427   2.581  13.548  0.7237  0.5924 -0.0760
 6321SOL    HW230423   1.496   2.601  13.427 -0.8527 -0.8395 -0.4609
 6322SOL     OW30424   0.662   2.378  17.663 -0.0699  0.0493 -0.1317
 6322SOL    HW130425   0.712   2.299  17.685  0.0292  0.2646  0.4037
 6322SOL    HW230426   0.694   2.435   0.028  1.2449  0.1472 -0.8113
 6323SOL     OW30427   0.672   3.251   6.414  0.1882 -0.0691 -0.5213
 6323SOL    HW130428   0.602   3.245   6.478 -0.2743 -0.9107 -1.0945
 6323SOL    HW230429   0.655   3.329   6.362 -0.0814 -0.2751 -0.7386
 6324SOL     OW30430   0.084   4.667   3.580 -0.8384 -0.2972  0.2944
 6324SOL    HW130431   0.015   4.608   3.608  0.8282 -2.1164  0.5632
 6324SOL    HW230432   0.140   4.671   3.658 -0.4196  1.2498 -0.0782
 6325SOL     OW30433   3.445   2.296   8.021 -0.0047  0.2635  0.4400
 6325SOL    HW130434   3.450   2.216   7.969  0.1649  1.0792 -0.8055
 6325SOL    HW230435   3.369   2.268   8.073  0.1718 -2.3193 -0.6728
 6326SOL     OW30436   2.213   0.741   2.054  0.2307 -0.0892  0.0812
 6326SOL    HW130437   2.227   0.755   2.148 -0.8640 -0.2422  0.2693
 6326SOL    HW230438   2.304   0.719   2.033 -0.1631  0.0829 -1.8430
 6327SOL     OW30439   2.712   2.644   5.239  0.6485 -0.3362  0.6678
 6327SOL    HW130440   2.729   2.722   5.291  1.1947  0.0615 -0.1012
 6327SOL    HW230441   2.619   2.627   5.248  0.6135 -1.2160 -1.3802
 6328SOL     OW30442   1.077   4.213   6.395 -0.1046  0.6317  0.3004
 6328SOL    HW130443   1.170   4.196   6.383 -0.2372 -0.3276  0.6741
 6328SOL    HW230444   1.042   4.226   6.307 -2.0389  0.3289  1.0289
 6329SOL     OW30445   2.731   0.715   1.455  1.3554 -0.3745  0.0157
 6329SOL    HW130446   2.720   0.734   1.361  2.0391  0.4546  0.1023
 6329SOL    HW230447   2.751   0.622   1.447  0.7470 -0.5363  0.3819
 6330SOL     OW30448   3.371   4.291  13.485 -0.7117 -0.3353  0.6839
 6330SOL    HW130449   3.404   4.276  13.397 -2.2343  1.9284 -0.2674
 6330SOL    HW230450   3.379   4.386  13.491 -2.3115 -0.2213  1.0162
 6331SOL     OW30451   4.180   2.726   6.139  0.2830  0.0774 -0.4074
 6331SOL    HW130452   4.250   2.769   6.091  0.2884  1.4712  0.8441
 6331SOL    HW230453   4.114   2.795   6.146  0.7603  0.5229 -0.2720
 6332SOL     OW30454   0.365   2.120   7.319 -0.0232  0.2804  0.4323
 6332SOL    HW130455   0.418   2.096   7.243 -1.8462 -0.0029 -0.7441
 6332SOL    HW230456   0.384   2.213   7.329  1.6523  0.1613 -1.5497
 6333SOL     OW30457   0.197   1.808   5.745  0.9488  0.2898 -0.1823
 6333SOL    HW130458   0.287   1.833   5.763  0.5501  1.3494  0.3561
 6333SOL    HW230459   0.181   1.732   5.800  1.0412  0.4922  0.1225
 6334SOL     OW30460   3.269   4.644   7.037  0.0199  0.4462  0.4585
 6334SOL    HW130461   3.356   4.682   7.028  0.3984 -0.5939 -0.1847
 6334SOL    HW230462   3.242   4.649   7.129  0.3432  1.2285  0.5062
 6335SOL     OW30463   1.454   1.636   8.000 -0.1400  0.4414  0.1201
 6335SOL    HW130464   1.366   1.609   7.975 -1.2339  1.7973  2.5062
 6335SOL    HW230465   1.474   1.697   7.930  0.7650  1.1409  0.9982
 6336SOL     OW30466   1.168   3.607   8.390  0.7584 -0.2588  0.2209
 6336SOL    HW130467   1.142   3.548   8.319 -0.2571 -0.0141  0.3901
 6336SOL    HW230468   1.079   3.636   8.413  1.4210  1.9843 -0.0912
 6337SOL     OW30469   0.618   1.829   2.994  0.3065 -0.4496  0.2878
 6337SOL    HW130470   0.671   1.819   3.073  1.2423 -0.4460 -0.3340
 6337SOL    HW230471   0.656   1.906   2.951  0.1453 -0.7565 -0.4012
 6338SOL     OW30472   1.691   2.298   3.998  0.4269 -0.3736 -0.1056
 6338SOL    HW130473   1.760   2.284   4.062 -0.6112 -1.6045  0.7295
 6338SOL    HW230474   1.654   2.380   4.031 -0.7070 -1.2942  0.9019
 6339SOL     OW30475   1.686   3.308  15.804  0.3968  0.4868  0.3635
 6339SOL    HW130476   1.738   3.262  15.870 -1.0782 -0.9023  0.5600
 6339SOL    HW230477   1.748   3.329  15.734 -0.8665  2.9729 -0.0048
 6340SOL     OW30478   1.978   1.422   4.976  0.2595 -0.1564  0.7075
 6340SOL    HW130479   1.921   1.398   5.050 -0.5393  3.4067  1.2374
 6340SOL    HW230480   1.936   1.501   4.943 -1.1536 -1.1242  0.1563
 6341SOL     OW30481   2.926   3.097   9.814  0.2385  0.0955 -0.1581
 6341SOL    HW130482   2.995   3.098   9.747 -0.9938 -1.4087 -1.4418
 6341SOL    HW230483   2.903   3.189   9.828  0.8466  0.1908  0.2650
 6342SOL     OW30484   1.956   4.647  16.512 -0.8040  0.6980 -0.0228
 6342SOL    HW130485   2.012   4.609  16.445 -0.4271  1.4513 -0.1349
 6342SOL    HW230486   1.922   4.568  16.554  1.4234 -0.3393 -0.1783
 6343SOL     OW30487   3.214   0.494   7.527  0.3767 -0.0147  0.0121
 6343SOL    HW130488   3.123   0.491   7.497  0.6478  0.9973 -0.9252
 6343SOL    HW230489   3.214   0.579   7.572 -1.9251  0.1281 -0.2825
 6344SOL     OW30490   4.240   0.133   1.150  0.5422 -0.1072  0.1255
 6344SOL    HW130491   4.244   0.101   1.240 -1.1832 -1.2245 -0.2132
 6344SOL    HW230492   4.185   0.064   1.113  0.2753  1.6797 -2.8113
 6345SOL     OW30493   2.576   4.377   2.738 -0.3335 -0.1959  0.0516
 6345SOL    HW130494   2.509   4.319   2.703 -0.4741  0.5696 -0.9529
 6345SOL    HW230495   2.534   4.459   2.713  1.1854  0.5762  0.0425
 6346SOL     OW30496   3.801   2.851  12.479 -0.0791  0.3230  0.3327
 6346SOL    HW130497   3.891   2.874  12.500  0.2371 -0.3099 -0.3196
 6346SOL    HW230498   3.759   2.937  12.477 -2.4502 -0.9422 -4.3668
 6347SOL     OW30499   3.729   4.004   3.346 -0.5488 -0.1740 -0.6023
 6347SOL    HW130500   3.694   3.953   3.273  0.4059 -0.4151 -0.8907
 6347SOL    HW230501   3.688   4.090   3.337  0.8533  0.4416 -1.0732
 6348SOL     OW30502   1.136   0.441  15.071  0.2926  0.0406  0.2885
 6348SOL    HW130503   1.102   0.496  15.142 -0.1078 -0.0381  0.1563
 6348SOL    HW230504   1.089   0.360  15.090 -1.7473  1.2305  0.3689
 6349SOL     OW30505   0.717   0.182   1.825  0.6529  0.1265  0.1141
 6349SOL    HW130506   0.715   0.179   1.729  0.1698  1.6078  0.0885
 6349SOL    HW230507   0.684   0.095   1.849  0.3366  0.1746 -0.1437
 6350SOL     OW30508   3.586   1.319   6.997  0.3002  0.2951 -0.1426
 6350SOL    HW130509   3.661   1.261   7.007  0.7983  1.0000  0.1914
 6350SOL    HW230510   3.619   1.402   7.030 -0.7149  0.1898  1.1510
 6351SOL     OW30511   2.244   3.922   5.192 -0.0951  0.0636  0.0183
 6351SOL    HW130512   2.196   3.897   5.271 -0.2278  0.9622  0.2327
 6351SOL    HW230513   2.332   3.914   5.227  0.8191  1.6704 -1.9275
 6352SOL     OW30514   0.746   3.599   5.242  0.0626 -0.4667  0.0341
 6352SOL    HW130515   0.714   3.530   5.300 -0.2782  1.3373  1.9686
 6352SOL    HW230516   0.703   3.677   5.276  0.7347  0.2916 -0.8756
 6353SOL     OW30517   2.292   4.138  16.906 -0.1862  0.4626 -0.2050
 6353SOL    HW130518   2.252   4.059  16.871  0.0638  0.2218  0.0459
 6353SOL    HW230519   2.342   4.161  16.828 -1.3582 -1.1042 -1.4107
 6354SOL     OW30520   3.793   2.886   7.872  0.4884 -0.2477 -0.1356
 6354SOL    HW130521   3.840   2.912   7.952 -3.5303  1.2299  1.7180
 6354SOL    HW230522   3.804   2.964   7.819 -1.9747 -0.1742 -0.5399
 6355SOL     OW30523   1.250   0.998   3.868 -0.5808  0.3229 -0.3016
 6355SOL    HW130524   1.319   0.937   3.844 -1.3596 -0.6580 -0.0639
 6355SOL    HW230525   1.216   1.022   3.782  1.3562 -1.7838 -1.6336
 6356SOL     OW30526   3.178   2.015   4.090  0.2882  0.2201 -0.3004
 6356SOL    HW130527   3.151   1.935   4.044 -0.3690  0.1358  0.2275
 6356SOL    HW230528   3.219   2.062   4.017 -1.2772  0.1851 -1.2156
 6357SOL     OW30529   1.990   3.520   6.296 -0.3457 -0.4945  0.2164
 6357SOL    HW130530   1.909   3.520   6.245 -1.7691 -2.4536  2.4380
 6357SOL    HW230531   1.970   3.473   6.377 -2.7427  0.3839  0.1267
 6358SOL     OW30532   4.489   0.328   5.840 -0.1515 -0.1965 -0.0150
 6358SOL    HW130533   4.437   0.344   5.919 -0.6038 -0.7520 -0.2044
 6358SOL    HW230534   4.421   0.289   5.785 -0.4925  0.9947 -0.4330
 6359SOL     OW30535   0.505   0.434   1.761 -0.6793 -0.1955  0.3445
 6359SOL    HW130536   0.574   0.418   1.697 -0.3823  2.0847  0.1063
 6359SOL    HW230537   0.447   0.360   1.742 -1.2025  0.2693  0.1204
 6360SOL     OW30538   2.643   2.524  17.592 -0.0230  0.3127 -0.0528
 6360SOL    HW130539   2.571   2.571  17.550  1.2592  1.2161 -1.2715
 6360SOL    HW230540   2.684   2.476  17.520 -0.0337  1.4997 -0.8572
 6361SOL     OW30541   2.068   2.003   8.209 -0.1867  0.2015  0.1867
 6361SOL    HW130542   2.010   1.981   8.282 -1.3350  3.4547  0.2751
 6361SOL    HW230543   2.132   2.056   8.257 -0.4558  1.2473 -0.6046
 6362SOL     OW30544   0.018   3.188   3.130  0.2196 -0.2264 -0.7907
 6362SOL    HW130545   0.058   3.190   3.217 -0.6599  1.8395 -0.4152
 6362SOL    HW230546   4.675   3.255   3.133  0.6524  0.0913  2.4402
 6363SOL     OW30547   3.300   4.550  15.784 -0.2814  0.3293  0.8251
 6363SOL    HW130548   3.211   4.549  15.748 -0.4967  0.7533  1.3639
 6363SOL    HW230549   3.279   4.536  15.876 -0.4224 -1.0146  0.5909
 6364SOL     OW30550   3.147   1.616   5.078 -0.2928 -0.3022 -0.1279
 6364SOL    HW130551   3.112   1.690   5.126  0.4137  0.4028 -0.7026
 6364SOL    HW230552   3.218   1.594   5.138  1.1140  1.0170 -1.3199
 6365SOL     OW30553   3.659   3.394   7.499  0.0058  0.1778 -0.0795
 6365SOL    HW130554   3.703   3.310   7.482  0.3789  0.2204  0.6780
 6365SOL    HW230555   3.597   3.399   7.426  0.0001 -0.4567 -0.1177
 6366SOL     OW30556   2.680   1.553   6.104  1.0330 -0.2980 -0.2029
 6366SOL    HW130557   2.742   1.540   6.176 -1.8152  2.0761  2.6780
 6366SOL    HW230558   2.638   1.631   6.140  0.2718 -0.7944 -0.0085
 6367SOL     OW30559   3.933   3.417   8.726  0.4008  0.3617  0.1677
 6367SOL    HW130560   3.852   3.404   8.677 -0.2811 -2.8838  2.1717
 6367SOL    HW230561   3.983   3.444   8.650  0.9896  0.0527  0.4503
 6368SOL     OW30562   1.774   3.198   4.693  0.2546  0.0120  0.4853
 6368SOL    HW130563   1.832   3.253   4.641  0.0977  0.4531  0.7773
 6368SOL    HW230564   1.789   3.235   4.780 -1.2480  0.8011  0.3979
 6369SOL     OW30565   1.149   3.804  13.510 -0.1158 -0.5125  0.8962
 6369SOL    HW130566   1.085   3.822  13.441  1.5879  2.4180  0.0583
 6369SOL    HW230567   1.116   3.717  13.532 -1.7610 -0.0731  0.1846
 6370SOL     OW30568   0.781   3.554   5.859  0.2538  0.2811 -0.0521
 6370SOL    HW130569   0.773   3.471   5.813  2.7427 -0.5227  0.9841
 6370SOL    HW230570   0.693   3.566   5.896  0.0896 -0.4202 -0.2329
 6371SOL     OW30571   4.671   1.392   4.448  0.0500 -0.1505  0.0146
 6371SOL    HW130572   4.681   1.339   4.369 -0.7556  0.4105 -0.4616
 6371SOL    HW230573   4.703   1.477   4.416  0.7574 -0.7411 -0.8416
 6372SOL     OW30574   1.919   0.294   7.625 -0.3670  0.8825  0.1346
 6372SOL    HW130575   1.933   0.334   7.539  0.8935  3.0667  1.3517
 6372SOL    HW230576   2.002   0.251   7.645 -0.2987  1.2609  0.6542
 6373SOL     OW30577   0.079   4.105   1.724  0.1448 -0.9904 -0.5903
 6373SOL    HW130578   0.132   4.164   1.778  2.3877 -1.0657 -2.6751
 6373SOL    HW230579   0.090   4.130   1.632  0.4340 -2.9960 -1.1001
 6374SOL     OW30580   2.522   0.034   2.052 -0.5292 -0.0953  0.0314
 6374SOL    HW130581   2.585   0.104   2.037 -0.1625 -0.3522  0.3830
 6374SOL    HW230582   2.473   0.077   2.122  0.0485  1.0147 -0.2563
 6375SOL     OW30583   3.675   0.183   4.025  0.1464 -0.2562  0.3467
 6375SOL    HW130584   3.719   0.148   3.948  1.6206 -2.1131  2.0338
 6375SOL    HW230585   3.743   0.243   4.054  0.8674  0.7661 -3.4342
 6376SOL     OW30586   1.912   4.517   6.487 -0.7282  0.1947 -0.5149
 6376SOL    HW130587   1.919   4.581   6.559 -0.2438 -1.6751  1.0998
 6376SOL    HW230588   1.967   4.441   6.507 -0.7742  0.7143  1.5997
 6377SOL     OW30589   1.414   2.057   3.884  0.0801 -0.1847  0.7698
 6377SOL    HW130590   1.499   2.014   3.888 -0.6046 -1.5350  0.8679
 6377SOL    HW230591   1.360   1.989   3.843  0.7408  0.1652 -0.6830
 6378SOL     OW30592   0.495   3.198   8.802  0.1410  0.0822 -0.2280
 6378SOL    HW130593   0.573   3.238   8.840 -0.1302 -0.8303  1.2631
 6378SOL    HW230594   0.455   3.150   8.874  0.6420 -0.2371 -0.1593
 6379SOL     OW30595   3.099   4.006   6.861  0.2711 -0.0415  0.1967
 6379SOL    HW130596   3.107   3.919   6.900 -1.1253  0.5289  1.7205
 6379SOL    HW230597   3.015   4.038   6.893 -0.4383 -0.0814 -1.6491
 6380SOL     OW30598   3.059   2.887   5.799  0.0783 -0.4633 -0.3157
 6380SOL    HW130599   2.973   2.917   5.768  0.3241  0.1828 -0.3712
 6380SOL    HW230600   3.093   2.828   5.732 -2.0573  0.3708 -2.1326
 6381SOL     OW30601   3.074   3.951  10.602 -0.1340 -0.1995  0.3174
 6381SOL    HW130602   3.034   4.003  10.532  2.0629 -1.0069 -1.5457
 6381SOL    HW230603   3.026   3.871  10.585 -1.9139  1.1124 -0.8308
 6382SOL     OW30604   3.594   4.020  13.476  0.2630  0.2591 -0.1238
 6382SOL    HW130605   3.639   4.098  13.507  0.4059  0.3751 -0.6167
 6382SOL    HW230606   3.586   4.052  13.386 -0.2127  2.4216  0.6842
 6383SOL     OW30607   0.992   3.743   1.640 -0.2380  0.1983  0.1164
 6383SOL    HW130608   0.941   3.765   1.718  0.9571  1.3588  0.5708
 6383SOL    HW230609   1.069   3.703   1.681  0.1688 -0.6110 -1.4330
 6384SOL     OW30610   1.091   1.555   1.770  0.3030 -0.5736  0.2840
 6384SOL    HW130611   1.016   1.604   1.802  1.2830  1.3966 -0.4212
 6384SOL    HW230612   1.163   1.594   1.820  1.1400  0.0005 -1.3447
 6385SOL     OW30613   0.547   2.695   9.211  0.0730  0.4518  0.6858
 6385SOL    HW130614   0.570   2.770   9.267 -1.8402  0.5000  1.4172
 6385SOL    HW230615   0.510   2.629   9.269  0.3474  0.0544  0.4103
 6386SOL     OW30616   1.345   3.351   9.238  0.4548 -0.7990 -0.3115
 6386SOL    HW130617   1.394   3.429   9.263 -0.2250 -0.3324 -0.4424
 6386SOL    HW230618   1.329   3.375   9.146  1.5578 -1.6916 -0.7336
 6387SOL     OW30619   1.830   0.578  14.822 -0.1549 -0.0623 -0.3916
 6387SOL    HW130620   1.898   0.559  14.887 -1.6201 -0.4761  1.0277
 6387SOL    HW230621   1.863   0.522  14.752 -1.5142 -2.1959  0.6574
 6388SOL     OW30622   3.465   3.414   5.719  0.4197  0.2225 -0.0815
 6388SOL    HW130623   3.528   3.393   5.788 -0.3901  1.1784  0.9671
 6388SOL    HW230624   3.428   3.328   5.699  0.9664  0.0521 -0.3506
 6389SOL     OW30625   1.006   4.399   4.331 -0.0219  0.2863  0.1190
 6389SOL    HW130626   1.006   4.394   4.235  0.7208  0.5060  0.1075
 6389SOL    HW230627   0.942   4.329   4.344 -0.4892  0.4788 -1.0660
 6390SOL     OW30628   3.841   3.282  12.024 -0.1622 -0.1906 -0.1612
 6390SOL    HW130629   3.783   3.326  11.962  0.8223  1.4452  0.0811
 6390SOL    HW230630   3.924   3.302  11.982 -0.0345  0.1791  0.2625
 6391SOL     OW30631   3.859   3.477   2.620 -0.3833 -0.2744  0.3321
 6391SOL    HW130632   3.850   3.557   2.569 -1.5750 -1.9408 -2.0555
 6391SOL    HW230633   3.949   3.451   2.598  0.1694  1.9874 -0.0876
 6392SOL     OW30634   3.924   1.210   6.307 -0.3018  0.8306  0.3441
 6392SOL    HW130635   3.848   1.168   6.348 -0.9017  0.5459 -1.0215
 6392SOL    HW230636   3.882   1.267   6.243 -2.5113 -0.8251  0.3008
 6393SOL     OW30637   2.928   1.653   7.262 -0.3642  0.7154 -0.4566
 6393SOL    HW130638   2.927   1.692   7.350 -0.9932  0.6258 -0.4245
 6393SOL    HW230639   2.926   1.560   7.284  1.9678  0.1650 -2.5773
 6394SOL     OW30640   0.890   4.711   1.472  0.8433  0.2780  0.6437
 6394SOL    HW130641   0.916   4.688   1.561 -0.6794 -0.4042  0.9158
 6394SOL    HW230642   0.902   4.632   1.419 -1.0491 -0.3860  1.2178
 6395SOL     OW30643   0.235   2.367   5.373 -0.3969 -0.2367 -0.0727
 6395SOL    HW130644   0.319   2.325   5.354  0.5688  1.4704  0.3786
 6395SOL    HW230645   0.176   2.305   5.331 -2.0149  1.4423 -0.2340
 6396SOL     OW30646   2.161   0.658   0.516  0.2665 -0.2842 -0.7633
 6396SOL    HW130647   2.158   0.705   0.433  0.1963 -0.7140 -1.0029
 6396SOL    HW230648   2.123   0.719   0.579  1.3353  0.2936 -0.6778
 6397SOL     OW30649   1.823   4.350  10.743 -0.3858 -0.0865  1.1334
 6397SOL    HW130650   1.839   4.346  10.649  1.2114  1.9847  1.3124
 6397SOL    HW230651   1.816   4.445  10.757 -4.1370 -0.1208 -0.3827
 6398SOL     OW30652   2.364   4.663   4.962  0.1533  0.2504  0.1407
 6398SOL    HW130653   2.287   4.669   4.905 -1.5291 -1.4202  2.1863
 6398SOL    HW230654   2.356   4.573   4.994 -0.1300  0.4336  0.5962
 6399SOL     OW30655   2.097   0.519   9.865  0.2288  0.1655  0.4362
 6399SOL    HW130656   2.192   0.527   9.867  0.4122 -1.4547 -1.3761
 6399SOL    HW230657   2.083   0.534   9.958 -0.2086 -1.3928  0.6204
 6400SOL     OW30658   4.718   1.144   2.480 -0.1811 -0.5302 -0.0028
 6400SOL    HW130659   0.017   1.178   2.566 -2.5579 -0.0845  0.5100
 6400SOL    HW230660   4.622   1.138   2.488  0.0248 -0.6035  2.5782
 6401SOL     OW30661   2.792   2.216   1.352 -0.5297  0.6807  0.2773
 6401SOL    HW130662   2.776   2.150   1.284 -0.5615  2.8156 -1.7936
 6401SOL    HW230663   2.888   2.208   1.353 -0.4708  1.5263  0.5329
 6402SOL     OW30664   1.170   3.890   2.174  0.7013 -0.4688  0.0757
 6402SOL    HW130665   1.175   3.816   2.114  0.3832 -3.1659  3.3818
 6402SOL    HW230666   1.105   3.946   2.132  2.0355  1.1291  0.0998
 6403SOL     OW30667   3.550   1.645  12.129  0.6073 -0.0738 -0.1645
 6403SOL    HW130668   3.493   1.574  12.160  0.8840  0.5544  1.7656
 6403SOL    HW230669   3.487   1.708  12.163 -1.3812 -3.4964  2.4854
 6404SOL     OW30670   2.113   4.720   3.039  0.4178 -0.4875 -0.7443
 6404SOL    HW130671   2.139   4.677   3.120 -2.1938  1.7976  1.3012
 6404SOL    HW230672   2.170   0.070   3.022  0.0257 -0.1994 -0.7766
 6405SOL     OW30673   0.284   4.356   5.339 -0.7005 -0.0820  0.1739
 6405SOL    HW130674   0.274   4.358   5.435  1.4003  2.6161  0.3324
 6405SOL    HW230675   0.328   4.439   5.321 -2.6130  0.6109 -1.3574
 6406SOL     OW30676   2.367   2.331   3.213 -0.4286 -0.1710  0.3255
 6406SOL    HW130677   2.314   2.403   3.248  1.2648 -0.0036  2.4850
 6406SOL    HW230678   2.352   2.345   3.119  2.8458 -0.0627 -0.1807
 6407SOL     OW30679   0.067   1.414  16.015  0.3603  0.1010 -0.3092
 6407SOL    HW130680   4.723   1.471  16.046  0.6481  0.4487 -0.2899
 6407SOL    HW230681   0.138   1.442  16.073  0.7461  4.0360 -2.6343
 6408SOL     OW30682   2.540   0.539  13.909  0.6895 -0.2830  0.5140
 6408SOL    HW130683   2.508   0.472  13.969  1.7722 -0.9302  0.3839
 6408SOL    HW230684   2.593   0.480  13.855  0.4943  0.7080 -0.7793
 6409SOL     OW30685   0.182   0.615  16.211 -0.3768 -0.0997  0.6234
 6409SOL    HW130686   0.092   0.604  16.180  0.3148 -0.0821 -1.3788
 6409SOL    HW230687   0.161   0.668  16.288 -0.4362 -0.9766  1.2195
 6410SOL     OW30688   0.453   4.213   7.755  0.6672 -0.7654  0.1775
 6410SOL    HW130689   0.506   4.134   7.741  0.6316 -0.9133  0.9104
 6410SOL    HW230690   0.378   4.198   7.698 -0.5689  1.9811  1.1098
 6411SOL     OW30691   4.463   4.353   9.866 -0.1113 -0.0589 -0.4799
 6411SOL    HW130692   4.416   4.291   9.809  2.3525 -1.7198 -0.6810
 6411SOL    HW230693   4.403   4.353   9.941  1.1708  1.4210  0.5316
 6412SOL     OW30694   2.020   0.554   0.959  0.1663  0.3742 -0.9657
 6412SOL    HW130695   2.066   0.629   0.997 -0.8519 -0.0631  1.1273
 6412SOL    HW230696   1.950   0.530   1.020  1.4045  0.3776  0.4231
 6413SOL     OW30697   4.347   2.159   5.089 -0.0792 -0.1699  0.5653
 6413SOL    HW130698   4.282   2.185   5.155  0.4243 -0.5292  1.2034
 6413SOL    HW230699   4.357   2.244   5.046 -2.5742  0.2221  0.7347
 6414SOL     OW30700   0.300   3.837   5.599 -0.1551 -0.0567 -0.2434
 6414SOL    HW130701   0.239   3.895   5.644 -0.3130 -0.9673  0.7151
 6414SOL    HW230702   0.234   3.784   5.555  0.9543 -2.3507  0.8368
 6415SOL     OW30703   2.284   2.525   0.244 -0.9642 -0.7028  0.0269
 6415SOL    HW130704   2.369   2.526   0.200  1.0657  1.1764  3.9948
 6415SOL    HW230705   2.320   2.513   0.331  0.7346  0.9404 -0.4694
 6416SOL     OW30706   0.523   1.980  10.893 -0.1579  0.8298 -0.0940
 6416SOL    HW130707   0.558   1.978  10.982  0.4811 -0.8237 -0.3783
 6416SOL    HW230708   0.516   1.886  10.875 -2.5862  0.3476  3.2108
 6417SOL     OW30709   3.994   1.758   5.228 -0.4518 -0.1157  0.5183
 6417SOL    HW130710   3.979   1.756   5.133  1.3255  0.4387  0.2137
 6417SOL    HW230711   3.919   1.711   5.263 -1.3679 -0.4020 -1.8124
 6418SOL     OW30712   3.626   0.990   3.019 -0.0832 -0.2977 -0.1822
 6418SOL    HW130713   3.665   1.004   2.933  0.6307 -0.6238  0.0928
 6418SOL    HW230714   3.612   0.895   3.022  1.0339 -0.5219 -2.1153
 6419SOL     OW30715   4.373   0.376   7.446 -0.0536 -0.2043  0.3134
 6419SOL    HW130716   4.295   0.410   7.490  0.3987 -0.6483  1.4522
 6419SOL    HW230717   4.432   0.375   7.521  1.8943  2.6410 -1.2124
 6420SOL     OW30718   0.496   1.777   3.547 -0.4313  0.1130 -0.1168
 6420SOL    HW130719   0.499   1.766   3.642  0.5732 -1.0290 -0.2876
 6420SOL    HW230720   0.571   1.835   3.536  0.5055 -0.8884  1.0219
 6421SOL     OW30721   3.351   0.851   3.293  0.4215 -0.1181 -0.3309
 6421SOL    HW130722   3.326   0.783   3.357 -1.8981  0.8346 -0.2031
 6421SOL    HW230723   3.431   0.816   3.255  1.1120  1.6329 -0.4919
 6422SOL     OW30724   2.589   0.777  16.473 -0.1611 -0.1266 -0.4024
 6422SOL    HW130725   2.497   0.769  16.451 -0.8280  3.3920  1.2909
 6422SOL    HW230726   2.631   0.727  16.403  1.2714  0.5032 -0.0121
 6423SOL     OW30727   3.469   2.452   4.129 -0.4611  0.0529  0.4164
 6423SOL    HW130728   3.486   2.513   4.058 -3.1229 -0.9952 -1.1211
 6423SOL    HW230729   3.375   2.451   4.143 -0.4289  1.0977  0.6690
 6424SOL     OW30730   0.952   4.207  10.899 -0.2089  0.8501 -0.0174
 6424SOL    HW130731   1.040   4.217  10.934  0.5028 -0.3870 -1.4539
 6424SOL    HW230732   0.960   4.113  10.885  0.8113  0.8438  0.6879
 6425SOL     OW30733   1.990   0.121   9.648 -0.1238  0.0616 -0.1825
 6425SOL    HW130734   2.006   0.067   9.726 -2.0324 -0.4202 -0.1219
 6425SOL    HW230735   1.895   0.118   9.636 -0.5549  1.1295  2.8351
 6426SOL     OW30736   3.350   3.719   2.252  0.2086 -0.0934 -0.0938
 6426SOL    HW130737   3.310   3.654   2.194 -0.7558 -0.2009  0.6945
 6426SOL    HW230738   3.367   3.786   2.187 -0.2749  0.8638  0.7655
 6427SOL     OW30739   2.064   0.488   1.378 -0.0233 -0.0650  0.5360
 6427SOL    HW130740   2.135   0.424   1.377 -0.1589 -0.1548 -1.6273
 6427SOL    HW230741   1.996   0.422   1.390 -1.0801  0.8772 -0.3069
 6428SOL     OW30742   4.369   3.246  13.254 -0.5164  0.0757  0.3626
 6428SOL    HW130743   4.395   3.300  13.180 -2.4603  2.1536  1.1851
 6428SOL    HW230744   4.405   3.164  13.221  2.5516  1.4176  0.3890
 6429SOL     OW30745   3.218   2.499   5.972  0.1670  0.1966 -0.1330
 6429SOL    HW130746   3.201   2.410   6.002  2.0267 -0.7498 -1.9159
 6429SOL    HW230747   3.135   2.528   5.934 -0.4655 -1.2240  0.1556
 6430SOL     OW30748   2.417   0.245   3.377 -0.6279  0.0983  0.2029
 6430SOL    HW130749   2.363   0.264   3.453  0.5479  0.6300  0.9077
 6430SOL    HW230750   2.497   0.205   3.410 -0.8921 -1.1088 -0.6127
 6431SOL     OW30751   0.733   0.612   7.957  0.0812 -0.4935 -0.5090
 6431SOL    HW130752   0.673   0.684   7.937 -0.1950 -0.9824 -1.4237
 6431SOL    HW230753   0.815   0.662   7.949 -0.5802  0.8918  1.2473
 6432SOL     OW30754   2.836   1.233   8.543 -0.4021 -0.0864 -0.2094
 6432SOL    HW130755   2.841   1.167   8.613  0.5275  0.3921  0.1721
 6432SOL    HW230756   2.794   1.309   8.582 -2.8588 -1.2129 -0.6659
 6433SOL     OW30757   4.606   2.495   8.243 -0.1276  0.3598 -0.4284
 6433SOL    HW130758   4.576   2.428   8.303 -0.7095 -0.8158 -2.0545
 6433SOL    HW230759   4.659   2.441   8.184 -0.5534  1.5441 -1.8964
 6434SOL     OW30760   1.373   1.697  10.311 -0.2094 -0.2209  0.7857
 6434SOL    HW130761   1.458   1.656  10.328  0.4541  0.1939 -1.4259
 6434SOL    HW230762   1.341   1.710  10.400  1.9071  0.9118  1.4038
 6435SOL     OW30763   1.359   1.414   3.216 -0.3850  0.0760  0.2310
 6435SOL    HW130764   1.324   1.369   3.292 -3.6430  0.9641 -0.7100
 6435SOL    HW230765   1.429   1.351   3.200 -2.0875 -1.4012 -1.4432
 6436SOL     OW30766   2.121   2.253  13.260 -0.3989  0.4518  0.4441
 6436SOL    HW130767   2.159   2.188  13.318 -1.0774 -0.4552 -0.1257
 6436SOL    HW230768   2.128   2.336  13.307  1.0590  0.9207 -0.5851
 6437SOL     OW30769   3.136   3.542   7.325 -0.1607 -0.5343 -0.6075
 6437SOL    HW130770   3.148   3.624   7.277  0.7465  0.7095  1.7396
 6437SOL    HW230771   3.041   3.542   7.337 -0.3549  0.7773 -2.1757
 6438SOL     OW30772   1.620   3.255   3.020  0.1816  0.0367 -0.0918
 6438SOL    HW130773   1.602   3.179   2.964  1.0068  0.9152 -1.5354
 6438SOL    HW230774   1.566   3.318   2.971  0.9338  1.1366  0.5134
 6439SOL     OW30775   2.385   2.681   8.025  0.4679  0.1556 -0.1506
 6439SOL    HW130776   2.451   2.725   8.077 -0.0619 -0.8197  1.3465
 6439SOL    HW230777   2.319   2.749   8.037 -0.8519 -1.0348 -0.5369
 6440SOL     OW30778   2.625   3.361   2.674 -0.2271  0.2670 -0.2266
 6440SOL    HW130779   2.592   3.415   2.746  0.5011 -1.0061  1.0360
 6440SOL    HW230780   2.547   3.373   2.620 -0.9239 -1.0752  0.4972
 6441SOL     OW30781   3.104   2.565   1.987  0.6617  0.1587  0.3311
 6441SOL    HW130782   3.109   2.656   2.018 -0.6306 -0.5473  2.6448
 6441SOL    HW230783   3.038   2.531   2.047  0.6737  1.2879  0.9953
 6442SOL     OW30784   2.002   0.303   5.341  0.0561  1.1661 -0.3711
 6442SOL    HW130785   2.073   0.259   5.295  0.4987 -1.2300  2.6075
 6442SOL    HW230786   1.989   0.244   5.416  2.3612  0.4619 -0.5339
 6443SOL     OW30787   0.471   1.155   3.583  0.0742 -0.7762  0.1524
 6443SOL    HW130788   0.558   1.166   3.622 -0.1795  1.6968  0.0222
 6443SOL    HW230789   0.482   1.186   3.493 -1.4097  2.6335  1.1197
 6444SOL     OW30790   3.226   3.785  13.394  0.4937  0.7533  0.1173
 6444SOL    HW130791   3.288   3.719  13.365  1.4614  1.0854  1.4489
 6444SOL    HW230792   3.245   3.861  13.339  1.8678  0.0358 -0.3952
 6445SOL     OW30793   2.118   1.138   6.813  0.0243  0.2179 -0.0078
 6445SOL    HW130794   2.210   1.130   6.836  0.5765  1.4818 -1.7906
 6445SOL    HW230795   2.084   1.194   6.883  0.6192 -1.3718  1.5453
 6446SOL     OW30796   4.527   4.532   8.824 -0.2248 -0.1987 -0.2408
 6446SOL    HW130797   4.573   4.577   8.895  1.4121 -2.5409  0.1983
 6446SOL    HW230798   4.437   4.543   8.855  0.4288 -2.2085  2.4057
 6447SOL     OW30799   1.193   1.719  10.530 -1.0360 -0.2559 -0.0773
 6447SOL    HW130800   1.211   1.697  10.621 -1.0737  0.9797  0.2365
 6447SOL    HW230801   1.098   1.704  10.523 -1.6817  2.4501  2.4330
 6448SOL     OW30802   4.251   3.001   1.434  0.4342  0.2225 -0.1184
 6448SOL    HW130803   4.189   3.054   1.484 -1.7509 -0.5114 -2.0541
 6448SOL    HW230804   4.334   3.042   1.456  0.7110 -0.6437  0.4360
 6449SOL     OW30805   4.278   3.109  13.860 -0.0816  0.2612  0.1976
 6449SOL    HW130806   4.268   3.099  13.955  1.3974 -0.2453  0.2960
 6449SOL    HW230807   4.370   3.093  13.838  0.0380  0.0485  0.8590
 6450SOL     OW30808   0.991   2.192   5.851 -0.4779  0.2451  0.6680
 6450SOL    HW130809   0.932   2.123   5.819  1.0566  1.3560 -4.5683
 6450SOL    HW230810   0.931   2.233   5.914 -1.2681  1.4608 -0.8641
 6451SOL     OW30811   4.556   0.117   1.636  0.0769 -0.5466 -0.0114
 6451SOL    HW130812   4.473   0.142   1.676  1.3243  2.5760  0.6823
 6451SOL    HW230813   4.585   0.191   1.583  1.7927  0.2193  1.9980
 6452SOL     OW30814   4.510   4.032  10.428  0.7255 -0.7750 -0.0411
 6452SOL    HW130815   4.552   3.957  10.471 -0.7442  1.1290  4.7687
 6452SOL    HW230816   4.585   4.063  10.378 -0.7384 -1.5140 -2.6567
 6453SOL     OW30817   2.690   0.351   5.697  0.3060  0.0797  0.1546
 6453SOL    HW130818   2.703   0.264   5.660 -1.0956 -0.1580  0.2011
 6453SOL    HW230819   2.632   0.343   5.773  2.1845  1.4845  1.7169
 6454SOL     OW30820   2.924   0.532   8.024  0.0851 -0.1563 -0.0471
 6454SOL    HW130821   2.969   0.466   7.971 -0.4124 -0.1632 -0.4620
 6454SOL    HW230822   2.839   0.535   7.981  0.5597  0.3174 -0.9782
 6455SOL     OW30823   4.647   1.862   3.625 -0.0446  0.3733 -0.0602
 6455SOL    HW130824   4.648   1.879   3.719 -1.4530  0.7869 -0.1307
 6455SOL    HW230825   4.560   1.828   3.607  0.1325  0.1162 -0.4274
 6456SOL     OW30826   1.205   0.975   7.521  1.0805  0.3161  0.0296
 6456SOL    HW130827   1.234   0.927   7.443 -0.1803 -0.3732 -0.0076
 6456SOL    HW230828   1.284   1.024   7.541  0.5247  1.8140 -1.4483
 6457SOL     OW30829   1.505   3.965   5.497  0.3967  0.7710  0.0375
 6457SOL    HW130830   1.543   3.951   5.584 -0.9811 -0.3608  0.4520
 6457SOL    HW230831   1.458   4.047   5.508  0.3010  0.5027  1.6628
 6458SOL     OW30832   3.629   1.061   0.063 -0.1826 -0.1854 -0.1044
 6458SOL    HW130833   3.716   1.066   0.103 -1.1022  0.7376  1.7535
 6458SOL    HW230834   3.589   1.136   0.106  0.5635 -0.1403  0.5074
 6459SOL     OW30835   0.021   3.222   4.629  0.1846  0.4977  0.1409
 6459SOL    HW130836   0.053   3.308   4.601  0.6748  0.3712  0.2971
 6459SOL    HW230837   0.090   3.159   4.606 -1.6512 -1.2594 -0.5677
 6460SOL     OW30838   3.603   0.699   2.978  0.3593  0.5729  0.4340
 6460SOL    HW130839   3.671   0.684   2.912  1.7083  2.3091  1.4325
 6460SOL    HW230840   3.525   0.658   2.942  2.3909  1.5033 -4.9665
 6461SOL     OW30841   4.028   0.194   9.098  0.6587  0.2453  0.1231
 6461SOL    HW130842   4.061   0.254   9.031  0.9767 -1.5232 -1.3161
 6461SOL    HW230843   4.037   0.241   9.181  0.4508 -0.2755  0.4403
 6462SOL     OW30844   2.228   2.669  13.060  0.0641  0.2854  0.0964
 6462SOL    HW130845   2.166   2.597  13.059  0.4640 -0.0784  1.4172
 6462SOL    HW230846   2.205   2.720  13.138  3.0137  2.0032 -0.1350
 6463SOL     OW30847   3.242   2.950   9.468  0.2022  0.0364  0.1773
 6463SOL    HW130848   3.268   2.916   9.382  1.0503 -1.7857  1.1736
 6463SOL    HW230849   3.158   2.910   9.490 -0.3970  1.4397  0.4105
 6464SOL     OW30850   4.251   1.970  15.160  0.0034 -0.1244  0.0463
 6464SOL    HW130851   4.210   2.037  15.216 -2.2168 -0.2877 -1.4064
 6464SOL    HW230852   4.238   1.887  15.205  1.5481 -0.6108 -0.4374
 6465SOL     OW30853   1.451   0.820  12.446  0.2417  0.2844 -0.1767
 6465SOL    HW130854   1.448   0.806  12.352 -0.6269  0.1312 -0.1286
 6465SOL    HW230855   1.525   0.880  12.445  1.9262 -1.8311 -1.9025
 6466SOL     OW30856   0.075   3.849   1.827  0.2907 -0.3520 -0.5603
 6466SOL    HW130857   0.059   3.935   1.787 -1.8086 -1.2850 -1.7599
 6466SOL    HW230858   0.162   3.821   1.799  0.2249  1.1566 -2.2570
 6467SOL     OW30859   0.661   3.101  14.255  0.0577  0.0117 -0.2357
 6467SOL    HW130860   0.718   3.029  14.228  1.0560  1.9825 -3.3355
 6467SOL    HW230861   0.642   3.084  14.347  1.0260 -0.3442 -0.1094
 6468SOL     OW30862   3.172   3.456   6.404  0.1389  0.0779 -0.0103
 6468SOL    HW130863   3.210   3.372   6.378 -2.7632 -1.2341 -0.0237
 6468SOL    HW230864   3.172   3.437   6.498 -1.9845  0.5355  0.0787
 6469SOL     OW30865   1.298   0.121   1.705 -0.5611  0.5621  0.0465
 6469SOL    HW130866   1.383   0.079   1.691 -1.4355 -1.1831 -0.0290
 6469SOL    HW230867   1.288   0.126   1.800 -1.1345 -1.3980  0.0865
 6470SOL     OW30868   1.528   4.042   7.171 -0.0012  0.0574  0.5798
 6470SOL    HW130869   1.558   4.132   7.163  0.4920 -0.4020 -2.7958
 6470SOL    HW230870   1.560   4.001   7.091 -0.2990  0.9750  0.0054
 6471SOL     OW30871   3.975   0.872  10.751 -0.2772 -0.2839 -0.4297
 6471SOL    HW130872   3.947   0.899  10.839  1.1601  0.0734 -0.0849
 6471SOL    HW230873   3.900   0.835  10.705 -0.5428  2.3496 -2.1334
 6472SOL     OW30874   0.510   1.553   7.390 -0.3713  0.2797  0.0027
 6472SOL    HW130875   0.515   1.630   7.446 -0.4872  1.6257 -1.8640
 6472SOL    HW230876   0.417   1.533   7.398 -0.4985  0.6810 -0.4886
 6473SOL     OW30877   0.305   1.150   1.506 -0.5759  0.1528 -0.3226
 6473SOL    HW130878   0.297   1.135   1.412  3.7547 -1.6070 -0.4043
 6473SOL    HW230879   0.265   1.236   1.518  0.6359  0.9088 -1.7727
 6474SOL     OW30880   1.738   2.301   9.510 -0.5203 -0.0388  0.1054
 6474SOL    HW130881   1.709   2.223   9.557  0.7362  0.3169  1.4649
 6474SOL    HW230882   1.667   2.321   9.450 -1.1585 -1.5500  0.3479
 6475SOL     OW30883   0.768   3.967   4.530  0.6162  0.5787 -0.3839
 6475SOL    HW130884   0.804   4.052   4.557  0.9384 -0.1244  1.4389
 6475SOL    HW230885   0.721   3.935   4.607 -0.9413 -1.7560 -2.3325
 6476SOL     OW30886   1.672   1.730   7.155  0.3155  0.6452  0.1804
 6476SOL    HW130887   1.578   1.743   7.152  0.1141  0.1167  4.3340
 6476SOL    HW230888   1.688   1.796   7.223  1.1822  1.4183 -0.7660
 6477SOL     OW30889   2.442   2.799   3.738  0.1528 -0.1371  0.6048
 6477SOL    HW130890   2.430   2.761   3.650 -0.7049  0.9517  0.2489
 6477SOL    HW230891   2.465   2.717   3.781  2.8298 -0.1191 -0.7791
 6478SOL     OW30892   3.910   2.904   8.959 -0.0409 -0.3564  0.1210
 6478SOL    HW130893   3.903   2.998   8.949 -1.7741 -0.3081  1.7436
 6478SOL    HW230894   3.818   2.877   8.952 -0.6668  1.7607  0.3648
 6479SOL     OW30895   3.080   2.540  11.850  0.4237 -0.4259 -0.4800
 6479SOL    HW130896   3.036   2.615  11.891 -0.0499 -0.2395 -1.3127
 6479SOL    HW230897   3.115   2.489  11.922  0.4295  0.7790  0.3749
 6480SOL     OW30898   3.591   1.103  10.293 -0.3700 -0.3581 -0.0494
 6480SOL    HW130899   3.611   1.070  10.380 -0.4691  0.1521  0.1639
 6480SOL    HW230900   3.546   1.023  10.266 -1.8751  0.0119  1.3710
 6481SOL     OW30901   0.914   1.268   6.383 -0.4439 -0.2197 -0.2110
 6481SOL    HW130902   0.838   1.219   6.353  0.0515 -0.5924 -0.8814
 6481SOL    HW230903   0.898   1.268   6.477  3.3596  1.0555  0.4329
 6482SOL     OW30904   2.614   1.555  10.426  0.4772  0.3213  0.2658
 6482SOL    HW130905   2.530   1.593  10.451 -0.8728 -1.8288 -0.9827
 6482SOL    HW230906   2.605   1.465  10.458 -0.2550  0.2839 -0.0532
 6483SOL     OW30907   1.772   4.325   4.962  0.2566 -0.1664  0.6700
 6483SOL    HW130908   1.711   4.397   4.949 -0.4169 -0.9769 -0.6525
 6483SOL    HW230909   1.756   4.292   5.050 -2.0168 -0.3421  0.1829
 6484SOL     OW30910   3.914   2.837  13.089  0.3294 -0.3877  0.1650
 6484SOL    HW130911   3.898   2.824  12.995  1.3945  2.1561 -0.3794
 6484SOL    HW230912   3.992   2.893  13.088  0.8839 -1.1509  1.1396
 6485SOL     OW30913   3.998   3.920   2.114  0.0130  0.3911 -0.2928
 6485SOL    HW130914   3.990   3.846   2.054  1.6751  2.2353 -2.8045
 6485SOL    HW230915   4.091   3.929   2.135 -0.1164 -1.7044  1.0694
 6486SOL     OW30916   2.602   0.640   0.807 -0.2768  0.4493 -0.0122
 6486SOL    HW130917   2.647   0.557   0.821 -0.2468  0.9550  2.8480
 6486SOL    HW230918   2.672   0.704   0.798 -1.5643  2.2161  2.4395
 6487SOL     OW30919   0.363   2.633   6.796 -0.6496 -0.3114  0.5862
 6487SOL    HW130920   0.378   2.633   6.701  0.5695  4.7079  0.7865
 6487SOL    HW230921   0.367   2.725   6.822 -0.7796 -0.0024 -0.4942
 6488SOL     OW30922   0.838   1.019  10.405  0.0671 -0.0912  0.2908
 6488SOL    HW130923   0.783   1.097  10.401 -0.6250 -0.6217 -0.5660
 6488SOL    HW230924   0.889   1.047  10.481  0.8592  0.6283 -0.4965
 6489SOL     OW30925   1.342   2.710   3.620  0.6710  0.5584  0.1162
 6489SOL    HW130926   1.293   2.780   3.663  4.5906  1.3484  3.2278
 6489SOL    HW230927   1.428   2.749   3.608  1.0702 -0.4067 -0.1336
 6490SOL     OW30928   3.420   3.981  16.575  0.9069 -0.1706 -0.4958
 6490SOL    HW130929   3.383   3.951  16.658 -0.7452  0.4068 -1.0149
 6490SOL    HW230930   3.341   3.975  16.521  1.4734 -2.6957 -1.0161
 6491SOL     OW30931   0.164   4.478   4.463  0.5313 -0.1445 -0.0258
 6491SOL    HW130932   0.228   4.546   4.441 -0.1996  1.4527  2.6414
 6491SOL    HW230933   0.196   4.438   4.544 -1.3240 -0.9595  0.2956
 6492SOL     OW30934   4.042   3.545   4.729  0.1084  0.2965 -0.1501
 6492SOL    HW130935   4.057   3.543   4.634  1.0171  0.3967 -0.0161
 6492SOL    HW230936   4.025   3.636   4.750  2.6849  0.5691  0.7842
 6493SOL     OW30937   4.399   0.217   8.210  0.2812 -0.5291 -0.1438
 6493SOL    HW130938   4.440   0.197   8.294 -0.8260  1.6195  0.8985
 6493SOL    HW230939   4.424   0.145   8.152  0.3418 -0.8794  0.3195
 6494SOL     OW30940   0.884   1.140   2.565 -0.2654 -0.1211  0.4096
 6494SOL    HW130941   0.956   1.164   2.507  0.4294 -2.0909  0.4724
 6494SOL    HW230942   0.929   1.126   2.648 -3.9696 -2.3266  2.0481
 6495SOL     OW30943   3.251   3.320   0.726 -0.1664  0.1122  0.2795
 6495SOL    HW130944   3.269   3.241   0.676 -0.0142 -0.4706  1.2663
 6495SOL    HW230945   3.333   3.326   0.775  0.8258 -0.6651 -1.2847
 6496SOL     OW30946   3.491   0.236   1.461 -0.0162 -0.5168  0.4245
 6496SOL    HW130947   3.557   0.211   1.396  1.7412  0.0072  2.0350
 6496SOL    HW230948   3.537   0.299   1.516 -4.1049  1.1708  1.8898
 6497SOL     OW30949   0.311   0.141   5.427 -0.2589 -0.0795  0.1255
 6497SOL    HW130950   0.254   0.156   5.502  1.4053  1.9339  0.9807
 6497SOL    HW230951   0.246   0.163   5.360  1.1029 -0.3484 -1.2862
 6498SOL     OW30952   3.278   3.919  16.789  0.3377  0.5742  0.1544
 6498SOL    HW130953   3.199   3.955  16.829  0.0740 -1.7022  1.7150
 6498SOL    HW230954   3.301   3.847  16.848 -1.9318 -1.2613 -1.2306
 6499SOL     OW30955   1.885   2.027  10.253 -0.2970  0.8751  0.7084
 6499SOL    HW130956   1.938   2.051  10.176  1.5124  2.0344  2.3090
 6499SOL    HW230957   1.847   2.112  10.276 -0.8508  0.6476  0.6181
 6500SOL     OW30958   3.503   2.543  11.285  1.0156  0.6869 -0.3213
 6500SOL    HW130959   3.538   2.482  11.220  1.5328  0.8598 -0.1997
 6500SOL    HW230960   3.578   2.596  11.308  0.5426  0.3465  1.9898
 6501SOL     OW30961   2.126   2.618   4.308 -0.0196  0.1331  0.2124
 6501SOL    HW130962   2.069   2.657   4.375  0.1330 -0.6755  0.8117
 6501SOL    HW230963   2.132   2.694   4.251  2.9486 -0.7156 -0.5545
 6502SOL     OW30964   2.726   3.754  16.966 -0.1492  0.0573 -0.1595
 6502SOL    HW130965   2.721   3.721  16.876  2.1721 -1.6452  0.3449
 6502SOL    HW230966   2.680   3.835  16.943 -0.9488  0.4245  2.7818
 6503SOL     OW30967   1.811   3.241   8.776  0.1902  0.3550 -0.0466
 6503SOL    HW130968   1.769   3.316   8.819 -1.5043  0.1839 -1.4464
 6503SOL    HW230969   1.805   3.178   8.848 -0.8773 -1.9942 -2.2146
 6504SOL     OW30970   2.924   3.382   9.547 -0.1868  0.2936  0.1184
 6504SOL    HW130971   3.015   3.412   9.547 -0.0703 -0.0487  0.6692
 6504SOL    HW230972   2.905   3.411   9.636  2.4720  0.4143  0.6498
 6505SOL     OW30973   2.636   0.023   4.820  0.5259 -0.2164 -0.0607
 6505SOL    HW130974   2.548   0.043   4.849  0.2457 -0.9526 -0.3967
 6505SOL    HW230975   2.624   4.698   4.739  1.5797  0.7376 -0.8265
 6506SOL     OW30976   3.408   3.135   5.685 -0.3771  0.0711  0.2214
 6506SOL    HW130977   3.411   3.056   5.739  2.4814 -0.7081 -1.0843
 6506SOL    HW230978   3.320   3.171   5.690 -0.3157  0.2063  0.3185
 6507SOL     OW30979   1.824   1.313   4.521 -0.0028  0.0463 -0.2685
 6507SOL    HW130980   1.861   1.375   4.458 -1.1350  1.0689  0.0671
 6507SOL    HW230981   1.872   1.232   4.506  0.9339  0.4730  0.3820
 6508SOL     OW30982   3.335   3.846   0.245 -0.2198  0.5931  0.3189
 6508SOL    HW130983   3.390   3.831   0.168 -0.9276 -2.4709  0.4299
 6508SOL    HW230984   3.339   3.758   0.282  0.1083  0.3953 -0.1782
 6509SOL     OW30985   1.132   4.667   2.484 -0.3807  0.0577  0.5105
 6509SOL    HW130986   1.064   4.667   2.416  1.4935  0.9042 -1.3557
 6509SOL    HW230987   1.193   4.607   2.442 -0.0212  1.8408 -1.5007
 6510SOL     OW30988   0.044   1.091   0.762 -0.2203 -0.0252 -0.1260
 6510SOL    HW130989   0.031   1.163   0.824 -1.7174  0.8481 -1.4458
 6510SOL    HW230990   0.039   1.135   0.677  0.7557  1.2200  0.4521
 6511SOL     OW30991   0.912   2.275   7.233 -0.0072  0.0725 -0.6820
 6511SOL    HW130992   0.831   2.326   7.239 -0.4982 -0.7250 -0.3639
 6511SOL    HW230993   0.957   2.337   7.177  2.9663 -1.7780 -0.3197
 6512SOL     OW30994   0.762   4.297   6.514  0.2301 -0.2397  0.4451
 6512SOL    HW130995   0.757   4.222   6.573  0.0625 -0.5224  0.0723
 6512SOL    HW230996   0.849   4.324   6.542  1.6409 -1.9510 -2.2694
 6513SOL     OW30997   0.550   1.879   6.934 -0.1819  0.4167 -0.1458
 6513SOL    HW130998   0.481   1.812   6.931  1.3373 -1.1816  0.6461
 6513SOL    HW230999   0.533   1.926   6.853 -1.5434 -0.1701 -0.2004
 6514SOL     OW31000   3.925   2.321   6.980 -0.0878  0.3018 -0.0588
 6514SOL    HW131001   3.866   2.291   6.910  2.5601  0.8726 -2.5698
 6514SOL    HW231002   4.007   2.281   6.949 -0.2647 -1.0745  1.2404
 6515SOL     OW31003   2.055   1.699   5.716  0.1338  0.1330 -0.9076
 6515SOL    HW131004   2.073   1.649   5.796 -2.1473  1.9050  0.7281
 6515SOL    HW231005   1.990   1.762   5.748 -2.7517 -2.4840 -1.6453
 6516SOL     OW31006   2.430   1.783  13.096  0.1811  0.4121 -0.4149
 6516SOL    HW131007   2.407   1.873  13.073  0.2102  0.0926 -1.7100
 6516SOL    HW231008   2.443   1.736  13.013 -0.5330  0.0481 -0.3188
 6517SOL     OW31009   4.200   4.541   2.388 -0.0263  0.2939  0.1949
 6517SOL    HW131010   4.199   4.634   2.367 -2.6265  0.4782  1.2045
 6517SOL    HW231011   4.193   4.503   2.301 -1.0806 -0.8362  0.7749
 6518SOL     OW31012   4.275   2.082   9.397 -0.3892 -0.1528 -0.1578
 6518SOL    HW131013   4.291   2.125   9.312 -1.9136  0.3029 -0.2087
 6518SOL    HW231014   4.308   2.147   9.459  1.4183  0.1794 -1.4490
 6519SOL     OW31015   1.057   2.744  14.513  0.7204  0.1438 -0.0014
 6519SOL    HW131016   0.980   2.801  14.511 -0.5531 -1.6572 -1.4205
 6519SOL    HW231017   1.102   2.773  14.434 -0.4919  0.5874 -0.5176
 6520SOL     OW31018   1.335   0.840   7.337  0.0129  0.0715  0.1939
 6520SOL    HW131019   1.320   0.777   7.266  1.7556 -1.5746  1.2828
 6520SOL    HW231020   1.430   0.839   7.347 -0.0891  0.7838  1.2575
 6521SOL     OW31021   4.400   1.232   6.354  0.1569  0.1865  0.4188
 6521SOL    HW131022   4.470   1.189   6.404 -0.3832 -0.4287  0.6487
 6521SOL    HW231023   4.328   1.198   6.407 -0.1813  0.5006  0.1578
 6522SOL     OW31024   0.318   1.338   4.070 -0.3368 -0.5594 -0.4438
 6522SOL    HW131025   0.413   1.340   4.059 -0.3867  0.7966 -0.6322
 6522SOL    HW231026   0.307   1.387   4.151 -2.8642  0.1795 -1.2261
 6523SOL     OW31027   3.756   1.566   7.369 -0.0562  0.7515 -0.2021
 6523SOL    HW131028   3.802   1.649   7.367  0.5692  0.3840 -1.0359
 6523SOL    HW231029   3.800   1.515   7.437 -0.2595  1.8570  0.7605
 6524SOL     OW31030   1.455   1.501   1.047 -0.0061  0.5484 -0.2494
 6524SOL    HW131031   1.477   1.475   0.958 -3.4629  0.8030 -1.2038
 6524SOL    HW231032   1.540   1.513   1.089 -0.3112  0.5545  0.3714
 6525SOL     OW31033   4.358   1.691   9.347  0.2326 -0.6776  0.7050
 6525SOL    HW131034   4.367   1.608   9.394 -0.8590 -1.4996 -0.5232
 6525SOL    HW231035   4.450   1.718   9.349  0.1565 -0.6280  2.7599
 6526SOL     OW31036   4.233   0.587   3.730  0.2986 -0.3416 -0.2863
 6526SOL    HW131037   4.319   0.585   3.772  0.4673 -0.3964 -0.6366
 6526SOL    HW231038   4.210   0.495   3.732 -2.6368  0.4454  2.0985
 6527SOL     OW31039   2.946   0.439   5.637  0.5836 -0.5794 -0.0601
 6527SOL    HW131040   2.860   0.399   5.649  0.3377 -0.5165 -1.6417
 6527SOL    HW231041   2.952   0.436   5.542  1.9260  2.3677 -0.0667
 6528SOL     OW31042   1.196   0.683   5.285  0.1061  0.5484  0.6167
 6528SOL    HW131043   1.117   0.632   5.302 -0.1747  0.6648 -0.3439
 6528SOL    HW231044   1.213   0.675   5.191  0.5154  0.0967  0.7277
 6529SOL     OW31045   1.117   4.102   1.757  0.0142 -0.3042  0.0338
 6529SOL    HW131046   1.116   4.139   1.668  0.0034 -0.0590  0.1347
 6529SOL    HW231047   1.210   4.080   1.762 -0.1289 -1.0600 -0.7572
 6530SOL     OW31048   4.432   4.037   4.491 -0.2752 -0.1903 -0.0492
 6530SOL    HW131049   4.448   4.065   4.401  1.3344 -0.5178  0.1353
 6530SOL    HW231050   4.413   4.119   4.535  1.9727  0.9305 -1.1952
 6531SOL     OW31051   1.854   3.530   3.686  0.0417 -0.7025  0.6602
 6531SOL    HW131052   1.888   3.476   3.614  1.9400  4.9706 -2.6980
 6531SOL    HW231053   1.841   3.615   3.643 -0.3835 -0.1760  1.8342
 6532SOL     OW31054   1.826   2.282   0.317  0.6043 -0.3729 -0.4731
 6532SOL    HW131055   1.751   2.279   0.376  0.2448 -1.4443 -0.9786
 6532SOL    HW231056   1.833   2.377   0.313 -0.3296 -0.2883  0.0390
 6533SOL     OW31057   3.624   3.700   9.712 -0.4255  0.4344 -0.0946
 6533SOL    HW131058   3.699   3.666   9.759 -1.0178 -1.0239 -0.2158
 6533SOL    HW231059   3.580   3.622   9.678 -0.8394  0.4683  0.3613
 6534SOL     OW31060   3.417   1.855   0.031  0.0582  0.0852  0.2491
 6534SOL    HW131061   3.400   1.858   0.125 -2.4821  1.4404 -0.2561
 6534SOL    HW231062   3.454   1.768   0.015 -0.5992  0.2132 -2.0645
 6535SOL     OW31063   2.366   2.913   1.756 -0.2039  0.0016  0.2303
 6535SOL    HW131064   2.278   2.876   1.748  0.2655 -1.4892  1.9289
 6535SOL    HW231065   2.364   3.000   1.716 -2.8066 -0.4883 -0.7647
 6536SOL     OW31066   3.540   4.026   8.318 -0.8268 -0.3594  0.1475
 6536SOL    HW131067   3.464   4.011   8.263 -0.1481 -0.2531 -0.8262
 6536SOL    HW231068   3.504   4.032   8.407  0.7031 -1.1885  0.8189
 6537SOL     OW31069   3.436   4.696   8.616 -0.2824  0.4429  0.0254
 6537SOL    HW131070   3.472   0.022   8.688  0.3896  0.0818 -0.0479
 6537SOL    HW231071   3.422   4.617   8.669 -0.3530  1.0035  0.8405
 6538SOL     OW31072   4.422   2.619   8.592 -0.3483 -0.2794 -0.3213
 6538SOL    HW131073   4.373   2.603   8.511  1.6547 -0.5131 -1.4736
 6538SOL    HW231074   4.370   2.673   8.652 -0.2735 -0.1652 -0.3592
 6539SOL     OW31075   0.620   3.851  17.072 -0.0092  0.0461  0.2218
 6539SOL    HW131076   0.634   3.791  16.998 -0.7321 -1.1337  1.0345
 6539SOL    HW231077   0.671   3.802  17.137  0.5458 -0.1126 -0.3306
 6540SOL     OW31078   3.167   1.882   6.135  0.0678  0.2969  0.0415
 6540SOL    HW131079   3.093   1.848   6.085 -0.4123  1.5121 -0.0858
 6540SOL    HW231080   3.165   1.836   6.219  0.6078  2.1392  1.0686
 6541SOL     OW31081   4.264   1.381   3.112 -0.3182 -0.1587  0.1894
 6541SOL    HW131082   4.333   1.324   3.078  0.1402  1.6681 -1.9262
 6541SOL    HW231083   4.307   1.464   3.093  2.7522 -1.8783 -0.4022
 6542SOL     OW31084   2.844   2.057  15.080 -0.3479 -0.5665 -0.5153
 6542SOL    HW131085   2.887   1.988  15.029 -2.3615 -0.4721 -2.2864
 6542SOL    HW231086   2.866   2.026  15.168 -1.6982  0.4821  0.1921
 6543SOL     OW31087   4.291   3.202   3.653 -0.2064  0.3121  0.5071
 6543SOL    HW131088   4.373   3.162   3.625 -1.2955 -0.3377 -1.8193
 6543SOL    HW231089   4.235   3.142   3.604  1.0747 -0.4759  0.0208
 6544SOL     OW31090   4.637   0.743   3.041  0.1876  0.5742  0.4101
 6544SOL    HW131091   4.571   0.719   2.976  0.9315 -2.0706  0.6366
 6544SOL    HW231092   4.630   0.673   3.105  1.6831 -1.7489 -1.9938
 6545SOL     OW31093   0.141   4.294  14.383  0.3401  0.0137  0.4177
 6545SOL    HW131094   0.218   4.237  14.375 -1.3859 -2.4480  1.6161
 6545SOL    HW231095   0.102   4.276  14.298 -0.1016  3.2128 -0.0908
 6546SOL     OW31096   2.429   1.143  13.262 -0.0144 -0.0211  0.2467
 6546SOL    HW131097   2.370   1.088  13.210 -1.6975  1.7282  0.2911
 6546SOL    HW231098   2.368   1.213  13.288 -0.5346 -0.9961  1.6236
 6547SOL     OW31099   0.567   1.067  14.137 -0.3615 -0.5309  0.1329
 6547SOL    HW131100   0.480   1.107  14.146  1.2586  2.3290  3.2653
 6547SOL    HW231101   0.543   0.975  14.135 -0.1722 -0.4741 -3.5466
 6548SOL     OW31102   1.774   0.560   6.037 -0.0941  0.0339  0.4890
 6548SOL    HW131103   1.748   0.512   5.958  1.2921  1.4072 -0.8006
 6548SOL    HW231104   1.855   0.602   6.010  0.6860 -0.8692  1.3927
 6549SOL     OW31105   0.104   3.475   4.600 -0.0740  0.3392  0.0971
 6549SOL    HW131106   0.145   3.540   4.543  1.7948  1.0176  2.1941
 6549SOL    HW231107   0.018   3.515   4.615 -0.0959 -0.2197  1.4164
 6550SOL     OW31108   1.525   4.377   7.033 -0.0745 -0.1025 -0.5001
 6550SOL    HW131109   1.489   4.466   7.034 -1.9443 -0.8665 -0.8226
 6550SOL    HW231110   1.477   4.345   6.957  1.0751 -0.9329 -0.8860
 6551SOL     OW31111   3.263   2.711   5.055  0.7241  0.1928 -1.0415
 6551SOL    HW131112   3.332   2.771   5.028  1.8666 -0.7188 -0.1748
 6551SOL    HW231113   3.323   2.659   5.109  0.4340  0.4858 -0.4460
 6552SOL     OW31114   1.386   2.255   3.139  0.4152 -0.5938 -0.3097
 6552SOL    HW131115   1.442   2.312   3.192 -0.4222  0.3983 -0.5063
 6552SOL    HW231116   1.298   2.293   3.134  0.8046 -0.0245 -2.5891
 6553SOL     OW31117   0.096   2.799   9.603  0.5678  0.1447  0.4241
 6553SOL    HW131118   0.015   2.780   9.651  1.1626 -0.3321  1.2363
 6553SOL    HW231119   0.148   2.738   9.655 -0.3647 -0.9065  0.1172
 6554SOL     OW31120   3.944   1.779  10.080  0.6177 -0.3762 -0.0946
 6554SOL    HW131121   3.899   1.823  10.153  0.9094  0.7049 -0.5739
 6554SOL    HW231122   3.874   1.749  10.022 -0.7358 -0.5705  1.6087
 6555SOL     OW31123   2.298   0.489   4.742 -0.0077 -0.0336 -0.6504
 6555SOL    HW131124   2.326   0.581   4.749  0.0570 -0.0657 -0.4807
 6555SOL    HW231125   2.203   0.497   4.742 -0.0565 -0.6766 -0.7415
 6556SOL     OW31126   2.541   1.917  16.394 -0.2998  0.0141  0.1698
 6556SOL    HW131127   2.586   1.838  16.364  0.0113  0.2598 -0.0010
 6556SOL    HW231128   2.484   1.941  16.321  1.1511  0.9255 -0.6659
 6557SOL     OW31129   1.754   4.374   9.473  0.3283 -0.1778  0.2853
 6557SOL    HW131130   1.840   4.378   9.433  1.1896 -2.0326  1.9580
 6557SOL    HW231131   1.724   4.291   9.436  2.2109 -0.6922 -0.0742
 6558SOL     OW31132   4.180   4.551   4.948  0.0778 -0.2081 -0.0696
 6558SOL    HW131133   4.258   4.603   4.929 -0.0946  0.5714  1.3557
 6558SOL    HW231134   4.123   4.560   4.871  0.4502 -1.5526 -0.5073
 6559SOL     OW31135   4.546   4.269  10.958  0.1220  0.0483  0.2873
 6559SOL    HW131136   4.469   4.214  10.944 -0.4123  1.3566 -1.9554
 6559SOL    HW231137   4.587   4.227  11.034  2.4925  0.3935 -0.8172
 6560SOL     OW31138   2.987   3.332  10.148  0.2420 -0.3980 -0.0899
 6560SOL    HW131139   2.904   3.316  10.193  0.2992 -0.0058  0.1504
 6560SOL    HW231140   3.001   3.424  10.170  0.9843 -0.5623  0.1038
 6561SOL     OW31141   3.986   0.010  12.485  0.7187 -0.0013 -0.2416
 6561SOL    HW131142   4.065   0.019  12.432  2.3126  0.1676  2.1561
 6561SOL    HW231143   3.989   0.086  12.542 -1.1423 -0.9480  1.1229
 6562SOL     OW31144   3.201   0.437   8.791  0.2317 -0.3882 -0.1108
 6562SOL    HW131145   3.161   0.477   8.868 -4.9042 -0.4308 -2.7124
 6562SOL    HW231146   3.158   0.352   8.785  1.2887 -0.8601 -1.0932
 6563SOL     OW31147   3.929   1.291   2.603  0.0511  0.2819  0.2153
 6563SOL    HW131148   3.982   1.337   2.668 -1.9396  1.6352  0.8445
 6563SOL    HW231149   3.978   1.299   2.521  1.7699  1.3314  1.3469
 6564SOL     OW31150   3.215   0.735   5.482  0.0382  1.1317 -0.5814
 6564SOL    HW131151   3.232   0.649   5.443 -0.1653  0.2718  1.2245
 6564SOL    HW231152   3.277   0.750   5.553  0.5945 -1.9241 -0.4137
 6565SOL     OW31153   4.418   4.426   5.750 -0.1837  0.4415  0.5001
 6565SOL    HW131154   4.499   4.477   5.752  1.0926 -1.6029  1.4658
 6565SOL    HW231155   4.412   4.411   5.845  2.5374  0.9163  0.7625
 6566SOL     OW31156   2.885   4.513  15.926 -0.3048 -0.0749  0.8041
 6566SOL    HW131157   2.886   4.535  16.019  1.0884 -0.3995  0.8594
 6566SOL    HW231158   2.840   4.428  15.932 -1.2022  0.2875 -0.8051
 6567SOL     OW31159   3.352   1.728  10.852 -0.5920  0.3957 -0.1719
 6567SOL    HW131160   3.420   1.741  10.786  1.0162 -1.9804  1.0049
 6567SOL    HW231161   3.365   1.636  10.874 -1.5883  0.0247 -1.1090
 6568SOL     OW31162   2.246   3.684   5.762 -0.5953  0.4331  0.1248
 6568SOL    HW131163   2.299   3.619   5.808 -0.2662  1.7749  1.6558
 6568SOL    HW231164   2.313   3.739   5.722  0.5111  0.2327  1.7028
 6569SOL     OW31165   0.635   3.830   4.342 -0.3261  0.0383  0.0200
 6569SOL    HW131166   0.672   3.875   4.418 -0.6649  1.8069 -0.8702
 6569SOL    HW231167   0.625   3.740   4.374  1.8083 -0.0722  0.3868
 6570SOL     OW31168   0.672   3.341   2.593  0.1164 -0.2773 -0.2776
 6570SOL    HW131169   0.635   3.427   2.571 -0.6654 -0.4132  0.5050
 6570SOL    HW231170   0.756   3.371   2.629 -0.2865  0.6648 -0.1158
 6571SOL     OW31171   2.969   1.317  11.604  0.1385 -0.0655 -0.0891
 6571SOL    HW131172   2.907   1.338  11.674 -0.3968 -0.8372 -0.3283
 6571SOL    HW231173   3.030   1.390  11.612  0.0580  0.0999 -0.9062
 6572SOL     OW31174   3.789   2.875   7.509  0.7026  0.3847 -0.2713
 6572SOL    HW131175   3.883   2.860   7.517  0.8700  0.1338 -2.6132
 6572SOL    HW231176   3.767   2.813   7.439 -2.6774 -1.3283  2.2925
 6573SOL     OW31177   3.930   4.022   8.799  0.5641 -0.2257 -0.0807
 6573SOL    HW131178   3.961   3.933   8.814  1.2154  0.0851  0.3861
 6573SOL    HW231179   3.927   4.051   8.890 -1.0953 -0.8088  0.0646
 6574SOL     OW31180   0.193   2.274   1.260  0.3916 -0.0646 -0.3767
 6574SOL    HW131181   0.172   2.338   1.192 -0.0115 -0.1260 -0.3106
 6574SOL    HW231182   0.136   2.306   1.330  0.2365 -0.8504 -0.1455
 6575SOL     OW31183   1.388   1.124   1.666 -0.3028  0.2229 -0.2389
 6575SOL    HW131184   1.352   1.211   1.650  3.2054  1.7665  0.3572
 6575SOL    HW231185   1.368   1.083   1.581 -0.2734 -0.0767 -0.1022
 6576SOL     OW31186   0.291   3.728   0.606 -0.3216  0.1215  1.0135
 6576SOL    HW131187   0.352   3.706   0.678 -0.4063  0.6340  1.2412
 6576SOL    HW231188   0.209   3.756   0.646 -1.9366 -0.5425 -1.9227
 6577SOL     OW31189   0.471   1.269   3.313  0.4022  0.1916 -0.0525
 6577SOL    HW131190   0.431   1.335   3.257  1.8158  1.3444  0.2871
 6577SOL    HW231191   0.551   1.249   3.266  1.4721  0.2462  1.7243
 6578SOL     OW31192   0.961   4.052   4.312 -0.9946 -0.6310  0.2304
 6578SOL    HW131193   0.903   4.123   4.338 -0.5276  0.1223 -0.7798
 6578SOL    HW231194   0.911   4.031   4.233 -1.7810 -0.6339  0.7341
 6579SOL     OW31195   3.250   0.428  10.178 -0.0793 -0.1939  0.3873
 6579SOL    HW131196   3.174   0.416  10.233 -0.7953  0.0483 -0.5468
 6579SOL    HW231197   3.205   0.388  10.103  0.4944 -1.2957  0.6264
 6580SOL     OW31198   0.682   3.519   3.640  0.1323  0.1832 -0.0297
 6580SOL    HW131199   0.715   3.518   3.730 -1.9878 -1.1992  0.7276
 6580SOL    HW231200   0.594   3.553   3.653  0.1923  0.8938 -1.5258
 6581SOL     OW31201   3.540   1.298   2.714  0.9889  0.0108 -0.0951
 6581SOL    HW131202   3.526   1.278   2.622  0.1802 -0.2666  0.0856
 6581SOL    HW231203   3.499   1.385   2.713  0.7226 -0.0906  1.6699
 6582SOL     OW31204   1.164   3.854   4.368 -0.5026  0.0430  0.1586
 6582SOL    HW131205   1.107   3.930   4.356  0.6751  1.0999  1.2665
 6582SOL    HW231206   1.113   3.824   4.443 -2.5327  0.4182 -1.0571
 6583SOL     OW31207   2.948   2.090   1.613  0.1551  0.2170 -0.5717
 6583SOL    HW131208   3.009   2.082   1.687 -1.6421  2.7112  1.1746
 6583SOL    HW231209   3.006   2.120   1.543  1.5120 -1.8553 -0.3506
 6584SOL     OW31210   2.609   0.174  13.033  0.3794  0.0443 -0.2873
 6584SOL    HW131211   2.527   0.128  13.016 -0.0483  1.2353 -1.4447
 6584SOL    HW231212   2.669   0.127  12.974  0.4901  1.1793 -1.0789
 6585SOL     OW31213   0.395   4.360   2.959 -0.3966  0.4145  0.4773
 6585SOL    HW131214   0.462   4.322   2.902  0.0548  1.0056  0.6251
 6585SOL    HW231215   0.448   4.387   3.034  1.9018  1.2894 -1.4715
 6586SOL     OW31216   3.828   2.192  17.140  0.0237 -0.1412  0.1603
 6586SOL    HW131217   3.788   2.272  17.173 -0.5906  0.4755 -2.1012
 6586SOL    HW231218   3.886   2.177  17.215  1.3951  0.5919 -0.7585
 6587SOL     OW31219   0.816   0.683  15.631  0.0082 -0.1536  0.0943
 6587SOL    HW131220   0.740   0.731  15.600 -0.4795 -0.3185  1.0221
 6587SOL    HW231221   0.813   0.709  15.724  1.4935  1.9654 -0.4326
 6588SOL     OW31222   3.610   2.231   5.281  0.0455 -0.6712  0.5361
 6588SOL    HW131223   3.631   2.142   5.310 -0.7556 -0.8710  0.5144
 6588SOL    HW231224   3.532   2.227   5.225  0.3449 -0.2944  0.0895
 6589SOL     OW31225   0.013   4.338  17.579 -0.5802  0.3815  0.0294
 6589SOL    HW131226   0.088   4.373  17.531  1.2195 -0.5127  2.1780
 6589SOL    HW231227   0.068   4.307  17.652 -2.9394 -0.6051  1.3844
 6590SOL     OW31228   3.697   0.382   3.771  0.4217 -0.0746 -0.0340
 6590SOL    HW131229   3.698   0.291   3.742  1.0171  0.6247 -2.2066
 6590SOL    HW231230   3.698   0.429   3.688  2.0620 -2.4855 -1.3858
 6591SOL     OW31231   1.653   4.231   8.567  0.2473  0.1814  0.5943
 6591SOL    HW131232   1.657   4.138   8.587  0.7712 -0.4972 -2.6987
 6591SOL    HW231233   1.654   4.272   8.654 -1.1814  0.9433  0.2595
 6592SOL     OW31234   1.395   2.311   3.495  0.0018 -0.1267 -0.1168
 6592SOL    HW131235   1.342   2.316   3.575 -0.5951 -0.7224 -0.4784
 6592SOL    HW231236   1.355   2.234   3.455 -0.3013 -0.2289  0.3831
 6593SOL     OW31237   4.722   4.642   3.255  0.4652  0.0080 -0.3487
 6593SOL    HW131238   0.008   4.569   3.195 -0.1368  0.6910 -1.3154
 6593SOL    HW231239   0.024   4.598   3.335  0.2177 -1.5561 -1.1176
 6594SOL     OW31240   3.637   2.132   3.643  0.4911 -0.0701  0.5303
 6594SOL    HW131241   3.641   2.227   3.654 -0.5829  0.1980 -1.3458
 6594SOL    HW231242   3.724   2.105   3.612 -0.3158 -0.9786 -0.9671
 6595SOL     OW31243   4.440   4.317   4.611 -0.0910  0.0882 -0.1980
 6595SOL    HW131244   4.492   4.392   4.582 -0.5153  0.6248  0.4435
 6595SOL    HW231245   4.364   4.369   4.636  0.2302  0.0829  0.8118
 6596SOL     OW31246   2.470   2.516   5.520  0.2065 -0.0171 -0.3506
 6596SOL    HW131247   2.466   2.420   5.519 -1.6695  0.0607 -0.1016
 6596SOL    HW231248   2.475   2.541   5.428 -2.2726 -0.1010 -0.5087
 6597SOL     OW31249   0.248   2.199   3.057  0.1753  0.3069  0.4001
 6597SOL    HW131250   0.196   2.143   3.114  0.1399 -1.9613 -1.8507
 6597SOL    HW231251   0.183   2.268   3.044  1.5125  1.6411  0.8725
 6598SOL     OW31252   2.028   4.057   8.952 -0.8920 -0.3799  0.2635
 6598SOL    HW131253   2.057   3.976   8.995 -0.5347 -0.1833  0.3946
 6598SOL    HW231254   1.964   4.019   8.891 -1.7622  0.0605  0.9063
 6599SOL     OW31255   1.696   1.828   5.065  0.0245  1.0747 -0.4896
 6599SOL    HW131256   1.713   1.922   5.066 -0.4976  1.1837 -1.5589
 6599SOL    HW231257   1.782   1.788   5.079 -0.4994  0.1053 -0.0750
 6600SOL     OW31258   3.695   1.201  13.039 -0.2816 -0.1211  0.7901
 6600SOL    HW131259   3.653   1.249  13.110 -0.5009 -0.4855  0.9026
 6600SOL    HW231260   3.765   1.266  13.029 -0.9400  0.6219  1.0445
 6601SOL     OW31261   4.279   0.984   8.115 -0.0319 -0.0047 -0.5156
 6601SOL    HW131262   4.350   1.027   8.163  0.6628 -0.4332 -1.1641
 6601SOL    HW231263   4.270   0.912   8.178 -0.7967  0.8125  0.3156
 6602SOL     OW31264   3.390   0.294   8.110 -0.3755 -0.1290  0.1128
 6602SOL    HW131265   3.407   0.221   8.051  1.3850  0.0475  0.4010
 6602SOL    HW231266   3.306   0.264   8.145 -0.9897  1.4878  0.0463
 6603SOL     OW31267   3.833   2.268   6.382  0.3565  0.3905 -0.1549
 6603SOL    HW131268   3.816   2.361   6.372  0.4717  0.7220  2.5663
 6603SOL    HW231269   3.801   2.228   6.301 -1.2758 -1.8797  1.5903
 6604SOL     OW31270   3.710   4.281  13.464 -0.3438  0.2468 -0.4836
 6604SOL    HW131271   3.805   4.273  13.454 -0.2927 -0.4688  0.5645
 6604SOL    HW231272   3.694   4.366  13.423 -1.6590 -0.2048 -0.9013
 6605SOL     OW31273   3.964   4.346  15.836 -0.1292  0.0846  0.1376
 6605SOL    HW131274   3.912   4.417  15.800 -1.5633 -1.0057  0.0674
 6605SOL    HW231275   3.922   4.331  15.921 -2.9466  0.0921 -1.2486
 6606SOL     OW31276   2.396   1.654  12.830  0.0837 -0.2220 -0.4577
 6606SOL    HW131277   2.360   1.699  12.754 -0.1374 -0.1127 -0.2882
 6606SOL    HW231278   2.479   1.625  12.793 -0.7090 -3.0186 -0.0694
 6607SOL     OW31279   1.606   0.539   1.964  0.1620 -0.2094 -0.1567
 6607SOL    HW131280   1.656   0.457   1.957 -2.3548 -1.7311 -0.0595
 6607SOL    HW231281   1.519   0.513   1.992 -0.3098  2.4378  0.7591
 6608SOL     OW31282   1.404   3.171  16.404  0.0460 -0.1117  0.4294
 6608SOL    HW131283   1.416   3.214  16.489 -3.5238  0.5284  0.5915
 6608SOL    HW231284   1.330   3.216  16.364  0.2382  1.2571  1.6297
 6609SOL     OW31285   3.937   3.573   2.229  0.3540 -0.7667 -0.2886
 6609SOL    HW131286   3.871   3.567   2.160 -1.6110 -0.0685  1.5189
 6609SOL    HW231287   3.960   3.482   2.248 -0.0353 -0.7967  0.0354
 6610SOL     OW31288   3.243   3.755   3.496  0.1185  0.1609 -0.4871
 6610SOL    HW131289   3.288   3.797   3.570 -1.4859 -0.4355  0.8272
 6610SOL    HW231290   3.231   3.664   3.522 -0.0613  0.0827 -0.8467
 6611SOL     OW31291   0.475   2.275   6.772  0.5598  0.7669 -0.2184
 6611SOL    HW131292   0.432   2.190   6.785 -0.3840  1.0806 -1.3214
 6611SOL    HW231293   0.408   2.332   6.736 -0.4146 -0.3718 -0.2145
 6612SOL     OW31294   3.607   1.526   5.440  0.6752 -0.1299  0.2903
 6612SOL    HW131295   3.519   1.563   5.450  0.2522 -1.1747  0.3554
 6612SOL    HW231296   3.612   1.469   5.516  3.5294 -0.1980  0.0315
 6613SOL     OW31297   1.366   2.245   1.847 -0.3684 -0.2258  0.0032
 6613SOL    HW131298   1.425   2.314   1.814  0.0476 -0.9357 -0.7513
 6613SOL    HW231299   1.284   2.264   1.801  0.4499  0.1899 -1.2961
 6614SOL     OW31300   3.698   2.114  10.457 -0.1438 -0.2359 -0.5070
 6614SOL    HW131301   3.672   2.030  10.495 -3.7932  0.1016 -2.1800
 6614SOL    HW231302   3.783   2.134  10.495 -0.2990 -0.7045  0.0895
 6615SOL     OW31303   2.536   4.624   1.025 -0.3141 -0.2008 -0.0707
 6615SOL    HW131304   2.559   4.543   0.978  2.4427  0.0725  0.8013
 6615SOL    HW231305   2.495   4.680   0.959  0.5306 -0.2339 -0.6334
 6616SOL     OW31306   1.223   2.114   7.162  0.1197  0.0833 -0.0625
 6616SOL    HW131307   1.190   2.034   7.202  0.4146  0.9784  1.9441
 6616SOL    HW231308   1.204   2.082   7.073  0.2314  1.0757 -0.4419
 6617SOL     OW31309   2.587   0.645  13.005 -0.5557  0.0800 -0.1492
 6617SOL    HW131310   2.585   0.666  12.912  1.8485 -0.1129 -0.2492
 6617SOL    HW231311   2.680   0.663  13.019 -0.0579 -1.7556 -1.0711
 6618SOL     OW31312   1.804   3.214   2.528 -0.5421 -0.2832 -0.2211
 6618SOL    HW131313   1.892   3.201   2.495  0.0064 -0.7396  1.4194
 6618SOL    HW231314   1.763   3.128   2.531 -0.3705 -0.4807 -3.2719
 6619SOL     OW31315   0.959   4.336  12.987  0.4745 -0.4437  0.2151
 6619SOL    HW131316   0.987   4.421  13.022 -1.7045  0.4489 -0.2583
 6619SOL    HW231317   0.944   4.366  12.898  1.1036  2.2042  1.0125
 6620SOL     OW31318   3.499   3.131   1.900  0.0097 -0.5266 -0.4054
 6620SOL    HW131319   3.490   3.037   1.884 -0.2814 -0.4716 -0.5779
 6620SOL    HW231320   3.406   3.151   1.888  0.3608  1.7410  0.6472
 6621SOL     OW31321   2.866   2.547   9.758  0.4089 -0.2057 -0.0768
 6621SOL    HW131322   2.919   2.625   9.746 -0.6685  0.7267  1.3873
 6621SOL    HW231323   2.917   2.485   9.810  1.2025 -0.6466 -1.3647
 6622SOL     OW31324   4.701   1.757   5.286  0.1740 -0.1639 -0.1372
 6622SOL    HW131325   0.019   1.829   5.241 -1.0082 -0.3110 -1.5129
 6622SOL    HW231326   0.050   1.722   5.335  0.6180  1.4628  0.3273
 6623SOL     OW31327   4.572   0.798   1.468  0.2963  0.5199 -0.1724
 6623SOL    HW131328   4.484   0.766   1.445 -0.1076  0.0847  2.0510
 6623SOL    HW231329   4.550   0.850   1.545 -0.5070  1.0054 -0.7204
 6624SOL     OW31330   4.556   2.962  13.601  0.3498 -0.1498 -0.0142
 6624SOL    HW131331   4.477   3.000  13.563  1.1711 -0.2580 -1.7854
 6624SOL    HW231332   4.552   3.020  13.678  1.0887  0.5702 -0.5195
 6625SOL     OW31333   4.494   4.288   9.249  0.0734 -0.0662  0.1488
 6625SOL    HW131334   4.517   4.341   9.325 -2.5582  0.4458  0.6112
 6625SOL    HW231335   4.548   4.327   9.181  0.5009 -0.4991  0.2436
 6626SOL     OW31336   2.260   4.186   8.058  0.2914  0.2512 -0.4274
 6626SOL    HW131337   2.230   4.276   8.061 -1.2387 -0.2778 -0.0476
 6626SOL    HW231338   2.221   4.147   8.136  0.7131  1.6747  0.4867
 6627SOL     OW31339   1.555   1.884   2.941  0.6320  0.5470 -0.0210
 6627SOL    HW131340   1.506   1.828   2.881  0.6380  1.0268 -0.4681
 6627SOL    HW231341   1.529   1.974   2.924 -1.7419 -0.0847  0.2612
 6628SOL     OW31342   3.542   1.302  12.024 -0.7362 -0.3724 -0.0728
 6628SOL    HW131343   3.631   1.294  12.059 -0.7798  0.3134  0.2021
 6628SOL    HW231344   3.484   1.326  12.097 -1.6045 -0.6857 -0.6735
 6629SOL     OW31345   3.381   1.235   2.956  0.0210  0.6571  0.0975
 6629SOL    HW131346   3.447   1.262   2.892  0.3901  0.2409  0.2998
 6629SOL    HW231347   3.419   1.233   3.043 -0.7833  1.1884  0.4556
 6630SOL     OW31348   3.914   0.488   3.134 -0.4343 -0.0902  0.2611
 6630SOL    HW131349   3.848   0.431   3.094 -0.4070  0.5986 -0.7611
 6630SOL    HW231350   3.941   0.535   3.056 -1.3305 -0.8413 -0.4999
 6631SOL     OW31351   2.591   0.583  10.519 -0.1049 -0.1159 -0.4463
 6631SOL    HW131352   2.518   0.643  10.532 -0.1563 -0.4588  0.8805
 6631SOL    HW231353   2.663   0.646  10.509 -2.2586  2.1111 -1.8787
 6632SOL     OW31354   3.394   2.853   3.651 -0.2310 -0.2006 -0.1107
 6632SOL    HW131355   3.366   2.769   3.613 -1.4985  1.1569 -2.1863
 6632SOL    HW231356   3.322   2.909   3.624  0.3561  1.4348  1.7809
 6633SOL     OW31357   3.863   2.305   9.644 -0.0098 -0.8077  0.3714
 6633SOL    HW131358   3.831   2.217   9.666 -0.6660 -0.5195  0.5709
 6633SOL    HW231359   3.916   2.290   9.566 -0.8628 -1.4810 -0.0854
 6634SOL     OW31360   0.714   3.540   4.758 -0.3204 -0.5885  0.0612
 6634SOL    HW131361   0.638   3.539   4.817  0.0978 -0.4807  0.6078
 6634SOL    HW231362   0.774   3.593   4.811 -1.0509  0.3734 -0.0773
 6635SOL     OW31363   2.147   2.314   6.000  0.5338 -0.0068 -0.1654
 6635SOL    HW131364   2.112   2.393   6.042 -0.4004 -0.1722 -0.6486
 6635SOL    HW231365   2.078   2.299   5.936  0.4329 -2.5182  0.5390
 6636SOL     OW31366   3.639   3.672   4.534  0.8216 -0.4722 -0.2577
 6636SOL    HW131367   3.731   3.689   4.515  1.0414 -0.5251  0.7376
 6636SOL    HW231368   3.625   3.602   4.470 -0.9826  0.1033 -0.4937
 6637SOL     OW31369   3.101   3.077  10.581 -0.0592 -0.0972 -0.5001
 6637SOL    HW131370   3.101   3.112  10.492  0.2887 -2.3992 -1.3879
 6637SOL    HW231371   3.040   3.004  10.580  0.3185 -0.3932 -1.4381
 6638SOL     OW31372   3.943   3.314  15.381  0.1684  0.0273 -0.8911
 6638SOL    HW131373   3.991   3.300  15.463  0.0254  0.5147 -0.7199
 6638SOL    HW231374   3.992   3.391  15.353  1.2318 -0.8800 -1.5258
 6639SOL     OW31375   0.858   0.766   7.055 -0.0754 -0.0792  0.0599
 6639SOL    HW131376   0.875   0.810   7.138 -2.1595  0.7816  0.0249
 6639SOL    HW231377   0.767   0.784   7.031 -0.6564 -1.1326  1.4685
 6640SOL     OW31378   3.037   1.350   4.619  0.1558 -0.0937 -0.1543
 6640SOL    HW131379   2.992   1.266   4.608 -0.4079  0.1024  0.6684
 6640SOL    HW231380   3.045   1.378   4.528  0.5932  0.0931 -0.0593
 6641SOL     OW31381   4.550   3.706   9.336  0.1405  0.0198  0.0665
 6641SOL    HW131382   4.600   3.642   9.386  0.2434 -1.3068 -1.7261
 6641SOL    HW231383   4.467   3.658   9.335  0.1120  0.0705 -0.7943
 6642SOL     OW31384   2.654   2.663   6.516 -1.2144  0.5686 -0.1619
 6642SOL    HW131385   2.645   2.569   6.502  1.7543  0.2916 -0.1436
 6642SOL    HW231386   2.716   2.687   6.447 -1.7933 -0.1746 -0.9371
 6643SOL     OW31387   1.739   4.092   9.031 -0.0977 -0.0667  1.1682
 6643SOL    HW131388   1.770   4.182   9.029  0.2633 -0.2660 -1.8442
 6643SOL    HW231389   1.741   4.061   8.941  1.9418 -2.2873  1.9683
 6644SOL     OW31390   3.537   4.690   4.136 -0.7526 -0.0073 -0.2969
 6644SOL    HW131391   3.592   0.039   4.113  0.4666 -0.1066  2.2887
 6644SOL    HW231392   3.455   0.005   4.107 -0.5519  0.1874 -0.5985
 6645SOL     OW31393   3.099   3.082   2.226 -0.0619 -0.7683 -0.0862
 6645SOL    HW131394   3.108   3.174   2.200 -1.6153 -0.3942  0.6925
 6645SOL    HW231395   3.144   3.031   2.159  0.6528 -1.2289  0.7536
 6646SOL     OW31396   0.594   3.636   6.557 -0.3339  0.0032 -0.1639
 6646SOL    HW131397   0.609   3.662   6.466 -0.7588 -0.8524 -0.4790
 6646SOL    HW231398   0.683   3.656   6.588 -0.7278  0.3616  0.7346
 6647SOL     OW31399   4.075   2.394   2.794  0.2403  0.3273  0.4323
 6647SOL    HW131400   4.019   2.408   2.718  1.1467 -3.1461 -0.9088
 6647SOL    HW231401   4.092   2.301   2.778 -1.1760  0.1777 -0.2313
 6648SOL     OW31402   4.242   4.048   6.317 -0.1974  0.5438 -0.4757
 6648SOL    HW131403   4.188   4.014   6.245 -2.1890  0.3717  1.1055
 6648SOL    HW231404   4.288   4.117   6.271  1.3316  0.2108  0.5758
 6649SOL     OW31405   2.530   2.914  17.392 -0.1276 -0.0472  0.1124
 6649SOL    HW131406   2.463   2.915  17.460 -0.4802  0.4304 -0.2461
 6649SOL    HW231407   2.587   2.979  17.432  0.8703  0.4179 -2.0409
 6650SOL     OW31408   3.874   0.149   8.705  0.4483  0.1021  0.3785
 6650SOL    HW131409   3.960   0.106   8.708  0.4698  0.0621 -0.7610
 6650SOL    HW231410   3.857   0.131   8.798  0.2207  0.4636  0.4059
 6651SOL     OW31411   2.522   2.771  10.404 -0.0577  0.2788 -0.5592
 6651SOL    HW131412   2.435   2.803  10.425 -0.4631 -0.5747 -0.9700
 6651SOL    HW231413   2.573   2.840  10.448  1.6157 -0.3235 -1.5589
 6652SOL     OW31414   0.205   3.070  14.993 -0.0503 -0.3078  0.1411
 6652SOL    HW131415   0.161   3.004  15.048  1.3191 -0.4795  1.0257
 6652SOL    HW231416   0.270   3.016  14.949  0.4991 -0.2140  0.8339
 6653SOL     OW31417   2.496   3.946  10.106 -0.2544 -0.2156  0.2737
 6653SOL    HW131418   2.530   3.869  10.153 -0.3798 -1.6454 -1.9854
 6653SOL    HW231419   2.537   4.016  10.157  0.3072 -0.9250  0.8083
 6654SOL     OW31420   0.658   2.203   4.481  0.2389 -0.4097 -0.0510
 6654SOL    HW131421   0.626   2.257   4.409  2.0773 -1.2944 -1.5172
 6654SOL    HW231422   0.645   2.265   4.553 -0.1047  1.1054 -1.4340
 6655SOL     OW31423   0.241   2.395   9.960  0.1521 -0.1628 -0.2715
 6655SOL    HW131424   0.224   2.470   9.903 -1.5348  1.5426  2.5040
 6655SOL    HW231425   0.337   2.397   9.955  0.2784 -1.8679  1.5424
 6656SOL     OW31426   4.266   0.358   4.864  0.4398 -0.1800 -0.2652
 6656SOL    HW131427   4.186   0.346   4.811  0.0922 -0.1935  0.2640
 6656SOL    HW231428   4.317   0.423   4.816  0.0890  0.6395  0.4773
 6657SOL     OW31429   0.422   1.063   4.618 -0.6153 -0.5665 -0.3405
 6657SOL    HW131430   0.442   1.060   4.712  1.5010 -2.7961 -0.8771
 6657SOL    HW231431   0.515   1.060   4.594 -0.9993 -0.9605 -1.7356
 6658SOL     OW31432   0.673   2.115   7.845  0.2980 -0.3322  0.0573
 6658SOL    HW131433   0.601   2.169   7.877 -0.4001 -0.8745 -0.5787
 6658SOL    HW231434   0.741   2.180   7.829  0.0859  0.0376  0.6571
 6659SOL     OW31435   1.273   2.633   8.493  0.2673  0.4761  0.6654
 6659SOL    HW131436   1.220   2.591   8.426  1.6383  0.9846 -0.7395
 6659SOL    HW231437   1.361   2.616   8.458  0.1694  1.6638 -0.1500
 6660SOL     OW31438   2.723   4.144   2.293 -0.0315  0.1112  0.4744
 6660SOL    HW131439   2.744   4.111   2.206  1.6338 -0.8751  1.2541
 6660SOL    HW231440   2.732   4.070   2.352 -2.4551 -0.5818 -0.0018
 6661SOL     OW31441   4.156   1.326   1.314 -0.4174  0.3187  0.1811
 6661SOL    HW131442   4.169   1.419   1.297 -3.0981  0.5023 -0.7515
 6661SOL    HW231443   4.237   1.281   1.290 -0.2562  1.0084 -0.5707
 6662SOL     OW31444   2.713   4.228   5.199 -0.1187 -0.6023 -0.5646
 6662SOL    HW131445   2.645   4.188   5.145  1.6330 -2.4744 -1.4000
 6662SOL    HW231446   2.763   4.286   5.141 -1.1200  1.0913  0.2664
 6663SOL     OW31447   1.093   0.899   2.753  0.4044 -0.2571  0.6983
 6663SOL    HW131448   1.125   0.925   2.667 -0.2142 -1.1993  0.1828
 6663SOL    HW231449   1.056   0.977   2.794  0.6528  0.5371 -0.5987
 6664SOL     OW31450   3.235   4.441   4.416 -0.0907 -0.1974  0.9765
 6664SOL    HW131451   3.310   4.500   4.427  2.5590 -3.2836 -0.4435
 6664SOL    HW231452   3.227   4.401   4.503  1.2792 -1.5261  0.5044
 6665SOL     OW31453   1.386   1.091   2.165  0.8381 -0.2561 -0.4939
 6665SOL    HW131454   1.317   1.034   2.130 -0.1423 -1.1188  2.7921
 6665SOL    HW231455   1.464   1.036   2.166  0.3873 -0.8625  1.9498
 6666SOL     OW31456   1.432   4.078  15.782 -0.5409 -0.0405  0.0619
 6666SOL    HW131457   1.342   4.088  15.751 -0.5856  1.5059  0.6978
 6666SOL    HW231458   1.477   4.067  15.698  0.0304 -0.0731  0.3729
 6667SOL     OW31459   3.639   1.371  13.234 -0.3204 -0.4688 -0.0024
 6667SOL    HW131460   3.719   1.346  13.280 -1.0251 -3.0701 -0.1691
 6667SOL    HW231461   3.673   1.428  13.166  0.9327 -0.2409  0.8080
 6668SOL     OW31462   4.030   1.098   6.020  0.0618 -0.1978  0.6866
 6668SOL    HW131463   3.974   1.171   6.048  1.6924  0.7793  1.3831
 6668SOL    HW231464   4.033   1.121   5.927  1.5434  0.9415  1.0216
 6669SOL     OW31465   1.276   3.855   4.826  0.1527 -0.1547 -0.0450
 6669SOL    HW131466   1.216   3.791   4.789 -0.3803  1.2134 -1.5752
 6669SOL    HW231467   1.247   3.856   4.917  2.5147 -0.2470  0.7290
 6670SOL     OW31468   1.786   0.977   8.196 -0.4131 -0.6463  0.0805
 6670SOL    HW131469   1.708   0.935   8.233 -0.5051 -0.5022  0.0495
 6670SOL    HW231470   1.768   0.990   8.103 -1.0619  1.3717  0.4842
 6671SOL     OW31471   4.387   3.028  17.241 -0.0680  0.4502  0.2531
 6671SOL    HW131472   4.378   3.114  17.280  3.0694  0.3975  1.0473
 6671SOL    HW231473   4.305   3.022  17.192  0.2855  1.0661 -0.4197
 6672SOL     OW31474   4.025   2.558   4.175 -0.2341 -0.0255  0.1419
 6672SOL    HW131475   3.938   2.522   4.158  0.2364 -0.6183 -1.0568
 6672SOL    HW231476   4.022   2.584   4.267  1.3902 -1.0506  0.4937
 6673SOL     OW31477   0.201   2.426   7.925  0.5457  0.0980  0.1518
 6673SOL    HW131478   0.130   2.486   7.900  0.6423  0.1331 -0.0401
 6673SOL    HW231479   0.274   2.485   7.906  0.5800  0.3481  1.0400
 6674SOL     OW31480   2.379   4.234   3.244 -0.1995 -0.3808 -0.3250
 6674SOL    HW131481   2.441   4.295   3.203 -1.2903  1.2953  0.5658
 6674SOL    HW231482   2.424   4.149   3.238 -1.2658 -1.1301  2.3352
 6675SOL     OW31483   0.539   0.716   8.228  0.3042  0.7918  0.3142
 6675SOL    HW131484   0.543   0.724   8.133  1.3519 -0.8946  0.2058
 6675SOL    HW231485   0.617   0.763   8.257  2.5061 -3.5967  1.5995
 6676SOL     OW31486   0.400   0.880  13.877 -0.3783  0.8495 -0.2419
 6676SOL    HW131487   0.318   0.876  13.927 -0.4116  0.4499 -0.3244
 6676SOL    HW231488   0.387   0.816  13.807 -2.9352  2.0490 -0.8562
 6677SOL     OW31489   3.893   0.688   9.747  1.1968  0.3279  0.1048
 6677SOL    HW131490   3.973   0.635   9.754  0.2858 -1.0398  0.2521
 6677SOL    HW231491   3.857   0.679   9.835  3.1604 -0.8558  0.8068
 6678SOL     OW31492   3.930   4.235  16.924  0.5130 -0.3041  0.1481
 6678SOL    HW131493   3.959   4.237  17.016 -1.7790 -1.3903  0.8992
 6678SOL    HW231494   3.898   4.325  16.912  0.3231 -0.1456  1.7656
 6679SOL     OW31495   4.057   3.597   6.806  0.6805 -0.2767  0.2604
 6679SOL    HW131496   4.128   3.658   6.786  0.1225  0.2569 -0.0957
 6679SOL    HW231497   3.990   3.647   6.759  0.8597 -1.0589 -0.8235
 6680SOL     OW31498   3.673   3.854   8.606  0.0242  0.2408 -0.0306
 6680SOL    HW131499   3.658   3.877   8.698 -0.9326  2.5477 -0.7736
 6680SOL    HW231500   3.633   3.767   8.600  1.7647 -0.5801  0.1694
 6681SOL     OW31501   2.090   3.442   5.703 -0.7394  0.0667 -0.0276
 6681SOL    HW131502   2.184   3.457   5.715 -0.4737 -0.7876 -1.0249
 6681SOL    HW231503   2.039   3.500   5.760  0.2169  0.5878  0.3035
 6682SOL     OW31504   0.828   2.201   3.102 -0.0908  0.1303 -0.6307
 6682SOL    HW131505   0.900   2.265   3.102 -1.6181  1.8158  1.9083
 6682SOL    HW231506   0.758   2.249   3.059 -2.1570 -0.8973  1.6003
 6683SOL     OW31507   0.731   1.060   7.727  0.6568  0.1076 -0.1702
 6683SOL    HW131508   0.810   1.109   7.749  0.3661  0.4213  0.1887
 6683SOL    HW231509   0.740   1.055   7.632 -1.0984  2.3865 -0.4725
 6684SOL     OW31510   0.157   0.823   3.158 -0.4122 -0.4364 -0.0636
 6684SOL    HW131511   0.086   0.799   3.100  0.0528 -0.4333 -0.6340
 6684SOL    HW231512   0.142   0.751   3.219  1.6733  0.4317  1.4998
 6685SOL     OW31513   0.464   0.463   6.491 -0.2515 -0.0639 -0.3824
 6685SOL    HW131514   0.504   0.527   6.432 -0.6225  1.8901  1.4725
 6685SOL    HW231515   0.522   0.465   6.568  0.6088  0.8664 -1.0559
 6686SOL     OW31516   1.645   0.999   5.677  0.5222  0.4975 -0.0134
 6686SOL    HW131517   1.659   0.955   5.761 -1.1806  1.8066  0.9657
 6686SOL    HW231518   1.733   1.020   5.648  0.4921  0.8627  0.1690
 6687SOL     OW31519   0.629   4.010   7.943 -0.4092 -0.1299  0.0154
 6687SOL    HW131520   0.680   3.942   7.985 -0.5557 -1.5382 -2.1076
 6687SOL    HW231521   0.584   4.045   8.020  0.3624  1.1511 -0.1045
 6688SOL     OW31522   0.412   2.801  10.835 -0.1057  0.1686  0.1104
 6688SOL    HW131523   0.338   2.839  10.882 -1.0457 -1.9177  0.3301
 6688SOL    HW231524   0.362   2.728  10.797 -0.0454  0.0157  0.3234
 6689SOL     OW31525   1.873   3.075   2.777  0.5458  0.2158 -0.0285
 6689SOL    HW131526   1.852   2.983   2.790  1.3539  0.2960  1.8989
 6689SOL    HW231527   1.784   3.109   2.762  1.7535  2.8227 -1.3348
 6690SOL     OW31528   0.508   3.032  17.129 -0.7000 -0.5844  0.1496
 6690SOL    HW131529   0.475   3.119  17.106 -2.6165 -1.3633 -0.0212
 6690SOL    HW231530   0.540   3.054  17.217  1.4539  1.2482 -1.0784
 6691SOL     OW31531   2.511   0.163  16.272  0.1148 -0.2544 -0.0693
 6691SOL    HW131532   2.482   0.226  16.206  0.0566  0.2706  0.4563
 6691SOL    HW231533   2.596   0.135  16.238  0.1010  1.7328 -1.7455
 6692SOL     OW31534   0.248   2.965  17.353  0.2339 -0.0147  0.0782
 6692SOL    HW131535   0.327   2.915  17.376  1.3303  2.3379  1.3575
 6692SOL    HW231536   0.259   3.027  17.425 -0.7386  0.5712 -0.2783
 6693SOL     OW31537   1.012   2.881   0.811 -0.1527 -0.2158 -0.5536
 6693SOL    HW131538   1.056   2.903   0.729 -0.5521  0.6960 -0.5293
 6693SOL    HW231539   0.939   2.829   0.777 -0.3431 -0.9055  0.8881
 6694SOL     OW31540   0.956   3.911  15.073  0.0307 -0.2573  0.1565
 6694SOL    HW131541   0.928   3.834  15.121 -1.9952  0.5588  0.2910
 6694SOL    HW231542   0.917   3.901  14.986  0.1783 -0.3567  0.1019
 6695SOL     OW31543   3.200   2.041   5.336 -0.3579 -0.4055  0.1214
 6695SOL    HW131544   3.142   2.001   5.271 -0.9729  0.9671 -0.1627
 6695SOL    HW231545   3.286   2.023   5.297 -1.3796 -0.8859 -1.9020
 6696SOL     OW31546   4.355   3.009   5.165  0.9007 -0.4293  0.5683
 6696SOL    HW131547   4.435   2.962   5.189 -0.4834 -1.7524  2.6477
 6696SOL    HW231548   4.288   2.940   5.166 -0.4065  0.8449 -0.8461
 6697SOL     OW31549   4.188   2.140   8.087  0.8843  0.3265 -0.3301
 6697SOL    HW131550   4.237   2.070   8.043  1.2037  1.5766 -1.9411
 6697SOL    HW231551   4.100   2.111   8.065  1.1806 -0.1400 -0.9061
 6698SOL     OW31552   0.095   4.473   7.698  0.9781  0.4742  0.0642
 6698SOL    HW131553   0.167   4.535   7.703  1.9049 -0.6083  0.1868
 6698SOL    HW231554   0.143   4.396   7.666 -0.1796  1.1395 -3.3720
 6699SOL     OW31555   3.494   1.243   1.948 -0.8587  0.6057  0.0623
 6699SOL    HW131556   3.565   1.286   1.902  1.2920 -1.0615  1.8289
 6699SOL    HW231557   3.523   1.152   1.941  0.6294  0.9649  1.5211
 6700SOL     OW31558   1.754   0.463   3.671 -0.1880 -0.3318 -0.8110
 6700SOL    HW131559   1.804   0.453   3.590 -0.1586 -0.3473 -0.7911
 6700SOL    HW231560   1.806   0.402   3.723 -0.9882  0.4465  0.9147
 6701SOL     OW31561   0.793   2.233  11.840 -0.0057  0.6066  0.3825
 6701SOL    HW131562   0.803   2.319  11.797 -0.3215  0.6685  0.4357
 6701SOL    HW231563   0.880   2.217  11.876 -0.2259 -1.7255 -0.1422
 6702SOL     OW31564   0.636   1.131   3.990  0.7367 -0.1994 -0.0312
 6702SOL    HW131565   0.545   1.102   3.997  0.7459 -0.6537 -1.6228
 6702SOL    HW231566   0.665   1.117   3.900 -0.5310 -1.4575 -0.2574
 6703SOL     OW31567   1.006   1.866  16.574  0.4349  0.4553 -0.1182
 6703SOL    HW131568   1.050   1.816  16.506 -1.1326  0.0083 -0.8170
 6703SOL    HW231569   1.056   1.837  16.650  1.1603  0.8195 -0.4605
 6704SOL     OW31570   4.559   3.382   3.388 -0.0211  0.4794  0.1666
 6704SOL    HW131571   4.603   3.359   3.470 -0.8338  0.7337  0.6815
 6704SOL    HW231572   4.541   3.297   3.349  0.1837  0.2404  0.5947
 6705SOL     OW31573   2.029   2.078   9.275 -0.2787 -0.3760 -0.4684
 6705SOL    HW131574   2.121   2.068   9.299 -0.1470 -0.9898 -1.1974
 6705SOL    HW231575   2.036   2.055   9.182 -0.6320  0.5561 -0.7270
 6706SOL     OW31576   1.034   0.102  12.183  0.4576 -0.0033  0.5369
 6706SOL    HW131577   1.013   0.109  12.277  0.4212 -1.4658  0.6486
 6706SOL    HW231578   1.128   0.087  12.181  0.1240 -2.1392  0.4016
 6707SOL     OW31579   1.786   3.120   9.013  0.4620  0.2039  0.2903
 6707SOL    HW131580   1.836   3.087   9.088 -1.0026  2.5541  2.2969
 6707SOL    HW231581   1.723   3.174   9.060 -0.0839  1.1896 -1.5490
 6708SOL     OW31582   4.457   3.795   5.311 -0.0916  0.5026  0.0787
 6708SOL    HW131583   4.403   3.841   5.375  1.2798  1.9772  0.1691
 6708SOL    HW231584   4.522   3.863   5.294  1.3824 -0.5155  1.5962
 6709SOL     OW31585   3.980   2.995   8.114  0.2647  0.0792  0.6162
 6709SOL    HW131586   4.066   2.973   8.151 -0.2330 -0.6477  1.3334
 6709SOL    HW231587   4.008   3.076   8.071  0.6959  0.6067  1.8767
 6710SOL     OW31588   2.198   0.928   4.308  0.0639 -0.4908 -0.4001
 6710SOL    HW131589   2.289   0.902   4.317  0.2942  0.7360  0.8804
 6710SOL    HW231590   2.151   0.890   4.383 -0.3099 -1.9318 -1.3517
 6711SOL     OW31591   1.919   3.826   9.330  0.3004  0.2673  0.5036
 6711SOL    HW131592   1.906   3.760   9.398 -0.7095  2.3922  2.3879
 6711SOL    HW231593   2.015   3.824   9.331  0.2821 -0.7160  0.2305
 6712SOL     OW31594   4.536   0.891  17.278  1.2067 -0.1582 -0.0224
 6712SOL    HW131595   4.543   0.858  17.188  2.7849 -1.0769  0.4337
 6712SOL    HW231596   4.470   0.959  17.262  1.8313  0.7781  1.4055
 6713SOL     OW31597   2.698   2.211  15.657 -0.0882 -0.1467 -0.1216
 6713SOL    HW131598   2.695   2.285  15.717  1.0595 -1.3150  1.3719
 6713SOL    HW231599   2.607   2.181  15.655 -0.6704  1.5680  1.3893
 6714SOL     OW31600   3.901   1.812   9.384  0.2887  0.5506 -0.1350
 6714SOL    HW131601   3.992   1.812   9.413  0.1890  2.3618  0.1545
 6714SOL    HW231602   3.866   1.779   9.466  0.8516 -0.8434 -0.4443
 6715SOL     OW31603   1.257   3.165   7.152  0.3053 -0.4946 -0.1700
 6715SOL    HW131604   1.327   3.112   7.190  0.2364 -0.9535 -0.6794
 6715SOL    HW231605   1.179   3.140   7.203  0.4791  0.2099  0.4385
 6716SOL     OW31606   0.594   0.399  11.447  0.0184  0.2289 -0.0282
 6716SOL    HW131607   0.531   0.472  11.451 -1.1178 -0.7170 -0.6886
 6716SOL    HW231608   0.581   0.369  11.357 -1.1074 -1.3052  0.6416
 6717SOL     OW31609   3.313   2.230   9.917  0.1532 -0.0767 -0.1836
 6717SOL    HW131610   3.314   2.271  10.003  1.5559 -1.4189  0.4409
 6717SOL    HW231611   3.258   2.285   9.861  0.4216 -2.1921 -2.5486
 6718SOL     OW31612   0.837   2.979   9.266  0.2038  0.0757  0.1230
 6718SOL    HW131613   0.872   3.017   9.347  0.1398 -1.4511  0.8866
 6718SOL    HW231614   0.793   2.900   9.299  0.1856  0.1451  0.2638
 6719SOL     OW31615   3.854   2.916   2.253 -0.0121 -0.4216 -0.7026
 6719SOL    HW131616   3.790   2.867   2.201 -1.7675  0.9222  0.1781
 6719SOL    HW231617   3.933   2.863   2.251  0.5957  0.4175  1.0618
 6720SOL     OW31618   0.652   0.456   6.698 -0.0223  0.4372 -0.0455
 6720SOL    HW131619   0.686   0.540   6.667  1.4600 -0.4046 -0.6591
 6720SOL    HW231620   0.647   0.478   6.791  1.1651 -0.2329  0.1735
 6721SOL     OW31621   1.244   0.942   5.603 -0.3957 -0.1787  0.1983
 6721SOL    HW131622   1.190   0.979   5.533  1.5550  2.3278  0.0019
 6721SOL    HW231623   1.306   1.014   5.609  1.4422 -1.8211  0.6532
 6722SOL     OW31624   2.373   1.803  12.614  0.5944 -0.8936  0.0074
 6722SOL    HW131625   2.375   1.779  12.521  2.9430  0.0235 -0.1831
 6722SOL    HW231626   2.384   1.898  12.616 -0.3348 -0.7749 -0.2945
 6723SOL     OW31627   0.074   0.498   7.283  0.2153  0.3982 -0.0181
 6723SOL    HW131628   4.714   0.502   7.239 -0.2699  1.0363  0.9847
 6723SOL    HW231629   0.135   0.498   7.209 -1.5026  0.6581 -1.4393
 6724SOL     OW31630   1.326   0.578  14.097  0.0415  0.4577  0.3853
 6724SOL    HW131631   1.234   0.552  14.099  0.3307 -0.6518 -0.8401
 6724SOL    HW231632   1.323   0.661  14.049 -0.0381 -0.7054 -1.6162
 6725SOL     OW31633   1.304   0.540  12.492 -0.2030 -0.1891 -0.2609
 6725SOL    HW131634   1.342   0.616  12.537  2.2070 -1.4145 -0.2286
 6725SOL    HW231635   1.213   0.550  12.517  0.3767 -0.9172  2.1455
 6726SOL     OW31636   3.359   3.130  16.374  0.5907  0.2780 -0.1652
 6726SOL    HW131637   3.324   3.056  16.425  1.2835 -0.7809 -1.2102
 6726SOL    HW231638   3.453   3.115  16.386  0.5645 -1.6018 -2.3653
 6727SOL     OW31639   2.001   2.426   3.248  0.2582 -0.5154 -0.5718
 6727SOL    HW131640   1.966   2.433   3.337  0.5756 -0.0599 -0.4815
 6727SOL    HW231641   1.991   2.331   3.240  0.5100 -0.4211 -1.9068
 6728SOL     OW31642   2.136   3.978   6.413  0.2364 -0.4019 -0.2876
 6728SOL    HW131643   2.144   4.018   6.327  2.1540 -0.1242  0.0348
 6728SOL    HW231644   2.225   3.943   6.421  1.0330  1.9804  1.2078
 6729SOL     OW31645   4.266   2.199   9.156 -0.2479 -0.3405  0.6569
 6729SOL    HW131646   4.189   2.227   9.107  0.5190  1.6592  0.5830
 6729SOL    HW231647   4.309   2.145   9.090 -2.7849  0.5998 -1.7337
 6730SOL     OW31648   4.328   2.336   8.225  0.5165  0.2846 -0.1647
 6730SOL    HW131649   4.258   2.275   8.203  1.2573 -0.9139  0.8149
 6730SOL    HW231650   4.369   2.347   8.139  1.4977  1.3077  0.4279
 6731SOL     OW31651   2.080   1.112  16.480 -0.4362 -0.0004  0.2956
 6731SOL    HW131652   2.054   1.021  16.494  0.6388 -0.2800  0.4896
 6731SOL    HW231653   2.005   1.149  16.526 -2.3793 -2.7209 -0.6408
 6732SOL     OW31654   1.441   2.499   7.383 -0.2361 -0.1010 -0.2569
 6732SOL    HW131655   1.466   2.442   7.456  0.2493 -0.2132 -0.5093
 6732SOL    HW231656   1.467   2.458   7.300 -0.5456  0.7023 -0.7450
 6733SOL     OW31657   4.645   1.087  16.119 -0.4699  0.5604  0.0767
 6733SOL    HW131658   4.618   1.151  16.053  3.0629  3.1933  1.1956
 6733SOL    HW231659   0.014   1.088  16.104 -0.2425  0.9370  1.5996
 6734SOL     OW31660   2.236   2.878   5.943 -0.2323  0.3427 -0.4357
 6734SOL    HW131661   2.207   2.937   5.873 -1.7104 -0.4500 -0.5081
 6734SOL    HW231662   2.212   2.921   6.025 -0.4024  1.3877 -1.0324
 6735SOL     OW31663   3.226   2.302   4.779  0.3453  0.2004 -0.5704
 6735SOL    HW131664   3.249   2.330   4.868  1.6626  0.0432 -0.8637
 6735SOL    HW231665   3.312   2.275   4.747  0.6001 -2.2174  2.1564
 6736SOL     OW31666   4.401   1.472   1.887  0.1390  0.1280 -0.0035
 6736SOL    HW131667   4.438   1.558   1.908  0.4858 -0.1909  0.6825
 6736SOL    HW231668   4.424   1.463   1.795 -0.2627 -1.0829  0.0158
 6737SOL     OW31669   3.581   1.521   8.207 -0.6850  0.2645  0.0789
 6737SOL    HW131670   3.486   1.523   8.209 -0.7184 -1.6606  0.3645
 6737SOL    HW231671   3.604   1.540   8.298 -0.2898  1.9821 -0.3809
 6738SOL     OW31672   3.057   4.004  15.386 -0.2419  0.3204  0.3696
 6738SOL    HW131673   3.086   3.931  15.442  3.0424  1.5522  0.2699
 6738SOL    HW231674   2.987   3.968  15.331  1.4043 -0.1767 -1.4096
 6739SOL     OW31675   2.007   1.626   5.429 -0.3922  1.0672  0.3124
 6739SOL    HW131676   2.007   1.671   5.513 -1.5877  0.1406  0.7946
 6739SOL    HW231677   1.929   1.572   5.436  2.2541 -2.6826  0.9443
 6740SOL     OW31678   4.543   2.336   3.002 -0.0389  0.4411  0.1364
 6740SOL    HW131679   4.464   2.309   3.048  0.7257 -2.0313 -0.0230
 6740SOL    HW231680   4.501   2.364   2.921  1.4433  2.8295  0.1810
 6741SOL     OW31681   0.861   4.186   1.337 -0.0985  0.5799  0.3079
 6741SOL    HW131682   0.877   4.124   1.409 -2.3159 -1.2233 -0.7464
 6741SOL    HW231683   0.853   4.134   1.257 -0.0914 -0.9719  1.3235
 6742SOL     OW31684   4.565   1.174   5.865  0.3549 -0.2974  0.1087
 6742SOL    HW131685   4.600   1.199   5.950  0.6336  1.3036 -0.4738
 6742SOL    HW231686   4.470   1.180   5.876  0.0562 -1.3810 -1.7406
 6743SOL     OW31687   3.815   4.399   8.813 -0.0480  0.1334 -0.1952
 6743SOL    HW131688   3.832   4.422   8.905  0.4464  1.1598 -0.5501
 6743SOL    HW231689   3.894   4.363   8.772  0.4515  0.7761  0.1942
 6744SOL     OW31690   0.459   4.145   2.122 -0.6017  0.0849  0.3352
 6744SOL    HW131691   0.475   4.238   2.102  1.5080 -0.1416  0.9853
 6744SOL    HW231692   0.408   4.152   2.202  0.2665 -1.5208  1.0209
 6745SOL     OW31693   1.681   2.161   3.069 -0.1944 -0.2824 -0.2432
 6745SOL    HW131694   1.670   2.166   3.164 -0.9822  1.6066 -0.4321
 6745SOL    HW231695   1.604   2.205   3.031  0.1697  1.6801  1.3159
 6746SOL     OW31696   3.110   3.740   5.015 -0.3359 -0.3284 -0.1561
 6746SOL    HW131697   3.154   3.657   4.999  0.5044  0.0901 -0.0064
 6746SOL    HW231698   3.178   3.796   5.052 -0.1998 -0.9355  0.5067
 6747SOL     OW31699   2.941   2.489   0.856 -0.0550 -0.0133 -0.1608
 6747SOL    HW131700   2.856   2.522   0.886 -0.3879 -0.6964 -0.3638
 6747SOL    HW231701   2.904   2.429   0.792  0.8936 -2.7080  1.7976
 6748SOL     OW31702   0.264   0.611   7.898 -0.0611 -0.2080 -0.1993
 6748SOL    HW131703   0.281   0.530   7.946 -1.7480 -0.2802  0.2790
 6748SOL    HW231704   0.201   0.652   7.957 -0.6597  0.9580 -1.6580
 6749SOL     OW31705   2.232   3.579   1.511  0.1497  0.1323 -0.0674
 6749SOL    HW131706   2.207   3.648   1.449 -0.5430 -0.3544 -0.3258
 6749SOL    HW231707   2.222   3.497   1.463 -2.5089  1.9443 -2.5991
 6750SOL     OW31708   0.336   1.524   9.819  0.2096 -0.0029  0.1328
 6750SOL    HW131709   0.344   1.616   9.791 -2.2469 -0.4825 -2.1268
 6750SOL    HW231710   0.318   1.540   9.912  2.0019  1.6439  0.2024
 6751SOL     OW31711   1.283   2.719  12.606  0.0519  0.2793  0.4608
 6751SOL    HW131712   1.331   2.801  12.593 -0.3349  0.9971  3.4757
 6751SOL    HW231713   1.343   2.651  12.636  1.0447  1.4067  1.0287
 6752SOL     OW31714   4.026   2.566   3.301 -0.6681  0.4786 -0.0260
 6752SOL    HW131715   3.936   2.543   3.326 -0.7652  1.1558  0.2484
 6752SOL    HW231716   4.048   2.499   3.237 -0.2881 -0.9024  1.5351
 6753SOL     OW31717   1.256   3.596   4.978 -0.0848 -0.0243 -0.6264
 6753SOL    HW131718   1.319   3.586   5.050 -1.9092 -0.0606  0.9553
 6753SOL    HW231719   1.322   3.584   4.910  1.7413  3.5348  0.4968
 6754SOL     OW31720   3.239   1.585   7.843  0.4143  0.0714  0.4189
 6754SOL    HW131721   3.226   1.522   7.772  0.2171  0.0792  0.4493
 6754SOL    HW231722   3.253   1.526   7.917 -1.1495 -0.1530  0.5298
 6755SOL     OW31723   2.404   1.312   2.044  0.1365  0.8579  0.5851
 6755SOL    HW131724   2.419   1.378   2.111  1.4851  5.0295 -3.8678
 6755SOL    HW231725   2.399   1.367   1.966  0.0725  0.2509  0.1572
 6756SOL     OW31726   4.027   1.403   5.718  0.1472 -0.4140  0.1805
 6756SOL    HW131727   3.984   1.324   5.685  0.8011 -0.7458  0.1093
 6756SOL    HW231728   4.027   1.397   5.813 -1.3398  0.6275  0.2371
 6757SOL     OW31729   4.703   1.131   6.767 -0.1145  0.2022 -0.3252
 6757SOL    HW131730   4.626   1.157   6.717 -2.4818 -2.6938  1.8369
 6757SOL    HW231731   4.668   1.049   6.801  0.4055 -0.1383 -0.6179
 6758SOL     OW31732   2.423   4.391  17.214 -0.8864 -0.5470  0.6099
 6758SOL    HW131733   2.470   4.319  17.255  1.4342  1.1670  0.9245
 6758SOL    HW231734   2.403   4.447  17.289  0.6350 -0.2030  0.7525
 6759SOL     OW31735   0.593   3.224   6.953 -0.3861  0.4559  0.4092
 6759SOL    HW131736   0.584   3.139   6.995 -3.3771  1.4023  1.6785
 6759SOL    HW231737   0.624   3.279   7.025 -1.7586  1.5723  0.1454
 6760SOL     OW31738   2.977   4.108  11.936 -0.4567  0.2993 -0.1289
 6760SOL    HW131739   3.013   4.195  11.914 -0.2875  0.1778 -0.3361
 6760SOL    HW231740   2.965   4.128  12.029 -0.6501 -1.5465  0.2309
 6761SOL     OW31741   2.432   4.500   6.475  0.5433  0.2808 -0.1445
 6761SOL    HW131742   2.523   4.527   6.465  0.0857  1.9442  0.1733
 6761SOL    HW231743   2.387   4.581   6.451  1.3880  0.7965 -0.0278
 6762SOL     OW31744   1.140   3.730  14.806  0.0970  0.2920  0.0860
 6762SOL    HW131745   1.155   3.690  14.891  0.1249 -1.6094 -0.8174
 6762SOL    HW231746   1.044   3.727  14.803 -0.0008  0.6502  3.3048
 6763SOL     OW31747   4.601   1.956   6.241 -0.1141  0.0221  0.2288
 6763SOL    HW131748   4.520   1.917   6.274 -0.0395  0.7591  1.2578
 6763SOL    HW231749   4.586   2.049   6.256  2.4623  0.4233  0.2253
 6764SOL     OW31750   0.554   2.877   3.972  0.4879 -0.4371  0.1228
 6764SOL    HW131751   0.504   2.926   3.906  0.3847  0.2230  0.6906
 6764SOL    HW231752   0.482   2.840   4.024 -0.3598  0.3583 -0.4984
 6765SOL     OW31753   2.118   0.116   0.084  0.2162  0.3299  0.2924
 6765SOL    HW131754   2.031   0.088   0.112  0.2552 -1.3710 -1.2912
 6765SOL    HW231755   2.132   0.065   0.004  2.6215 -1.5173  1.8684
 6766SOL     OW31756   0.712   3.967   6.207 -0.2855 -0.2101  0.3590
 6766SOL    HW131757   0.751   4.050   6.235  0.5440 -0.2566 -0.6602
 6766SOL    HW231758   0.636   4.003   6.162 -0.4574  0.1366  0.9308
 6767SOL     OW31759   0.697   2.975  17.420 -0.3384  0.4007 -0.2480
 6767SOL    HW131760   0.732   2.998  17.506 -0.0544 -1.4417  0.1312
 6767SOL    HW231761   0.618   2.930  17.452  1.2498 -1.0838  1.5608
 6768SOL     OW31762   2.491   3.944   0.650 -0.7649  0.0166  0.1259
 6768SOL    HW131763   2.444   3.870   0.611 -3.3346  1.7000  0.0326
 6768SOL    HW231764   2.570   3.925   0.600 -1.1779 -0.2176 -0.4460
 6769SOL     OW31765   0.356   2.855  16.517  0.1970 -0.0309 -0.1800
 6769SOL    HW131766   0.310   2.903  16.585 -0.5043 -1.8240  0.5987
 6769SOL    HW231767   0.395   2.925  16.464 -1.8382  0.5765 -0.8732
 6770SOL     OW31768   0.010   0.005   2.585  0.3305  0.5276  0.3160
 6770SOL    HW131769   4.657   0.049   2.552  1.7788  1.7867 -1.4332
 6770SOL    HW231770   4.721   4.637   2.575 -1.5735  0.6807  1.5914
 6771SOL     OW31771   2.379   0.969   8.432  0.0362  0.1391 -0.3283
 6771SOL    HW131772   2.462   0.969   8.480 -0.2389  0.7945  0.1499
 6771SOL    HW231773   2.345   0.885   8.463 -0.7386  0.3722 -0.5388
 6772SOL     OW31774   3.555   3.885  11.787  0.2174  0.0816 -0.2554
 6772SOL    HW131775   3.565   3.975  11.755 -0.7998  0.4287  0.4188
 6772SOL    HW231776   3.474   3.897  11.836  0.5403 -1.5493  0.6745
 6773SOL     OW31777   3.469   0.696   5.690 -0.0406  0.2616  0.3545
 6773SOL    HW131778   3.414   0.645   5.750  0.4728 -2.2974 -1.3650
 6773SOL    HW231779   3.522   0.625   5.655 -0.9774  0.3738 -1.2928
 6774SOL     OW31780   1.745   0.586   3.898  0.2813  0.0445 -0.4423
 6774SOL    HW131781   1.731   0.554   3.809  0.9670  0.6332 -0.7710
 6774SOL    HW231782   1.841   0.596   3.903  0.0010  2.0199  1.1503
 6775SOL     OW31783   3.583   2.358  15.139  0.7083 -0.2176  0.5093
 6775SOL    HW131784   3.618   2.378  15.226  0.1339  0.2992  0.6147
 6775SOL    HW231785   3.511   2.302  15.167  0.0040 -0.6642 -2.2101
 6776SOL     OW31786   1.858   0.665   0.450  0.5834  0.0959 -0.1658
 6776SOL    HW131787   1.786   0.613   0.488  0.7926  1.2308  1.7667
 6776SOL    HW231788   1.897   0.705   0.528  1.4128 -0.0022 -0.5370
 6777SOL     OW31789   2.469   4.515  11.492 -0.3854 -0.1674  0.2821
 6777SOL    HW131790   2.536   4.554  11.549 -0.5640 -2.1423  1.8289
 6777SOL    HW231791   2.526   4.445  11.459  1.5688  1.7753 -0.5351
 6778SOL     OW31792   2.705   2.524   4.690  0.2471 -0.1528  0.2138
 6778SOL    HW131793   2.630   2.551   4.637  0.8671  0.3394 -0.4140
 6778SOL    HW231794   2.656   2.507   4.771 -0.8264 -1.9999 -0.8420
 6779SOL     OW31795   0.662   0.108   1.552 -0.1606  0.2496 -0.0044
 6779SOL    HW131796   0.611   0.080   1.476  1.3295  0.5491 -1.1177
 6779SOL    HW231797   0.745   0.066   1.528 -0.1375 -0.6695  1.6409
 6780SOL     OW31798   1.952   1.615   2.117 -0.1102  0.9502  0.1393
 6780SOL    HW131799   1.998   1.567   2.049 -0.4438 -1.4135  1.5678
 6780SOL    HW231800   1.931   1.539   2.170 -0.7785 -0.3994 -2.0921
 6781SOL     OW31801   0.185   4.287   5.986 -0.0899  0.1854 -0.5208
 6781SOL    HW131802   0.191   4.235   6.066  3.9668 -1.2064 -1.7075
 6781SOL    HW231803   0.276   4.318   5.985  0.1293 -0.4139  1.2428
 6782SOL     OW31804   3.021   2.267   2.056  0.5020 -0.0973  0.3914
 6782SOL    HW131805   2.934   2.278   2.017  0.3654 -1.1608  0.3956
 6782SOL    HW231806   3.013   2.340   2.117  2.0337  2.0482 -2.0236
 6783SOL     OW31807   2.242   2.195  11.054 -0.8539 -0.0427  0.0253
 6783SOL    HW131808   2.250   2.288  11.033 -0.8071  0.3028  1.5377
 6783SOL    HW231809   2.149   2.173  11.041 -0.3786 -0.8645 -1.9100
 6784SOL     OW31810   0.510   1.434   8.267  0.6111 -0.1480 -0.3982
 6784SOL    HW131811   0.484   1.412   8.177  0.9620  1.9818 -1.0125
 6784SOL    HW231812   0.445   1.501   8.288  0.0759 -0.4380 -1.0953
 6785SOL     OW31813   2.765   3.738   6.693 -0.0954 -0.0426 -0.4840
 6785SOL    HW131814   2.771   3.814   6.751  1.6454 -1.1910  0.8131
 6785SOL    HW231815   2.803   3.662   6.736 -0.1756 -0.3606 -0.9681
 6786SOL     OW31816   3.489   3.947   9.694 -0.1928  0.6432 -0.3305
 6786SOL    HW131817   3.537   3.868   9.667 -1.4553  0.2115 -1.2974
 6786SOL    HW231818   3.509   3.946   9.788  2.0071 -1.5811 -0.7977
 6787SOL     OW31819   3.959   4.140   5.464  0.2026  0.0879  0.0918
 6787SOL    HW131820   4.038   4.136   5.410  0.3699 -1.2511  0.4154
 6787SOL    HW231821   3.934   4.047   5.464 -2.4694  0.8331 -1.1497
 6788SOL     OW31822   4.046   4.391   8.645 -0.0459 -0.1846  0.2161
 6788SOL    HW131823   4.013   4.341   8.570 -1.8021  0.7336  0.3814
 6788SOL    HW231824   4.088   4.322   8.697  0.0772 -1.9209 -2.1793
 6789SOL     OW31825   1.992   2.592  16.665 -0.5175  0.1769 -0.0983
 6789SOL    HW131826   1.964   2.513  16.617 -4.0647  0.3212  1.6781
 6789SOL    HW231827   2.082   2.563  16.679 -1.2124 -1.6295  0.6452
 6790SOL     OW31828   1.758   1.785   7.957 -0.0764  0.3411 -0.0319
 6790SOL    HW131829   1.837   1.741   7.926 -0.1870 -0.2111  0.4847
 6790SOL    HW231830   1.730   1.730   8.030 -1.0234 -0.8528 -1.2780
 6791SOL     OW31831   4.125   3.143   7.359 -0.2280  0.5595  0.4406
 6791SOL    HW131832   4.198   3.130   7.419  0.1954  0.5982 -0.0616
 6791SOL    HW231833   4.111   3.056   7.321 -1.7830  0.3354  1.5096
 6792SOL     OW31834   3.839   0.946   5.117 -0.1023  0.0902  0.1092
 6792SOL    HW131835   3.860   0.999   5.040 -1.0736  1.7322  0.9677
 6792SOL    HW231836   3.900   0.874   5.104 -2.0223 -0.8445 -3.3679
 6793SOL     OW31837   1.540   3.704   3.285  0.8039  0.1058  0.4433
 6793SOL    HW131838   1.573   3.677   3.200  0.7129 -0.7920  0.6888
 6793SOL    HW231839   1.605   3.773   3.299  1.7946 -0.5345 -1.0013
 6794SOL     OW31840   1.138   1.306   3.047 -0.4689  1.0121  0.2264
 6794SOL    HW131841   1.200   1.235   3.034 -2.6578 -1.2146  2.0872
 6794SOL    HW231842   1.193   1.378   3.078 -1.3319  0.2587  3.4490
 6795SOL     OW31843   1.947   3.538  15.886 -0.1769  0.6436 -0.5285
 6795SOL    HW131844   2.015   3.575  15.942 -0.7297 -0.1150  0.6292
 6795SOL    HW231845   1.896   3.497  15.956  0.6363 -0.0349 -0.3337
 6796SOL     OW31846   3.715   3.464  15.303 -0.1329 -0.0268 -0.1272
 6796SOL    HW131847   3.768   3.508  15.236 -1.3099  0.6778 -0.6118
 6796SOL    HW231848   3.780   3.420  15.358 -0.9605  2.2541  2.6777
 6797SOL     OW31849   1.109   2.387   9.579  0.1495  0.4952  0.2571
 6797SOL    HW131850   1.182   2.330   9.553 -2.5228 -1.8013 -2.0660
 6797SOL    HW231851   1.146   2.471   9.551 -0.8363  1.4590  1.8630
 6798SOL     OW31852   4.579   3.032  11.752 -0.0969  0.7058 -1.0112
 6798SOL    HW131853   4.526   3.040  11.673 -2.2513 -0.6784  0.2929
 6798SOL    HW231854   4.568   2.937  11.763 -3.2889  1.3942  1.5533
 6799SOL     OW31855   2.731   2.362   2.014 -0.3665 -0.2021  0.3279
 6799SOL    HW131856   2.729   2.428   1.945  0.2757 -0.8541 -0.3103
 6799SOL    HW231857   2.697   2.284   1.969 -0.8034 -0.6016  1.3347
 6800SOL     OW31858   3.507   3.553   8.227  0.1209  0.2230 -0.3623
 6800SOL    HW131859   3.557   3.570   8.147 -0.1480 -1.6224 -0.9244
 6800SOL    HW231860   3.558   3.600   8.293 -0.6007 -0.9246  1.0184
 6801SOL     OW31861   3.577   0.062   2.988 -0.4608 -0.2170  0.9090
 6801SOL    HW131862   3.511   0.131   2.976  0.4172  0.3506 -0.7174
 6801SOL    HW231863   3.562   0.033   3.078 -0.6519  1.2311  1.3427
 6802SOL     OW31864   3.741   0.848   5.683  0.7575 -0.3908 -0.2660
 6802SOL    HW131865   3.810   0.796   5.642  2.1893  1.2296  0.0954
 6802SOL    HW231866   3.718   0.798   5.761  0.3532 -0.5231 -0.4726
 6803SOL     OW31867   1.116   4.647   9.360 -0.4361 -0.1662 -0.5064
 6803SOL    HW131868   1.150   4.558   9.345 -0.9985 -0.6282  0.9404
 6803SOL    HW231869   1.201   4.692   9.358 -0.8742  0.7199  1.1999
 6804SOL     OW31870   3.750   4.004  11.536  0.2792 -0.3537 -0.1209
 6804SOL    HW131871   3.688   4.023  11.465 -1.4110  0.8691  1.6776
 6804SOL    HW231872   3.736   4.081  11.591  2.7276 -0.4819  0.6625
 6805SOL     OW31873   2.570   0.156  11.548  0.0019 -0.8157 -0.8248
 6805SOL    HW131874   2.526   0.118  11.472  0.3533  0.2590 -1.5744
 6805SOL    HW231875   2.621   0.086  11.588 -0.1965 -1.5517 -1.8527
 6806SOL     OW31876   1.126   2.265   8.618  0.3104  0.2054  0.2655
 6806SOL    HW131877   1.079   2.330   8.669 -1.6681  0.3365 -1.7251
 6806SOL    HW231878   1.181   2.216   8.679 -0.2593  0.3549  0.8985
 6807SOL     OW31879   4.385   1.571   0.567  0.0514 -0.3215 -0.4058
 6807SOL    HW131880   4.342   1.607   0.490 -1.7215 -0.0234  0.7090
 6807SOL    HW231881   4.316   1.512   0.597  2.7277 -2.9981  0.4987
 6808SOL     OW31882   4.541   1.542   5.602  0.1980 -0.1781 -0.6898
 6808SOL    HW131883   4.540   1.637   5.592 -0.0682 -0.0826  0.2824
 6808SOL    HW231884   4.447   1.521   5.600 -0.0399  0.9130 -1.1637
 6809SOL     OW31885   4.716   4.316   6.389  0.2705 -0.0154 -0.3311
 6809SOL    HW131886   4.644   4.364   6.430 -0.2243 -2.1950  1.3763
 6809SOL    HW231887   0.051   4.290   6.458  1.2468 -0.4208 -1.3553
 6810SOL     OW31888   2.613   1.219   6.038 -0.2126  0.2803  0.5956
 6810SOL    HW131889   2.688   1.192   6.091 -0.9867 -0.8416  1.1140
 6810SOL    HW231890   2.543   1.182   6.092 -0.0311  0.5895  1.0425
 6811SOL     OW31891   3.278   0.732   4.711 -0.0063 -0.1702 -0.1714
 6811SOL    HW131892   3.303   0.756   4.801 -0.3734 -1.9990  0.4137
 6811SOL    HW231893   3.225   0.653   4.712 -0.2966  0.0119 -1.7642
 6812SOL     OW31894   4.428   4.582   1.375 -0.2940 -0.4994  0.5629
 6812SOL    HW131895   4.433   4.597   1.281 -1.0195 -1.4939  0.3630
 6812SOL    HW231896   4.390   4.664   1.408  0.0719  0.8845 -2.5386
 6813SOL     OW31897   3.038   0.889  16.509  0.2856 -0.2281 -0.2419
 6813SOL    HW131898   2.961   0.900  16.453 -1.4456  0.6775  2.3044
 6813SOL    HW231899   3.021   0.949  16.582  0.1670 -0.4259 -0.1080
 6814SOL     OW31900   4.025   1.380   9.029 -0.3287 -0.0608 -0.1957
 6814SOL    HW131901   3.985   1.293   9.022  0.3912 -0.4562  0.6549
 6814SOL    HW231902   4.004   1.409   8.940  1.1086  0.5699 -0.3301
 6815SOL     OW31903   0.204   0.494   6.116  0.1355 -0.0339 -0.2394
 6815SOL    HW131904   0.274   0.512   6.053  0.3202  0.0494 -0.0068
 6815SOL    HW231905   0.255   0.509   6.195 -2.0115  0.8224  0.9771
 6816SOL     OW31906   3.171   1.837   4.669 -0.3540 -0.4140 -0.2607
 6816SOL    HW131907   3.123   1.902   4.618  2.2688  0.8512 -1.0990
 6816SOL    HW231908   3.113   1.772   4.711  0.0294  0.0758  1.0273
 6817SOL     OW31909   0.423   2.486   1.863  0.2491  0.2079  0.0437
 6817SOL    HW131910   0.503   2.451   1.902  0.1674 -0.4993 -0.4202
 6817SOL    HW231911   0.446   2.494   1.770  1.5368 -2.1183  0.1723
 6818SOL     OW31912   0.010   1.181   6.259  0.5271  0.4509 -0.2453
 6818SOL    HW131913   4.703   1.095   6.230  0.6449 -0.3254  1.9443
 6818SOL    HW231914   4.663   1.227   6.217 -0.7947  1.6196  3.3662
 6819SOL     OW31915   1.673   1.219   6.444 -0.4419 -0.1220 -0.3353
 6819SOL    HW131916   1.733   1.211   6.369  1.0673 -1.7285  1.0525
 6819SOL    HW231917   1.584   1.222   6.410 -0.4926 -2.5893 -0.3718
 6820SOL     OW31918   0.982   3.734   8.578  0.2792 -0.2379  0.4957
 6820SOL    HW131919   0.934   3.792   8.637 -2.1970 -0.5045 -1.2231
 6820SOL    HW231920   1.070   3.762   8.602  0.3592  0.9356 -1.1808
 6821SOL     OW31921   3.798   2.779   6.366  0.7445  0.4032  0.1965
 6821SOL    HW131922   3.766   2.831   6.292 -0.0982  0.3981  0.5483
 6821SOL    HW231923   3.779   2.694   6.326 -0.0667  0.9768 -0.6644
 6822SOL     OW31924   2.733   1.106   5.793  0.5804  0.6521 -0.3038
 6822SOL    HW131925   2.795   1.038   5.818 -0.3390 -0.5170 -1.1868
 6822SOL    HW231926   2.682   1.126   5.872  1.0823  0.8326 -0.0237
 6823SOL     OW31927   2.334   1.264  14.886  0.1107 -0.2749  0.2341
 6823SOL    HW131928   2.375   1.332  14.832 -0.7894 -1.2681 -1.7005
 6823SOL    HW231929   2.262   1.317  14.922 -1.2108 -1.3685 -0.8038
 6824SOL     OW31930   0.218   2.033   8.165 -0.2833  0.6139  0.1674
 6824SOL    HW131931   0.303   2.036   8.120 -0.1967 -1.6302  0.1554
 6824SOL    HW231932   0.222   2.124   8.193  0.6561  0.2246  1.2930
 6825SOL     OW31933   3.980   0.126   7.806 -0.2326  0.4223 -0.5675
 6825SOL    HW131934   4.004   0.043   7.765 -2.1522 -0.6738  0.5391
 6825SOL    HW231935   3.927   0.105   7.883 -1.8983 -0.0168 -1.8495
 6826SOL     OW31936   0.421   3.653   7.109  0.3021 -0.2436  0.3503
 6826SOL    HW131937   0.491   3.588   7.101 -0.8926 -1.4045 -0.7071
 6826SOL    HW231938   0.352   3.608   7.060  1.3248 -0.0999 -1.2305
 6827SOL     OW31939   3.915   2.499   2.608 -0.1579 -0.0827  0.5425
 6827SOL    HW131940   3.910   2.595   2.609 -0.5404 -0.0968 -0.1555
 6827SOL    HW231941   3.823   2.477   2.596  0.3881 -1.6626 -0.6327
 6828SOL     OW31942   2.550   2.847   7.130  0.4054 -0.6515  0.2476
 6828SOL    HW131943   2.518   2.839   7.220  0.3813 -0.5150  0.2518
 6828SOL    HW231944   2.474   2.861   7.075  0.2305 -1.1526  0.3613
 6829SOL     OW31945   1.499   1.246   6.975  0.0244 -0.8079  0.6006
 6829SOL    HW131946   1.579   1.275   7.020  0.2385 -0.1851 -0.1723
 6829SOL    HW231947   1.463   1.180   7.034 -1.2431 -0.7527 -0.1288
 6830SOL     OW31948   0.895   0.463  10.248  0.1657  0.8941  0.3412
 6830SOL    HW131949   0.931   0.398  10.189 -3.4951 -0.8686  0.0790
 6830SOL    HW231950   0.892   0.545  10.199 -1.2943  0.3486 -0.4444
 6831SOL     OW31951   1.073   2.561   6.278 -0.2667  0.4832  0.0210
 6831SOL    HW131952   1.127   2.614   6.337  0.2149 -0.7166  0.6595
 6831SOL    HW231953   1.035   2.508   6.347 -0.2706 -0.0318 -0.3709
 6832SOL     OW31954   4.109   2.845   7.699 -0.2538 -0.1150 -0.0184
 6832SOL    HW131955   4.101   2.940   7.706  1.7099  0.1206 -1.0719
 6832SOL    HW231956   4.148   2.833   7.786  1.3977 -1.4936 -0.9297
 6833SOL     OW31957   3.558   3.508  17.026  0.0473  0.2578  0.7924
 6833SOL    HW131958   3.591   3.525  17.114  2.2806 -0.8940  0.1699
 6833SOL    HW231959   3.557   3.412  17.034  1.8200  0.0984 -0.7821
 6834SOL     OW31960   3.699   0.882   8.694 -0.1587  0.4207 -0.4084
 6834SOL    HW131961   3.604   0.885   8.691 -0.1362  1.3905  0.0218
 6834SOL    HW231962   3.723   0.847   8.780  1.5052 -1.0606 -1.4621
 6835SOL     OW31963   4.449   4.155  16.045 -0.1708 -0.0385  0.0582
 6835SOL    HW131964   4.448   4.241  16.002  0.8522  0.9133  1.9525
 6835SOL    HW231965   4.356   4.151  16.066 -0.2227  0.4231 -0.0779
 6836SOL     OW31966   0.044   1.360  13.744  0.3933  0.4884 -0.3267
 6836SOL    HW131967   0.033   1.289  13.807  0.0233 -0.6222 -1.6537
 6836SOL    HW231968   0.099   1.314  13.681  0.5662  1.4115 -0.8513
 6837SOL     OW31969   3.580   0.739   0.975 -0.0253 -0.4003 -0.4592
 6837SOL    HW131970   3.664   0.698   0.956  0.0935  0.6359 -2.0953
 6837SOL    HW231971   3.557   0.676   1.044  1.4365 -0.0184  0.3709
 6838SOL     OW31972   0.548   3.548   0.439  0.1267  0.5513  0.5748
 6838SOL    HW131973   0.501   3.467   0.423 -1.9646  1.5478  1.5900
 6838SOL    HW231974   0.616   3.542   0.372  1.1316 -1.5281  1.7698
 6839SOL     OW31975   1.744   0.597  12.697 -0.2201 -0.5181  0.4607
 6839SOL    HW131976   1.680   0.528  12.709 -0.6321 -0.2752 -0.3319
 6839SOL    HW231977   1.702   0.668  12.745 -1.9091  0.3568 -2.2695
 6840SOL     OW31978   2.112   4.315   3.133  0.2607 -0.0214 -0.0409
 6840SOL    HW131979   2.192   4.270   3.158 -0.5801 -1.1835  0.5396
 6840SOL    HW231980   2.121   4.340   3.041  0.1866  2.6221  0.6549
 6841SOL     OW31981   4.332   3.548   9.335 -0.5654  0.0527  0.1751
 6841SOL    HW131982   4.278   3.469   9.341  0.6585 -0.8816 -0.9330
 6841SOL    HW231983   4.296   3.606   9.403 -0.3951 -1.1093  1.2621
 6842SOL     OW31984   4.712   1.403   7.552 -0.1785 -0.1583 -0.2254
 6842SOL    HW131985   4.706   1.343   7.478 -0.9417 -0.4485  0.0769
 6842SOL    HW231986   4.650   1.370   7.618 -1.4742 -1.0228 -1.8866
 6843SOL     OW31987   3.817   2.557  11.070 -0.7373  0.0496  0.0961
 6843SOL    HW131988   3.906   2.537  11.040  0.2969  1.4993  2.2332
 6843SOL    HW231989   3.830   2.642  11.111  0.4262 -0.7954  1.4467
 6844SOL     OW31990   3.201   3.610   8.880  0.3773  0.8702  0.2961
 6844SOL    HW131991   3.215   3.680   8.944  0.0439  0.4497  0.8352
 6844SOL    HW231992   3.169   3.666   8.810  1.3081  1.3621  0.2676
 6845SOL     OW31993   2.248   1.620   7.214  0.0420  0.0414 -0.0882
 6845SOL    HW131994   2.220   1.554   7.150 -2.8566 -0.2495  1.5008
 6845SOL    HW231995   2.158   1.647   7.231 -0.1758 -1.0586  0.5393
 6846SOL     OW31996   0.173   0.771   5.151  0.3948 -0.2087  0.9029
 6846SOL    HW131997   0.178   0.862   5.123  2.2969 -0.2331  1.1587
 6846SOL    HW231998   0.098   0.770   5.210 -0.5962 -0.1435 -0.3425
 6847SOL     OW31999   2.374   2.686   7.732 -1.0817  0.8705 -0.1495
 6847SOL    HW132000   2.344   2.685   7.823  5.0238  0.2291  1.8671
 6847SOL    HW232001   2.447   2.626   7.746  0.6166  2.4265 -2.3794
 6848SOL     OW32002   4.092   2.975   3.845 -0.5173  0.2624  0.0162
 6848SOL    HW132003   4.070   2.897   3.895 -2.7267  0.4749 -0.5982
 6848SOL    HW232004   4.146   2.951   3.770  0.4146 -2.0557  1.4323
 6849SOL     OW32005   1.194   4.369   1.485 -0.3836 -0.1136 -0.0050
 6849SOL    HW132006   1.202   4.405   1.574 -0.4051 -0.2915  0.0696
 6849SOL    HW232007   1.268   4.310   1.477 -0.2694 -0.0200  0.3360
 6850SOL     OW32008   0.604   0.796   4.696 -0.0551  0.4478  0.5262
 6850SOL    HW132009   0.576   0.843   4.775 -0.9593 -0.7267  0.9217
 6850SOL    HW232010   0.636   0.865   4.639  1.5019 -1.2575 -0.6630
 6851SOL     OW32011   1.653   4.607  10.549 -0.3045 -0.1542 -0.1886
 6851SOL    HW132012   1.601   4.682  10.578 -0.0287  0.2151 -0.6547
 6851SOL    HW232013   1.711   4.651  10.487  0.3282 -0.2111  0.3649
 6852SOL     OW32014   0.795   4.234   2.698  0.2685 -0.4590  0.2942
 6852SOL    HW132015   0.889   4.235   2.717  0.1056 -1.5403  1.1474
 6852SOL    HW232016   0.797   4.184   2.617  0.6247 -1.7444  1.0867
 6853SOL     OW32017   0.377   3.567  13.925 -0.4648  0.0982 -0.8850
 6853SOL    HW132018   0.290   3.554  13.961  0.8152  2.0460  3.0188
 6853SOL    HW232019   0.378   3.657  13.891 -0.7831  0.7335  0.7449
 6854SOL     OW32020   1.695   1.752   5.359 -0.4978 -0.6250 -0.1925
 6854SOL    HW132021   1.755   1.734   5.286 -0.3104 -1.3625  0.1463
 6854SOL    HW232022   1.700   1.674   5.414  1.4782 -0.2746  0.1124
 6855SOL     OW32023   2.494   2.492  15.134 -0.3802  0.3123  0.0531
 6855SOL    HW132024   2.508   2.485  15.229  0.7120 -1.0627 -0.2095
 6855SOL    HW232025   2.432   2.564  15.141  2.1985  2.6868 -1.2698
 6856SOL     OW32026   1.582   4.585   1.894  0.0113 -0.1711 -0.3499
 6856SOL    HW132027   1.571   4.653   1.960 -0.4258  0.9155 -1.5496
 6856SOL    HW232028   1.676   4.563   1.888 -0.3217 -2.0094  1.2591
 6857SOL     OW32029   3.813   0.239   8.472  0.0613  0.3552 -0.0398
 6857SOL    HW132030   3.721   0.256   8.488  0.5598  1.0760  2.0870
 6857SOL    HW232031   3.825   0.189   8.553 -0.3927 -1.6531 -1.2049
 6858SOL     OW32032   3.754   1.924  15.821  0.3442 -0.4975 -0.1405
 6858SOL    HW132033   3.708   1.921  15.905  0.3703 -0.3046 -0.1213
 6858SOL    HW232034   3.797   1.838  15.823 -1.3069 -1.3679 -1.5273
 6859SOL     OW32035   1.145   3.243   2.551  0.0053  0.1378 -0.1436
 6859SOL    HW132036   1.098   3.274   2.473 -0.4248  2.5959  1.1185
 6859SOL    HW232037   1.199   3.319   2.573  0.5681  0.5946 -2.9790
 6860SOL     OW32038   4.094   1.474  12.928  0.0542 -0.3481 -0.3642
 6860SOL    HW132039   4.186   1.467  12.956 -0.4063 -2.3210  0.6511
 6860SOL    HW232040   4.096   1.516  12.842  2.0984  0.3474  0.0107
 6861SOL     OW32041   1.352   3.214   5.130 -0.2114 -0.1991 -0.2123
 6861SOL    HW132042   1.263   3.240   5.106 -0.1326 -0.6909 -1.0193
 6861SOL    HW232043   1.387   3.190   5.045 -3.1180 -2.0219 -0.8863
 6862SOL     OW32044   2.257   1.850   4.906 -0.0990  0.0815 -0.2355
 6862SOL    HW132045   2.230   1.763   4.935 -0.8868 -0.0612 -1.3885
 6862SOL    HW232046   2.170   1.890   4.900  0.4298  1.2797  0.0971
 6863SOL     OW32047   0.186   0.582   9.283 -0.3368  0.8313 -0.2839
 6863SOL    HW132048   0.131   0.649   9.323  1.9887  1.8998  1.1685
 6863SOL    HW232049   0.240   0.548   9.354 -2.5175 -0.0549  0.9348
 6864SOL     OW32050   4.058   4.469  13.630  0.6555 -0.9354  0.1942
 6864SOL    HW132051   4.128   4.521  13.591 -0.1467  0.4061  0.5558
 6864SOL    HW232052   4.029   4.408  13.563 -0.1160  0.8233 -1.0738
 6865SOL     OW32053   0.960   2.207   7.504  0.2143  0.4883 -0.4375
 6865SOL    HW132054   0.937   2.221   7.413 -0.3325  1.2416 -0.1833
 6865SOL    HW232055   1.055   2.203   7.495  0.2077 -0.8769  0.1230
 6866SOL     OW32056   3.592   1.398   3.834 -0.2914  0.1902 -0.3580
 6866SOL    HW132057   3.651   1.368   3.903 -1.2163  0.3623  0.4985
 6866SOL    HW232058   3.654   1.431   3.768 -0.3358  0.1556 -0.4167
 6867SOL     OW32059   4.626   0.945   3.938 -0.1551  0.3791 -0.1576
 6867SOL    HW132060   4.577   0.945   4.020  2.3967  0.4080  1.3725
 6867SOL    HW232061   4.588   1.017   3.887  0.3088  1.4419  0.9983
 6868SOL     OW32062   0.154   1.138   2.862  0.1742 -0.2654  0.5803
 6868SOL    HW132063   0.173   1.059   2.811 -1.4466 -0.1506 -0.1753
 6868SOL    HW232064   0.179   1.109   2.950 -0.3187 -0.2485  0.7224
 6869SOL     OW32065   0.618   4.538  13.266 -0.1021 -0.1550 -0.8260
 6869SOL    HW132066   0.544   4.557  13.208 -0.2605 -0.2728 -0.6604
 6869SOL    HW232067   0.572   4.541  13.350 -0.5185 -1.8324 -0.9947
 6870SOL     OW32068   4.279   0.545  14.620 -0.4130 -0.0717  0.6406
 6870SOL    HW132069   4.275   0.526  14.527  2.4450  3.4966 -0.2148
 6870SOL    HW232070   4.198   0.509  14.657 -0.4052 -1.8312 -1.0897
 6871SOL     OW32071   3.810   2.176   2.103  0.0478  0.3482  0.2496
 6871SOL    HW132072   3.821   2.177   2.007  0.9571 -0.4620  0.3471
 6871SOL    HW232073   3.893   2.211   2.134  0.7710 -1.4091  0.3032
 6872SOL     OW32074   1.817   3.961   5.613 -0.4297  0.0054  0.7285
 6872SOL    HW132075   1.884   3.902   5.647  0.2529 -0.0081 -0.6818
 6872SOL    HW232076   1.815   3.938   5.521  0.2198  0.1797  0.6713
 6873SOL     OW32077   1.638   3.492   2.755 -0.1380 -0.0194  0.6479
 6873SOL    HW132078   1.733   3.477   2.750 -0.0873  1.2047 -1.9655
 6873SOL    HW232079   1.623   3.462   2.666 -2.1769 -0.8870  1.2857
 6874SOL     OW32080   2.310   2.544   8.744  0.6091  0.0900  0.5573
 6874SOL    HW132081   2.321   2.638   8.752  0.3948  0.1677 -0.1478
 6874SOL    HW232082   2.221   2.542   8.710  2.0968 -0.3910 -3.3049
 6875SOL     OW32083   4.072   0.189  15.682 -0.2603  0.2846 -0.1439
 6875SOL    HW132084   4.028   0.135  15.748  0.4660 -0.9812 -0.6846
 6875SOL    HW232085   4.000   0.198  15.619 -1.0018 -0.6025  0.5683
 6876SOL     OW32086   2.759   2.389  15.447 -0.3958  0.8070 -0.3615
 6876SOL    HW132087   2.791   2.316  15.500 -1.8566 -0.3033 -1.0091
 6876SOL    HW232088   2.812   2.461  15.481  0.8002  0.0619 -0.6700
 6877SOL     OW32089   0.513   1.337   5.464  0.1517 -0.1585  0.0190
 6877SOL    HW132090   0.510   1.301   5.376  3.1694  1.4584 -0.7385
 6877SOL    HW232091   0.423   1.354   5.490 -0.1090 -0.8074 -0.4728
 6878SOL     OW32092   2.797   1.651   6.487 -0.2368  0.1589 -0.0952
 6878SOL    HW132093   2.805   1.664   6.581  2.6276 -0.4816 -0.2516
 6878SOL    HW232094   2.722   1.703   6.457  0.1211  0.4601 -0.4719
 6879SOL     OW32095   4.417   4.136   5.468 -0.5200  0.3292 -0.3081
 6879SOL    HW132096   4.361   4.059   5.452  2.0227 -1.5660 -0.1654
 6879SOL    HW232097   4.361   4.206   5.436 -0.6719 -0.2364 -1.2980
 6880SOL     OW32098   4.124   3.925   6.089  0.4342 -0.2454  0.6636
 6880SOL    HW132099   4.210   3.945   6.050 -0.6502 -1.6538 -2.4229
 6880SOL    HW232100   4.112   3.832   6.072  2.0333 -0.8291  2.7300
 6881SOL     OW32101   1.088   3.530   3.141  0.1669 -1.1748  0.2703
 6881SOL    HW132102   1.179   3.559   3.140  0.1288 -1.0125  1.2473
 6881SOL    HW232103   1.051   3.617   3.128 -0.8656 -1.6855 -0.2117
 6882SOL     OW32104   0.921   3.332  16.217  0.2170 -0.1874 -0.1348
 6882SOL    HW132105   0.909   3.294  16.130 -0.6700 -0.3504  0.0653
 6882SOL    HW232106   0.838   3.374  16.238  0.6713  1.8397 -2.4086
 6883SOL     OW32107   2.249   1.772   3.623 -0.4118  0.1495 -0.1640
 6883SOL    HW132108   2.287   1.797   3.708  1.4461 -1.2466 -0.5943
 6883SOL    HW232109   2.159   1.752   3.650 -0.1389 -0.9335 -0.0851
 6884SOL     OW32110   1.864   0.809   5.316 -0.0159  0.0995 -0.1781
 6884SOL    HW132111   1.923   0.837   5.246  2.0244  0.4046  1.6827
 6884SOL    HW232112   1.858   0.715   5.302 -4.6612  0.1285  1.5393
 6885SOL     OW32113   2.685   0.195   7.154  0.0133  0.3421 -0.0576
 6885SOL    HW132114   2.718   0.274   7.197  0.6456 -0.0409  0.1661
 6885SOL    HW232115   2.746   0.128   7.185 -1.3206 -0.8922 -0.0694
 6886SOL     OW32116   1.690   3.901   6.943 -0.1221  0.1658 -0.1018
 6886SOL    HW132117   1.755   3.832   6.934 -0.1493  0.0658  0.4681
 6886SOL    HW232118   1.635   3.871   6.871 -0.5863  1.0480 -0.1228
 6887SOL     OW32119   2.972   1.039  16.724  0.7412 -0.5484 -0.4337
 6887SOL    HW132120   3.016   1.058  16.806  0.9436 -0.5294 -0.5464
 6887SOL    HW232121   2.879   1.038  16.746  0.0795 -0.2901 -3.1305
 6888SOL     OW32122   3.429   0.587   8.683 -0.1164 -0.4029  0.0421
 6888SOL    HW132123   3.479   0.552   8.756 -0.3229  0.9679  0.8251
 6888SOL    HW232124   3.347   0.541   8.701 -0.9012  0.8695 -0.3360
 6889SOL     OW32125   1.250   0.914  12.890 -0.0135 -0.1847 -0.0294
 6889SOL    HW132126   1.306   0.902  12.813 -0.2576  1.1546 -0.4188
 6889SOL    HW232127   1.229   1.007  12.886  0.7740  0.0961  2.6181
 6890SOL     OW32128   1.516   1.198   4.864  0.6943  0.7114  0.0126
 6890SOL    HW132129   1.452   1.156   4.807  1.7478 -1.2719  0.3141
 6890SOL    HW232130   1.492   1.288   4.842  0.0658  0.4675 -0.2841
 6891SOL     OW32131   3.029   1.651   6.031 -0.5652 -0.8180 -0.3202
 6891SOL    HW132132   3.036   1.615   6.119 -1.7143  1.1153  0.5423
 6891SOL    HW232133   3.020   1.569   5.982  0.9520 -2.8619  2.7897
 6892SOL     OW32134   0.604   3.563   1.055 -0.0207 -0.0470 -0.5641
 6892SOL    HW132135   0.683   3.545   1.105 -1.0066 -2.0926  0.2199
 6892SOL    HW232136   0.547   3.590   1.126  0.2007 -0.5319 -0.2062
 6893SOL     OW32137   0.608   1.281   1.837 -0.6702  0.2477 -0.1795
 6893SOL    HW132138   0.672   1.210   1.839 -3.2182 -2.0455 -0.4336
 6893SOL    HW232139   0.595   1.278   1.742 -0.2397 -0.1968 -0.2251
 6894SOL     OW32140   3.436   3.362   6.818 -0.3412 -0.1705 -0.1911
 6894SOL    HW132141   3.447   3.276   6.776 -0.5547 -1.0028  1.4526
 6894SOL    HW232142   3.524   3.369   6.856 -0.6685 -0.0284  0.5409
 6895SOL     OW32143   2.185   4.527  16.409  0.7332 -0.0405  0.5179
 6895SOL    HW132144   2.226   4.524  16.496 -2.6902  1.0413  2.2067
 6895SOL    HW232145   2.215   4.609  16.371  2.6515 -1.4671 -1.0226
 6896SOL     OW32146   2.165   2.067  12.723 -0.2421 -0.1674  0.4048
 6896SOL    HW132147   2.249   2.090  12.683  0.9329 -2.2688  1.6892
 6896SOL    HW232148   2.136   1.985  12.684 -0.7175  1.2166 -2.2213
 6897SOL     OW32149   4.402   3.535   7.540 -0.7585  0.2703  0.1479
 6897SOL    HW132150   4.331   3.490   7.584 -0.9535  0.3645 -0.0700
 6897SOL    HW232151   4.449   3.459   7.504  0.1278  1.2384 -0.7636
 6898SOL     OW32152   3.728   1.479   4.433 -0.2849  0.5871  0.2619
 6898SOL    HW132153   3.745   1.556   4.487  1.1878  1.4623 -1.4622
 6898SOL    HW232154   3.776   1.492   4.352  1.6391  0.3026  1.3697
 6899SOL     OW32155   0.274   1.471  16.404 -0.2677  0.5710  0.1267
 6899SOL    HW132156   0.197   1.432  16.444 -0.9473  2.3916  0.6303
 6899SOL    HW232157   0.239   1.524  16.332  1.4412  1.9262  0.2610
 6900SOL     OW32158   0.575   3.564   8.509 -0.0950 -0.2470  0.1389
 6900SOL    HW132159   0.525   3.511   8.570  1.2071 -3.6697 -1.7244
 6900SOL    HW232160   0.658   3.560   8.557 -0.4036  2.1851  0.8673
 6901SOL     OW32161   0.281   0.319   2.407 -0.1456  0.3662 -0.0704
 6901SOL    HW132162   0.324   0.276   2.482  1.4457  0.4857 -0.9187
 6901SOL    HW232163   0.324   0.404   2.398 -0.5245  0.6907  1.1020
 6902SOL     OW32164   1.242   4.299   7.602  0.2012  0.9045  0.4655
 6902SOL    HW132165   1.186   4.318   7.527  0.6605  0.4839  0.0207
 6902SOL    HW232166   1.296   4.225   7.574 -0.5688  1.6376 -2.9615
 6903SOL     OW32167   3.025   1.500   0.009  1.0482 -0.1198 -0.5498
 6903SOL    HW132168   3.110   1.523   0.045  0.5983 -0.3523  0.6669
 6903SOL    HW232169   2.974   1.551   0.072  0.4578 -1.4207  0.0312
 6904SOL     OW32170   1.366   0.026   9.336 -0.0287  0.3194 -0.6005
 6904SOL    HW132171   1.404   0.002   9.421 -1.4042 -1.7126 -0.5650
 6904SOL    HW232172   1.420   0.104   9.321  3.2621 -1.7699  0.1940
 6905SOL     OW32173   1.989   1.246   5.561 -0.4821 -0.3305 -0.3059
 6905SOL    HW132174   1.954   1.169   5.515 -2.6974  1.1507 -1.0735
 6905SOL    HW232175   1.992   1.209   5.650 -0.4310  1.2497  0.3469
 6906SOL     OW32176   1.381   2.193   7.753 -0.4473  0.0700  0.5872
 6906SOL    HW132177   1.461   2.235   7.783  1.4076 -1.8075 -1.8250
 6906SOL    HW232178   1.403   2.164   7.665 -2.3826  1.0025 -0.1983
 6907SOL     OW32179   3.928   4.245   7.287  0.3121 -0.1414  0.0761
 6907SOL    HW132180   3.840   4.207   7.294  0.3138 -0.1060  0.2883
 6907SOL    HW232181   3.903   4.320   7.233  1.3305 -1.1758 -1.8252
 6908SOL     OW32182   1.291   2.017  14.223  0.3967 -0.3845 -0.3087
 6908SOL    HW132183   1.271   2.092  14.166  0.0795 -0.4152 -0.2405
 6908SOL    HW232184   1.382   2.007  14.196  0.6442 -0.1201  0.4250
 6909SOL     OW32185   3.692   2.415   3.662 -0.1237  0.3969  0.2462
 6909SOL    HW132186   3.717   2.487   3.605  0.9038  0.1586  0.4020
 6909SOL    HW232187   3.779   2.383   3.684 -0.3461  0.1634  0.7907
 6910SOL     OW32188   4.273   0.250   8.591 -0.0748 -0.2385  0.1283
 6910SOL    HW132189   4.293   0.158   8.572 -0.8372 -0.5782  0.9413
 6910SOL    HW232190   4.355   0.290   8.562 -0.7428  1.3994  0.4917
 6911SOL     OW32191   3.477   4.326   7.263 -0.0147 -0.0283 -0.0264
 6911SOL    HW132192   3.537   4.298   7.332 -1.5085  0.7057  1.5484
 6911SOL    HW232193   3.393   4.302   7.303  1.3514 -4.0169  0.4592
 6912SOL     OW32194   3.277   2.829   5.346  0.6689 -0.0560  0.4880
 6912SOL    HW132195   3.249   2.742   5.320  0.3830 -0.0159  0.6654
 6912SOL    HW232196   3.212   2.883   5.302 -0.5554  0.1520  2.5347
 6913SOL     OW32197   0.649   3.587   4.479  0.3526 -0.9405 -0.2210
 6913SOL    HW132198   0.690   3.506   4.451  0.1981 -1.3936  0.8410
 6913SOL    HW232199   0.631   3.567   4.571  0.7851 -1.0346 -0.1572
 6914SOL     OW32200   2.698   1.229   2.865 -0.0797  0.3330  0.6638
 6914SOL    HW132201   2.617   1.186   2.892 -0.2699  0.6802  0.6376
 6914SOL    HW232202   2.662   1.309   2.827 -1.1733  0.7632  2.6186
 6915SOL     OW32203   4.437   2.540   9.544 -0.1728 -0.8508 -0.3453
 6915SOL    HW132204   4.436   2.636   9.547 -0.9743 -0.8950  0.6227
 6915SOL    HW232205   4.416   2.521   9.635 -1.2869 -1.7356 -0.7805
 6916SOL     OW32206   1.663   4.212   5.930 -0.3424 -0.8163  0.2982
 6916SOL    HW132207   1.600   4.246   5.866  1.3159 -1.5226 -1.7042
 6916SOL    HW232208   1.606   4.137   5.948 -1.1779 -0.1778  0.3535
 6917SOL     OW32209   0.792   3.937   4.122 -0.4899  0.0998 -0.1805
 6917SOL    HW132210   0.727   3.921   4.191 -0.0198 -5.0877 -0.9051
 6917SOL    HW232211   0.795   3.854   4.074  0.8907 -1.1709  2.0947
 6918SOL     OW32212   4.275   2.565   8.358  0.1020  0.0944 -0.1640
 6918SOL    HW132213   4.189   2.562   8.317  0.0208 -3.3283  0.2420
 6918SOL    HW232214   4.302   2.474   8.348  3.7591  1.0327  0.9609
 6919SOL     OW32215   1.956   3.628   6.932  0.1144  0.4660  0.3844
 6919SOL    HW132216   1.885   3.616   6.869  0.0162  0.2640  0.5351
 6919SOL    HW232217   1.909   3.641   7.014 -1.1319 -2.0038  0.0610
 6920SOL     OW32218   2.567   1.076  16.122 -0.1766  0.1566  0.1560
 6920SOL    HW132219   2.657   1.054  16.098 -0.9474 -0.1233 -2.4016
 6920SOL    HW232220   2.522   1.068  16.038  1.9390  0.4975 -0.9803
 6921SOL     OW32221   2.737   3.295   2.313  0.4342  0.6819  0.1355
 6921SOL    HW132222   2.750   3.225   2.376 -2.3498 -0.1720 -0.2158
 6921SOL    HW232223   2.729   3.245   2.232 -0.5291  1.6213 -0.3498
 6922SOL     OW32224   3.527   0.658  13.561  0.4027  0.6048  0.1831
 6922SOL    HW132225   3.497   0.745  13.589  0.8441  0.4474  1.1500
 6922SOL    HW232226   3.613   0.666  13.603 -0.0279  1.3944  0.9298
 6923SOL     OW32227   4.359   3.956   3.942 -0.6711 -0.0963 -0.0090
 6923SOL    HW132228   4.275   3.976   3.984 -0.5547  1.6681 -0.5953
 6923SOL    HW232229   4.330   3.983   3.854  1.8053  0.3445 -0.6806
 6924SOL     OW32230   2.821   1.861   4.537 -0.6187 -0.0254 -0.5043
 6924SOL    HW132231   2.798   1.768   4.526 -0.6070 -0.2269  1.2618
 6924SOL    HW232232   2.734   1.890   4.565 -0.8868 -1.2021 -0.1117
 6925SOL     OW32233   0.519   4.060   0.205  0.4360  1.0695 -0.3344
 6925SOL    HW132234   0.452   4.122   0.233  0.3644  0.7721  0.1414
 6925SOL    HW232235   0.527   4.000   0.279 -1.8531  0.9454 -0.1903
 6926SOL     OW32236   0.794   2.317   4.019  0.4943 -0.2534 -0.2223
 6926SOL    HW132237   0.843   2.377   3.962  2.4946  0.2535  2.0319
 6926SOL    HW232238   0.845   2.237   4.017  0.3005 -0.3688 -0.5289
 6927SOL     OW32239   4.713   3.079  17.363 -0.4435 -0.1258 -0.0850
 6927SOL    HW132240   4.676   3.004  17.317 -1.8099 -0.5029  1.6100
 6927SOL    HW232241   0.082   3.077  17.352 -0.3820 -1.5051  0.7155
 6928SOL     OW32242   1.717   4.720   0.629 -0.7719  0.1444  0.2530
 6928SOL    HW132243   1.744   4.634   0.663 -1.0823  0.6087  1.6563
 6928SOL    HW232244   1.696   4.700   0.538  0.7359 -2.8452  0.5708
 6929SOL     OW32245   2.721   1.506  12.214  0.1025 -0.0451  0.5900
 6929SOL    HW132246   2.632   1.471  12.212 -0.7796  2.3278 -1.4923
 6929SOL    HW232247   2.733   1.537  12.304  1.1701  1.2247  0.0228
 6930SOL     OW32248   0.768   4.404   1.489  0.2566 -0.1092  0.5241
 6930SOL    HW132249   0.790   4.335   1.427 -1.0867  0.5114 -0.6338
 6930SOL    HW232250   0.832   4.387   1.558 -0.8211  1.2173  1.8672
 6931SOL     OW32251   2.664   2.665   2.901 -0.1525 -0.2787  0.3067
 6931SOL    HW132252   2.658   2.739   2.841 -3.4175 -0.6110  0.2561
 6931SOL    HW232253   2.581   2.618   2.897 -1.0471  1.3300  0.2084
 6932SOL     OW32254   0.670   3.439  16.221  0.2419  0.2246 -1.2201
 6932SOL    HW132255   0.578   3.436  16.244  1.3939 -0.3082  3.3044
 6932SOL    HW232256   0.665   3.461  16.128 -0.9910  1.7369 -0.8000
 6933SOL     OW32257   0.361   2.141   1.742 -0.5707  0.2059 -0.5035
 6933SOL    HW132258   0.360   2.066   1.802 -0.6513  0.7350  0.1612
 6933SOL    HW232259   0.423   2.202   1.783 -2.4558  2.2039 -0.6186
 6934SOL     OW32260   1.115   0.132   7.663 -0.0283  0.2341 -0.0047
 6934SOL    HW132261   1.207   0.121   7.688  0.0426 -1.0497 -0.8101
 6934SOL    HW232262   1.081   0.187   7.733  0.8510 -1.2301  1.5695
 6935SOL     OW32263   1.602   4.637  10.233  0.3135  0.0534 -0.8055
 6935SOL    HW132264   1.603   4.669  10.143  1.1845 -0.2048 -0.8889
 6935SOL    HW232265   1.683   4.669  10.274  0.8128  0.5914 -2.2059
 6936SOL     OW32266   0.501   3.838   0.372  0.5869 -0.1221  0.3858
 6936SOL    HW132267   0.520   3.800   0.457 -1.0615  0.3655  0.9742
 6936SOL    HW232268   0.451   3.767   0.332 -1.6257  2.2182 -1.0007
 6937SOL     OW32269   2.222   3.535   6.031 -0.0359  0.1125  0.1166
 6937SOL    HW132270   2.256   3.588   6.104  3.2759 -1.8868  0.0376
 6937SOL    HW232271   2.298   3.479   6.014  1.7263  2.4318  0.2463
 6938SOL     OW32272   2.522   2.710   6.750  0.4513 -0.0398 -0.5745
 6938SOL    HW132273   2.567   2.688   6.669 -0.1465  0.4880 -1.0480
 6938SOL    HW232274   2.512   2.622   6.788 -0.2015 -0.1436 -0.9897
 6939SOL     OW32275   0.824   2.997   2.133 -0.0892  0.1470  0.1606
 6939SOL    HW132276   0.753   2.935   2.151 -0.0658  0.4043  1.1187
 6939SOL    HW232277   0.858   2.962   2.050 -0.7847 -0.7634  0.2549
 6940SOL     OW32278   0.256   0.588   6.650  0.2757 -0.3581 -0.1551
 6940SOL    HW132279   0.323   0.562   6.587  1.5970 -1.0714  1.5267
 6940SOL    HW232280   0.222   0.499   6.651  0.7357 -0.5593 -2.1729
 6941SOL     OW32281   4.211   1.447   2.121  0.7333  0.4930 -0.7578
 6941SOL    HW132282   4.219   1.439   2.026  1.1365 -1.0859 -0.5793
 6941SOL    HW232283   4.291   1.495   2.144  1.8115 -1.8158  0.3526
 6942SOL     OW32284   2.565   1.916   8.283  0.1086 -0.6302 -0.2891
 6942SOL    HW132285   2.636   1.958   8.330  0.5479  0.4011 -1.8805
 6942SOL    HW232286   2.519   1.997   8.260  0.8610  0.3510  1.6972
 6943SOL     OW32287   0.847   4.193  11.939  0.0427  0.1051  0.4662
 6943SOL    HW132288   0.941   4.196  11.923  0.0484 -1.0638  0.2396
 6943SOL    HW232289   0.842   4.106  11.978 -1.1427  0.2911  0.7228
 6944SOL     OW32290   3.052   2.723   8.410  0.0187  0.1573  0.4496
 6944SOL    HW132291   3.103   2.798   8.381  1.8796 -0.5889  1.7609
 6944SOL    HW232292   2.991   2.758   8.474 -1.5775 -0.2106 -0.8895
 6945SOL     OW32293   1.703   0.654   4.325  0.4627  0.2075  0.7617
 6945SOL    HW132294   1.649   0.731   4.307 -1.1350 -1.4825 -1.7216
 6945SOL    HW232295   1.642   0.580   4.327  0.7273 -0.0246  0.3030
 6946SOL     OW32296   3.928   2.364  17.637 -0.1494 -0.4073 -0.3217
 6946SOL    HW132297   3.968   2.298  17.694  2.5738  1.2877 -0.2181
 6946SOL    HW232298   3.834   2.356  17.653  0.0924 -0.2766  1.2356
 6947SOL     OW32299   0.797   3.988   0.646  1.0134 -0.0232 -0.4548
 6947SOL    HW132300   0.737   4.061   0.635  1.8484  0.8330  0.6438
 6947SOL    HW232301   0.730   3.924   0.669  0.7747 -0.4930 -2.4263
 6948SOL     OW32302   1.340   1.067   7.148  0.5113  0.0722 -0.8839
 6948SOL    HW132303   1.347   0.991   7.206 -0.3282 -0.4496 -1.4667
 6948SOL    HW232304   1.249   1.095   7.162  0.1739  0.1560 -3.2674
 6949SOL     OW32305   2.963   0.236   2.918  0.2747 -0.2929  0.1233
 6949SOL    HW132306   3.023   0.187   2.862 -1.9698  2.1124 -4.3462
 6949SOL    HW232307   2.975   0.195   3.004  0.6129  1.4654  0.9163
 6950SOL     OW32308   1.427   3.108  14.019  0.4144  0.2540 -0.1573
 6950SOL    HW132309   1.351   3.152  13.982  0.6980  1.1836  0.3415
 6950SOL    HW232310   1.466   3.171  14.081 -3.0294  0.7871  1.4392
 6951SOL     OW32311   1.301   2.520   5.536  0.1183 -0.1128  0.0031
 6951SOL    HW132312   1.320   2.590   5.473 -1.3709 -0.2404 -0.5958
 6951SOL    HW232313   1.373   2.463   5.509 -0.4564 -1.5216  1.4543
 6952SOL     OW32314   0.909   3.399   2.361  0.3412  0.5858  0.1147
 6952SOL    HW132315   0.844   3.340   2.322 -2.3076  4.0374 -0.6654
 6952SOL    HW232316   0.964   3.412   2.283  0.0918 -0.5715 -0.2661
 6953SOL     OW32317   3.589   3.174   5.189 -0.2063 -0.0426  0.3176
 6953SOL    HW132318   3.604   3.098   5.245  2.8524  0.6395  0.4159
 6953SOL    HW232319   3.680   3.192   5.163 -0.8632 -0.0473 -2.0281
 6954SOL     OW32320   0.297   1.483   9.303 -0.7555  0.0018 -0.3127
 6954SOL    HW132321   0.286   1.575   9.325  0.4705  0.1670 -0.3971
 6954SOL    HW232322   0.367   1.461   9.364 -1.2321  0.0876  0.2566
 6955SOL     OW32323   2.940   3.958  10.923 -0.6944 -0.1776 -0.6836
 6955SOL    HW132324   2.932   3.864  10.941 -1.9039 -0.0943 -0.7902
 6955SOL    HW232325   2.978   3.973  10.837  1.9881  3.3412  1.1346
 6956SOL     OW32326   4.201   4.647  13.479  0.3325  0.3556 -0.0398
 6956SOL    HW132327   4.235   4.609  13.398  1.6932 -2.5470  1.8863
 6956SOL    HW232328   4.285   4.669  13.522  0.3088 -1.2188  0.8140
 6957SOL     OW32329   0.532   2.900  14.465  0.0319  0.2507 -0.0724
 6957SOL    HW132330   0.517   2.853  14.383 -0.1759  1.5578 -0.7943
 6957SOL    HW232331   0.440   2.913  14.491  0.2164  1.0037  0.1969
 6958SOL     OW32332   3.192   4.035   4.875  0.5256  0.2074  0.0582
 6958SOL    HW132333   3.191   3.950   4.921 -0.9018  0.6041  0.7643
 6958SOL    HW232334   3.266   4.070   4.924  0.3013  0.2457  0.3702
 6959SOL     OW32335   0.502   0.630  14.048  0.4720 -0.1777 -0.0751
 6959SOL    HW132336   0.488   0.716  14.088  0.8145  0.9890 -2.4766
 6959SOL    HW232337   0.589   0.642  14.009  0.1912  0.2844 -0.5463
 6960SOL     OW32338   1.283   2.713  15.178  0.0202 -0.4446  0.2901
 6960SOL    HW132339   1.361   2.681  15.133 -1.1816 -0.8099 -1.5723
 6960SOL    HW232340   1.296   2.684  15.268  4.0930  0.4162 -0.0434
 6961SOL     OW32341   2.752   2.492  11.793 -0.0172  0.5717 -0.1460
 6961SOL    HW132342   2.743   2.437  11.715 -0.2908 -1.3301  1.2093
 6961SOL    HW232343   2.674   2.546  11.784  1.9817  3.6210  0.9012
 6962SOL     OW32344   4.052   4.413  12.257  0.2279  0.1079  0.4245
 6962SOL    HW132345   4.076   4.321  12.250 -0.6580 -0.1021  0.1369
 6962SOL    HW232346   4.008   4.428  12.173  1.9974 -2.9334 -1.0514
 6963SOL     OW32347   4.179   0.409  13.077 -0.1603 -0.0025 -0.7492
 6963SOL    HW132348   4.140   0.346  13.137  0.0737  0.1863 -0.4021
 6963SOL    HW232349   4.264   0.424  13.118  0.6022 -3.3123 -1.0696
 6964SOL     OW32350   2.737   4.026   2.582 -0.0872  0.1031 -0.0347
 6964SOL    HW132351   2.644   4.017   2.561  0.0754 -1.4372 -0.0929
 6964SOL    HW232352   2.753   3.944   2.628 -1.0446 -0.0282  0.0809
 6965SOL     OW32353   3.295   2.555   4.344 -0.4531  0.4769 -0.7225
 6965SOL    HW132354   3.277   2.555   4.438  3.1883  1.2701 -0.0288
 6965SOL    HW232355   3.238   2.480   4.323 -0.9515 -0.1217  2.7797
 6966SOL     OW32356   2.975   3.169  11.631 -0.0541  0.1922 -0.1960
 6966SOL    HW132357   3.016   3.088  11.603 -0.7502  0.1091 -0.9756
 6966SOL    HW232358   2.985   3.211  11.546  0.8773  1.0670  0.3524
 6967SOL     OW32359   1.680   2.785   2.168 -0.3185  0.1395 -0.1982
 6967SOL    HW132360   1.742   2.821   2.105 -1.4965  0.7083 -1.0504
 6967SOL    HW232361   1.647   2.712   2.115  1.7490 -0.5880 -0.4641
 6968SOL     OW32362   2.706   3.721   9.312  0.3737 -0.0071 -0.9131
 6968SOL    HW132363   2.764   3.763   9.376 -1.3593  2.8532 -1.2564
 6968SOL    HW232364   2.660   3.796   9.277 -1.1127 -0.8227 -0.7128
 6969SOL     OW32365   2.531   2.186  12.352 -0.6579 -0.5941 -0.2376
 6969SOL    HW132366   2.616   2.219  12.321 -1.9653 -0.3474 -3.5329
 6969SOL    HW232367   2.533   2.093  12.330  1.5536 -0.7267  0.5419
 6970SOL     OW32368   2.692   0.894   3.069  0.8064 -0.1254 -0.2179
 6970SOL    HW132369   2.756   0.825   3.089  0.6655 -0.4588 -0.9460
 6970SOL    HW232370   2.661   0.848   2.992  0.2846  1.3198 -0.8723
 6971SOL     OW32371   4.347   4.353  10.484 -0.3061  0.1310 -0.0983
 6971SOL    HW132372   4.408   4.426  10.494  0.9392 -0.8080 -0.8724
 6971SOL    HW232373   4.378   4.319  10.400 -1.6423 -0.0685 -0.5075
 6972SOL     OW32374   2.643   1.961   5.447  0.2467 -0.5372 -0.1511
 6972SOL    HW132375   2.698   1.959   5.526 -0.7626  1.6803  0.6264
 6972SOL    HW232376   2.592   2.041   5.456  0.1457 -0.3664 -2.1935
 6973SOL     OW32377   2.408   2.828   9.729  0.0520 -0.0240 -0.4657
 6973SOL    HW132378   2.339   2.767   9.757 -0.3641  0.8775  0.4798
 6973SOL    HW232379   2.469   2.762   9.699 -0.2175  0.0867 -1.2486
 6974SOL     OW32380   2.824   1.256   5.596 -0.1718 -0.2480 -0.0936
 6974SOL    HW132381   2.778   1.207   5.665 -0.4690 -1.3884 -1.0873
 6974SOL    HW232382   2.797   1.346   5.615  0.5143 -0.3381  1.2911
 6975SOL     OW32383   2.975   2.443   3.145 -0.4739 -0.5352 -0.4554
 6975SOL    HW132384   2.896   2.394   3.169 -1.0184  0.6448  0.1275
 6975SOL    HW232385   2.934   2.522   3.112  0.1050 -1.4565 -3.3592
 6976SOL     OW32386   1.592   1.926   6.076  0.1670 -0.1477 -0.5695
 6976SOL    HW132387   1.641   1.850   6.046 -0.1361 -0.1534 -1.0382
 6976SOL    HW232388   1.661   1.992   6.077  1.1966 -1.2365  1.4317
 6977SOL     OW32389   2.280   0.339   5.042 -0.2245  0.7077  0.5792
 6977SOL    HW132390   2.215   0.290   4.991  0.5937  0.5091 -0.2713
 6977SOL    HW232391   2.360   0.331   4.990  0.5213  1.8544  1.5729
 6978SOL     OW32392   2.330   3.807   3.683  0.4995  0.1746  0.1610
 6978SOL    HW132393   2.348   3.836   3.594 -0.4362  1.1788  0.3019
 6978SOL    HW232394   2.331   3.711   3.677  2.8675  0.2551 -0.7769
 6979SOL     OW32395   1.147   0.247  17.299 -0.1121 -0.7028 -0.0448
 6979SOL    HW132396   1.181   0.158  17.298 -0.0614 -0.6857  0.2408
 6979SOL    HW232397   1.217   0.299  17.339 -1.7674  0.2228  1.6868
 6980SOL     OW32398   1.106   3.372   7.307 -0.5355  0.2281  0.4708
 6980SOL    HW132399   1.031   3.401   7.360 -1.5612 -0.0300 -0.8137
 6980SOL    HW232400   1.169   3.442   7.321  0.1071 -0.8531  2.9567
 6981SOL     OW32401   3.316   2.296  14.424  0.2532 -0.0383  0.2182
 6981SOL    HW132402   3.407   2.265  14.429 -0.0151 -0.9621 -0.6448
 6981SOL    HW232403   3.276   2.235  14.485 -0.2476 -0.3031 -0.3694
 6982SOL     OW32404   2.525   4.517  17.661 -0.1039  0.5890  0.2939
 6982SOL    HW132405   2.477   4.438  17.686  2.3666 -1.9038 -2.8313
 6982SOL    HW232406   2.490   4.584   0.016 -1.4884 -0.1729  0.3212
 6983SOL     OW32407   2.697   3.545  10.405 -0.4576 -0.2317 -0.7094
 6983SOL    HW132408   2.680   3.465  10.356 -2.2311 -0.6908  0.6370
 6983SOL    HW232409   2.715   3.498  10.487  0.4308  0.8275 -0.3023
 6984SOL     OW32410   2.761   0.495   6.585 -0.3576  0.0532  0.0390
 6984SOL    HW132411   2.815   0.424   6.550 -0.0542  0.2149  0.1822
 6984SOL    HW232412   2.678   0.448   6.596 -1.6026  1.6068 -2.5490
 6985SOL     OW32413   0.854   4.371   2.278  0.0546 -0.3654  0.4493
 6985SOL    HW132414   0.794   4.297   2.284 -0.7424  0.2294 -0.3031
 6985SOL    HW232415   0.918   4.358   2.349  1.1806 -0.0749 -0.5113
 6986SOL     OW32416   4.563   2.292   8.426 -0.0563  0.8229 -0.0991
 6986SOL    HW132417   4.488   2.236   8.407  1.0629 -0.1512 -1.6715
 6986SOL    HW232418   4.636   2.231   8.425  1.3968  2.5521  0.8696
 6987SOL     OW32419   4.256   3.913   7.843  0.0515 -0.7175 -0.2463
 6987SOL    HW132420   4.255   3.953   7.756 -1.6943 -2.8691 -1.2251
 6987SOL    HW232421   4.333   3.958   7.878  0.8194  0.6012 -3.6307
 6988SOL     OW32422   1.179   0.409   3.895 -0.1266 -0.4425  0.2576
 6988SOL    HW132423   1.156   0.320   3.870  0.0806 -0.7553  1.2072
 6988SOL    HW232424   1.173   0.456   3.812 -1.1072 -1.0264  0.0081
 6989SOL     OW32425   4.625   2.915   7.768  0.2377 -0.1888  0.1872
 6989SOL    HW132426   4.610   2.929   7.861 -1.6255 -1.6053  0.1055
 6989SOL    HW232427   4.540   2.927   7.725  0.0564  3.0327  1.4624
 6990SOL     OW32428   3.093   4.054   2.804 -0.0871  0.1869  0.0649
 6990SOL    HW132429   3.117   4.073   2.713  2.0274 -1.7463  0.2192
 6990SOL    HW232430   3.089   4.142   2.842 -0.3224  0.0179  0.4319
 6991SOL     OW32431   0.931   3.705  14.544 -0.1518 -0.1934  0.4357
 6991SOL    HW132432   0.841   3.673  14.552  0.3690 -1.2636  2.0717
 6991SOL    HW232433   0.958   3.682  14.455  0.4489 -1.3045  0.9063
 6992SOL     OW32434   4.686   4.186   2.337  0.0627  0.3184 -0.4362
 6992SOL    HW132435   0.052   4.213   2.336  0.4479 -0.9620 -0.4135
 6992SOL    HW232436   4.648   4.273   2.331 -0.7250 -0.0117 -0.3158
 6993SOL     OW32437   4.255   1.555   5.555 -0.6367 -0.3744 -0.1297
 6993SOL    HW132438   4.174   1.549   5.605  0.1488  0.4384  1.2234
 6993SOL    HW232439   4.240   1.630   5.497  0.0895  1.7291  2.3825
 6994SOL     OW32440   1.659   4.606   3.800 -0.3684  0.2567  0.5139
 6994SOL    HW132441   1.679   4.651   3.882 -1.1105  1.0088  0.2845
 6994SOL    HW232442   1.598   4.539   3.831 -0.6669  1.4043  2.3843
 6995SOL     OW32443   3.352   0.732  10.407  0.4103 -0.1569 -0.0290
 6995SOL    HW132444   3.326   0.688  10.488  0.8809 -0.3605  0.0121
 6995SOL    HW232445   3.348   0.824  10.433 -1.5610  0.2256 -1.6493
 6996SOL     OW32446   0.110   2.292   4.652 -0.1771 -0.0716 -0.2914
 6996SOL    HW132447   0.063   2.353   4.594  2.1117  1.4557 -0.5366
 6996SOL    HW232448   0.078   2.205   4.630 -1.4545  0.4219 -0.4157
 6997SOL     OW32449   3.690   1.063   7.027 -0.3080  0.0180 -0.3444
 6997SOL    HW132450   3.755   1.038   6.961 -1.3874  0.4641 -1.5756
 6997SOL    HW232451   3.613   1.012   7.002 -0.5404  0.5602 -0.7240
 6998SOL     OW32452   2.330   1.020   0.385 -0.1301 -0.1464  0.3022
 6998SOL    HW132453   2.257   1.000   0.443  0.0849 -0.9160  0.3044
 6998SOL    HW232454   2.332   1.115   0.398 -0.2127 -0.0221 -0.5550
 6999SOL     OW32455   4.434   3.294   5.605  0.2159 -0.4986  0.7513
 6999SOL    HW132456   4.465   3.362   5.546  0.0423 -0.4674  0.6980
 6999SOL    HW232457   4.482   3.227   5.555 -1.7030 -1.0418 -0.3550
 7000SOL     OW32458   4.601   2.650   4.827  0.4402  0.5671  0.0614
 7000SOL    HW132459   4.592   2.716   4.758  0.7126  0.9376  0.3857
 7000SOL    HW232460   4.577   2.569   4.781 -1.8888  0.2897  1.7995
 7001SOL     OW32461   2.498   1.693   3.389 -0.6681  0.2442 -0.4329
 7001SOL    HW132462   2.508   1.769   3.332  0.4609  0.0631 -0.4901
 7001SOL    HW232463   2.432   1.730   3.446  2.3790  1.6223  2.1872
 7002SOL     OW32464   2.631   3.736  17.511  0.0074  0.2067 -0.3158
 7002SOL    HW132465   2.558   3.682  17.542  2.0747 -4.1550 -2.9387
 7002SOL    HW232466   2.699   3.669  17.518 -0.3221  0.0227  1.2018
 7003SOL     OW32467   1.532   0.479   9.371 -0.4723  0.0934 -0.1892
 7003SOL    HW132468   1.469   0.525   9.426 -0.2790 -0.4225  0.4710
 7003SOL    HW232469   1.525   0.391   9.409  0.7457 -1.2952 -3.1563
 7004SOL     OW32470   2.426   3.003  17.143 -0.9428 -0.1194 -0.2158
 7004SOL    HW132471   2.454   3.001  17.235 -0.4219  3.0087 -0.2933
 7004SOL    HW232472   2.429   3.098  17.130 -0.1354  0.0959  1.5675
 7005SOL     OW32473   1.659   3.363   6.640 -0.1833  0.2307  0.6636
 7005SOL    HW132474   1.608   3.311   6.702  1.0673  0.3711  1.8254
 7005SOL    HW232475   1.625   3.324   6.559  0.6846  0.8205  0.0114
 7006SOL     OW32476   0.509   4.607   8.944 -0.3642 -0.1547 -0.1878
 7006SOL    HW132477   0.553   4.563   9.017  3.3694  0.5207 -2.0511
 7006SOL    HW232478   0.429   4.645   8.981 -0.9997 -1.3891 -0.2680
 7007SOL     OW32479   0.626   0.085  12.339  0.6319 -0.3362 -0.2988
 7007SOL    HW132480   0.607   0.003  12.384  0.6259 -1.2570 -1.9818
 7007SOL    HW232481   0.551   0.142  12.359  0.8544 -0.0951 -0.1532
 7008SOL     OW32482   3.824   0.458   7.951 -0.3166  0.1466  0.4446
 7008SOL    HW132483   3.809   0.363   7.945  1.4532 -0.1276  0.4147
 7008SOL    HW232484   3.807   0.477   8.043  0.6488 -0.5160  0.7734
 7009SOL     OW32485   3.226   2.570  12.891  0.1120  0.4090  0.2353
 7009SOL    HW132486   3.230   2.479  12.919  1.9511  0.9828  1.8205
 7009SOL    HW232487   3.141   2.578  12.847  0.2783  0.3835 -0.0879
 7010SOL     OW32488   3.419   1.376   4.144  0.7161  0.1740 -0.1447
 7010SOL    HW132489   3.438   1.381   4.238  1.4647 -1.2888 -0.2245
 7010SOL    HW232490   3.509   1.359   4.117  0.3227  1.3542 -2.1926
 7011SOL     OW32491   3.072   0.481   1.720 -0.7993 -0.9521  0.5976
 7011SOL    HW132492   3.060   0.409   1.783  1.6906 -1.6883  0.2409
 7011SOL    HW232493   3.162   0.459   1.695 -0.2737  0.0911  1.5669
 7012SOL     OW32494   2.953   1.467  13.089  0.0826  0.4201  0.6435
 7012SOL    HW132495   3.029   1.439  13.038 -0.7719 -0.5043 -0.1140
 7012SOL    HW232496   2.888   1.426  13.032 -0.3355  1.6570  0.2437
 7013SOL     OW32497   1.216   3.192   6.592  0.3135  0.3837  0.2563
 7013SOL    HW132498   1.253   3.153   6.671  1.2343 -0.9554 -0.8443
 7013SOL    HW232499   1.153   3.127   6.561  1.8910 -0.4782 -1.1067
 7014SOL     OW32500   0.998   0.559  13.141  0.6950 -0.0698  0.2382
 7014SOL    HW132501   0.907   0.550  13.169  0.3049 -1.8030 -1.5800
 7014SOL    HW232502   1.044   0.548  13.224 -0.2951 -2.1348  0.4997
 7015SOL     OW32503   0.141   1.886   0.848 -0.4196 -0.3078 -0.2623
 7015SOL    HW132504   0.059   1.851   0.812 -0.7130  1.0921 -0.9286
 7015SOL    HW232505   0.204   1.832   0.801 -1.3680 -1.2392 -0.4653
 7016SOL     OW32506   1.935   2.827   8.794 -0.0525  0.3156 -0.2655
 7016SOL    HW132507   2.005   2.887   8.769  0.0772  1.1937  2.2853
 7016SOL    HW232508   1.952   2.830   8.888 -0.6822 -0.0994 -0.1412
 7017SOL     OW32509   4.551   4.051   3.299  0.1166  0.1714  0.0887
 7017SOL    HW132510   4.456   4.057   3.288  0.0491  1.0766  1.0915
 7017SOL    HW232511   4.562   4.108   3.375  3.1555  0.7229 -0.7741
 7018SOL     OW32512   3.732   3.420   0.040  0.0702 -0.1195  1.1644
 7018SOL    HW132513   3.794   3.359   0.079  2.7047  0.7964 -1.5536
 7018SOL    HW232514   3.665   3.364   0.001 -0.2065 -0.5223  2.2239
 7019SOL     OW32515   4.442   2.094   3.855  0.6380 -0.0912 -0.2662
 7019SOL    HW132516   4.382   2.020   3.848  0.1243  0.4277 -1.3161
 7019SOL    HW232517   4.507   2.073   3.923  1.0135  1.0756 -0.2557
 7020SOL     OW32518   0.507   1.787  14.383 -0.1446 -0.2964  0.3940
 7020SOL    HW132519   0.414   1.768  14.387 -0.2741  0.4115  0.7620
 7020SOL    HW232520   0.533   1.710  14.333 -4.8033 -0.4211 -1.8341
 7021SOL     OW32521   4.383   4.142   5.728 -0.1014  0.3377  0.3944
 7021SOL    HW132522   4.403   4.122   5.636 -1.1882 -0.4704  0.3207
 7021SOL    HW232523   4.434   4.222   5.733  0.1851  0.0847  1.4526
 7022SOL     OW32524   4.691   3.276   8.351 -0.0037  0.7290 -0.3287
 7022SOL    HW132525   0.034   3.257   8.415 -1.7017 -1.0775  0.9850
 7022SOL    HW232526   4.700   3.370   8.340  0.4119  0.7161 -0.0712
 7023SOL     OW32527   2.641   4.552   8.895  0.5812  0.0527  0.5539
 7023SOL    HW132528   2.612   4.643   8.894 -1.9026 -0.7424  1.3310
 7023SOL    HW232529   2.697   4.548   8.818  0.0375  1.2886  0.1085
 7024SOL     OW32530   0.070   0.656  17.123 -0.2044  0.0778 -0.0981
 7024SOL    HW132531   0.137   0.639  17.189  1.4222 -0.0637 -1.7550
 7024SOL    HW232532   0.103   0.738  17.086  2.0608 -0.3667  0.9478
 7025SOL     OW32533   3.014   1.271   6.750 -0.1404 -0.8548  0.2447
 7025SOL    HW132534   2.992   1.332   6.820  1.7246  0.3105 -0.1693
 7025SOL    HW232535   2.927   1.242   6.721 -0.8683  2.3545 -0.8508
 7026SOL     OW32536   2.477   2.937   5.237 -0.2286  0.5294  0.6193
 7026SOL    HW132537   2.484   3.028   5.267  1.4238  0.2464  1.0814
 7026SOL    HW232538   2.508   2.897   5.318  1.3528  1.9489  0.7099
 7027SOL     OW32539   0.518   0.447   8.724  0.0619 -0.4119  0.2275
 7027SOL    HW132540   0.461   0.438   8.801  1.2164 -1.7800  0.9335
 7027SOL    HW232541   0.600   0.470   8.768  0.9335 -0.9211 -1.1366
 7028SOL     OW32542   3.163   2.385   3.658 -0.0776  0.0022 -0.3744
 7028SOL    HW132543   3.257   2.372   3.668 -0.0300  0.6316  0.0069
 7028SOL    HW232544   3.154   2.471   3.700 -0.4124 -1.3201  2.2714
 7029SOL     OW32545   2.592   2.936   2.200  0.4389 -0.2543 -0.0876
 7029SOL    HW132546   2.546   2.905   2.123 -1.0158 -2.1650  1.5484
 7029SOL    HW232547   2.645   3.007   2.164  0.5365  1.8990  4.1871
 7030SOL     OW32548   3.762   1.831  10.519 -0.5868 -0.6072  0.4626
 7030SOL    HW132549   3.767   1.846  10.425  0.8203  2.6624  1.0468
 7030SOL    HW232550   3.843   1.783  10.534 -0.0459 -0.1810 -1.1025
 7031SOL     OW32551   4.051   2.996   9.556 -0.1096 -0.0970  0.9719
 7031SOL    HW132552   4.011   3.072   9.598 -1.5796 -1.5070  2.0989
 7031SOL    HW232553   4.055   3.024   9.464 -0.1653  1.6148  1.4913
 7032SOL     OW32554   0.129   2.069   5.798  0.6925 -0.1476 -0.7033
 7032SOL    HW132555   0.179   1.989   5.783 -2.6352 -2.2403 -0.6363
 7032SOL    HW232556   0.048   2.029   5.829  0.7183  0.0159 -0.4229
 7033SOL     OW32557   2.923   2.245   8.817  0.2795 -0.0959  0.0544
 7033SOL    HW132558   2.881   2.210   8.896 -0.2486  3.4054  1.3632
 7033SOL    HW232559   3.012   2.260   8.850  0.1872 -2.0884  1.1598
 7034SOL     OW32560   1.252   3.717   3.592  0.5865 -0.1478  0.4516
 7034SOL    HW132561   1.177   3.731   3.534  0.4239 -0.4811  0.5805
 7034SOL    HW232562   1.221   3.753   3.675 -0.7382 -2.7319  1.0884
 7035SOL     OW32563   4.683   2.411   9.081 -0.3110  0.3491  0.8512
 7035SOL    HW132564   4.680   2.351   9.155  3.3644  0.8091  1.3715
 7035SOL    HW232565   4.672   2.496   9.124  1.6627  0.6453  0.7758
 7036SOL     OW32566   2.336   3.949  17.609  0.2366 -0.2524  0.2194
 7036SOL    HW132567   2.362   3.895  17.683 -1.9511 -3.2599 -1.2110
 7036SOL    HW232568   2.372   3.899  17.535 -0.6083  1.5565 -1.4190
 7037SOL     OW32569   0.248   3.698  17.498 -0.0122  0.4638 -0.7822
 7037SOL    HW132570   0.325   3.728  17.547 -0.5511 -0.4705  0.6263
 7037SOL    HW232571   0.245   3.605  17.519  1.5180  0.4826 -0.4429
 7038SOL     OW32572   2.184   0.278   0.454  0.3734 -1.0928  0.6893
 7038SOL    HW132573   2.091   0.276   0.432  0.5646 -1.2267 -0.0949
 7038SOL    HW232574   2.206   0.185   0.457 -2.0434 -1.7079 -1.1628
 7039SOL     OW32575   2.773   0.588   8.920 -0.7128 -0.2436 -0.6074
 7039SOL    HW132576   2.830   0.611   8.847  2.9408 -1.7209  1.7347
 7039SOL    HW232577   2.742   0.677   8.935 -2.2586 -0.8244 -0.3799
 7040SOL     OW32578   1.094   0.397  12.728 -0.3225  0.3495 -0.1417
 7040SOL    HW132579   1.092   0.301  12.734 -1.8819  0.3617 -0.4619
 7040SOL    HW232580   1.011   0.417  12.686 -0.3319 -0.3080 -0.4419
 7041SOL     OW32581   1.623   1.526  15.894  0.4881  0.1569 -0.0062
 7041SOL    HW132582   1.663   1.593  15.949  2.8059 -1.6861  0.5388
 7041SOL    HW232583   1.693   1.507  15.832  0.1373 -0.0138 -0.3510
 7042SOL     OW32584   0.768   2.525   3.268  0.4886 -0.0297  0.2396
 7042SOL    HW132585   0.825   2.555   3.197  0.1491 -1.7415 -0.7712
 7042SOL    HW232586   0.736   2.610   3.299  1.0835  0.1852  0.2610
 7043SOL     OW32587   1.038   0.176   5.832 -0.1357 -0.2882  0.0887
 7043SOL    HW132588   1.009   0.247   5.889  0.6829  1.0174 -1.1015
 7043SOL    HW232589   1.107   0.136   5.885  1.3212 -0.3648 -1.8660
 7044SOL     OW32590   4.018   3.901  11.776  0.2669 -0.0198  0.1949
 7044SOL    HW132591   4.070   3.831  11.815 -0.3644  0.1797  1.4045
 7044SOL    HW232592   3.931   3.881  11.811 -0.7779  0.9776 -1.8535
 7045SOL     OW32593   3.465   3.536  15.419  0.2846  0.6325 -0.4383
 7045SOL    HW132594   3.538   3.508  15.365  1.4078  0.7838  1.0187
 7045SOL    HW232595   3.395   3.541  15.353  0.1399  0.3622 -0.3015
 7046SOL     OW32596   1.466   1.472   2.402  0.2560 -0.2724 -0.7732
 7046SOL    HW132597   1.475   1.530   2.327  1.3494  1.1593  0.4349
 7046SOL    HW232598   1.507   1.518   2.476 -1.7796  0.1880  0.0518
 7047SOL     OW32599   2.783   0.202   1.790  0.2082 -0.1689 -0.6658
 7047SOL    HW132600   2.736   0.226   1.870  0.9643 -0.3521 -0.1668
 7047SOL    HW232601   2.747   0.272   1.735 -2.4251  1.0791  2.6226
 7048SOL     OW32602   1.384   3.723   4.536 -0.3400  0.1024 -0.4063
 7048SOL    HW132603   1.411   3.813   4.519  2.1637 -0.6762 -0.5016
 7048SOL    HW232604   1.323   3.705   4.464 -0.1855 -0.1664 -0.4705
 7049SOL     OW32605   4.101   0.334   8.831  0.5848 -0.7928 -0.3970
 7049SOL    HW132606   4.112   0.311   8.739 -0.5587 -1.0250 -0.4775
 7049SOL    HW232607   4.174   0.285   8.869  0.9764 -0.0680 -0.2261
 7050SOL     OW32608   1.355   0.914   5.190  0.1400  0.1801 -0.6398
 7050SOL    HW132609   1.417   0.876   5.251 -0.3362  0.5217  0.0571
 7050SOL    HW232610   1.278   0.863   5.215  1.2612 -0.6913  1.0185
 7051SOL     OW32611   0.908   2.351   5.037 -0.6913 -0.7748 -0.4369
 7051SOL    HW132612   0.947   2.421   4.985 -2.7461 -0.6105 -1.7448
 7051SOL    HW232613   0.985   2.294   5.036 -0.5249 -0.5568 -0.1680
 7052SOL     OW32614   0.601   3.376   7.508 -0.2883 -0.0172 -0.3077
 7052SOL    HW132615   0.543   3.413   7.441 -0.6193 -0.6534 -0.3742
 7052SOL    HW232616   0.571   3.419   7.588 -1.3464 -1.4570  0.0705
 7053SOL     OW32617   3.642   3.104  16.427 -0.2027 -0.0437  0.6245
 7053SOL    HW132618   3.639   3.185  16.478 -0.4072  0.8281 -0.7857
 7053SOL    HW232619   3.689   3.048  16.489  0.0305 -0.3901  0.1349
 7054SOL     OW32620   3.286   1.158   3.274  0.0940  0.2866  0.0710
 7054SOL    HW132621   3.239   1.082   3.242 -1.6396  0.9086  1.1244
 7054SOL    HW232622   3.211   1.216   3.263 -0.1485 -0.4473 -2.0562
 7055SOL     OW32623   1.729   3.456   9.414 -0.2695  0.0215  0.0788
 7055SOL    HW132624   1.708   3.401   9.490 -0.0843 -2.4062 -1.6012
 7055SOL    HW232625   1.812   3.496   9.438  0.9075 -1.2206 -1.9602
 7056SOL     OW32626   2.808   1.793   5.966  0.0609  0.7767 -0.3775
 7056SOL    HW132627   2.857   1.857   5.915 -1.6259  1.6968 -0.8358
 7056SOL    HW232628   2.882   1.737   5.990 -0.0387  1.1744  0.8475
 7057SOL     OW32629   2.208   4.352  17.069  0.1200  0.9900  0.1082
 7057SOL    HW132630   2.275   4.369  17.136  0.5682  0.0098 -0.0896
 7057SOL    HW232631   2.234   4.264  17.044 -2.2421 -0.5240  2.9807
 7058SOL     OW32632   2.102   0.506   1.957 -0.1274  0.0483 -0.2006
 7058SOL    HW132633   2.123   0.596   1.980 -1.6852  0.4331 -0.3215
 7058SOL    HW232634   2.066   0.481   2.042  0.1231  0.5731  0.0608
 7059SOL     OW32635   3.853   4.119  15.128 -0.1329 -0.0185  0.0697
 7059SOL    HW132636   3.914   4.181  15.086 -0.8602  1.7510  1.6488
 7059SOL    HW232637   3.900   4.103  15.210 -1.4832  2.7438  1.3765
 7060SOL     OW32638   3.920   0.051   7.327  0.2422 -0.0855  0.1185
 7060SOL    HW132639   3.889   0.067   7.417 -0.3549  0.6461 -0.2176
 7060SOL    HW232640   4.010   0.079   7.342 -0.7349  1.0739  4.0036
 7061SOL     OW32641   3.582   2.249   4.946 -0.3336  0.1285 -0.3082
 7061SOL    HW132642   3.513   2.216   5.003 -0.8462  1.0567 -0.4039
 7061SOL    HW232643   3.580   2.344   4.955 -2.0958 -0.1968  2.6992
 7062SOL     OW32644   4.588   1.730   2.422  0.2768  0.1926  0.2692
 7062SOL    HW132645   4.568   1.795   2.489  0.6158  0.7474 -0.1735
 7062SOL    HW232646   4.637   1.782   2.358 -1.4548  0.7892 -0.5672
 7063SOL     OW32647   4.129   1.146   5.313 -0.2356  0.5095  0.2161
 7063SOL    HW132648   4.068   1.083   5.351  1.4561 -0.2326  1.7169
 7063SOL    HW232649   4.176   1.178   5.390  2.6890 -1.2464 -0.8523
 7064SOL     OW32650   0.509   0.764   8.905  0.4272 -0.3543  0.0226
 7064SOL    HW132651   0.471   0.702   8.966 -2.3982  1.5344  0.1530
 7064SOL    HW232652   0.429   0.814   8.893  1.8657  2.2196  1.2762
 7065SOL     OW32653   4.110   2.137   3.040  0.6277  0.7039 -0.4531
 7065SOL    HW132654   4.075   2.061   3.087  4.0447  0.8529  2.3413
 7065SOL    HW232655   4.135   2.092   2.960  1.2036 -2.4883  1.5141
 7066SOL     OW32656   3.791   2.306  15.972 -0.6535 -0.0749  0.6894
 7066SOL    HW132657   3.791   2.335  15.881  1.2829  0.1780  0.7890
 7066SOL    HW232658   3.855   2.235  15.975 -2.6218 -1.8660  0.7148
 7067SOL     OW32659   3.610   2.898  16.869  0.1158 -0.5350  0.0956
 7067SOL    HW132660   3.527   2.857  16.844 -0.1328  0.5406 -0.8716
 7067SOL    HW232661   3.655   2.910  16.785 -0.3053 -1.6733 -0.2874
 7068SOL     OW32662   3.881   3.242   6.729 -0.4127  0.3830 -0.3078
 7068SOL    HW132663   3.858   3.315   6.672  0.0741 -0.3145 -1.3836
 7068SOL    HW232664   3.892   3.183   6.655 -1.4837 -0.2668  0.0422
 7069SOL     OW32665   3.768   0.964   4.262  0.0718  0.0028 -0.0765
 7069SOL    HW132666   3.708   0.993   4.193 -0.4908  0.0564  0.4267
 7069SOL    HW232667   3.700   0.975   4.329  3.3190 -0.4370  3.2639
 7070SOL     OW32668   2.844   1.850   3.616  0.3549  0.4046  0.4647
 7070SOL    HW132669   2.927   1.887   3.646  1.0168 -0.2583 -0.5398
 7070SOL    HW232670   2.871   1.784   3.552 -3.4486 -0.8078  0.1393
 7071SOL     OW32671   3.640   0.816   6.086  0.2917  0.0694 -0.2388
 7071SOL    HW132672   3.577   0.888   6.089  1.7165  1.3225 -0.4211
 7071SOL    HW232673   3.635   0.784   6.177  3.1568  3.0581  0.9841
 7072SOL     OW32674   1.021   3.938   3.680  0.5964 -0.0112  0.7539
 7072SOL    HW132675   1.049   3.998   3.750  1.5435  0.9462 -0.4373
 7072SOL    HW232676   1.018   3.857   3.730  2.7711 -0.5633 -0.0178
 7073SOL     OW32677   0.543   4.101   1.577 -0.3741  0.2450  0.3349
 7073SOL    HW132678   0.561   4.136   1.490 -0.3120  0.1991  0.3293
 7073SOL    HW232679   0.488   4.029   1.547 -1.1576  0.7064  0.6749
 7074SOL     OW32680   3.096   4.183   7.625  0.4608  0.0553  0.2137
 7074SOL    HW132681   3.116   4.155   7.715  0.3326  0.6413  0.4231
 7074SOL    HW232682   3.019   4.127   7.616  0.7430 -0.0557 -1.3588
 7075SOL     OW32683   2.830   1.062   4.324  0.1428 -0.2892 -0.5117
 7075SOL    HW132684   2.795   1.000   4.260  0.0189  0.6785 -1.3892
 7075SOL    HW232685   2.886   1.123   4.276 -1.0775  0.3898 -1.0842
 7076SOL     OW32686   0.551   2.938   9.330 -0.5400 -0.3393 -0.1240
 7076SOL    HW132687   0.550   3.029   9.361 -1.2218  0.1814 -1.6987
 7076SOL    HW232688   0.564   2.901   9.418 -0.5567 -0.0717 -0.0097
 7077SOL     OW32689   0.574   1.730   6.197 -0.0482  0.3631 -0.1402
 7077SOL    HW132690   0.486   1.711   6.165 -1.1872  0.1368  3.2235
 7077SOL    HW232691   0.562   1.808   6.251  0.4043 -0.7263  1.5090
 7078SOL     OW32692   4.202   3.074   4.331  0.5824 -0.6033  0.3587
 7078SOL    HW132693   4.120   3.025   4.324  0.7441 -0.8256 -0.0056
 7078SOL    HW232694   4.238   3.063   4.243  0.2530 -1.5184  0.3329
 7079SOL     OW32695   0.587   4.415   1.147  0.0978  0.2769  0.5096
 7079SOL    HW132696   0.508   4.448   1.104  1.3579  0.3155 -1.7682
 7079SOL    HW232697   0.583   4.320   1.137  0.4938  0.1384  1.6728
 7080SOL     OW32698   0.713   1.351   3.629  0.0702  0.1691 -0.4943
 7080SOL    HW132699   0.741   1.389   3.546 -0.1137 -0.2228 -0.7329
 7080SOL    HW232700   0.755   1.414   3.688 -0.4719  1.6664 -1.7106
 7081SOL     OW32701   0.730   1.892   5.325  0.4828  0.3858  0.3946
 7081SOL    HW132702   0.644   1.898   5.365 -0.7257  1.4833 -2.4233
 7081SOL    HW232703   0.795   1.865   5.391 -0.1823 -0.6230  0.6403
 7082SOL     OW32704   2.504   2.067   9.062  0.0440 -0.1410  0.3346
 7082SOL    HW132705   2.506   2.074   9.158 -1.1860 -0.5031  0.3844
 7082SOL    HW232706   2.507   2.155   9.024 -2.1014 -0.5300 -0.6728
 7083SOL     OW32707   2.455   4.098   6.854 -0.0834 -0.1922  0.5911
 7083SOL    HW132708   2.505   4.164   6.805  3.5158 -3.7406 -0.4854
 7083SOL    HW232709   2.460   4.026   6.792 -3.1436  0.5192 -0.4877
 7084SOL     OW32710   0.071   2.424   5.731 -0.2046 -0.1416  0.7212
 7084SOL    HW132711   0.150   2.370   5.746  1.3190  1.6638 -0.8034
 7084SOL    HW232712   4.726   2.392   5.786  0.6870 -3.4292 -0.0287
 7085SOL     OW32713   0.177   3.367   2.075  0.0274  0.3544  0.4471
 7085SOL    HW132714   0.114   3.432   2.107  1.1103  2.0823 -0.9078
 7085SOL    HW232715   0.202   3.405   1.991  2.9700 -2.2878  0.1219
 7086SOL     OW32716   1.445   2.134  14.737 -0.6028  0.2405 -0.1432
 7086SOL    HW132717   1.390   2.137  14.659 -0.2870 -2.7589 -0.5160
 7086SOL    HW232718   1.524   2.089  14.705 -0.1573  1.1400 -0.2949
 7087SOL     OW32719   4.582   4.531   0.566 -0.1028 -0.1257 -0.1803
 7087SOL    HW132720   4.593   4.624   0.545  0.6227  0.4845  2.9592
 7087SOL    HW232721   4.602   4.537   0.660  1.1587  0.4781 -0.4907
 7088SOL     OW32722   1.482   4.260  13.448  0.2198  0.5360 -0.8423
 7088SOL    HW132723   1.536   4.184  13.429 -0.3615 -0.2162  0.4895
 7088SOL    HW232724   1.442   4.239  13.532 -0.2059  2.7158 -0.5099
 7089SOL     OW32725   1.124   0.430   2.127 -0.4903 -0.5749  0.4160
 7089SOL    HW132726   1.096   0.404   2.215  1.0205 -1.4835  0.6202
 7089SOL    HW232727   1.039   0.418   2.084  0.6770 -0.4634 -1.8955
 7090SOL     OW32728   2.383   0.603   1.185  0.4298 -0.4512 -1.1261
 7090SOL    HW132729   2.451   0.667   1.163  0.4029 -0.6141 -1.6741
 7090SOL    HW232730   2.423   0.520   1.161  0.3436 -0.0574 -2.6268
 7091SOL     OW32731   2.810   0.207   4.259 -0.0291  0.3543 -0.2362
 7091SOL    HW132732   2.800   0.301   4.269  0.8634  0.4291 -0.0296
 7091SOL    HW232733   2.846   0.206   4.171 -0.0646  0.6256 -0.2525
 7092SOL     OW32734   0.786   0.402   7.769 -0.3798  0.4992 -0.3770
 7092SOL    HW132735   0.700   0.362   7.778  0.2207 -0.3645  1.4471
 7092SOL    HW232736   0.798   0.461   7.843 -2.0897 -2.9058  2.5747
 7093SOL     OW32737   3.118   1.801   5.559 -0.6525  0.5188  0.1445
 7093SOL    HW132738   3.186   1.735   5.545 -0.3910  0.4672  1.5846
 7093SOL    HW232739   3.155   1.879   5.519  2.0609 -0.9343 -0.1643
 7094SOL     OW32740   3.928   3.060  11.864 -0.4695 -0.0950 -0.4939
 7094SOL    HW132741   3.905   3.139  11.913 -1.4211  0.6458 -2.1248
 7094SOL    HW232742   3.841   3.021  11.853 -0.7680  0.9265 -1.7761
 7095SOL     OW32743   3.210   2.941  10.267 -0.0341 -0.5113 -0.3621
 7095SOL    HW132744   3.301   2.935  10.298  0.9156 -0.7568 -3.1634
 7095SOL    HW232745   3.229   2.921  10.175  0.6347  1.0890 -0.5788
 7096SOL     OW32746   3.737   0.212   7.176 -0.4252 -0.0064  0.7034
 7096SOL    HW132747   3.757   0.306   7.179  0.0209 -0.0582 -0.5681
 7096SOL    HW232748   3.810   0.182   7.231  0.6159  2.3962  0.6555
 7097SOL     OW32749   2.405   3.226   6.662  0.6790 -0.4124 -0.2847
 7097SOL    HW132750   2.440   3.144   6.626  2.2247 -0.1610  0.6763
 7097SOL    HW232751   2.404   3.214   6.757 -0.2758 -0.8041 -0.3420
 7098SOL     OW32752   1.490   3.290   4.476  0.5389 -0.2025  0.0950
 7098SOL    HW132753   1.421   3.228   4.498 -2.5791  1.9654 -3.6926
 7098SOL    HW232754   1.571   3.239   4.480  0.3731 -0.6393 -1.9899
 7099SOL     OW32755   4.034   2.834   3.343 -0.3821  0.1516  0.1623
 7099SOL    HW132756   3.966   2.849   3.276  0.1866  2.2116  0.0606
 7099SOL    HW232757   4.030   2.739   3.332  2.8231  0.2813 -2.0008
 7100SOL     OW32758   2.764   1.515   7.557 -0.8964  0.1339 -0.0606
 7100SOL    HW132759   2.815   1.514   7.638 -1.3359 -1.0071  0.1932
 7100SOL    HW232760   2.747   1.421   7.554 -3.2679  0.5029  1.5769
 7101SOL     OW32761   3.331   3.492   8.674 -0.2773 -0.1443 -0.1598
 7101SOL    HW132762   3.239   3.476   8.693 -0.6573  2.0141 -0.1876
 7101SOL    HW232763   3.353   3.542   8.752 -0.1553 -1.2871  0.5339
 7102SOL     OW32764   3.010   1.278   3.634 -0.0644  0.3988 -0.1734
 7102SOL    HW132765   2.930   1.329   3.618 -1.5999 -1.5882  1.2281
 7102SOL    HW232766   3.057   1.310   3.556  0.1802 -3.0140 -1.3965
 7103SOL     OW32767   2.549   2.159   7.014 -0.3585  0.1043 -0.0473
 7103SOL    HW132768   2.516   2.159   7.104  1.4683  0.2366  0.6149
 7103SOL    HW232769   2.497   2.090   6.973  1.2931 -1.3512  0.3341
 7104SOL     OW32770   4.600   0.148   6.081  0.4214 -0.5548 -0.1159
 7104SOL    HW132771   4.648   0.183   6.156  0.3580 -1.2982  0.2691
 7104SOL    HW232772   4.520   0.199   6.083  0.5461 -0.3256 -0.7640
 7105SOL     OW32773   1.128   1.615   7.124 -0.5656  0.0733 -0.0490
 7105SOL    HW132774   1.085   1.687   7.171 -2.8284 -0.4450 -1.3347
 7105SOL    HW232775   1.181   1.572   7.191 -1.7067  1.0448  1.4614
 7106SOL     OW32776   1.740   1.825   2.140  0.0216 -0.4366 -0.1571
 7106SOL    HW132777   1.805   1.756   2.135  0.8416  0.3497 -0.2621
 7106SOL    HW232778   1.795   1.901   2.159  0.6228 -1.0601  0.5808
 7107SOL     OW32779   0.535   2.943   6.652  0.1133 -0.2566  0.1824
 7107SOL    HW132780   0.487   2.917   6.731  1.6964  0.3440  1.3578
 7107SOL    HW232781   0.619   2.968   6.690 -0.0123  0.0204  0.2761
 7108SOL     OW32782   3.573   3.558  14.892  0.1929 -0.4276 -0.0725
 7108SOL    HW132783   3.516   3.603  14.954  2.5553  0.0659  1.7481
 7108SOL    HW232784   3.527   3.549  14.809 -0.6024  2.0954  0.1058
 7109SOL     OW32785   1.601   2.736  13.397  0.2618 -0.5146 -0.3228
 7109SOL    HW132786   1.623   2.818  13.441 -0.5347 -1.0047  0.9812
 7109SOL    HW232787   1.647   2.745  13.313 -0.7114  2.4995 -0.5399
 7110SOL     OW32788   4.669   4.545  11.070  0.4276  0.5617 -0.2444
 7110SOL    HW132789   4.723   4.536  11.148  0.8931 -2.3162 -0.8987
 7110SOL    HW232790   4.627   4.629  11.090  0.1079  0.1613  0.7914
 7111SOL     OW32791   2.806   4.139  16.950  0.1067 -0.6454  0.0036
 7111SOL    HW132792   2.835   4.219  16.993  2.0614 -0.7023 -1.1682
 7111SOL    HW232793   2.712   4.137  16.966  0.4117 -0.7763  1.7404
 7112SOL     OW32794   0.291   4.449  11.155 -0.4299  0.6904 -0.2129
 7112SOL    HW132795   0.243   4.514  11.207 -0.3983 -0.0794  0.7829
 7112SOL    HW232796   0.271   4.366  11.199  1.4370  0.6805  0.5973
 7113SOL     OW32797   4.085   3.223   5.967 -0.6174  0.4522 -0.9605
 7113SOL    HW132798   4.137   3.285   6.018 -1.5056 -0.9403  1.6100
 7113SOL    HW232799   4.157   3.187   5.915  0.7699  0.8301  0.7407
 7114SOL     OW32800   0.484   2.488   1.306 -0.0461  0.2632  0.3362
 7114SOL    HW132801   0.495   2.441   1.223  3.1153  0.0017  0.9126
 7114SOL    HW232802   0.563   2.464   1.354 -1.2103 -2.9580  0.5984
 7115SOL     OW32803   3.417   0.765   1.643  0.1694  0.5885 -0.0474
 7115SOL    HW132804   3.478   0.785   1.571 -0.0634 -2.1975 -1.0257
 7115SOL    HW232805   3.328   0.786   1.616 -0.3348 -0.3862  0.8764
 7116SOL     OW32806   3.153   3.826   8.694 -0.1061  0.3474  0.6849
 7116SOL    HW132807   3.076   3.884   8.695 -0.5831 -0.3016  1.5770
 7116SOL    HW232808   3.214   3.876   8.748  0.4113  0.0990  0.3219
 7117SOL     OW32809   4.559   1.850   4.461 -0.2253  0.2595  0.3894
 7117SOL    HW132810   4.482   1.795   4.477 -1.0562  1.5943  0.9958
 7117SOL    HW232811   4.621   1.783   4.431 -2.5665 -1.5860 -0.3960
 7118SOL     OW32812   1.698   2.630   7.742 -0.1997 -0.3762 -0.2070
 7118SOL    HW132813   1.634   2.617   7.812 -0.9518  2.0099 -0.4533
 7118SOL    HW232814   1.646   2.634   7.662 -1.5182 -3.3110  0.4997
 7119SOL     OW32815   1.079   4.253   9.782  0.3961 -0.1975 -0.3235
 7119SOL    HW132816   1.163   4.222   9.816  0.0589 -2.5205 -1.5974
 7119SOL    HW232817   1.021   4.178   9.795 -0.9810  1.0552  0.6615
 7120SOL     OW32818   4.427   3.430  13.054 -0.5802  0.1963  0.3784
 7120SOL    HW132819   4.476   3.441  12.972  1.0726  0.6577  1.4133
 7120SOL    HW232820   4.468   3.501  13.104 -2.0340  0.3848  1.2943
 7121SOL     OW32821   1.332   0.626   5.510  0.2074  0.0091 -0.1453
 7121SOL    HW132822   1.411   0.676   5.530  0.0526 -0.3605  1.3679
 7121SOL    HW232823   1.296   0.675   5.437 -0.9420 -1.0309 -0.2787
 7122SOL     OW32824   1.559   1.117   5.135 -0.4153  0.3190 -0.1532
 7122SOL    HW132825   1.551   1.147   5.044 -1.2003  0.4693 -0.0348
 7122SOL    HW232826   1.472   1.081   5.152 -0.1088 -0.7858 -0.8837
 7123SOL     OW32827   1.087   2.187   2.971 -0.4256  0.0565  0.2129
 7123SOL    HW132828   1.096   2.183   2.876  0.3371 -0.9098  0.3265
 7123SOL    HW232829   1.084   2.280   2.996 -0.5669 -0.1267  0.8912
 7124SOL     OW32830   0.469   2.599   4.978  0.1718  0.0648 -0.1845
 7124SOL    HW132831   0.554   2.567   4.948 -0.6394 -2.8873  0.6605
 7124SOL    HW232832   0.499   2.665   5.040  0.3454  0.9090 -1.1570
 7125SOL     OW32833   1.277   1.712   1.079  0.3906 -0.1705 -0.0257
 7125SOL    HW132834   1.350   1.651   1.070  0.9061  0.3173  0.8581
 7125SOL    HW232835   1.237   1.684   0.996 -0.9259  0.1931  0.4741
 7126SOL     OW32836   2.676   2.143   5.883  0.4849  0.3179  0.0887
 7126SOL    HW132837   2.599   2.193   5.912 -0.0664 -1.1352  1.1098
 7126SOL    HW232838   2.744   2.164   5.947 -0.2743 -0.4868  1.1741
 7127SOL     OW32839   0.174   0.893  17.378  0.1581 -0.2367 -0.2239
 7127SOL    HW132840   0.084   0.926  17.382 -0.2940 -1.3794 -0.9775
 7127SOL    HW232841   0.212   0.966  17.427 -0.8505 -0.4399  0.8824
 7128SOL     OW32842   4.238   3.843  16.710 -0.4519 -0.1601  0.1700
 7128SOL    HW132843   4.169   3.778  16.694 -0.7604  0.0914  0.4983
 7128SOL    HW232844   4.188   3.908  16.759 -1.4614 -0.2528 -0.7301
 7129SOL     OW32845   2.033   3.691   3.303  0.5952  0.4368  0.5560
 7129SOL    HW132846   2.128   3.696   3.291  0.3704 -1.1889 -1.9296
 7129SOL    HW232847   2.027   3.619   3.240  0.4567  1.0032 -0.0767
 7130SOL     OW32848   2.150   0.718   1.137  0.5168 -0.2555 -0.0059
 7130SOL    HW132849   2.225   0.664   1.164  2.6923  3.2905  1.0460
 7130SOL    HW232850   2.188   0.805   1.128 -0.4793  0.0233 -1.4140
 7131SOL     OW32851   0.326   2.121  13.018 -0.1855  0.0047 -0.1721
 7131SOL    HW132852   0.387   2.161  12.956 -0.5241 -1.0193 -1.1739
 7131SOL    HW232853   0.250   2.130  12.961 -0.7045  1.3067  0.7177
 7132SOL     OW32854   1.650   4.556   6.333 -0.4843 -0.1609 -0.3685
 7132SOL    HW132855   1.731   4.571   6.284  1.1745 -1.2695  2.0257
 7132SOL    HW232856   1.684   4.512   6.410  0.7980 -1.9209 -1.9357
 7133SOL     OW32857   0.601   0.591   6.299  0.0581 -0.2853  0.1203
 7133SOL    HW132858   0.631   0.663   6.244 -1.0546 -0.4558 -0.7054
 7133SOL    HW232859   0.665   0.522   6.281  1.0067  0.9416 -1.1000
 7134SOL     OW32860   2.459   4.706  12.848  0.1471 -0.3141 -0.1096
 7134SOL    HW132861   2.378   0.021  12.817 -1.4054 -3.2711  0.0491
 7134SOL    HW232862   2.518   4.693  12.774  0.8924  1.3532  0.1911
 7135SOL     OW32863   1.831   4.533   1.868 -0.2396 -0.4749  0.2411
 7135SOL    HW132864   1.899   4.582   1.822 -0.2791  0.8671  1.5942
 7135SOL    HW232865   1.883   4.454   1.885  1.0956  0.1680 -0.8503
 7136SOL     OW32866   2.333   0.002  14.221 -0.2951  0.1344  0.2979
 7136SOL    HW132867   2.427   0.013  14.228 -0.2761  1.5869 -2.2199
 7136SOL    HW232868   2.325   4.707  14.128  0.2784  0.6363  0.1425
 7137SOL     OW32869   1.334   4.357  10.071 -0.4164 -0.5510 -0.1349
 7137SOL    HW132870   1.356   4.418  10.001 -3.4351  1.1862  0.4144
 7137SOL    HW232871   1.312   4.278  10.022 -2.1845 -0.4400  0.4773
 7138SOL     OW32872   0.402   3.210   9.085  0.2273  0.1071  0.3714
 7138SOL    HW132873   0.490   3.191   9.119 -0.0920  0.4757  1.3997
 7138SOL    HW232874   0.364   3.123   9.101  2.8626 -1.1813 -0.3465
 7139SOL     OW32875   2.431   0.046   9.331  0.2188 -0.1999  0.2170
 7139SOL    HW132876   2.391   0.096   9.401  2.2042  1.1574  0.3727
 7139SOL    HW232877   2.461   0.108   9.265 -0.6021  1.1793  1.1585
 7140SOL     OW32878   4.533   2.927   0.944 -0.0482 -0.2438 -0.0248
 7140SOL    HW132879   4.595   2.896   1.011 -1.3850  1.7168  2.1456
 7140SOL    HW232880   4.539   2.842   0.902 -4.4672  0.7780 -2.6865
 7141SOL     OW32881   4.612   2.623  16.697 -0.3254  0.4108  0.4501
 7141SOL    HW132882   4.553   2.557  16.734 -0.8329  1.2809  1.1930
 7141SOL    HW232883   4.551   2.665  16.637  0.3827  0.8913  0.0751
 7142SOL     OW32884   4.247   0.660   3.087 -0.5520 -0.1462  0.4348
 7142SOL    HW132885   4.152   0.669   3.091 -0.7676 -1.9318 -0.6370
 7142SOL    HW232886   4.268   0.737   3.140 -2.4307  1.4937 -1.2270
 7143SOL     OW32887   3.222   0.783   7.216 -0.0168  0.9587 -0.4665
 7143SOL    HW132888   3.287   0.721   7.183  1.2529  0.7749  2.3640
 7143SOL    HW232889   3.275   0.845   7.266  1.8775 -0.0757 -1.2166
 7144SOL     OW32890   3.262   3.179   4.407 -0.0365  0.0531  0.0111
 7144SOL    HW132891   3.297   3.185   4.318 -0.0486 -1.3557 -0.0870
 7144SOL    HW232892   3.317   3.243   4.453 -0.6296 -0.7337  1.8210
 7145SOL     OW32893   1.861   3.911  11.435  0.1671  0.5652  0.0158
 7145SOL    HW132894   1.877   3.950  11.521 -2.0275 -1.2596  1.2320
 7145SOL    HW232895   1.946   3.871  11.414  0.0080  0.8792 -1.2666
 7146SOL     OW32896   0.048   4.229   2.778  0.0154  0.0436  0.5192
 7146SOL    HW132897   0.093   4.313   2.786 -0.6748  0.4303  0.3798
 7146SOL    HW232898   0.124   4.172   2.781 -1.3154 -1.5969  2.7865
 7147SOL     OW32899   3.826   3.970  10.716  0.2982 -0.2047  0.2113
 7147SOL    HW132900   3.855   3.947  10.627  3.1247  2.0316  0.5659
 7147SOL    HW232901   3.731   3.965  10.726  0.3554  0.5038  1.0415
 7148SOL     OW32902   1.606   2.968   3.768  0.2559 -0.0635  0.5573
 7148SOL    HW132903   1.655   3.044   3.737  1.4748  0.0454  2.7721
 7148SOL    HW232904   1.579   2.932   3.683  1.8474 -0.6533  0.2989
 7149SOL     OW32905   2.055   2.640  15.392  0.5006  0.1011 -0.2583
 7149SOL    HW132906   2.003   2.697  15.335 -0.2170  0.9538  1.2738
 7149SOL    HW232907   2.139   2.686  15.392 -0.1619  1.2798  3.4066
 7150SOL     OW32908   0.398   3.935   3.347  0.2983 -0.3373  0.6772
 7150SOL    HW132909   0.464   3.946   3.415  2.2225  0.4381 -1.3362
 7150SOL    HW232910   0.438   3.903   3.266 -1.8411 -0.4892 -0.3078
 7151SOL     OW32911   1.027   3.197   3.750 -0.2730 -0.5710  0.1403
 7151SOL    HW132912   0.958   3.264   3.748 -0.2211 -0.4715  1.4682
 7151SOL    HW232913   0.976   3.117   3.768 -0.8971 -0.1703  0.1365
 7152SOL     OW32914   0.506   1.607   3.321 -0.0601 -0.0494  0.5402
 7152SOL    HW132915   0.479   1.680   3.377 -0.7089 -1.0056  1.4750
 7152SOL    HW232916   0.569   1.561   3.377  0.3017 -0.6639 -0.3735
 7153SOL     OW32917   3.191   3.369   1.103 -0.7320 -0.6590  0.4103
 7153SOL    HW132918   3.108   3.356   1.148 -1.5650 -2.8353 -1.8052
 7153SOL    HW232919   3.198   3.300   1.037 -1.8075  1.7895 -2.2411
 7154SOL     OW32920   1.855   3.988  11.101 -0.4752  0.2681  0.1856
 7154SOL    HW132921   1.789   3.920  11.091 -1.4124  1.0365  1.1164
 7154SOL    HW232922   1.933   3.939  11.126  0.4856  1.3683 -0.6315
 7155SOL     OW32923   2.516   0.269   4.862 -0.1706 -0.0482  0.2445
 7155SOL    HW132924   2.598   0.296   4.821  0.9936 -2.7835  0.7761
 7155SOL    HW232925   2.458   0.324   4.810 -1.2566  0.5545  2.0987
 7156SOL     OW32926   3.770   1.910  10.257 -0.4357  0.0957  0.3637
 7156SOL    HW132927   3.741   1.929  10.168 -1.4103  1.5581  1.0018
 7156SOL    HW232928   3.773   1.999  10.292  0.1325 -1.0300  3.1843
 7157SOL     OW32929   4.251   3.047   4.060  0.2969  0.2604  0.1513
 7157SOL    HW132930   4.200   3.058   3.981 -2.3031  0.7191  1.8898
 7157SOL    HW232931   4.298   2.967   4.035  0.2398  0.7261 -1.3954
 7158SOL     OW32932   0.003   2.641  13.152  0.0563 -0.4212 -0.3204
 7158SOL    HW132933   0.075   2.623  13.092  0.7588  1.2184  0.0343
 7158SOL    HW232934   4.710   2.553  13.185 -1.5377 -0.3051 -0.9387
 7159SOL     OW32935   3.545   1.795   7.156 -0.6094  1.0033 -0.3733
 7159SOL    HW132936   3.457   1.823   7.132 -1.0582  0.4423  0.6136
 7159SOL    HW232937   3.576   1.873   7.203 -1.7264  0.8540  0.6119
 7160SOL     OW32938   2.160   4.103  13.308 -0.0948  0.3094 -0.5294
 7160SOL    HW132939   2.217   4.058  13.246 -3.1046  0.2718 -3.2289
 7160SOL    HW232940   2.224   4.117  13.378 -1.6960 -1.2840  1.2609
 7161SOL     OW32941   2.940   3.956  11.721  0.3048  0.0484 -0.4932
 7161SOL    HW132942   2.973   4.014  11.790  0.4242 -0.4765 -0.1156
 7161SOL    HW232943   2.863   4.005  11.691 -0.4898 -1.2295 -0.5245
 7162SOL     OW32944   2.979   3.256   3.753 -0.1978  0.1430 -0.2777
 7162SOL    HW132945   3.066   3.277   3.786 -0.6235 -1.5897  2.0093
 7162SOL    HW232946   2.983   3.160   3.758 -0.3995  0.2871  2.4151
 7163SOL     OW32947   4.671   3.591   3.716 -0.5265  0.2467  0.2289
 7163SOL    HW132948   4.642   3.517   3.663  0.2061  0.4596 -0.4633
 7163SOL    HW232949   4.587   3.636   3.727 -1.2857 -1.5282  1.5494
 7164SOL     OW32950   3.310   3.361   0.445 -0.4864  0.0118 -0.2738
 7164SOL    HW132951   3.320   3.291   0.510 -1.1353  0.0073 -0.1780
 7164SOL    HW232952   3.402   3.369   0.421 -0.2262  0.0822  0.7782
 7165SOL     OW32953   0.194   3.623   6.476 -0.3727 -0.0113 -0.9064
 7165SOL    HW132954   0.259   3.624   6.406  0.9073  0.7146  0.2794
 7165SOL    HW232955   0.174   3.716   6.488  2.3654  0.5901 -0.9645
 7166SOL     OW32956   0.041   3.553   8.045 -0.2821 -0.1122 -0.3443
 7166SOL    HW132957   0.034   3.566   7.950 -0.6216  2.6632  0.0689
 7166SOL    HW232958   4.686   3.508   8.069 -0.0303 -0.5992 -0.4071
 7167SOL     OW32959   2.560   3.482   2.294  0.3460  0.2129  0.0408
 7167SOL    HW132960   2.626   3.415   2.313 -0.3339 -0.9016 -1.5640
 7167SOL    HW232961   2.504   3.429   2.237 -1.2514  0.9873  0.8772
 7168SOL     OW32962   3.134   3.496  17.205  0.1239  0.0363  0.5364
 7168SOL    HW132963   3.105   3.573  17.155 -0.2279  0.4102  1.3205
 7168SOL    HW232964   3.229   3.507  17.206  0.0956  0.3458 -0.0731
 7169SOL     OW32965   3.558   3.589   8.990  0.2387  0.2785  0.3499
 7169SOL    HW132966   3.603   3.640   8.923  1.2102 -1.8941 -0.6435
 7169SOL    HW232967   3.594   3.632   9.067  0.0319  2.3309 -0.7202
 7170SOL     OW32968   4.137   1.697   3.083  0.1697 -0.1688  0.3275
 7170SOL    HW132969   4.232   1.700   3.073 -0.0670  2.8639 -1.1213
 7170SOL    HW232970   4.113   1.681   2.991  4.2320 -1.8433 -0.4553
 7171SOL     OW32971   0.739   3.192   9.133  0.3253  0.3806  0.2143
 7171SOL    HW132972   0.748   3.111   9.184  2.2679  1.3386  1.3837
 7171SOL    HW232973   0.778   3.259   9.188  0.6969 -1.4279  2.1414
 7172SOL     OW32974   1.612   1.407   2.684 -0.4258  0.2921  0.9255
 7172SOL    HW132975   1.695   1.415   2.638 -0.6354 -0.3522  0.4355
 7172SOL    HW232976   1.607   1.311   2.680 -3.1848  0.3445  2.9046
 7173SOL     OW32977   3.445   2.572   8.601  0.0817 -0.0948  0.7228
 7173SOL    HW132978   3.459   2.494   8.655 -2.9386 -0.1371  1.4510
 7173SOL    HW232979   3.351   2.581   8.615  0.7858  2.8181  3.5772
 7174SOL     OW32980   3.499   3.952   6.585  0.6708 -0.0911 -0.2107
 7174SOL    HW132981   3.537   4.015   6.525  0.5061  1.4242  1.2740
 7174SOL    HW232982   3.429   3.999   6.629 -0.5128 -2.4877  0.4753
 7175SOL     OW32983   4.474   0.489   0.358  0.1765 -0.0422  0.6243
 7175SOL    HW132984   4.468   0.584   0.345 -0.7125  0.1795  2.6067
 7175SOL    HW232985   4.568   0.483   0.340  0.2265  0.4271  0.7313
 7176SOL     OW32986   3.259   0.243   6.856  0.3508  0.3472 -0.4416
 7176SOL    HW132987   3.354   0.237   6.866  0.3269 -1.4461 -1.2774
 7176SOL    HW232988   3.228   0.268   6.943  0.6178  1.4789 -0.6773
 7177SOL     OW32989   2.358   2.529   6.350  0.2707 -0.2795  0.3863
 7177SOL    HW132990   2.432   2.553   6.293 -2.7743  0.2495 -3.3477
 7177SOL    HW232991   2.336   2.450   6.300  3.0227 -0.9639  0.2279
 7178SOL     OW32992   0.563   2.066  16.277 -0.4351  0.1147  0.2537
 7178SOL    HW132993   0.609   2.025  16.204  1.0990  1.4391  0.4682
 7178SOL    HW232994   0.594   2.156  16.271 -1.0097  0.2204 -0.9723
 7179SOL     OW32995   3.688   2.105  12.908  0.0525  0.6975  0.9049
 7179SOL    HW132996   3.770   2.063  12.932 -0.1698 -0.9794 -1.2853
 7179SOL    HW232997   3.623   2.088  12.976 -2.2017  0.1533 -1.3734
 7180SOL     OW32998   0.193   2.424   0.952  0.2091 -0.1336 -0.4630
 7180SOL    HW132999   0.149   2.418   0.867  0.7498  0.8078 -0.8031
 7180SOL    HW233000   0.227   2.335   0.954  1.6672  0.4356 -0.2252
 7181SOL     OW33001   0.566   1.628   5.590 -0.1034 -0.0512  0.1452
 7181SOL    HW133002   0.590   1.630   5.682 -1.9655  1.1259  0.6158
 7181SOL    HW233003   0.566   1.533   5.577 -1.0156  0.3515 -2.7571
 7182SOL     OW33004   1.631   2.206   6.232 -0.3397 -0.2713  0.1067
 7182SOL    HW133005   1.656   2.153   6.307  2.2347 -0.7177 -1.0656
 7182SOL    HW233006   1.538   2.220   6.252 -0.3610 -1.2968  0.7134
 7183SOL     OW33007   2.495   2.983  11.980 -0.4954  0.3782 -0.1643
 7183SOL    HW133008   2.489   3.078  11.973  2.4537  0.5526 -0.2896
 7183SOL    HW233009   2.419   2.972  12.037  0.4702 -2.1663  0.6472
 7184SOL     OW33010   4.254   1.912   7.486 -0.2988 -0.3515 -0.0958
 7184SOL    HW133011   4.203   1.973   7.433  1.2511  1.4893  0.5098
 7184SOL    HW233012   4.219   1.827   7.459  0.7016 -1.7604  3.0324
 7185SOL     OW33013   2.476   0.602  11.244 -0.3265 -0.2962 -0.1441
 7185SOL    HW133014   2.549   0.578  11.300  1.6367 -1.0991 -3.0385
 7185SOL    HW233015   2.516   0.564  11.165 -1.8709 -1.4325 -0.4067
 7186SOL     OW33016   0.073   3.784  15.256  0.4913 -0.4791 -0.2148
 7186SOL    HW133017   0.161   3.764  15.224  1.1963  0.0022  1.4557
 7186SOL    HW233018   0.066   3.722  15.328 -1.4401  0.7846  0.6952
 7187SOL     OW33019   1.482   2.066   2.300  0.0311 -0.3010 -0.5955
 7187SOL    HW133020   1.470   2.143   2.244  0.7515  0.2187 -0.0389
 7187SOL    HW233021   1.407   2.086   2.356  1.2967  1.1637  0.6114
 7188SOL     OW33022   1.600   3.514  10.637 -0.1248  0.1500 -0.2936
 7188SOL    HW133023   1.597   3.609  10.648 -0.1379  0.1175 -0.0248
 7188SOL    HW233024   1.531   3.511  10.570 -0.1980 -0.5263 -0.1770
 7189SOL     OW33025   3.862   2.339   5.933  0.3198 -0.3507 -0.1431
 7189SOL    HW133026   3.872   2.260   5.881  0.4813 -1.0663  0.9875
 7189SOL    HW233027   3.787   2.385   5.895  0.0419  0.4536  1.3401
 7190SOL     OW33028   2.769   1.164   6.669  0.7899 -0.0473  0.0143
 7190SOL    HW133029   2.789   1.197   6.582  0.8496  0.3830  0.1909
 7190SOL    HW233030   2.683   1.126   6.653 -0.0284  1.7859  0.0793
 7191SOL     OW33031   4.299   2.406  13.749 -0.6996  0.0569  0.2998
 7191SOL    HW133032   4.276   2.349  13.675  2.0974 -1.5608  0.7020
 7191SOL    HW233033   4.358   2.471  13.710 -0.4942  0.9019  2.0218
 7192SOL     OW33034   2.610   0.416  13.155 -0.1086  0.1458 -0.0218
 7192SOL    HW133035   2.575   0.479  13.092  0.3358 -0.5447 -0.9439
 7192SOL    HW233036   2.620   0.340  13.098  0.1290  1.2563 -1.4596
 7193SOL     OW33037   4.572   2.102   2.089  0.0297  0.3910  1.0772
 7193SOL    HW133038   4.621   2.077   2.167  1.0417  1.7216  0.8697
 7193SOL    HW233039   4.576   2.198   2.096 -0.4194  0.8074 -4.2468
 7194SOL     OW33040   1.185   3.250   7.877  0.1096 -0.0787 -0.1725
 7194SOL    HW133041   1.168   3.344   7.872 -0.4846 -0.0718  2.0545
 7194SOL    HW233042   1.127   3.217   7.809  0.9160  0.0767 -0.9412
 7195SOL     OW33043   4.195   0.320   3.743 -0.1627  0.3630  0.1030
 7195SOL    HW133044   4.206   0.238   3.790  0.0802  2.3428  3.5159
 7195SOL    HW233045   4.164   0.302   3.654  0.1894 -0.2625  0.1121
 7196SOL     OW33046   1.822   0.742  14.524 -0.3251 -0.2942  0.2271
 7196SOL    HW133047   1.730   0.764  14.536  0.2734  1.2342  1.9824
 7196SOL    HW233048   1.822   0.663  14.470  2.4576  0.0569 -0.2738
 7197SOL     OW33049   0.463   2.030   8.908 -0.2101  0.1215  0.0035
 7197SOL    HW133050   0.437   1.969   8.978 -0.9903  0.4398 -0.0020
 7197SOL    HW233051   0.482   2.106   8.963 -3.4300  1.9705 -1.4299
 7198SOL     OW33052   2.316   0.181  10.183 -0.0458 -0.2827 -0.4457
 7198SOL    HW133053   2.282   0.118  10.247  1.1317 -0.1835  0.2775
 7198SOL    HW233054   2.309   0.138  10.097  1.0490 -2.5597  0.5989
 7199SOL     OW33055   0.334   3.688   4.246 -0.5549 -0.1132  0.1822
 7199SOL    HW133056   0.377   3.721   4.168 -1.5148  3.9852  1.3809
 7199SOL    HW233057   0.360   3.596   4.239  0.2956  0.1367  0.0912
 7200SOL     OW33058   3.791   2.282   6.741 -0.4230 -0.1194 -0.0253
 7200SOL    HW133059   3.880   2.285   6.706 -0.6873 -0.4745 -0.7279
 7200SOL    HW233060   3.740   2.333   6.678 -1.2090  0.5479  1.1532
 7201SOL     OW33061   0.058   4.265   5.582  0.1592 -0.2066 -1.1284
 7201SOL    HW133062   0.002   4.256   5.660 -0.2901  1.2537 -1.2909
 7201SOL    HW233063   0.129   4.325   5.604 -0.3365  0.3723 -1.1310
 7202SOL     OW33064   4.548   3.781   0.455 -0.1790 -0.3776 -0.4715
 7202SOL    HW133065   4.531   3.860   0.506 -1.2177 -0.1899 -1.1087
 7202SOL    HW233066   4.493   3.796   0.378  0.6077 -0.9161 -1.1480
 7203SOL     OW33067   0.300   0.702  17.250 -0.1906 -0.1943  0.7458
 7203SOL    HW133068   0.326   0.651  17.327 -1.5153 -1.4730  0.3589
 7203SOL    HW233069   0.247   0.772  17.287  0.2688  0.6165 -0.1245
 7204SOL     OW33070   1.459   0.292  12.479  0.1525 -0.0992 -0.0796
 7204SOL    HW133071   1.448   0.257  12.568  1.1668 -2.9000 -1.0597
 7204SOL    HW233072   1.399   0.366  12.476  0.3430  0.0201 -0.7571
 7205SOL     OW33073   1.438   3.266  16.666 -0.0451  0.4411 -0.6257
 7205SOL    HW133074   1.470   3.283  16.755  2.9174  0.6579 -1.7300
 7205SOL    HW233075   1.345   3.286  16.676 -0.5404 -1.3795 -1.5336
 7206SOL     OW33076   0.003   0.478   2.890  0.3261 -0.3695  0.1458
 7206SOL    HW133077   4.637   0.502   2.891  0.0997 -1.2888  0.9993
 7206SOL    HW233078   0.036   0.497   2.802 -0.1634  1.5380  0.3834
 7207SOL     OW33079   4.125   3.463   8.931 -0.2344  0.2223 -0.0096
 7207SOL    HW133080   4.067   3.426   8.865 -0.7217  1.3710 -0.2230
 7207SOL    HW233081   4.123   3.393   8.997 -0.9174  0.2824  0.0276
 7208SOL     OW33082   4.391   1.749   6.979 -0.1212  0.4753 -0.8917
 7208SOL    HW133083   4.314   1.787   6.938 -0.1674  0.1271 -1.1286
 7208SOL    HW233084   4.433   1.689   6.916  0.5198  0.4004 -0.3990
 7209SOL     OW33085   4.405   4.356   7.993  0.0072  0.1730  0.4164
 7209SOL    HW133086   4.381   4.278   8.043  0.0218  0.4157  0.8025
 7209SOL    HW233087   4.325   4.406   8.008  0.9711  0.9051  3.0952
 7210SOL     OW33088   4.508   3.655   6.695 -0.0983  0.1211 -0.4226
 7210SOL    HW133089   4.427   3.697   6.724 -0.9137 -1.4902 -0.3225
 7210SOL    HW233090   4.573   3.723   6.681  0.0214 -0.1742 -1.3391
 7211SOL     OW33091   0.224   0.127   2.207  0.3085 -0.4625 -0.1741
 7211SOL    HW133092   0.166   0.186   2.159  1.7186  1.3232  0.3142
 7211SOL    HW233093   0.237   0.184   2.283 -2.4540  0.9955 -0.7968
 7212SOL     OW33094   1.421   2.005  13.337 -0.0649 -0.2266  0.4909
 7212SOL    HW133095   1.389   2.088  13.373  0.7461  0.8806 -1.2752
 7212SOL    HW233096   1.514   2.027  13.332 -0.2131  0.1484 -0.7172
 7213SOL     OW33097   3.592   1.833   8.501 -0.0450  0.1899  0.3079
 7213SOL    HW133098   3.628   1.805   8.584  1.1572  3.2798  0.8345
 7213SOL    HW233099   3.622   1.924   8.499  1.6231 -0.3787 -1.9577
 7214SOL     OW33100   3.029   4.593   5.731 -0.5890  0.0242  0.3178
 7214SOL    HW133101   2.940   4.576   5.702 -1.5141  0.4884  2.9053
 7214SOL    HW233102   3.055   4.512   5.775  0.4679  0.2036  0.0312
 7215SOL     OW33103   1.332   4.359   6.842  0.6126 -0.0509 -0.5569
 7215SOL    HW133104   1.322   4.274   6.798  2.5443 -0.1460 -0.8186
 7215SOL    HW233105   1.244   4.366   6.880  1.1776  2.4373  0.2770
 7216SOL     OW33106   2.705   4.549   7.089 -0.7098 -0.3166  0.1736
 7216SOL    HW133107   2.688   4.632   7.134 -0.0727  0.0718 -0.2996
 7216SOL    HW233108   2.634   4.497   7.126 -1.4232 -1.7510 -3.2254
 7217SOL     OW33109   4.156   2.142  14.982 -0.8094  0.4564  0.4556
 7217SOL    HW133110   4.203   2.078  15.036  0.1526 -0.4134 -1.3966
 7217SOL    HW233111   4.170   2.222  15.032 -2.4705  1.8947 -1.3737
 7218SOL     OW33112   0.578   1.526   1.971 -0.3427 -0.3908 -0.6059
 7218SOL    HW133113   0.571   1.447   1.916  0.4254 -2.3164  2.0735
 7218SOL    HW233114   0.647   1.579   1.932  1.1153  1.1010  4.0381
 7219SOL     OW33115   4.604   1.874  11.205 -0.7458  0.3720 -0.5182
 7219SOL    HW133116   4.532   1.908  11.258  0.5987 -0.0861  1.6020
 7219SOL    HW233117   4.592   1.779  11.210  1.5459  0.0941 -0.3307
 7220SOL     OW33118   4.718   0.489   0.616 -0.0035 -1.0462 -0.2810
 7220SOL    HW133119   4.631   0.451   0.620 -0.5583  0.1758 -1.0273
 7220SOL    HW233120   4.702   0.575   0.578  0.2324 -0.8263  0.1018
 7221SOL     OW33121   2.238   3.106   7.756  0.5788  0.2604  0.4914
 7221SOL    HW133122   2.144   3.109   7.740  0.7563 -2.5314 -1.0864
 7221SOL    HW233123   2.258   3.194   7.727  0.3558  0.2680  0.3624
 7222SOL     OW33124   0.711   0.496   0.863  0.4567  0.0543 -0.3635
 7222SOL    HW133125   0.684   0.588   0.859 -1.9459 -0.6588 -0.6626
 7222SOL    HW233126   0.739   0.478   0.773 -1.8595 -1.1824 -0.8451
 7223SOL     OW33127   2.571   2.657   2.386 -0.1708 -0.4780  0.4538
 7223SOL    HW133128   2.490   2.629   2.343  0.3318 -1.1165 -0.0807
 7223SOL    HW233129   2.558   2.640   2.479 -0.0870 -1.2065  0.3319
 7224SOL     OW33130   0.066   2.821  11.872 -0.2971 -0.0695 -0.4058
 7224SOL    HW133131   4.721   2.823  11.937 -1.1027  1.1742 -1.3082
 7224SOL    HW233132   0.131   2.845  11.938  0.0003 -3.6823  0.5696
 7225SOL     OW33133   0.616   3.348   7.205  0.3673  0.3306 -0.0745
 7225SOL    HW133134   0.528   3.378   7.229  0.3653  0.4743 -0.2594
 7225SOL    HW233135   0.665   3.428   7.225 -0.6290  0.7923  0.5490
 7226SOL     OW33136   2.579   2.188   3.867 -0.6207 -0.2447  0.2701
 7226SOL    HW133137   2.494   2.167   3.906 -0.4641 -1.2903  0.0588
 7226SOL    HW233138   2.604   2.100   3.840  0.5901 -0.1442  1.1197
 7227SOL     OW33139   0.633   1.335   7.499  0.3246 -0.3695  0.3076
 7227SOL    HW133140   0.721   1.329   7.461  0.8307  1.9974  1.0895
 7227SOL    HW233141   0.609   1.424   7.472  0.3043  0.0928  1.8429
 7228SOL     OW33142   0.800   3.813   3.507  0.0249  0.5619 -0.1303
 7228SOL    HW133143   0.869   3.850   3.561  0.1347  0.3384 -0.1171
 7228SOL    HW233144   0.742   3.888   3.498  1.0104  1.3071 -0.2079
 7229SOL     OW33145   3.527   3.514   9.561  0.1279  0.3599 -0.1857
 7229SOL    HW133146   3.440   3.494   9.527 -0.5720 -1.1670  2.5059
 7229SOL    HW233147   3.578   3.441   9.526 -0.0058 -1.1252  2.7049
 7230SOL     OW33148   1.199   4.720  14.598 -0.2196  0.1470 -0.0515
 7230SOL    HW133149   1.170   4.701  14.509  0.1661 -0.6766 -0.0046
 7230SOL    HW233150   1.292   4.698  14.600 -0.5302 -1.0031  1.8241
 7231SOL     OW33151   2.853   1.673   8.744 -0.2346  0.3929 -0.1083
 7231SOL    HW133152   2.861   1.748   8.803  2.1023  0.5914 -0.6777
 7231SOL    HW233153   2.861   1.711   8.657  0.5787 -0.9532 -0.6165
 7232SOL     OW33154   1.561   2.347   8.494 -0.6710 -0.3135  0.0944
 7232SOL    HW133155   1.650   2.334   8.525 -0.5569 -0.0626 -0.1278
 7232SOL    HW233156   1.547   2.267   8.444 -0.2011  0.2360 -0.9095
 7233SOL     OW33157   4.420   1.168  10.309 -0.2995 -0.5109 -0.0104
 7233SOL    HW133158   4.327   1.142  10.305 -0.6256  0.9398 -1.9851
 7233SOL    HW233159   4.449   1.155  10.399 -0.6979 -1.3873 -0.0069
 7234SOL     OW33160   4.574   3.601   4.492 -0.5605  0.0808 -0.2032
 7234SOL    HW133161   4.576   3.540   4.419  1.5444 -0.1587  0.0534
 7234SOL    HW233162   4.631   3.668   4.453  0.8253  0.0669  1.7707
 7235SOL     OW33163   3.845   2.119  16.502 -1.0538 -0.0177  0.2253
 7235SOL    HW133164   3.879   2.103  16.414  1.8718  0.6795  1.2617
 7235SOL    HW233165   3.913   2.175  16.539 -0.0938 -1.9216  1.3246
 7236SOL     OW33166   0.469   2.928   1.980 -0.3865  0.0522  0.8635
 7236SOL    HW133167   0.414   2.850   1.985 -0.9655  0.3204 -1.2102
 7236SOL    HW233168   0.429   2.990   2.041  0.1731  2.4886 -1.2509
 7237SOL     OW33169   3.657   3.407   7.783 -0.0172 -0.3987 -0.0746
 7237SOL    HW133170   3.654   3.417   7.687 -1.4396 -1.7455 -0.1882
 7237SOL    HW233171   3.618   3.319   7.786  2.0155 -1.2420  1.7824
 7238SOL     OW33172   3.549   2.248   5.926 -0.4900  0.3361  0.3309
 7238SOL    HW133173   3.525   2.158   5.944 -1.0716  0.6219  0.9551
 7238SOL    HW233174   3.573   2.278   6.013  0.7724  3.4758 -1.0674
 7239SOL     OW33175   0.181   4.073   8.721 -0.3536 -1.1486  0.1530
 7239SOL    HW133176   0.139   4.100   8.802 -1.4004  1.1309 -1.1308
 7239SOL    HW233177   0.187   3.977   8.726 -0.4117 -1.1478  0.2393
 7240SOL     OW33178   2.288   2.015  12.980  0.7622 -0.1404 -0.0107
 7240SOL    HW133179   2.213   2.025  13.039 -0.8677 -0.0480 -2.0916
 7240SOL    HW233180   2.250   2.056  12.902 -1.0335 -1.1682  0.3185
 7241SOL     OW33181   4.198   0.854  10.194 -0.0341  0.0245 -0.1593
 7241SOL    HW133182   4.124   0.875  10.137  0.7735  2.9086 -0.1224
 7241SOL    HW233183   4.176   0.763  10.215  0.2715  0.8433  3.6669
 7242SOL     OW33184   4.290   0.622  11.886 -0.4546 -0.0941 -0.3471
 7242SOL    HW133185   4.355   0.632  11.956 -0.7209 -2.0470  0.1874
 7242SOL    HW233186   4.301   0.534  11.851 -0.4714  0.0485 -0.7148
 7243SOL     OW33187   4.445   0.583   4.752  0.1439  0.0996  0.5332
 7243SOL    HW133188   4.419   0.675   4.758 -0.1597  0.0450  0.0170
 7243SOL    HW233189   4.485   0.588   4.665 -0.2365  2.9986  0.5268
 7244SOL     OW33190   3.530   3.815  15.462  0.3739 -0.0210 -0.4440
 7244SOL    HW133191   3.517   3.821  15.367  0.7497 -0.3805 -0.5222
 7244SOL    HW233192   3.510   3.722  15.468  0.7510 -0.0583  0.2015
 7245SOL     OW33193   4.675   4.311   5.834 -0.4433  0.5922 -0.7066
 7245SOL    HW133194   0.022   4.353   5.879 -0.8052  2.1554 -1.5482
 7245SOL    HW233195   4.605   4.302   5.898  0.2126  0.8067  0.0378
 7246SOL     OW33196   4.381   0.812   9.742  0.1186  0.4788  0.3875
 7246SOL    HW133197   4.373   0.906   9.724 -0.3228 -0.0233 -2.0954
 7246SOL    HW233198   4.374   0.810   9.837 -0.6118 -3.4332  0.2240
 7247SOL     OW33199   2.575   1.215   4.164 -0.6832  0.1839  0.3787
 7247SOL    HW133200   2.585   1.122   4.184  2.0575  0.3569 -0.1875
 7247SOL    HW233201   2.645   1.251   4.217  0.9730 -1.6678 -0.5252
 7248SOL     OW33202   2.305   2.579   7.239 -0.7832  0.4485 -0.2610
 7248SOL    HW133203   2.234   2.551   7.296 -0.0690 -0.3450  0.2511
 7248SOL    HW233204   2.267   2.607   7.156 -0.6218  1.0171 -0.1400
 7249SOL     OW33205   0.347   0.554   9.832  0.0826  0.7006  0.5730
 7249SOL    HW133206   0.258   0.566   9.866 -0.1670 -0.2229  0.2300
 7249SOL    HW233207   0.333   0.465   9.799  2.6699  0.5218 -0.0095
 7250SOL     OW33208   3.819   1.091  16.790  0.3870  0.2888  0.5418
 7250SOL    HW133209   3.729   1.093  16.758 -0.4972 -1.1960  2.8800
 7250SOL    HW233210   3.822   1.171  16.842  2.3208 -0.2693  1.2982
 7251SOL     OW33211   1.637   0.962   4.110 -0.7704 -0.4511 -0.4743
 7251SOL    HW133212   1.722   0.953   4.066 -0.2385  0.4932  0.3661
 7251SOL    HW233213   1.584   0.892   4.072 -1.4694  0.8696 -1.9320
 7252SOL     OW33214   1.518   2.948   4.024  0.4372  0.3379 -0.6370
 7252SOL    HW133215   1.554   3.023   4.071  1.4659 -0.0370 -0.8364
 7252SOL    HW233216   1.545   2.969   3.935  0.3787  3.2377  0.0524
 7253SOL     OW33217   0.534   0.372   3.456  0.5640  0.0226 -0.3967
 7253SOL    HW133218   0.518   0.459   3.421  0.0456  0.8584  1.9546
 7253SOL    HW233219   0.592   0.393   3.530  2.0398 -2.7228 -0.7559
 7254SOL     OW33220   1.334   1.495   8.357  0.0733  0.0744  0.5677
 7254SOL    HW133221   1.323   1.413   8.310  0.6866  1.9545 -2.8702
 7254SOL    HW233222   1.243   1.525   8.358 -0.1043 -0.4116 -1.0697
 7255SOL     OW33223   1.654   0.397   6.958  0.2457 -0.0862  0.2835
 7255SOL    HW133224   1.593   0.385   6.885 -0.8091  1.8958  0.8116
 7255SOL    HW233225   1.739   0.414   6.917  0.2547 -2.4119 -0.6409
 7256SOL     OW33226   0.490   1.557   2.213  0.3800 -0.5502 -0.0766
 7256SOL    HW133227   0.406   1.511   2.207 -0.1493  0.5435 -1.1174
 7256SOL    HW233228   0.517   1.557   2.121  0.2247 -0.7924 -0.1212
 7257SOL     OW33229   4.707   2.120   3.446  0.0174 -0.3405 -0.2149
 7257SOL    HW133230   4.620   2.082   3.436 -0.2562  0.5498 -1.2223
 7257SOL    HW233231   4.708   2.137   3.540  0.5218  0.2026 -0.3188
 7258SOL     OW33232   3.308   4.141   9.784  0.1908  0.1053  0.0882
 7258SOL    HW133233   3.235   4.190   9.747 -2.2574 -3.2839  0.4020
 7258SOL    HW233234   3.379   4.146   9.720  1.2088 -0.1022  1.1939
 7259SOL     OW33235   1.860   1.040   4.468 -0.5864 -0.0136  0.0556
 7259SOL    HW133236   1.859   0.950   4.501  0.1006  0.1165  0.4503
 7259SOL    HW233237   1.900   1.029   4.382 -0.5687  1.0487 -0.0627
 7260SOL     OW33238   4.285   3.520   6.497 -0.1561  0.0371  0.3375
 7260SOL    HW133239   4.245   3.461   6.561 -1.2009 -0.1218 -0.4668
 7260SOL    HW233240   4.349   3.571   6.546  0.6915 -0.6246 -0.0895
 7261SOL     OW33241   4.168   3.396   7.648 -0.4430 -0.1309  0.1419
 7261SOL    HW133242   4.187   3.330   7.715 -0.7801 -0.2820  0.0889
 7261SOL    HW233243   4.087   3.434   7.683 -2.3705 -3.3723 -0.7955
 7262SOL     OW33244   2.146   1.544   8.501  0.2250  0.1848 -0.2217
 7262SOL    HW133245   2.156   1.596   8.421  0.5647 -0.8450 -0.8455
 7262SOL    HW233246   2.199   1.589   8.566 -0.8232  2.0214 -0.6619
 7263SOL     OW33247   1.564   0.183   2.191  0.3990 -0.0485  0.2261
 7263SOL    HW133248   1.471   0.188   2.214  0.5145 -0.6866  0.8280
 7263SOL    HW233249   1.601   0.258   2.237  0.8288 -0.6156  0.8051
 7264SOL     OW33250   2.061   4.435   7.801  0.2730  0.7455  0.4829
 7264SOL    HW133251   2.035   4.386   7.723  1.4388  0.5178  0.2310
 7264SOL    HW233252   1.994   4.503   7.801 -0.3955  0.0859  0.1764
 7265SOL     OW33253   4.008   0.643   0.411  0.0782 -0.2296  0.1897
 7265SOL    HW133254   4.042   0.580   0.347  1.6980  1.0195 -0.1560
 7265SOL    HW233255   3.948   0.685   0.349  1.8267  3.2114  0.8316
 7266SOL     OW33256   3.104   2.941   4.288 -0.3385  0.4441  0.0240
 7266SOL    HW133257   3.134   3.006   4.225 -1.5244  0.7749 -0.2112
 7266SOL    HW233258   3.147   2.861   4.258 -0.1546  1.2675 -1.8933
 7267SOL     OW33259   4.291   3.688  12.391  0.4223 -0.2496 -0.6214
 7267SOL    HW133260   4.318   3.602  12.360 -0.0507 -1.0490  1.1462
 7267SOL    HW233261   4.250   3.729  12.316 -0.8833  1.8685  1.2355
 7268SOL     OW33262   1.401   3.064   8.432 -0.2650  0.0582 -0.3144
 7268SOL    HW133263   1.402   3.155   8.403 -0.3601  0.0161 -0.4492
 7268SOL    HW233264   1.383   3.080   8.524  0.1499  1.0060 -0.3954
 7269SOL     OW33265   0.246   1.747  14.420  0.3869 -0.3210  0.1319
 7269SOL    HW133266   0.152   1.762  14.423  0.2621 -1.6840  3.0964
 7269SOL    HW233267   0.254   1.720  14.512 -0.6653  0.3940  0.4337
 7270SOL     OW33268   2.705   4.175   0.779  0.1119  0.5349 -0.1357
 7270SOL    HW133269   2.687   4.122   0.701 -1.6508  0.9838 -0.0430
 7270SOL    HW233270   2.615   4.175   0.811  0.4878  0.2107  0.9063
 7271SOL     OW33271   1.294   1.030   1.424  0.0529 -1.1265  0.3195
 7271SOL    HW133272   1.242   0.951   1.408  0.3376 -1.2734  0.1290
 7271SOL    HW233273   1.357   1.012   1.355 -2.6960 -0.9218 -2.2505
 7272SOL     OW33274   2.595   0.784   1.108 -0.2075 -0.3073  0.4687
 7272SOL    HW133275   2.615   0.867   1.064 -1.6595  0.0261  0.4286
 7272SOL    HW233276   2.659   0.729   1.062  0.1714 -0.0405  0.6768
 7273SOL     OW33277   2.176   3.343   7.351  0.4281  0.7030 -0.3534
 7273SOL    HW133278   2.229   3.359   7.273  0.3487 -0.9346 -0.7412
 7273SOL    HW233279   2.209   3.257   7.379 -2.3740  0.3114  1.8321
 7274SOL     OW33280   0.638   4.308   8.521  0.3455 -0.3475 -0.3456
 7274SOL    HW133281   0.627   4.400   8.545  1.2811 -0.2726 -0.1755
 7274SOL    HW233282   0.593   4.258   8.589 -0.7024  1.9364  0.6139
 7275SOL     OW33283   0.871   0.162  16.561  0.2505 -0.1735 -0.0766
 7275SOL    HW133284   0.866   0.069  16.538 -0.5905  0.4430 -2.4121
 7275SOL    HW233285   0.965   0.167  16.542 -0.0048 -1.6741 -1.7412
 7276SOL     OW33286   0.196   4.498   1.552  0.0452 -0.4573 -0.0257
 7276SOL    HW133287   0.125   4.541   1.504 -1.3123 -0.3215  2.0569
 7276SOL    HW233288   0.249   4.565   1.594  0.6782 -0.2721 -1.1355
 7277SOL     OW33289   2.707   4.622  11.633  0.2992 -0.1342  0.3461
 7277SOL    HW133290   2.737   4.532  11.647 -0.2146 -0.3316  0.2078
 7277SOL    HW233291   2.783   4.671  11.664  0.5093  0.2801 -0.8268
 7278SOL     OW33292   2.796   2.037   8.402 -0.0960  0.1410 -0.2120
 7278SOL    HW133293   2.825   2.109   8.458  1.8485 -1.0308  0.2609
 7278SOL    HW233294   2.804   2.069   8.312 -0.7944 -0.2221 -0.4080
 7279SOL     OW33295   0.902   2.203   6.638  0.1503  0.2398 -0.3577
 7279SOL    HW133296   0.891   2.243   6.552  1.0140  0.1350 -0.5134
 7279SOL    HW233297   0.817   2.162   6.655 -0.7867  2.7725  1.2433
 7280SOL     OW33298   2.094   0.544   7.437 -0.4664  0.3713 -0.5768
 7280SOL    HW133299   2.001   0.523   7.433 -0.0924 -1.1622 -1.2014
 7280SOL    HW233300   2.084   0.639   7.437 -1.5623  0.2599 -1.1048
 7281SOL     OW33301   4.091   4.481  17.265  0.5151  0.1977 -0.8584
 7281SOL    HW133302   4.064   4.391  17.281 -0.0886  0.6513  0.5749
 7281SOL    HW233303   4.172   4.476  17.213  1.5759  2.6440  0.5381
 7282SOL     OW33304   0.954   3.279  16.782  0.1854  0.0230 -0.1826
 7282SOL    HW133305   1.023   3.219  16.752  2.4720  1.9258  1.3541
 7282SOL    HW233306   0.996   3.364  16.786  0.1480  0.0286  0.0705
 7283SOL     OW33307   1.425   3.402  13.107  0.0338  0.4319 -0.2099
 7283SOL    HW133308   1.358   3.470  13.110  0.1179  0.5970 -2.0448
 7283SOL    HW233309   1.397   3.345  13.179 -0.4096  0.1819 -0.5778
 7284SOL     OW33310   2.824   2.118   6.294  0.4150 -0.1424 -0.1322
 7284SOL    HW133311   2.900   2.060   6.300  0.3029 -0.3219 -0.4401
 7284SOL    HW233312   2.757   2.052   6.311  0.3940 -0.7799 -2.5811
 7285SOL     OW33313   0.082   3.383   4.189 -0.4271 -0.1154  0.0202
 7285SOL    HW133314   0.168   3.405   4.153 -0.2401 -1.2445 -0.2321
 7285SOL    HW233315   0.118   3.352   4.271  0.7442  1.4255  0.0766
 7286SOL     OW33316   2.658   4.171   5.695  0.5068  0.9264 -0.4979
 7286SOL    HW133317   2.738   4.146   5.742  0.4801  1.5048 -0.1433
 7286SOL    HW233318   2.593   4.187   5.764 -0.4327  1.9990 -1.6454
 7287SOL     OW33319   1.739   0.003   9.992  0.5054 -0.0072 -0.0010
 7287SOL    HW133320   1.726   4.634   9.998 -0.4398  0.2238  1.6600
 7287SOL    HW233321   1.831   0.010  10.017 -0.6229  1.0237  3.8266
 7288SOL     OW33322   3.782   2.585   6.165  0.9638 -0.1307  0.0319
 7288SOL    HW133323   3.775   2.657   6.102  0.2604  1.0614  1.4508
 7288SOL    HW233324   3.863   2.541   6.141  1.1722  0.6487 -0.6975
 7289SOL     OW33325   2.354   2.974   3.919 -0.2736 -0.1206  0.0665
 7289SOL    HW133326   2.387   2.914   3.853  0.1453  1.1556 -0.8880
 7289SOL    HW233327   2.260   2.984   3.907  0.0400 -1.8203 -3.7448
 7290SOL     OW33328   4.725   4.395   9.898  0.1069 -0.7584 -0.5323
 7290SOL    HW133329   4.630   4.390   9.883  0.2042 -0.1636 -1.3341
 7290SOL    HW233330   0.021   4.305   9.921  1.0237 -1.0729 -2.6606
 7291SOL     OW33331   3.238   1.753   4.240  0.5061 -0.4293  0.2573
 7291SOL    HW133332   3.258   1.702   4.161  2.1005  1.2290 -0.4128
 7291SOL    HW233333   3.222   1.837   4.198  0.4084  0.4845  2.1762
 7292SOL     OW33334   2.743   2.283   2.402 -0.1280 -0.1578  0.0719
 7292SOL    HW133335   2.822   2.277   2.455 -0.4334  2.5419  0.8228
 7292SOL    HW233336   2.683   2.270   2.475  1.4263  0.1270  1.4037
 7293SOL     OW33337   3.772   3.540   3.977  0.2534  0.4392 -0.3832
 7293SOL    HW133338   3.761   3.634   3.964 -0.8851  0.5593  1.5750
 7293SOL    HW233339   3.825   3.516   3.901  0.8380  0.1464  0.1206
 7294SOL     OW33340   2.975   1.926  17.466 -0.1491 -0.3539  0.1719
 7294SOL    HW133341   2.993   1.832  17.466 -0.6782 -0.4499  0.2865
 7294SOL    HW233342   3.044   1.946  17.530 -1.4115 -0.1448  1.4496
 7295SOL     OW33343   4.402   4.278   1.244 -0.4622 -0.0281  0.2061
 7295SOL    HW133344   4.337   4.312   1.183 -0.9298 -0.1677  0.6191
 7295SOL    HW233345   4.476   4.259   1.186 -0.5226 -0.8470  0.3888
 7296SOL     OW33346   3.803   3.106   2.785  0.1119 -0.0446  0.6948
 7296SOL    HW133347   3.754   3.188   2.788  3.5567  1.9591  1.7336
 7296SOL    HW233348   3.752   3.049   2.728 -1.8539  2.0044  0.3793
 7297SOL     OW33349   1.842   1.206   2.800 -0.2304  0.6095  0.3914
 7297SOL    HW133350   1.899   1.168   2.868  1.9673  0.1155 -1.7164
 7297SOL    HW233351   1.766   1.228   2.853 -0.8377  1.1911 -0.7347
 7298SOL     OW33352   1.475   4.255  17.670  0.1180 -0.0864 -0.3495
 7298SOL    HW133353   1.404   4.299  17.623 -1.3187 -0.3424  1.5753
 7298SOL    HW233354   1.423   4.199   0.024 -0.1300  1.2345  0.6814
 7299SOL     OW33355   2.559   0.013  15.908  0.4677 -0.2599  0.1591
 7299SOL    HW133356   2.598   4.703  15.988  0.0470  0.9784  0.9141
 7299SOL    HW233357   2.639   0.005  15.855  0.8673 -0.3722  0.7893
 7300SOL     OW33358   4.352   2.157   5.994 -0.0009  0.3871  0.1088
 7300SOL    HW133359   4.265   2.129   5.966  0.2367  0.9480 -1.2283
 7300SOL    HW233360   4.348   2.253   5.997  0.1504  0.4134 -0.4353
 7301SOL     OW33361   1.571   2.576  12.213 -0.0327  0.4862  0.5319
 7301SOL    HW133362   1.617   2.494  12.193 -1.6783  0.5798 -3.5200
 7301SOL    HW233363   1.536   2.586  12.125 -1.8998 -0.2141  1.1994
 7302SOL     OW33364   0.677   2.131   3.338 -0.1498 -0.2455 -0.1035
 7302SOL    HW133365   0.605   2.137   3.275  0.0608  0.9413 -0.2303
 7302SOL    HW233366   0.753   2.126   3.281 -0.2738  3.8407 -0.6406
 7303SOL     OW33367   0.310   1.726   6.109  0.2344 -0.0878  0.2331
 7303SOL    HW133368   0.277   1.731   6.019  0.8467  0.5490  0.0477
 7303SOL    HW233369   0.269   1.647   6.145 -3.1231  1.0772 -1.0052
 7304SOL     OW33370   2.790   1.892   5.131 -0.1975 -1.0672 -0.2426
 7304SOL    HW133371   2.728   1.956   5.097 -0.4645 -0.5671  1.1894
 7304SOL    HW233372   2.870   1.942   5.116 -0.4940 -0.4199  0.3752
 7305SOL     OW33373   2.932   2.671   3.981 -0.1129  0.8604  0.4198
 7305SOL    HW133374   2.871   2.736   4.016  0.5916  1.6042  0.2389
 7305SOL    HW233375   2.930   2.597   4.043 -1.0429  1.5619  1.2258
 7306SOL     OW33376   3.534   2.982  12.738  0.2783 -0.1757  0.8877
 7306SOL    HW133377   3.626   2.954  12.735  0.6386  0.9684  1.0815
 7306SOL    HW233378   3.522   2.976  12.643 -2.2258  0.8478  1.1430
 7307SOL     OW33379   2.710   2.935   4.556  0.3990  0.5302 -0.3828
 7307SOL    HW133380   2.758   2.958   4.636 -0.5008 -2.7982  1.1586
 7307SOL    HW233381   2.696   3.019   4.512  0.9456  0.4769 -0.6484
 7308SOL     OW33382   1.305   1.076   3.041 -0.2339  0.2397  0.3778
 7308SOL    HW133383   1.324   1.042   2.954  1.5395 -0.5698  1.0688
 7308SOL    HW233384   1.349   1.018   3.104 -1.5279 -0.6703  0.4617
 7309SOL     OW33385   1.252   0.138   1.992  0.1956 -0.4222  0.1556
 7309SOL    HW133386   1.281   0.067   2.048 -1.9686 -1.2391  0.2164
 7309SOL    HW233387   1.190   0.184   2.047 -1.6587 -2.8459  0.0816
 7310SOL     OW33388   3.727   3.044  14.935 -0.0569 -0.1796 -0.1196
 7310SOL    HW133389   3.652   3.095  14.965  1.3594  0.0523  3.0409
 7310SOL    HW233390   3.743   2.968  14.991 -0.0717  0.1302  0.3064
 7311SOL     OW33391   3.560   0.798   0.161  0.0403  0.5371 -0.3159
 7311SOL    HW133392   3.571   0.878   0.110  0.2772 -1.0684 -2.7490
 7311SOL    HW233393   3.484   0.763   0.116 -0.9972  2.0204  0.2501
 7312SOL     OW33394   0.259   0.819   4.821  0.3096 -0.2132  0.0871
 7312SOL    HW133395   0.175   0.790   4.857  0.3525 -0.9570 -0.3908
 7312SOL    HW233396   0.268   0.897   4.875  0.0363 -0.4988  0.5471
 7313SOL     OW33397   2.539   3.255  14.900 -0.0028  0.5038 -0.2947
 7313SOL    HW133398   2.565   3.187  14.838 -0.2147 -1.4366  1.7789
 7313SOL    HW233399   2.450   3.229  14.922 -1.0227  2.3452 -2.2634
 7314SOL     OW33400   1.346   2.881  10.676 -0.1442 -0.1577  0.2672
 7314SOL    HW133401   1.320   2.915  10.762 -0.4939 -0.0796  0.1316
 7314SOL    HW233402   1.365   2.960  10.625 -0.4138  0.7688  1.5781
 7315SOL     OW33403   2.890   1.806   3.915  0.5728 -0.5775  0.4267
 7315SOL    HW133404   2.925   1.869   3.853  1.2259 -1.0467  0.3159
 7315SOL    HW233405   2.796   1.811   3.901  0.8913  0.6282 -1.1921
 7316SOL     OW33406   2.969   2.714   0.486  0.4177  0.6876 -0.3929
 7316SOL    HW133407   2.904   2.740   0.551  1.3780  2.1477 -0.0077
 7316SOL    HW233408   2.940   2.627   0.459  1.5548  0.1376  0.1186
 7317SOL     OW33409   3.963   1.539  12.453  0.2423 -0.0026  0.1891
 7317SOL    HW133410   4.026   1.579  12.393  0.3234  1.3671  1.1874
 7317SOL    HW233411   3.891   1.524  12.391 -0.9549  0.8275  1.3655
 7318SOL     OW33412   3.081   0.169   1.554  0.0485  0.5100 -0.0805
 7318SOL    HW133413   3.075   0.249   1.500  0.6908  2.9049  3.3900
 7318SOL    HW233414   3.167   0.144   1.520 -0.5437 -2.0947  0.4026
 7319SOL     OW33415   3.562   3.690  14.086 -0.0822  0.2102 -0.2214
 7319SOL    HW133416   3.616   3.705  14.008  0.4775 -0.5161  0.0326
 7319SOL    HW233417   3.595   3.758  14.145 -0.4224  0.2424 -0.0662
 7320SOL     OW33418   2.834   4.051  13.569 -0.3899  0.4343 -0.4912
 7320SOL    HW133419   2.920   4.091  13.580  0.0614 -0.9706  1.0054
 7320SOL    HW233420   2.822   3.986  13.638 -0.3426  0.5921 -0.3355
 7321SOL     OW33421   0.664   1.854   7.980  0.6210  0.3571 -0.2088
 7321SOL    HW133422   0.677   1.921   7.913  0.3633 -0.2915 -0.8999
 7321SOL    HW233423   0.731   1.889   8.039 -0.9303  1.7923  0.7060
 7322SOL     OW33424   1.801   1.697   3.458  0.0110  0.0959 -0.9696
 7322SOL    HW133425   1.747   1.628   3.419 -0.7397  0.5786 -0.7719
 7322SOL    HW233426   1.777   1.782   3.422 -1.2259 -0.0199 -0.4237
 7323SOL     OW33427   1.931   0.858  15.600  0.1947  0.0103 -0.9078
 7323SOL    HW133428   1.916   0.951  15.616 -0.7018  0.1427 -2.5541
 7323SOL    HW233429   2.027   0.857  15.601  0.1897 -1.2231 -2.9851
 7324SOL     OW33430   1.256   2.983  10.923  0.0807 -0.3512  0.3046
 7324SOL    HW133431   1.310   3.019  10.993  2.1013 -0.8393 -1.0182
 7324SOL    HW233432   1.176   3.035  10.929  2.1354  2.6853  1.3026
 7325SOL     OW33433   0.840   1.265   1.457  0.6671  0.0626  0.0154
 7325SOL    HW133434   0.895   1.193   1.490  0.5427  1.2603  2.8267
 7325SOL    HW233435   0.890   1.280   1.377  1.3419 -0.1236  0.4031
 7326SOL     OW33436   3.429   1.013   8.387 -0.0841 -0.3137  0.3204
 7326SOL    HW133437   3.464   1.009   8.475 -0.8792  0.1476  0.6660
 7326SOL    HW233438   3.510   1.015   8.337 -1.1942 -1.4327 -1.5541
 7327SOL     OW33439   2.874   0.605   4.545 -0.4470  0.2010  0.0881
 7327SOL    HW133440   2.880   0.699   4.528  2.5602 -0.1014 -0.5330
 7327SOL    HW233441   2.884   0.565   4.459  0.8189 -2.8110  1.6304
 7328SOL     OW33442   2.281   2.188   7.967 -0.3775 -0.2100  0.2089
 7328SOL    HW133443   2.346   2.217   7.904 -0.7840 -0.6206 -0.3987
 7328SOL    HW233444   2.291   2.263   8.026 -2.3069  1.1320 -1.1644
 7329SOL     OW33445   4.041   4.331   0.460  0.4198  0.0127 -0.4452
 7329SOL    HW133446   4.022   4.270   0.532  1.2664  0.7327  0.3840
 7329SOL    HW233447   4.102   4.390   0.503 -1.0685 -0.1378  1.8839
 7330SOL     OW33448   3.305   4.618   0.111  0.5241  0.2355  0.6143
 7330SOL    HW133449   3.214   4.591   0.117  0.4368  0.1345 -0.9957
 7330SOL    HW233450   3.287   4.680   0.181  1.0147 -0.5672  1.4484
 7331SOL     OW33451   3.459   2.908   4.963  0.1873  0.4708  0.5052
 7331SOL    HW133452   3.445   2.868   4.877  0.0390 -1.6061  1.4926
 7331SOL    HW233453   3.553   2.915   4.977  0.1405  2.1916 -0.0390
 7332SOL     OW33454   4.351   1.856   0.268 -0.5580 -0.4512  0.8219
 7332SOL    HW133455   4.381   1.769   0.245 -1.6100 -0.4647 -0.4576
 7332SOL    HW233456   4.299   1.834   0.346 -3.1205 -0.4457 -0.8854
 7333SOL     OW33457   2.417   2.079  12.596 -0.0123  0.2569  0.0721
 7333SOL    HW133458   2.457   2.138  12.660 -0.5565  1.6818 -0.9188
 7333SOL    HW233459   2.454   2.116  12.516  1.6887 -0.1142  0.6814
 7334SOL     OW33460   1.957   2.411  14.684 -0.5293  0.2085  0.3050
 7334SOL    HW133461   2.028   2.397  14.747  0.4454 -1.3305 -1.1266
 7334SOL    HW233462   1.922   2.492  14.719 -2.1111 -0.2920 -0.1053
 7335SOL     OW33463   1.692   0.371  10.181 -0.3293  0.2315  0.1098
 7335SOL    HW133464   1.684   0.308  10.109  1.9145 -1.0406  1.0036
 7335SOL    HW233465   1.613   0.356  10.233 -0.7274  1.9163 -0.0287
 7336SOL     OW33466   1.452   3.690  15.685 -0.0702  0.0438 -1.1179
 7336SOL    HW133467   1.542   3.677  15.714 -0.3879  1.1486  0.3657
 7336SOL    HW233468   1.455   3.706  15.590  1.2628  4.1489 -0.3724
 7337SOL     OW33469   2.802   1.901   8.881  0.5324  0.1964  0.2872
 7337SOL    HW133470   2.751   1.953   8.818  0.2419  1.2537  1.4021
 7337SOL    HW233471   2.889   1.937   8.861  1.0591 -0.5190  1.3166
 7338SOL     OW33472   3.112   1.359   0.577  0.1939  0.0952 -0.1643
 7338SOL    HW133473   3.155   1.415   0.640  0.7197 -0.1919 -0.2701
 7338SOL    HW233474   3.023   1.394   0.584  0.1062  0.2089 -1.8572
 7339SOL     OW33475   4.106   2.276  10.921 -0.4634  0.3956 -0.2712
 7339SOL    HW133476   4.052   2.220  10.976  2.1988 -1.0772  0.8629
 7339SOL    HW233477   4.167   2.209  10.889  2.4668  2.0931  1.7530
 7340SOL     OW33478   0.024   2.308  12.560  0.2278  0.1198 -0.3280
 7340SOL    HW133479   4.719   2.269  12.478  3.1857 -1.0003 -0.9246
 7340SOL    HW233480   0.094   2.243  12.569 -1.4526 -1.6750 -0.3023
 7341SOL     OW33481   4.018   0.728  15.086 -0.0076 -0.4995 -0.1190
 7341SOL    HW133482   4.064   0.645  15.092  2.0157  0.6230 -0.2985
 7341SOL    HW233483   3.977   0.718  15.000 -1.4278 -2.4524  0.7872
 7342SOL     OW33484   1.118   2.850  16.678 -0.2069 -0.0432  0.8941
 7342SOL    HW133485   1.067   2.813  16.606  0.7767 -0.3108  0.3267
 7342SOL    HW233486   1.054   2.834  16.747  0.4074 -1.1523  1.2091
 7343SOL     OW33487   0.522   3.575   5.929 -0.1178  0.0277 -0.5311
 7343SOL    HW133488   0.450   3.635   5.911  0.6812  1.1203 -0.0795
 7343SOL    HW233489   0.482   3.492   5.958 -2.5721  1.3312 -0.2215
 7344SOL     OW33490   1.606   2.580   4.399 -0.1177  0.0958  0.0761
 7344SOL    HW133491   1.567   2.666   4.385  1.5115  0.2690 -3.3015
 7344SOL    HW233492   1.524   2.531   4.410  0.0136 -0.0414  0.4469
 7345SOL     OW33493   1.921   1.404   8.170  0.2499 -0.3134 -0.4601
 7345SOL    HW133494   1.857   1.475   8.161 -0.7645 -1.2516 -0.6883
 7345SOL    HW233495   1.909   1.379   8.262  1.2238  1.4215  0.1408
 7346SOL     OW33496   0.013   0.242   6.300 -0.2382  0.4513 -0.4146
 7346SOL    HW133497   4.699   0.311   6.352  2.3979 -0.0008  2.1938
 7346SOL    HW233498   0.106   0.262   6.303 -0.2449  0.4827 -0.4155
 7347SOL     OW33499   4.652   0.013   9.598  0.7798 -0.5615  0.4976
 7347SOL    HW133500   4.629   0.033   9.689  0.0620 -0.8511  0.3771
 7347SOL    HW233501   4.580   0.046   9.544  3.6437  2.7081 -1.3735
 7348SOL     OW33502   4.089   1.372  11.191  0.7113  0.3077 -0.8460
 7348SOL    HW133503   4.110   1.442  11.128  2.3558  0.1009 -0.5302
 7348SOL    HW233504   4.061   1.299  11.136 -0.9562  0.7755 -0.6182
 7349SOL     OW33505   4.467   2.603  16.069  0.0112  0.2813  0.1956
 7349SOL    HW133506   4.475   2.663  16.143  2.9298  0.1462 -0.0021
 7349SOL    HW233507   4.374   2.580  16.075  0.5619 -2.1107 -0.4796
 7350SOL     OW33508   1.549   0.192   9.950 -0.1291  0.0143  0.4009
 7350SOL    HW133509   1.613   0.250   9.908 -1.2376  2.4784  2.0869
 7350SOL    HW233510   1.614   0.123   9.957 -0.4331 -0.0751  2.2294
 7351SOL     OW33511   0.483   0.655  13.131  0.0024  0.0778 -0.6672
 7351SOL    HW133512   0.443   0.677  13.047 -0.6256 -0.1057 -0.4140
 7351SOL    HW233513   0.408   0.613  13.173 -0.4990  0.8454 -0.8008
 7352SOL     OW33514   0.023   1.504   9.239  0.0736  0.1321 -0.2989
 7352SOL    HW133515   4.721   1.461   9.320 -2.2693  0.5560 -0.8897
 7352SOL    HW233516   0.118   1.501   9.253  0.0087  2.1775  0.6230
 7353SOL     OW33517   0.797   3.679   9.043  0.4071 -0.1239  0.1883
 7353SOL    HW133518   0.772   3.753   9.099 -0.0556 -1.6184  1.9488
 7353SOL    HW233519   0.888   3.664   9.069  0.9289  1.6378 -0.5806
 7354SOL     OW33520   2.794   3.888   3.651 -0.6870 -0.6887  0.3690
 7354SOL    HW133521   2.733   3.954   3.618 -0.7930 -0.7517  0.4392
 7354SOL    HW233522   2.826   3.840   3.574 -0.0003  0.4303 -0.0449
 7355SOL     OW33523   4.122   1.240   2.945 -0.1164  0.2218  0.3668
 7355SOL    HW133524   4.106   1.326   2.906 -2.1465  0.8926  2.6249
 7355SOL    HW233525   4.174   1.275   3.017 -1.1713 -0.5458  1.5050
 7356SOL     OW33526   2.153   0.602  14.812 -0.0316  0.1964 -0.0479
 7356SOL    HW133527   2.109   0.549  14.879  0.8579 -0.4831 -0.0010
 7356SOL    HW233528   2.234   0.553  14.805  1.1425  2.3610 -1.7045
 7357SOL     OW33529   4.162   3.704  12.915  0.1665 -0.1196  0.1124
 7357SOL    HW133530   4.223   3.684  12.844 -1.0307 -0.6071 -0.7691
 7357SOL    HW233531   4.078   3.697  12.869  0.7757 -1.4878 -0.7885
 7358SOL     OW33532   3.183   3.877   7.978  0.1282  0.0556 -0.0102
 7358SOL    HW133533   3.201   3.783   7.988 -2.2533 -0.3058  0.7843
 7358SOL    HW233534   3.234   3.906   8.054  1.3344  1.6324 -1.4095
 7359SOL     OW33535   3.577   0.849  10.202 -0.0646 -0.4079 -0.1598
 7359SOL    HW133536   3.656   0.881  10.245  0.0750  0.0708 -0.7797
 7359SOL    HW233537   3.596   0.758  10.177 -1.5618 -1.0759  1.1240
 7360SOL     OW33538   0.281   4.282   1.142 -0.2025 -0.1696 -0.6447
 7360SOL    HW133539   0.211   4.334   1.181  1.3370  1.8388 -0.5616
 7360SOL    HW233540   0.330   4.257   1.220 -0.3545 -1.0156 -0.8220
 7361SOL     OW33541   4.417   2.784   2.828  0.0909 -0.0781  0.7032
 7361SOL    HW133542   4.456   2.856   2.778 -2.7365  1.0291  0.1160
 7361SOL    HW233543   4.435   2.806   2.919 -1.2129 -0.3277  1.0151
 7362SOL     OW33544   1.762   1.399  13.727 -0.7843 -0.0208  0.0906
 7362SOL    HW133545   1.701   1.466  13.758  0.2793  0.3151  1.4257
 7362SOL    HW233546   1.710   1.349  13.664  0.5289  1.3405 -2.1030
 7363SOL     OW33547   4.680   4.250   6.834  0.3777 -0.8274 -0.3116
 7363SOL    HW133548   4.607   4.190   6.821 -1.1862  0.7315  1.3408
 7363SOL    HW233549   0.025   4.189   6.858  1.7420  0.2495 -1.5916
 7364SOL     OW33550   2.449   0.918   7.742  0.3513 -0.0327  0.3901
 7364SOL    HW133551   2.486   0.867   7.814 -1.2655  0.1116  1.3015
 7364SOL    HW233552   2.379   0.969   7.783  1.3487  1.5270  0.1927
 7365SOL     OW33553   3.888   2.109  15.048 -0.1813 -0.6615 -1.0022
 7365SOL    HW133554   3.977   2.127  15.016 -0.4199  0.4641 -1.0119
 7365SOL    HW233555   3.907   2.097  15.141  0.6586  3.8569 -0.5971
 7366SOL     OW33556   1.682   0.796   1.346  0.0464 -0.1389 -0.1844
 7366SOL    HW133557   1.747   0.783   1.277  1.2505  0.6526  0.8056
 7366SOL    HW233558   1.635   0.875   1.318 -0.9995  0.0085  2.0094
 7367SOL     OW33559   3.095   1.793   8.211 -0.4698  0.5174 -0.2016
 7367SOL    HW133560   3.151   1.870   8.212  2.1229 -1.3278 -0.6748
 7367SOL    HW233561   3.151   1.723   8.245  1.5766  1.5783 -1.4027
 7368SOL     OW33562   3.214   1.880   3.210 -0.2898  0.2050  0.2264
 7368SOL    HW133563   3.260   1.876   3.294  0.3799  1.0817 -0.0994
 7368SOL    HW233564   3.268   1.944   3.164  0.2972 -1.0476 -0.8279
 7369SOL     OW33565   3.525   0.249   8.457  0.1918 -0.2651 -0.6472
 7369SOL    HW133566   3.440   0.272   8.494  1.1500 -0.1429  1.4910
 7369SOL    HW233567   3.505   0.158   8.433  1.9858 -1.3522  2.0015
 7370SOL     OW33568   1.835   2.110  11.457 -0.4782  0.3280  0.2380
 7370SOL    HW133569   1.804   2.098  11.546  1.1344 -1.2076  0.6062
 7370SOL    HW233570   1.928   2.136  11.463 -0.9816  2.2998 -0.4424
 7371SOL     OW33571   1.714   0.011  16.581  0.0152  0.2575  0.2048
 7371SOL    HW133572   1.748   0.046  16.664  0.0668  1.5245 -0.3396
 7371SOL    HW233573   1.798   4.722  16.536  0.9033 -1.1476  2.3194
 7372SOL     OW33574   4.471   1.591   9.985  0.1654  0.2171 -0.1308
 7372SOL    HW133575   4.407   1.656  10.013  0.2915  0.4990 -0.4953
 7372SOL    HW233576   4.467   1.522  10.051  0.2983 -1.1460 -1.5527
 7373SOL     OW33577   0.292   2.887   8.242  0.1714  0.1648  0.1891
 7373SOL    HW133578   0.381   2.855   8.229  0.3234  0.1773  1.2151
 7373SOL    HW233579   0.262   2.825   8.310 -1.2487  1.4681  0.7498
 7374SOL     OW33580   0.659   2.796   2.160 -0.2362 -0.5999  0.2554
 7374SOL    HW133581   0.652   2.701   2.165 -0.8361 -0.6627 -1.8766
 7374SOL    HW233582   0.577   2.830   2.124  0.1655  0.7702  0.6160
 7375SOL     OW33583   4.225   3.684   8.595  0.4819  0.0162 -0.2892
 7375SOL    HW133584   4.271   3.612   8.553  1.4776  0.1764  0.5278
 7375SOL    HW233585   4.297   3.737   8.627  0.0954  0.8009 -0.7026
 7376SOL     OW33586   4.341   2.998   7.528 -0.5327 -0.0776  0.1584
 7376SOL    HW133587   4.389   3.053   7.467 -0.4644 -2.3964 -1.8819
 7376SOL    HW233588   4.344   2.911   7.487 -1.0141  0.7158 -1.5646
 7377SOL     OW33589   3.895   1.112   8.392 -0.1336 -0.2626 -0.0194
 7377SOL    HW133590   3.976   1.080   8.431 -0.3031  1.0632  1.4308
 7377SOL    HW233591   3.923   1.174   8.325 -0.2580  0.7589  0.8621
 7378SOL     OW33592   0.237   2.394  17.438 -0.1114  0.1254 -0.2010
 7378SOL    HW133593   0.234   2.476  17.389  1.6711  0.2664 -0.1049
 7378SOL    HW233594   0.159   2.403  17.491  0.9340  0.1157  1.3364
 7379SOL     OW33595   1.854   2.364   7.770  0.7152  0.4012  0.0847
 7379SOL    HW133596   1.830   2.348   7.679  0.8552  2.1223 -0.2498
 7379SOL    HW233597   1.854   2.459   7.780  0.7358  0.2454  1.5255
 7380SOL     OW33598   1.764   4.339   4.422  0.4952  0.5856 -0.2483
 7380SOL    HW133599   1.797   4.289   4.497  0.8544  0.1483 -0.6920
 7380SOL    HW233600   1.669   4.338   4.431  0.6483  0.9183  1.4346
 7381SOL     OW33601   3.041   3.137   5.286  0.0275  0.0248  0.4215
 7381SOL    HW133602   3.058   3.118   5.194  2.8974  0.3505  0.8832
 7381SOL    HW233603   3.050   3.232   5.283  0.9061 -0.0294  1.3692
 7382SOL     OW33604   3.732   4.259  12.181  0.1213 -0.5707 -0.2105
 7382SOL    HW133605   3.771   4.310  12.109 -0.6032 -1.6717 -1.3630
 7382SOL    HW233606   3.704   4.328  12.241 -0.6305 -0.7419 -0.3738
 7383SOL     OW33607   4.542   1.262   0.095 -0.2405  0.0718 -0.1640
 7383SOL    HW133608   4.512   1.251   0.005 -1.0655 -2.7452  0.4775
 7383SOL    HW233609   4.464   1.249   0.149 -0.0098  0.6024  0.3025
 7384SOL     OW33610   0.250   3.756  11.292 -0.4363  0.3191 -0.6742
 7384SOL    HW133611   0.206   3.741  11.376  1.1693 -0.3098  0.0551
 7384SOL    HW233612   0.244   3.850  11.279  2.1846  0.6503  0.4107
 7385SOL     OW33613   0.206   0.887   2.765 -0.7885  0.8322  0.1521
 7385SOL    HW133614   0.154   0.809   2.745  1.1977 -1.5916  4.3619
 7385SOL    HW233615   0.292   0.873   2.725 -0.6445 -0.1280  0.7992
 7386SOL     OW33616   0.652   4.409   5.505  0.5341 -0.2485  0.1182
 7386SOL    HW133617   0.592   4.471   5.463 -1.6089 -2.7038 -0.4805
 7386SOL    HW233618   0.672   4.373   5.418 -3.9413 -0.1252 -0.9666
 7387SOL     OW33619   0.432   2.804  14.178 -0.6331  0.3732 -0.3853
 7387SOL    HW133620   0.504   2.767  14.127  1.8448 -0.5527  3.6813
 7387SOL    HW233621   0.357   2.756  14.143 -1.5493  0.5917  1.2710
 7388SOL     OW33622   3.916   2.707  16.097 -0.1680 -0.2492  0.5346
 7388SOL    HW133623   3.989   2.720  16.037 -1.4538 -0.0109 -0.9999
 7388SOL    HW233624   3.916   2.788  16.148  0.0167 -0.9003  1.5670
 7389SOL     OW33625   3.192   0.505  14.726 -0.5609 -0.1334 -0.3416
 7389SOL    HW133626   3.285   0.514  14.750 -0.0101  1.4691 -3.0682
 7389SOL    HW233627   3.157   0.593  14.736  0.0537  0.0983 -0.1705
 7390SOL     OW33628   2.671   1.875   7.199  0.2186 -0.3814 -0.1280
 7390SOL    HW133629   2.628   1.798   7.160  0.9492 -1.2699  0.8173
 7390SOL    HW233630   2.747   1.870   7.142  0.9412 -1.5763  0.9503
 7391SOL     OW33631   0.396   1.997  14.251 -0.0976  0.1856 -0.0191
 7391SOL    HW133632   0.322   2.026  14.306  0.7563 -0.8240  1.6570
 7391SOL    HW233633   0.441   1.941  14.314  1.8817  1.4978 -0.2539
 7392SOL     OW33634   4.655   3.668   2.639 -0.3651 -0.1385 -0.0520
 7392SOL    HW133635   4.638   3.743   2.695 -0.7109 -0.7779  0.6928
 7392SOL    HW233636   4.576   3.614   2.637 -1.4410  1.4330  0.9443
 7393SOL     OW33637   3.134   1.903   7.662  0.2018 -1.0429  0.2215
 7393SOL    HW133638   3.170   1.847   7.731  0.9859  0.8319  1.3394
 7393SOL    HW233639   3.216   1.951   7.648 -0.2061 -0.4551 -0.1820
 7394SOL     OW33640   0.296   0.961   7.063  0.6379 -0.1606 -0.0673
 7394SOL    HW133641   0.367   0.914   7.107 -1.6519 -2.6399  0.8870
 7394SOL    HW233642   0.319   0.937   6.973  1.7060  0.6347 -0.0114
 7395SOL     OW33643   3.080   2.146   8.327 -0.6617 -0.1571  0.4223
 7395SOL    HW133644   3.066   2.114   8.416  2.0013 -0.0947  0.8831
 7395SOL    HW233645   3.147   2.212   8.341  0.6933 -1.5339  0.4774
 7396SOL     OW33646   3.228   2.577   8.218 -0.0426 -0.0467 -0.0598
 7396SOL    HW133647   3.165   2.600   8.286  0.0427 -1.9289  0.6456
 7396SOL    HW233648   3.192   2.639   8.154  1.8633 -1.2765 -2.3413
 7397SOL     OW33649   3.200   0.917   8.818 -0.3348  0.4862  0.4352
 7397SOL    HW133650   3.260   0.903   8.892  1.2849  0.7986 -0.8171
 7397SOL    HW233651   3.131   0.964   8.865  0.3313  1.4311  0.4833
 7398SOL     OW33652   1.666   0.990  11.997 -0.0411  0.7721 -0.2703
 7398SOL    HW133653   1.572   0.990  11.982 -0.1764 -2.0512  0.4828
 7398SOL    HW233654   1.704   1.046  11.929 -0.1240  0.8822 -0.2259
 7399SOL     OW33655   0.140   1.181   5.385  0.1747 -0.1312  0.0290
 7399SOL    HW133656   0.163   1.138   5.303 -0.4923  0.2838 -0.3825
 7399SOL    HW233657   0.193   1.128   5.444 -1.0623 -0.3022  0.9892
 7400SOL     OW33658   4.508   2.717  17.554  0.4174  0.8074  0.2034
 7400SOL    HW133659   4.474   2.630  17.532  3.5682  0.3116 -2.7407
 7400SOL    HW233660   4.573   2.725  17.483 -0.1403  2.0543 -0.1621
 7401SOL     OW33661   1.602   2.081   8.285  1.2628  0.2229  0.4871
 7401SOL    HW133662   1.519   2.037   8.299  1.6714 -1.0052 -0.9343
 7401SOL    HW233663   1.597   2.090   8.189 -2.2995 -0.4966  0.6266
 7402SOL     OW33664   2.099   1.586   4.584 -0.1506 -0.0206  0.3148
 7402SOL    HW133665   2.009   1.589   4.553  0.1592 -0.1671 -0.5776
 7402SOL    HW233666   2.146   1.637   4.519 -1.3809  2.4110  1.3191
 7403SOL     OW33667   3.304   4.673   8.396 -0.5562 -0.2530 -0.0770
 7403SOL    HW133668   3.349   4.670   8.481 -1.0233 -0.9487  0.1442
 7403SOL    HW233669   3.288   4.583   8.369  1.1766 -1.1072  1.7128
 7404SOL     OW33670   1.384   0.954  13.142  0.3946  0.3075 -0.4500
 7404SOL    HW133671   1.461   0.897  13.150 -0.0939 -0.0428  1.8176
 7404SOL    HW233672   1.352   0.939  13.053 -2.5939  1.9219  0.3243
 7405SOL     OW33673   1.383   3.291  10.718  0.1021  0.7216  0.3108
 7405SOL    HW133674   1.452   3.357  10.715 -0.8858  1.7549  0.2829
 7405SOL    HW233675   1.393   3.244  10.635  0.6240  3.1008 -0.9514
 7406SOL     OW33676   1.325   0.473   7.567  0.1946 -0.1220 -0.1654
 7406SOL    HW133677   1.290   0.477   7.656  1.1886  0.8179  0.1789
 7406SOL    HW233678   1.252   0.426   7.526  1.4327 -2.4980  0.3995
 7407SOL     OW33679   1.864   0.462   6.795 -0.4474 -0.1745  0.5536
 7407SOL    HW133680   1.952   0.493   6.817 -0.2066 -0.2522 -0.2642
 7407SOL    HW233681   1.871   0.379   6.747  1.2960 -0.7816  1.8749
 7408SOL     OW33682   1.040   1.831   6.885  0.2556 -0.4739  0.0619
 7408SOL    HW133683   1.094   1.759   6.918  0.6944  0.3862  1.1921
 7408SOL    HW233684   0.955   1.817   6.928 -0.5810 -1.2771 -1.8258
 7409SOL     OW33685   0.689   4.277   6.245 -0.4105  0.1973 -0.1585
 7409SOL    HW133686   0.767   4.265   6.191 -1.3214  1.6469 -1.7794
 7409SOL    HW233687   0.738   4.313   6.319 -0.8316  0.5319 -0.0450
 7410SOL     OW33688   2.145   1.121   6.541 -0.3654 -0.0638  0.1572
 7410SOL    HW133689   2.186   1.044   6.502  1.6856  0.5967  1.0428
 7410SOL    HW233690   2.129   1.092   6.631  0.3255  1.4399  0.7542
 7411SOL     OW33691   3.472   3.101   6.720 -0.4198  0.4674 -0.4652
 7411SOL    HW133692   3.425   3.041   6.778  0.6805 -1.2925 -1.3975
 7411SOL    HW233693   3.448   3.064   6.635 -2.6216 -1.1328  0.8578
 7412SOL     OW33694   0.351   1.025  15.488  0.5705  0.1862  0.7641
 7412SOL    HW133695   0.277   0.979  15.528 -0.5485  1.4308  0.1523
 7412SOL    HW233696   0.346   0.996  15.397 -1.9716 -1.8616  1.5480
 7413SOL     OW33697   3.493   1.431   9.215  0.0109  0.0252 -0.2450
 7413SOL    HW133698   3.427   1.380   9.168 -1.3511 -0.8580  2.6318
 7413SOL    HW233699   3.570   1.388   9.178  1.4240  2.9574 -0.6952
 7414SOL     OW33700   2.113   4.279   4.590 -0.2514  0.2506 -0.4414
 7414SOL    HW133701   2.108   4.375   4.598 -1.4212  0.1475  0.0092
 7414SOL    HW233702   2.031   4.242   4.622 -0.2818  0.2429 -0.5292
 7415SOL     OW33703   0.082   4.209  10.635  0.1254  0.3302  0.2851
 7415SOL    HW133704   0.174   4.210  10.662  1.1395 -1.6920 -3.1471
 7415SOL    HW233705   0.076   4.164  10.551 -0.4433  2.2558 -0.6921
 7416SOL     OW33706   4.205   3.182  11.552  0.2882 -0.9625  0.2516
 7416SOL    HW133707   4.254   3.123  11.496 -1.0252  0.4176 -2.3698
 7416SOL    HW233708   4.174   3.115  11.614 -1.2343 -1.2162 -0.7764
 7417SOL     OW33709   3.047   2.196  10.174  0.1964  0.0346 -0.3507
 7417SOL    HW133710   3.046   2.120  10.116  2.6769  0.3368 -0.7884
 7417SOL    HW233711   3.140   2.220  10.184  0.1380  0.3254 -0.5197
 7418SOL     OW33712   1.233   4.557   7.779  0.3102  0.5611  0.4379
 7418SOL    HW133713   1.326   4.533   7.782  0.9360  2.8065 -0.8430
 7418SOL    HW233714   1.211   4.525   7.691 -0.3312  0.6757  0.5560
 7419SOL     OW33715   1.825   2.111   6.702 -0.1764  0.1894  0.2519
 7419SOL    HW133716   1.915   2.111   6.670 -0.3808  0.4167 -0.3391
 7419SOL    HW233717   1.805   2.202   6.723 -0.6326 -0.0950  1.0293
 7420SOL     OW33718   0.702   0.846   1.674  0.3350 -0.0388 -0.3471
 7420SOL    HW133719   0.719   0.860   1.581  0.7494  1.1838 -0.0842
 7420SOL    HW233720   0.752   0.765   1.685  1.8146  1.2570  2.4215
 7421SOL     OW33721   2.487   2.478   5.823  0.0319 -0.3329 -0.6271
 7421SOL    HW133722   2.578   2.507   5.813 -0.9367  3.1335  0.6628
 7421SOL    HW233723   2.437   2.557   5.804  1.5484  0.7574 -0.1644
 7422SOL     OW33724   1.381   3.992   9.004  0.1850  0.5094  0.3187
 7422SOL    HW133725   1.354   3.904   9.031  0.2720  0.6642  0.9224
 7422SOL    HW233726   1.416   3.970   8.918  0.1356 -1.2515  0.7467
 7423SOL     OW33727   3.071   1.897   8.839 -0.4142 -0.0308  0.1844
 7423SOL    HW133728   3.140   1.887   8.774 -1.1306  0.8765 -0.7280
 7423SOL    HW233729   3.117   1.862   8.916  2.7427 -1.6163 -2.4526
 7424SOL     OW33730   0.381   2.333   5.033  0.1128 -0.3295 -0.3805
 7424SOL    HW133731   0.303   2.368   4.989 -1.1517 -0.2341  1.9060
 7424SOL    HW233732   0.438   2.410   5.037  0.3276 -0.5097  0.0109
 7425SOL     OW33733   4.315   0.087   4.237 -0.3162 -0.8599 -0.2821
 7425SOL    HW133734   4.222   0.107   4.230 -1.3321 -4.6818  1.6906
 7425SOL    HW233735   4.310   0.002   4.282  0.9407 -0.7833 -0.0003
 7426SOL     OW33736   3.818   1.463   0.671  0.0409  0.2681  0.1000
 7426SOL    HW133737   3.822   1.404   0.747  0.3067 -0.2573 -0.3252
 7426SOL    HW233738   3.724   1.477   0.673  0.2821  1.8855 -0.4092
 7427SOL     OW33739   3.612   3.606   7.961 -0.3121  0.1432  0.5831
 7427SOL    HW133740   3.665   3.641   7.890 -1.3046 -0.0974 -0.2733
 7427SOL    HW233741   3.607   3.519   7.921 -1.1368  0.2971  0.3540
 7428SOL     OW33742   1.705   1.910   4.655 -0.1788 -0.2492 -0.5601
 7428SOL    HW133743   1.754   1.940   4.579  1.4184 -1.0322  0.1617
 7428SOL    HW233744   1.711   1.984   4.716  0.7928 -2.3056  1.8433
 7429SOL     OW33745   0.910   0.562   4.625  0.0122 -0.4690 -0.1430
 7429SOL    HW133746   0.818   0.538   4.629 -0.3690  0.8837 -0.8760
 7429SOL    HW233747   0.936   0.550   4.534 -1.3736 -0.9260 -0.4743
 7430SOL     OW33748   4.206   0.959   2.912 -0.3900  0.0109 -0.3348
 7430SOL    HW133749   4.200   1.052   2.934 -1.0897  0.1883 -1.2803
 7430SOL    HW233750   4.179   0.927   2.998  0.8950 -1.6297 -0.5515
 7431SOL     OW33751   4.300   1.905   5.689 -0.2429 -0.1797  0.5833
 7431SOL    HW133752   4.301   1.851   5.610  0.0323  3.0636 -1.6134
 7431SOL    HW233753   4.373   1.856   5.727  0.6719  1.1350  0.5057
 7432SOL     OW33754   1.883   0.839   2.949  0.1472 -0.2166  0.7093
 7432SOL    HW133755   1.910   0.908   3.010  1.4198  1.1569 -1.3938
 7432SOL    HW233756   1.934   0.858   2.870  1.2952 -1.7092  1.0989
 7433SOL     OW33757   2.118   1.460   9.524  0.2306 -0.2431 -0.9938
 7433SOL    HW133758   2.129   1.369   9.551 -2.7024  0.0884  1.3445
 7433SOL    HW233759   2.089   1.443   9.434  1.5232 -0.4490 -1.3671
 7434SOL     OW33760   3.476   2.598   6.398 -0.3509 -0.5433  0.8185
 7434SOL    HW133761   3.458   2.685   6.363  1.5537 -0.7067 -0.5736
 7434SOL    HW233762   3.392   2.555   6.381  0.1704 -1.2416 -0.0245
 7435SOL     OW33763   3.980   2.550  10.060 -0.4960  0.1686 -0.2775
 7435SOL    HW133764   4.052   2.601  10.024 -0.0457  0.6413  1.2779
 7435SOL    HW233765   3.979   2.479   9.996 -0.5123 -2.3141  2.4902
 7436SOL     OW33766   4.579   2.012   8.073 -0.2867 -0.0144 -0.0654
 7436SOL    HW133767   4.581   2.096   8.026 -1.3178 -0.5938 -1.1807
 7436SOL    HW233768   4.638   1.955   8.024 -1.1606 -0.4340 -0.6395
 7437SOL     OW33769   2.968   0.346  14.812 -0.3479 -0.2920  0.1606
 7437SOL    HW133770   2.947   0.392  14.893 -0.8825 -1.5216  0.7171
 7437SOL    HW233771   3.052   0.391  14.805 -0.0013 -0.8449  0.8112
 7438SOL     OW33772   1.098   0.756  10.143 -0.9255  0.3755 -0.1945
 7438SOL    HW133773   1.170   0.816  10.163  0.9643 -0.9026 -3.1144
 7438SOL    HW233774   1.052   0.763  10.227 -1.7423  0.5851 -0.6536
 7439SOL     OW33775   0.121   0.255   0.558  0.1025 -0.3978 -0.1531
 7439SOL    HW133776   0.084   0.339   0.586 -0.7662 -0.4152 -1.2599
 7439SOL    HW233777   0.119   0.274   0.464 -1.1877 -1.0385 -0.2558
 7440SOL     OW33778   0.972   2.168   0.771  0.2736  0.1809  0.2176
 7440SOL    HW133779   0.877   2.173   0.785  0.8406  0.2100  4.1397
 7440SOL    HW233780   1.014   2.220   0.840  0.7373  1.0276 -0.7119
 7441SOL     OW33781   0.474   2.224  12.843 -0.4533  0.4564  0.5359
 7441SOL    HW133782   0.554   2.172  12.834  0.7965  2.4574 -0.0072
 7441SOL    HW233783   0.481   2.286  12.771  0.9353  0.0863  0.3562
 7442SOL     OW33784   0.127   4.045   5.036  0.1207  0.4204  0.3843
 7442SOL    HW133785   0.194   4.109   5.059  0.0916  1.6596 -3.1226
 7442SOL    HW233786   0.104   4.003   5.119 -0.8890 -1.4204 -0.8333
 7443SOL     OW33787   1.197   2.041   2.003 -0.5446  0.6651 -0.1748
 7443SOL    HW133788   1.286   2.062   2.033 -0.9969  1.2316  0.7714
 7443SOL    HW233789   1.154   2.005   2.080  0.4233 -0.1243 -0.0004
 7444SOL     OW33790   4.616   3.247   2.320  0.0677 -0.2173 -0.9206
 7444SOL    HW133791   4.664   3.261   2.239 -0.6219 -0.5888 -1.3952
 7444SOL    HW233792   4.598   3.335   2.353 -0.0682 -0.4275 -0.4323
 7445SOL     OW33793   2.083   2.692   3.558 -0.5286 -0.4758  0.2138
 7445SOL    HW133794   2.008   2.637   3.534  0.2809 -0.9353 -1.2887
 7445SOL    HW233795   2.146   2.632   3.598 -0.2545  1.0699  2.0568
 7446SOL     OW33796   4.068   2.114   6.835  0.2934 -0.6674  1.0414
 7446SOL    HW133797   4.129   2.041   6.829  2.6234  1.4283 -0.8594
 7446SOL    HW233798   4.096   2.169   6.762  0.8653  1.9565  3.2332
 7447SOL     OW33799   1.148   2.538   3.518  0.0279  0.4058  0.4105
 7447SOL    HW133800   1.070   2.579   3.555 -0.5274  0.8738 -1.2519
 7447SOL    HW233801   1.224   2.587   3.550 -0.8191  1.1321  1.2938
 7448SOL     OW33802   0.255   0.819   6.202 -0.9220  0.0872 -0.4210
 7448SOL    HW133803   0.268   0.907   6.168  1.6226 -1.4659 -3.4276
 7448SOL    HW233804   0.325   0.808   6.266  0.3917 -0.7771 -2.0208
 7449SOL     OW33805   1.675   1.887   0.072  0.0270 -0.1881 -0.3425
 7449SOL    HW133806   1.723   1.968   0.088  0.6125 -0.2244 -1.8796
 7449SOL    HW233807   1.604   1.888   0.136 -0.2352 -0.3425 -0.6302
 7450SOL     OW33808   2.665   2.934  10.601  0.1263 -0.0834 -0.2262
 7450SOL    HW133809   2.689   3.026  10.589  0.7886 -0.1680  0.3625
 7450SOL    HW233810   2.750   2.906  10.565 -0.2024  1.3642 -2.1016
 7451SOL     OW33811   2.430   0.559   3.547  0.3116 -0.0559  0.2154
 7451SOL    HW133812   2.371   0.507   3.494  0.1382 -0.2291  0.5785
 7451SOL    HW233813   2.375   0.611   3.606 -1.5863 -1.2063 -0.5753
 7452SOL     OW33814   3.990   1.816   6.624  0.2085 -0.5551 -0.3118
 7452SOL    HW133815   4.006   1.774   6.709 -1.7533  0.3519  0.5199
 7452SOL    HW233816   3.913   1.872   6.637 -0.5411 -2.2579  2.6203
 7453SOL     OW33817   1.401   3.021   0.880 -0.0658  0.2913  0.7621
 7453SOL    HW133818   1.480   2.997   0.929  0.9277  1.9414 -0.0146
 7453SOL    HW233819   1.393   3.111   0.912 -1.2378  0.7767 -0.9648
 7454SOL     OW33820   0.512   1.094   7.538  0.1319 -0.1475  0.1865
 7454SOL    HW133821   0.535   1.067   7.627 -1.5169 -1.5624  0.1836
 7454SOL    HW233822   0.566   1.171   7.520 -3.4011  2.2041 -0.3177
 7455SOL     OW33823   3.394   4.647   4.566  0.2480 -0.3307  0.2149
 7455SOL    HW133824   3.475   4.688   4.535  0.0689 -0.4318 -0.3914
 7455SOL    HW233825   3.433   4.596   4.637 -0.7612  1.5177  2.1192
 7456SOL     OW33826   4.302   2.006   7.086 -0.1798  0.6869 -0.0912
 7456SOL    HW133827   4.365   1.934   7.079 -1.1655 -0.1837  0.0351
 7456SOL    HW233828   4.312   2.050   7.002 -0.1117  0.6795 -0.0869
 7457SOL     OW33829   2.758   3.997   1.476  0.1557  0.2121 -0.2544
 7457SOL    HW133830   2.718   3.984   1.390 -0.1388  0.3212 -0.1338
 7457SOL    HW233831   2.695   3.970   1.543  1.2430 -1.8694 -0.0579
 7458SOL     OW33832   3.646   1.965  10.997 -0.4269 -0.2868  0.0310
 7458SOL    HW133833   3.668   1.957  11.089  0.3886 -0.3576 -0.1676
 7458SOL    HW233834   3.684   2.049  10.972 -2.0825  0.1322 -1.0808
 7459SOL     OW33835   1.824   3.761   7.670 -0.0159 -0.1135  0.1774
 7459SOL    HW133836   1.828   3.851   7.701 -3.1631 -0.3418  1.2850
 7459SOL    HW233837   1.743   3.729   7.712  0.0754  1.9557  1.9140
 7460SOL     OW33838   3.358   2.336   7.721  0.6796 -0.1454  0.2333
 7460SOL    HW133839   3.440   2.363   7.764  0.6699 -3.3382  2.2505
 7460SOL    HW233840   3.298   2.354   7.793  1.5490 -1.4467  1.2954
 7461SOL     OW33841   2.435   3.963  14.493  0.1256  0.6203 -0.4736
 7461SOL    HW133842   2.359   4.022  14.494 -1.0810 -0.9687  1.6128
 7461SOL    HW233843   2.498   3.998  14.430  1.4548  0.2678  0.6785
 7462SOL     OW33844   0.287   1.694   2.763  0.6289 -0.1386 -0.4129
 7462SOL    HW133845   0.358   1.709   2.701 -0.1978  1.7198 -0.9092
 7462SOL    HW233846   0.317   1.760   2.827 -0.2210 -1.5680  1.4652
 7463SOL     OW33847   1.272   3.337   7.541  0.3060  0.1792 -0.2276
 7463SOL    HW133848   1.209   3.327   7.469 -1.8825 -0.1502  1.7258
 7463SOL    HW233849   1.239   3.415   7.586  0.0812 -1.0383  1.7526
 7464SOL     OW33850   2.423   2.655   3.486  0.1114  0.3681 -0.3012
 7464SOL    HW133851   2.333   2.655   3.452 -0.4919  1.7586  1.3004
 7464SOL    HW233852   2.440   2.561   3.493 -2.2418 -0.1860 -1.9158
 7465SOL     OW33853   0.707   3.832  11.624  0.0030 -0.0832 -0.4890
 7465SOL    HW133854   0.614   3.823  11.604 -0.2276 -0.2226  0.6905
 7465SOL    HW233855   0.754   3.779  11.559  0.9129  0.7713 -0.5119
 7466SOL     OW33856   1.602   3.114  13.330  0.0182  0.3405 -0.3346
 7466SOL    HW133857   1.634   3.182  13.272 -0.3540 -0.5330 -1.5682
 7466SOL    HW233858   1.509   3.116  13.306 -0.3515 -0.0415  1.0176
 7467SOL     OW33859   3.150   0.145   5.316  0.8862  0.0548 -0.7517
 7467SOL    HW133860   3.097   0.085   5.263  1.4749 -1.5153  0.4148
 7467SOL    HW233861   3.118   0.232   5.295  1.3128  0.4460  0.2438
 7468SOL     OW33862   0.692   1.646   8.408 -0.1279  0.1396 -0.0344
 7468SOL    HW133863   0.661   1.585   8.341  0.7838 -0.3433 -0.0208
 7468SOL    HW233864   0.782   1.663   8.380  0.3678  1.7517  2.5239
 7469SOL     OW33865   2.747   0.957   4.070  0.4487  0.3850  0.0419
 7469SOL    HW133866   2.685   0.931   4.002  0.6836  1.7821 -0.7108
 7469SOL    HW233867   2.815   0.984   4.008  2.8920 -0.8826  2.1803
 7470SOL     OW33868   2.224   1.211   6.095 -0.1332  0.3054 -0.4747
 7470SOL    HW133869   2.197   1.238   6.182 -0.6352 -0.4344 -0.3999
 7470SOL    HW233870   2.290   1.144   6.111 -1.8447 -1.1487  0.4467
 7471SOL     OW33871   0.921   3.364   6.622  0.2680 -0.2586  0.3261
 7471SOL    HW133872   0.928   3.352   6.527  0.0342 -2.4257  0.5734
 7471SOL    HW233873   0.894   3.278   6.655 -0.3902 -1.0208 -2.1940
 7472SOL     OW33874   3.764   2.838  12.796  0.1479  0.4661  0.2883
 7472SOL    HW133875   3.803   2.779  12.731  1.3342  1.7793 -0.1748
 7472SOL    HW233876   3.749   2.775  12.867  1.0763  0.8985  0.8511
 7473SOL     OW33877   4.044   1.338   7.934  0.0449  0.1651  0.0427
 7473SOL    HW133878   3.954   1.369   7.924  0.6326  1.6635 -0.6631
 7473SOL    HW233879   4.016   1.249   7.954 -0.0795 -0.0715 -1.1952
 7474SOL     OW33880   0.556   2.420   0.989  0.0015 -0.1867 -0.0187
 7474SOL    HW133881   0.535   2.338   1.034 -1.2336  0.5727  0.8093
 7474SOL    HW233882   0.597   2.381   0.912 -0.4629 -0.8029  0.0471
 7475SOL     OW33883   2.422   2.686  15.598 -0.2232  0.0317  0.4446
 7475SOL    HW133884   2.391   2.715  15.512 -0.3958 -1.7970 -0.1096
 7475SOL    HW233885   2.423   2.767  15.648  0.8155  0.9861 -1.1213
 7476SOL     OW33886   4.577   2.349   5.875  0.7333 -0.2754 -0.4237
 7476SOL    HW133887   4.511   2.418   5.874  0.6343 -0.3459  1.3563
 7476SOL    HW233888   4.533   2.286   5.818 -1.9302  0.3654  0.9078
 7477SOL     OW33889   4.087   3.945   8.150 -0.2965 -0.7119  0.4529
 7477SOL    HW133890   4.181   3.930   8.135 -0.6344 -1.4483 -0.9686
 7477SOL    HW233891   4.092   3.946   8.245 -0.2426  0.8298  0.4320
 7478SOL     OW33892   0.383   4.687  11.900 -0.1365 -0.0693 -0.2896
 7478SOL    HW133893   0.383   0.057  11.903  1.4830 -0.0334 -1.4116
 7478SOL    HW233894   0.376   4.662  11.992  0.4849 -0.4661 -0.3495
 7479SOL     OW33895   0.954   2.011   7.105  0.3531 -0.2215 -0.4352
 7479SOL    HW133896   0.872   2.059   7.114  0.6152  0.1688 -0.1095
 7479SOL    HW233897   0.994   2.074   7.045  0.6568  0.2749  0.2895
 7480SOL     OW33898   2.997   4.388   8.330  0.1757  0.0227  0.3975
 7480SOL    HW133899   3.062   4.439   8.282 -1.3280  0.9366 -0.6888
 7480SOL    HW233900   2.953   4.332   8.265 -1.3173  2.0349 -0.3495
 7481SOL     OW33901   4.603   2.302   1.574  0.4922 -0.2635  0.1686
 7481SOL    HW133902   4.690   2.289   1.611 -0.1540  0.7543  2.0211
 7481SOL    HW233903   4.555   2.235   1.622 -3.4604  1.7263 -0.9144
 7482SOL     OW33904   0.695   2.679   7.437 -0.5506  0.1482  0.3823
 7482SOL    HW133905   0.763   2.744   7.455  0.2749 -0.5434 -0.2041
 7482SOL    HW233906   0.634   2.701   7.507 -2.1793  3.1815 -1.9795
 7483SOL     OW33907   3.751   0.486   6.135 -0.0662  0.2047 -0.5516
 7483SOL    HW133908   3.657   0.466   6.130  0.0531 -0.6517  0.6291
 7483SOL    HW233909   3.788   0.400   6.153 -0.8444  0.3669  1.8612
 7484SOL     OW33910   0.094   1.394  11.279 -0.5067  0.1498  0.1825
 7484SOL    HW133911   0.057   1.309  11.255  2.2649 -0.7645 -0.8181
 7484SOL    HW233912   0.102   1.391  11.375 -0.0127 -1.5455  0.0885
 7485SOL     OW33913   2.996   4.323   7.307 -0.2704 -0.7915 -0.5222
 7485SOL    HW133914   2.952   4.253   7.260 -0.0119 -1.9994  1.0580
 7485SOL    HW233915   2.924   4.372   7.347  0.6751 -0.2433  0.5068
 7486SOL     OW33916   3.611   1.457  14.084 -0.3311 -0.0703 -0.4865
 7486SOL    HW133917   3.587   1.434  14.174  0.3644  0.7430 -0.0908
 7486SOL    HW233918   3.703   1.482  14.090 -1.1522  2.7385  0.6580
 7487SOL     OW33919   1.301   1.267   8.214  0.1746  0.2922 -0.3082
 7487SOL    HW133920   1.373   1.237   8.158  0.5340  1.0991 -0.2713
 7487SOL    HW233921   1.304   1.187   8.267  4.2539  2.3180  2.5732
 7488SOL     OW33922   4.090   4.616   5.760 -0.3753 -0.7920  0.1795
 7488SOL    HW133923   4.178   4.648   5.784  0.8086 -3.3226 -0.8162
 7488SOL    HW233924   4.098   4.627   5.665  0.0615 -0.9153  0.2020
 7489SOL     OW33925   2.982   3.296   2.683 -0.2229 -1.0118 -0.5030
 7489SOL    HW133926   3.068   3.256   2.670  0.6785 -0.1974  2.8457
 7489SOL    HW233927   3.004   3.389   2.676 -1.0562 -0.7377  0.5773
 7490SOL     OW33928   3.762   4.596   0.589  0.2794 -0.2362  0.1587
 7490SOL    HW133929   3.681   4.547   0.601 -0.9240  2.2733  2.2133
 7490SOL    HW233930   3.807   4.560   0.665 -0.9285  0.3822  1.1847
 7491SOL     OW33931   3.981   0.704   5.188  0.9626  0.3257  0.0405
 7491SOL    HW133932   3.964   0.639   5.120 -0.2197  0.1586  0.4959
 7491SOL    HW233933   4.030   0.639   5.239  1.0014 -1.2687 -2.0089
 7492SOL     OW33934   4.399   2.222   6.855 -0.7001 -0.5139  0.1281
 7492SOL    HW133935   4.460   2.203   6.926 -2.1697 -1.0695  1.2150
 7492SOL    HW233936   4.346   2.287   6.900  1.9949  1.1442  0.9059
 7493SOL     OW33937   0.754   1.011   6.254 -0.0760 -0.3108  0.2463
 7493SOL    HW133938   0.741   0.982   6.344  1.9321 -1.2636  0.2078
 7493SOL    HW233939   0.727   0.933   6.206  0.4311 -1.5191  1.9365
 7494SOL     OW33940   0.590   3.096   7.494 -0.2228 -0.0346  0.5980
 7494SOL    HW133941   0.555   3.063   7.577  0.2838 -0.2647  0.7212
 7494SOL    HW233942   0.616   3.185   7.516 -0.6425 -0.2319  1.9235
 7495SOL     OW33943   1.512   0.996   6.835  0.1287  0.2554  0.2469
 7495SOL    HW133944   1.495   1.087   6.858  1.5068  0.4289  0.5767
 7495SOL    HW233945   1.573   1.011   6.762 -0.0843  2.5586  0.5600
 7496SOL     OW33946   1.179   0.490   7.787 -0.3492 -0.3119  0.4678
 7496SOL    HW133947   1.122   0.421   7.819 -1.1618 -0.1928 -0.7100
 7496SOL    HW233948   1.211   0.523   7.871  0.9799 -1.3132  0.3520
 7497SOL     OW33949   0.641   0.605   1.946  0.1106 -0.0793 -0.1848
 7497SOL    HW133950   0.602   0.548   1.879 -1.9213  1.4235 -0.2640
 7497SOL    HW233951   0.602   0.690   1.929 -0.9712 -0.6265 -0.4806
 7498SOL     OW33952   4.546   0.350   9.389 -0.8989  0.7119 -0.0629
 7498SOL    HW133953   4.602   0.369   9.465 -0.3691  0.2598 -0.3383
 7498SOL    HW233954   4.601   0.395   9.325  0.5559  0.5730  1.0686
 7499SOL     OW33955   3.520   2.932   4.086 -0.1756  0.3133 -0.2866
 7499SOL    HW133956   3.496   3.008   4.033  1.3024  0.6195 -0.5067
 7499SOL    HW233957   3.598   2.974   4.122  1.6460 -2.3035 -1.2162
 7500SOL     OW33958   0.168   1.534   1.470 -0.1765 -0.1852  0.1263
 7500SOL    HW133959   0.261   1.534   1.495 -0.5982  0.3936  1.6559
 7500SOL    HW233960   0.173   1.603   1.404  0.0585 -2.4658 -2.2636
 7501SOL     OW33961   3.261   4.511   5.319 -0.4219 -0.3611  0.4191
 7501SOL    HW133962   3.236   4.569   5.247  1.2514 -0.3924 -0.1898
 7501SOL    HW233963   3.346   4.482   5.287 -0.2977  0.0347  0.3870
 7502SOL     OW33964   0.490   4.246   5.698  0.3558  0.0451  0.0511
 7502SOL    HW133965   0.407   4.291   5.685 -0.9813 -1.9477  1.6329
 7502SOL    HW233966   0.553   4.282   5.636 -0.2060  1.0021  0.0426
 7503SOL     OW33967   4.109   2.721   3.934 -0.1353  0.4033  0.0739
 7503SOL    HW133968   4.061   2.673   3.867 -0.8749  1.3098 -0.0479
 7503SOL    HW233969   4.079   2.669   4.008 -0.5062 -0.7765 -0.9135
 7504SOL     OW33970   2.095   0.555   8.210  0.8591  0.1722 -0.1210
 7504SOL    HW133971   2.079   0.465   8.181 -3.4762  1.2920 -1.1532
 7504SOL    HW233972   2.190   0.558   8.215  0.8616  1.0107 -0.6035
 7505SOL     OW33973   3.642   0.436   2.546 -0.5917  0.1979  0.3439
 7505SOL    HW133974   3.700   0.467   2.615  0.8042 -2.1141  0.2259
 7505SOL    HW233975   3.695   0.356   2.541 -0.3829  0.3066  0.7810
 7506SOL     OW33976   2.875   0.069   2.631 -0.2699 -0.7936  0.3989
 7506SOL    HW133977   2.855   0.012   2.558  1.8966 -2.7308  1.3054
 7506SOL    HW233978   2.917   0.146   2.593  1.8082 -1.9204  0.4046
 7507SOL     OW33979   3.828   2.097   8.831 -0.0482 -0.4259 -0.0852
 7507SOL    HW133980   3.766   2.130   8.896  0.3776 -0.6274  0.4138
 7507SOL    HW233981   3.902   2.103   8.890 -1.0699 -0.6199  1.2231
 7508SOL     OW33982   0.682   0.129   0.937 -0.1996  0.3631  0.2331
 7508SOL    HW133983   0.757   0.144   0.995  0.8596  1.1036 -1.3309
 7508SOL    HW233984   0.622   0.169   1.000 -0.1133 -0.5446  0.8937
 7509SOL     OW33985   1.883   2.042   6.027  0.7235  0.8981 -0.2067
 7509SOL    HW133986   1.853   2.133   6.028  1.2447  1.0384  1.8114
 7509SOL    HW233987   1.966   2.038   6.074 -1.1053  2.7877  3.2024
 7510SOL     OW33988   2.776   2.205   1.786  0.6253  0.4138  0.6288
 7510SOL    HW133989   2.854   2.167   1.747  0.0022 -1.2531  1.0324
 7510SOL    HW233990   2.738   2.243   1.707  1.7921 -1.3234 -0.7571
 7511SOL     OW33991   0.693   4.130   6.693  0.2965  0.2257 -0.5453
 7511SOL    HW133992   0.741   4.068   6.747 -0.7680  2.5879  3.1419
 7511SOL    HW233993   0.605   4.092   6.681 -0.0397  0.5520  0.8707
 7512SOL     OW33994   1.318   4.153   9.869 -0.6324  0.0072 -0.6590
 7512SOL    HW133995   1.313   4.057   9.862 -0.1431 -0.0512 -0.2614
 7512SOL    HW233996   1.377   4.176   9.798 -0.4963  0.2458 -0.4683
 7513SOL     OW33997   2.183   1.141   2.115 -0.4938 -0.2478 -0.5745
 7513SOL    HW133998   2.199   1.127   2.208 -0.4062  0.0771 -0.5395
 7513SOL    HW233999   2.249   1.205   2.088  1.2237 -1.1222  1.5077
 7514SOL     OW34000   1.576   4.175   4.658 -0.2469  0.0056 -0.4848
 7514SOL    HW134001   1.566   4.270   4.663  1.2978  0.1821 -0.7479
 7514SOL    HW234002   1.488   4.150   4.685 -0.7710  2.7300  0.2522
 7515SOL     OW34003   4.059   3.235   3.770 -0.2396 -0.6415 -0.1580
 7515SOL    HW134004   4.143   3.250   3.727  0.0730  2.3154  1.4704
 7515SOL    HW234005   4.057   3.142   3.795  0.7871 -1.2314 -2.2790
 7516SOL     OW34006   0.233   1.418   5.552 -0.4291 -0.0910  0.5499
 7516SOL    HW134007   0.182   1.362   5.494 -2.4560  0.9475  1.3084
 7516SOL    HW234008   0.174   1.422   5.628 -1.2765  0.9516 -0.1595
 7517SOL     OW34009   2.044   3.381  10.664 -0.3223  0.0906  0.5846
 7517SOL    HW134010   1.955   3.362  10.693 -0.2671 -0.4800  0.3768
 7517SOL    HW234011   2.087   3.348  10.743  0.9428  1.0746  0.3037
 7518SOL     OW34012   2.442   0.697   6.234  0.6167 -0.3837  0.0078
 7518SOL    HW134013   2.512   0.701   6.169  2.3448  1.7516  1.9907
 7518SOL    HW234014   2.418   0.605   6.232  0.9596 -0.4758  0.2021
 7519SOL     OW34015   2.773   2.774  16.681  0.2637  0.3478  0.5513
 7519SOL    HW134016   2.772   2.837  16.609  0.0763 -0.7579 -0.4129
 7519SOL    HW234017   2.738   2.699  16.633 -0.0855  0.2496  0.9627
 7520SOL     OW34018   0.872   1.491   1.113  0.3814  0.0652 -0.0038
 7520SOL    HW134019   0.920   1.425   1.162  1.5165  0.7623 -0.1741
 7520SOL    HW234020   0.839   1.432   1.045  0.4361 -1.5474  1.3751
 7521SOL     OW34021   1.254   1.358  12.121  0.0852  0.3127  0.4785
 7521SOL    HW134022   1.222   1.269  12.136  1.9337 -0.4902 -0.4547
 7521SOL    HW234023   1.272   1.390  12.210 -0.1267  1.3325  0.1573
 7522SOL     OW34024   0.184   1.464   2.288 -0.5413  0.8066  0.8772
 7522SOL    HW134025   0.157   1.409   2.215 -1.6063 -0.7967  2.4872
 7522SOL    HW234026   0.175   1.554   2.256  1.6938  1.1958  1.3278
 7523SOL     OW34027   2.039   0.038   6.331 -0.6998 -0.0362 -0.0615
 7523SOL    HW134028   2.049   0.003   6.242 -0.7403  2.4981 -1.0485
 7523SOL    HW234029   1.969   4.705   6.361 -0.4742 -0.4011 -0.2396
 7524SOL     OW34030   4.523   3.013   2.407  0.0350  0.0218 -0.3031
 7524SOL    HW134031   4.568   2.969   2.335  0.9592  1.2231 -0.4515
 7524SOL    HW234032   4.565   3.098   2.400  0.8383 -0.3644 -0.1545
 7525SOL     OW34033   2.261   3.676   8.585  0.0274 -0.2743  0.0880
 7525SOL    HW134034   2.192   3.642   8.642 -2.7191  1.9949 -1.8803
 7525SOL    HW234035   2.205   3.679   8.507 -2.8891 -1.7733  2.0990
 7526SOL     OW34036   2.172   4.076   5.668 -0.1405  0.5607 -0.4437
 7526SOL    HW134037   2.178   4.046   5.759 -0.0889  2.8677  0.3045
 7526SOL    HW234038   2.111   4.149   5.676 -0.1896  0.4128  0.6151
 7527SOL     OW34039   2.908   1.719   2.602 -0.4279 -0.5133  0.2690
 7527SOL    HW134040   2.940   1.677   2.522  2.1802 -1.0119  1.5720
 7527SOL    HW234041   2.976   1.785   2.618 -0.1778 -0.9163  0.8859
 7528SOL     OW34042   1.115   4.420  15.043  0.2707 -0.2970  0.3808
 7528SOL    HW134043   1.133   4.385  15.130 -1.8324 -1.1512  0.4854
 7528SOL    HW234044   1.195   4.471  15.030 -1.2468  2.7048  2.9010
 7529SOL     OW34045   2.176   0.466   3.420 -0.6407  0.1606 -0.5654
 7529SOL    HW134046   2.167   0.503   3.332  1.3300  1.1366 -0.3610
 7529SOL    HW234047   2.183   0.371   3.403  0.0397 -0.0057  0.6864
 7530SOL     OW34048   4.452   0.106   2.182 -0.4642  0.6168 -0.8228
 7530SOL    HW134049   4.362   0.133   2.200 -0.3513  0.7879 -0.5263
 7530SOL    HW234050   4.462   0.174   2.116 -1.0524 -1.0679 -2.6753
 7531SOL     OW34051   3.266   1.981   9.100 -0.0209  0.1007 -0.0588
 7531SOL    HW134052   3.258   1.890   9.072  0.6594  0.4114 -1.2927
 7531SOL    HW234053   3.320   2.016   9.029 -0.7974 -0.3208 -0.8623
 7532SOL     OW34054   3.219   0.883  16.851  0.2342  0.4721 -0.3006
 7532SOL    HW134055   3.240   0.790  16.861  0.0755  0.4090 -0.5558
 7532SOL    HW234056   3.253   0.912  16.936  0.2366  1.8885 -0.7870
 7533SOL     OW34057   0.785   3.770   7.718 -0.6868 -0.5949  0.0013
 7533SOL    HW134058   0.744   3.847   7.678 -2.6409 -0.4962  2.1670
 7533SOL    HW234059   0.715   3.742   7.776  1.4632  0.1789  2.9609
 7534SOL     OW34060   3.461   1.869  14.916 -0.7616 -0.4933 -0.0268
 7534SOL    HW134061   3.409   1.928  14.861 -0.4680 -0.9696 -0.8054
 7534SOL    HW234062   3.519   1.825  14.853 -0.4831  0.9663 -0.7839
 7535SOL     OW34063   1.480   1.703   4.058 -0.0364 -0.0193  0.1359
 7535SOL    HW134064   1.454   1.655   4.136  1.0773  0.4891  0.8236
 7535SOL    HW234065   1.398   1.707   4.007  0.6027 -0.8346 -0.9523
 7536SOL     OW34066   2.523   0.857   5.949 -0.2421  0.3102 -0.4680
 7536SOL    HW134067   2.460   0.836   5.880 -1.7344  0.9357  0.7022
 7536SOL    HW234068   2.600   0.807   5.920  0.6325  0.4064  1.7234
 7537SOL     OW34069   4.378   4.139   9.647 -0.1878 -0.4595 -0.2656
 7537SOL    HW134070   4.336   4.091   9.718 -1.0861 -0.4184 -0.7659
 7537SOL    HW234071   4.467   4.104   9.644  0.2703  0.7124 -0.4002
 7538SOL     OW34072   3.441   3.525   6.336  0.0495  0.1154 -0.4388
 7538SOL    HW134073   3.465   3.576   6.413  2.4567 -1.0345 -0.4433
 7538SOL    HW234074   3.346   3.538   6.339  0.1854  0.6611  1.6784
 7539SOL     OW34075   3.617   1.123   7.300 -0.0662  0.2567 -0.4755
 7539SOL    HW134076   3.584   1.212   7.286 -0.8955  0.1511  0.7944
 7539SOL    HW234077   3.639   1.102   7.209 -0.1380  1.6657 -0.8146
 7540SOL     OW34078   1.884   0.920   7.382  0.3175  0.1328  0.3745
 7540SOL    HW134079   1.910   0.913   7.290  2.8641 -0.7612  1.1788
 7540SOL    HW234080   1.971   0.926   7.422 -0.6179 -0.1591  2.4565
 7541SOL     OW34081   0.796   0.624   3.319  0.6013 -0.3927 -0.3085
 7541SOL    HW134082   0.811   0.704   3.268  1.5395  0.0312  0.6442
 7541SOL    HW234083   0.770   0.571   3.243 -1.5597 -1.0689  0.8937
 7542SOL     OW34084   2.078   3.006   5.706  0.7432 -0.4274  0.1774
 7542SOL    HW134085   2.005   3.038   5.760  1.2039  1.8029 -0.4982
 7542SOL    HW234086   2.059   3.040   5.619  1.4616  0.7523  0.4781
 7543SOL     OW34087   3.721   3.774   3.850 -0.6168 -0.0168 -0.5497
 7543SOL    HW134088   3.688   3.860   3.875  1.5929 -0.9711  5.6473
 7543SOL    HW234089   3.710   3.762   3.755  0.1970  0.7619 -0.7427
 7544SOL     OW34090   2.665   2.088   8.746 -0.1331 -0.0175  0.4399
 7544SOL    HW134091   2.653   2.181   8.763  0.4217  0.5048 -2.0642
 7544SOL    HW234092   2.651   2.085   8.651  1.6616 -0.4717  0.1918
 7545SOL     OW34093   1.569   2.636   6.116  0.1058  0.2716 -0.5763
 7545SOL    HW134094   1.632   2.575   6.153 -1.1695  0.1688  1.4168
 7545SOL    HW234095   1.483   2.598   6.136  2.5809 -5.4725 -0.8995
 7546SOL     OW34096   2.025   0.032   9.985 -0.0130  0.0481  0.2265
 7546SOL    HW134097   2.119   0.043   9.971  0.2481 -2.8212 -0.1070
 7546SOL    HW234098   2.006   0.122  10.014 -2.0515  0.2366 -1.6507
 7547SOL     OW34099   3.213   4.041   0.701  0.1393 -0.2659  0.5577
 7547SOL    HW134100   3.122   4.023   0.677  0.4490 -0.5590 -0.4291
 7547SOL    HW234101   3.253   3.970   0.651  0.1262 -1.1428  1.8032
 7548SOL     OW34102   1.058   1.150   4.609 -0.5454  0.3633 -0.3199
 7548SOL    HW134103   1.031   1.058   4.605 -0.6228  0.4085 -0.7725
 7548SOL    HW234104   0.976   1.184   4.645  0.1115  0.9178  0.6432
 7549SOL     OW34105   2.773   0.088   0.993 -0.1883  0.2739  0.1317
 7549SOL    HW134106   2.734   0.013   1.037 -1.7539  0.9470 -0.1075
 7549SOL    HW234107   2.864   0.059   0.998  0.6385  2.3849 -3.1057
 7550SOL     OW34108   0.204   1.822   8.974  0.3693 -0.5021  0.2701
 7550SOL    HW134109   0.276   1.775   9.017  1.7602  3.6260  2.4828
 7550SOL    HW234110   0.196   1.755   8.906 -2.2326  1.0814 -0.9675
 7551SOL     OW34111   3.196   3.568   1.870  0.4203 -0.5433 -0.7684
 7551SOL    HW134112   3.182   3.658   1.838 -0.9865 -0.7944 -0.8944
 7551SOL    HW234113   3.109   3.533   1.848  0.7365  0.0957 -3.0312
 7552SOL     OW34114   3.241   3.358   8.380 -0.0776 -0.1921  0.1548
 7552SOL    HW134115   3.147   3.352   8.394 -0.0786 -0.6734 -0.0619
 7552SOL    HW234116   3.265   3.451   8.377 -0.3998 -0.0541  1.7541
 7553SOL     OW34117   0.798   4.070  17.581  0.3340 -0.3517 -0.1746
 7553SOL    HW134118   0.789   3.989  17.631  0.1906 -0.3739 -0.2348
 7553SOL    HW234119   0.784   4.043  17.490 -3.3070  2.1214 -0.3741
 7554SOL     OW34120   0.019   0.699   4.024 -0.2414  0.0037  0.2172
 7554SOL    HW134121   4.672   0.646   4.056 -1.5064 -0.4540 -3.5071
 7554SOL    HW234122   4.700   0.774   3.987 -0.1347 -0.6005 -1.1286
 7555SOL     OW34123   4.652   4.358   4.440  0.3863  0.3643  0.3696
 7555SOL    HW134124   0.017   4.387   4.440 -0.0541  1.7346  0.6983
 7555SOL    HW234125   4.636   4.290   4.506 -0.0440  0.8583  0.7827
 7556SOL     OW34126   0.036   2.844   1.065 -0.1304  0.0763  0.1379
 7556SOL    HW134127   0.090   2.767   1.083  0.9914  0.6904 -0.5789
 7556SOL    HW234128   0.077   2.879   0.985  1.2435 -1.4504  0.1767
 7557SOL     OW34129   3.465   1.774   0.778 -0.6783  0.4264 -0.2525
 7557SOL    HW134130   3.547   1.765   0.827 -0.5539  1.4364 -0.2778
 7557SOL    HW234131   3.421   1.829   0.843 -2.2680  0.2509 -1.1708
 7558SOL     OW34132   1.255   3.894   3.856  0.1389  0.5459 -0.3343
 7558SOL    HW134133   1.299   3.844   3.924 -1.1102  1.1483  0.9162
 7558SOL    HW234134   1.337   3.919   3.813 -0.6987  1.6511 -1.2958
 7559SOL     OW34135   2.108   3.781  11.419  0.3036 -0.0784  0.6418
 7559SOL    HW134136   2.115   3.796  11.325 -0.0790 -1.1042  0.4451
 7559SOL    HW234137   2.172   3.710  11.429  1.9738  1.2589 -0.4597
 7560SOL     OW34138   3.724   1.890   9.034  0.4014 -0.0844 -0.3797
 7560SOL    HW134139   3.751   1.913   8.945 -2.9798  1.2961 -1.0598
 7560SOL    HW234140   3.628   1.891   9.027  0.2539  1.3554  2.0732
 7561SOL     OW34141   1.988   1.502   0.954 -0.3758  0.1904 -0.1774
 7561SOL    HW134142   1.919   1.486   0.889 -1.2693 -0.4793  0.9394
 7561SOL    HW234143   2.021   1.587   0.926 -0.6905  0.1652 -0.6279
 7562SOL     OW34144   3.614   3.176   3.184 -0.6594  0.4096 -0.7809
 7562SOL    HW134145   3.539   3.183   3.243 -1.3704 -0.4791 -1.5867
 7562SOL    HW234146   3.585   3.123   3.109 -0.3465  1.1132 -1.3981
 7563SOL     OW34147   3.282   3.412   7.796  0.1232 -0.1503  0.3999
 7563SOL    HW134148   3.364   3.461   7.799 -0.8250  1.3050  2.9307
 7563SOL    HW234149   3.241   3.447   7.717  2.0651  0.0919 -0.4934
 7564SOL     OW34150   0.434   3.768  17.704  0.1439 -0.2641 -0.4272
 7564SOL    HW134151   0.482   3.720  17.637 -2.2128 -2.9489 -0.1707
 7564SOL    HW234152   0.507   3.819   0.035 -0.4676  1.4895 -1.6924
 7565SOL     OW34153   1.779   0.224   5.887 -0.3999  0.4757  0.0521
 7565SOL    HW134154   1.777   0.312   5.850 -2.7668  0.4272  0.0693
 7565SOL    HW234155   1.691   0.219   5.924 -0.8631 -0.3099 -1.1775
 7566SOL     OW34156   2.336   0.030   4.407  0.2142  0.4062  0.3141
 7566SOL    HW134157   2.296   0.112   4.434  0.0140  0.5841 -0.5218
 7566SOL    HW234158   2.351   0.049   4.314  0.8059  0.2467  0.3782
 7567SOL     OW34159   4.299   4.285  13.152  0.0994  0.4403 -0.2779
 7567SOL    HW134160   4.352   4.303  13.074 -1.3751  1.3785 -1.0604
 7567SOL    HW234161   4.268   4.372  13.178 -1.3628 -0.6394  1.5723
 7568SOL     OW34162   2.010   0.427   2.794 -0.5679 -0.2777  0.2805
 7568SOL    HW134163   1.969   0.456   2.876 -1.2910  0.3686 -0.3178
 7568SOL    HW234164   1.929   0.413   2.745  0.0192 -0.9556 -0.5073
 7569SOL     OW34165   1.364   1.913  17.691  0.0779  0.0042 -0.2970
 7569SOL    HW134166   1.384   1.997  17.649  1.9846 -0.8269 -1.0206
 7569SOL    HW234167   1.408   1.917   0.071 -0.3337 -1.3619 -0.0277
 7570SOL     OW34168   2.187   3.376   9.531  0.2847 -0.0968 -0.2506
 7570SOL    HW134169   2.193   3.295   9.582 -1.0751 -0.1199 -0.1340
 7570SOL    HW234170   2.258   3.428   9.569 -1.5019 -0.0229  2.9773
 7571SOL     OW34171   4.646   1.956  13.399 -0.8195 -0.1541  0.1714
 7571SOL    HW134172   4.679   2.011  13.328  1.4918  1.6311  2.6474
 7571SOL    HW234173   4.676   1.869  13.372  0.4841  1.2326 -2.8582
 7572SOL     OW34174   0.172   3.541   3.887 -0.1107 -0.0540  0.0399
 7572SOL    HW134175   0.202   3.631   3.874  0.7117 -0.3419 -0.0903
 7572SOL    HW234176   0.113   3.535   3.812  2.4247  0.4050 -2.0087
 7573SOL     OW34177   1.946   1.591   7.330  0.1879  0.5703 -0.5925
 7573SOL    HW134178   1.867   1.543   7.355  1.2391 -1.2142 -0.7480
 7573SOL    HW234179   1.950   1.656   7.401  1.4215 -1.1921  0.9286
 7574SOL     OW34180   2.033   0.962   0.106 -0.1922  0.4512  0.3361
 7574SOL    HW134181   2.045   0.977   0.013  0.5541 -3.0247 -0.0891
 7574SOL    HW234182   2.100   0.900   0.134 -1.4039 -1.3288 -0.7145
 7575SOL     OW34183   1.203   0.805   3.014  0.1913 -1.3023 -0.1680
 7575SOL    HW134184   1.255   0.725   3.006 -0.5082 -1.6601 -1.0790
 7575SOL    HW234185   1.187   0.841   2.927  2.1128 -1.6887 -0.6939
 7576SOL     OW34186   1.331   3.416   9.926 -0.1122  0.0369 -0.1097
 7576SOL    HW134187   1.419   3.377   9.931 -0.7402 -0.9200  3.2412
 7576SOL    HW234188   1.274   3.341   9.943 -1.2130  0.8448 -0.2895
 7577SOL     OW34189   3.022   1.525   8.405  0.4426 -0.6062  0.0713
 7577SOL    HW134190   3.056   1.563   8.486  0.7543 -0.6152 -0.0529
 7577SOL    HW234191   2.932   1.554   8.419  1.1857  0.5012  2.5636
 7578SOL     OW34192   1.871   0.018   0.102  0.2925  0.4421  0.8019
 7578SOL    HW134193   1.830   4.660   0.083  0.3122  1.3148 -3.1934
 7578SOL    HW234194   1.808   0.052   0.165  0.5039  0.7491  0.8513
 7579SOL     OW34195   3.469   1.208  15.345 -0.0098  0.3260 -0.2415
 7579SOL    HW134196   3.482   1.207  15.440  1.6183 -0.4868 -0.4787
 7579SOL    HW234197   3.378   1.178  15.346  0.9888 -2.6387  0.9572
 7580SOL     OW34198   3.270   3.820   9.054 -0.4524 -0.2884  0.0882
 7580SOL    HW134199   3.194   3.853   9.102 -0.8238 -0.9813 -0.0274
 7580SOL    HW234200   3.338   3.820   9.121  0.1177  1.8343 -0.4757
 7581SOL     OW34201   3.750   4.539   1.655  0.5450  0.5337  0.2534
 7581SOL    HW134202   3.737   4.616   1.601  1.7391  1.6808  1.6085
 7581SOL    HW234203   3.660   4.506   1.650  0.4287  1.2205 -1.8897
 7582SOL     OW34204   1.932   2.934   4.668 -0.1100 -0.6840  0.0887
 7582SOL    HW134205   1.864   3.001   4.667  0.4056 -0.1698 -0.8306
 7582SOL    HW234206   1.996   2.979   4.723 -0.6896 -1.0279  1.0382
 7583SOL     OW34207   4.181   3.290   9.772 -0.1341 -0.0670  0.1748
 7583SOL    HW134208   4.128   3.362   9.806  0.4903  0.5492 -0.1451
 7583SOL    HW234209   4.238   3.264   9.844 -1.1208  3.0072  2.0327
 7584SOL     OW34210   2.063   0.091  12.253 -0.2793  0.4857  0.1399
 7584SOL    HW134211   2.146   0.138  12.263  0.2857 -0.6201  0.5585
 7584SOL    HW234212   2.012   0.162  12.214  0.3253 -0.7244 -2.8095
 7585SOL     OW34213   4.367   2.069   8.381  0.1559  0.0475 -0.1312
 7585SOL    HW134214   4.377   2.057   8.287  1.1509  0.4675 -0.0788
 7585SOL    HW234215   4.272   2.075   8.376  0.0034 -2.4166 -0.1967
 7586SOL     OW34216   2.661   1.917  12.308  0.0762 -0.2178  0.2997
 7586SOL    HW134217   2.626   1.839  12.353 -1.2950 -1.3806 -2.7945
 7586SOL    HW234218   2.755   1.899  12.318 -0.2582 -1.1290  1.8019
 7587SOL     OW34219   4.152   2.842   5.262 -0.6454 -0.0038  0.0264
 7587SOL    HW134220   4.104   2.897   5.325 -0.8178 -0.3066  0.1584
 7587SOL    HW234221   4.159   2.757   5.306  0.4550  0.2558  0.3659
 7588SOL     OW34222   3.032   2.852   5.170 -0.4658  0.1359  0.1395
 7588SOL    HW134223   3.116   2.852   5.123 -0.4181 -2.7993  0.2231
 7588SOL    HW234224   2.982   2.886   5.095 -0.3681  0.7095  0.3338
 7589SOL     OW34225   2.217   4.003  10.149 -0.0537  0.3093 -0.0087
 7589SOL    HW134226   2.305   3.971  10.130  0.1424 -0.3125  1.9457
 7589SOL    HW234227   2.237   4.083  10.199  3.4253 -0.5775  0.0102
 7590SOL     OW34228   0.995   4.647   7.555  0.4345  0.2865  0.4877
 7590SOL    HW134229   1.051   4.715   7.593  1.7098 -1.9851  2.6396
 7590SOL    HW234230   1.050   4.620   7.481 -0.8242 -1.2017  0.0915
 7591SOL     OW34231   2.719   1.476  11.367 -0.0102 -0.2498 -0.2691
 7591SOL    HW134232   2.719   1.570  11.353  2.7740 -0.3966 -1.0971
 7591SOL    HW234233   2.626   1.455  11.374  0.0034 -0.0481  0.5686
 7592SOL     OW34234   0.269   1.336   6.241 -0.1512  0.0489 -0.4084
 7592SOL    HW134235   0.286   1.352   6.334 -0.9125 -1.5854  0.0193
 7592SOL    HW234236   0.174   1.324   6.241 -0.2935  1.2088  0.3986
 7593SOL     OW34237   1.864   0.642  13.036 -0.0040  0.2337  0.2079
 7593SOL    HW134238   1.830   0.618  13.123  1.5275 -1.0075  0.4504
 7593SOL    HW234239   1.785   0.674  12.993  0.5690 -1.1992 -1.8712
 7594SOL     OW34240   1.742   2.433   6.187  0.0313  0.6687  0.3470
 7594SOL    HW134241   1.681   2.359   6.194 -1.0074  1.3666 -1.3049
 7594SOL    HW234242   1.810   2.403   6.246 -0.0652  0.1473  0.1964
 7595SOL     OW34243   0.039   0.810   7.685  0.5331  0.4682 -0.1495
 7595SOL    HW134244   0.046   0.731   7.738 -1.7669 -0.4304 -1.1854
 7595SOL    HW234245   0.094   0.870   7.735  3.2202  0.4961 -3.1596
 7596SOL     OW34246   1.636   2.087   6.925  0.0491 -0.5144 -0.0896
 7596SOL    HW134247   1.663   2.135   6.846  0.2882 -0.0893  0.2521
 7596SOL    HW234248   1.542   2.097   6.912 -0.0805 -1.2770  0.2483
 7597SOL     OW34249   3.627   3.290   9.476 -0.4196 -0.1956  0.0834
 7597SOL    HW134250   3.543   3.269   9.434 -0.5209  2.2359 -0.8776
 7597SOL    HW234251   3.655   3.208   9.518  0.1470 -1.0443 -1.9599
 7598SOL     OW34252   0.902   4.673   7.276 -0.3517  0.7976 -0.2878
 7598SOL    HW134253   0.891   4.701   7.367  2.0597 -1.1068  0.5875
 7598SOL    HW234254   0.813   4.666   7.240 -0.4326 -1.2421  0.3244
 7599SOL     OW34255   0.955   0.762  10.452  0.2749  0.5055  0.0666
 7599SOL    HW134256   1.022   0.798  10.512  1.7270  0.2205 -1.3821
 7599SOL    HW234257   0.906   0.841  10.428  1.3524  1.5644  1.3363
 7600SOL     OW34258   3.767   1.969   4.396 -0.1540  0.4668 -0.0193
 7600SOL    HW134259   3.692   1.911   4.392 -0.4245  0.8043  0.1550
 7600SOL    HW234260   3.789   1.992   4.306 -1.6910 -0.3106 -0.5918
 7601SOL     OW34261   4.111   1.860  10.351 -0.1337  0.0978  0.0235
 7601SOL    HW134262   4.066   1.941  10.329  1.7389  1.2372  0.4365
 7601SOL    HW234263   4.189   1.889  10.399  0.1689 -0.0892 -0.3586
 7602SOL     OW34264   3.104   3.154   9.193 -0.0841  0.7095 -0.0917
 7602SOL    HW134265   3.138   3.100   9.121 -0.6648  1.0970 -0.6606
 7602SOL    HW234266   3.099   3.234   9.140  0.0836  1.5245  1.1413
 7603SOL     OW34267   1.509   4.455   7.779  0.0307 -0.3962 -0.2642
 7603SOL    HW134268   1.558   4.375   7.799  1.3992  0.2176 -1.1783
 7603SOL    HW234269   1.580   4.506   7.739 -0.5968  0.0588 -0.7817
 7604SOL     OW34270   4.724   1.686   6.912 -0.0935  0.5793  0.4079
 7604SOL    HW134271   4.717   1.695   7.007 -0.2613 -2.4700  0.6697
 7604SOL    HW234272   0.032   1.597   6.903  0.1771  0.6938  0.2791
 7605SOL     OW34273   4.036   0.136  12.914  0.1922  0.4025 -0.1131
 7605SOL    HW134274   4.094   0.189  12.858 -0.9854  3.2656  1.3471
 7605SOL    HW234275   3.952   0.163  12.877 -0.8123 -0.1245  1.7791
 7606SOL     OW34276   0.478   2.663   6.550 -0.0594 -0.2339 -0.1778
 7606SOL    HW134277   0.536   2.738   6.559 -2.8258  2.0954 -1.7393
 7606SOL    HW234278   0.435   2.686   6.468 -0.2074  0.2855  0.0497
 7607SOL     OW34279   2.165   0.146   7.993  0.2592  0.3831  0.2454
 7607SOL    HW134280   2.248   0.130   8.037 -0.0857 -1.6233  0.1790
 7607SOL    HW234281   2.121   0.184   8.068  0.3070  0.6365  0.1445
 7608SOL     OW34282   4.207   0.246   7.946 -0.3461  0.0140 -0.0289
 7608SOL    HW134283   4.242   0.158   7.952  0.0043  0.1399 -0.2397
 7608SOL    HW234284   4.130   0.237   7.890  0.8568  0.7035 -1.7935
 7609SOL     OW34285   4.686   3.598   5.870  0.0031 -0.3751  0.3417
 7609SOL    HW134286   4.697   3.693   5.874 -1.9335 -0.1209 -0.6010
 7609SOL    HW234287   0.043   3.570   5.909  0.2614 -0.1482 -0.0442
 7610SOL     OW34288   0.760   3.443   1.224  0.2660  0.1674  0.3941
 7610SOL    HW134289   0.824   3.383   1.263 -2.4682 -0.3864  4.0441
 7610SOL    HW234290   0.770   3.522   1.277 -1.4677  0.8874 -0.3790
 7611SOL     OW34291   3.341   4.627  15.261 -0.5263  0.5260 -0.5596
 7611SOL    HW134292   3.395   4.695  15.302 -0.3564 -0.3829  0.7136
 7611SOL    HW234293   3.339   4.553  15.322 -0.4833  0.2902 -0.8442
 7612SOL     OW34294   1.947   1.782   2.437 -0.4255  0.0666 -0.0712
 7612SOL    HW134295   1.909   1.846   2.376  0.8641  3.0838  2.2929
 7612SOL    HW234296   1.915   1.816   2.521 -0.9372 -1.6437  0.4176
 7613SOL     OW34297   2.424   4.241  17.665 -0.3768 -0.4651 -0.0149
 7613SOL    HW134298   2.454   4.263  17.576  1.9547  0.1104  0.9117
 7613SOL    HW234299   2.383   4.156  17.649  1.9604 -1.5948  0.0441
 7614SOL     OW34300   2.980   1.393   4.914 -0.0526  0.5905  0.0331
 7614SOL    HW134301   2.977   1.342   4.995 -0.2363  1.7038  0.7244
 7614SOL    HW234302   3.005   1.323   4.854  0.2540 -0.4629  1.3778
 7615SOL     OW34303   3.568   1.874  14.387 -0.5442 -0.2061  0.5068
 7615SOL    HW134304   3.651   1.846  14.425 -0.5855  2.5703  2.6889
 7615SOL    HW234305   3.579   1.831  14.302  2.9144  1.1975  0.2403
 7616SOL     OW34306   2.385   0.295  16.020  0.6180 -0.0966 -0.3100
 7616SOL    HW134307   2.476   0.318  16.003  0.3451  2.1743  1.3945
 7616SOL    HW234308   2.366   0.236  15.947  0.7352  1.2514 -1.4332
 7617SOL     OW34309   4.507   3.144   7.358  0.0150  0.1782 -0.0603
 7617SOL    HW134310   4.486   3.235   7.336 -1.3525 -0.8990 -3.1306
 7617SOL    HW234311   4.558   3.108   7.285 -0.6316 -0.0504 -0.3896
 7618SOL     OW34312   0.425   2.451   4.655  0.0472  0.3591  0.2471
 7618SOL    HW134313   0.390   2.540   4.653  0.5247  0.5416 -0.2803
 7618SOL    HW234314   0.348   2.399   4.675  0.8875 -0.9384  0.1007
 7619SOL     OW34315   3.185   0.398   0.555  0.3513  0.3045  0.6211
 7619SOL    HW134316   3.224   0.314   0.532  2.0606  1.7997 -1.9154
 7619SOL    HW234317   3.141   0.377   0.638 -2.3704  1.2339 -0.5721
 7620SOL     OW34318   3.384   1.185   3.957  0.4129  0.1037 -0.3301
 7620SOL    HW134319   3.376   1.255   4.022 -1.2801 -0.7545  0.3714
 7620SOL    HW234320   3.296   1.182   3.918  0.6377  0.4284 -0.8622
 7621SOL     OW34321   1.910   3.555   2.929 -0.1331 -0.2897  0.1335
 7621SOL    HW134322   1.913   3.517   2.841  0.1030 -0.7781  0.3499
 7621SOL    HW234323   1.974   3.625   2.916  1.0254 -1.3440  0.1912
 7622SOL     OW34324   0.226   3.696   3.162 -0.4829 -0.4098 -0.2853
 7622SOL    HW134325   0.185   3.668   3.080  0.4796 -1.2010 -0.5027
 7622SOL    HW234326   0.151   3.692   3.221  0.8796  2.2578  1.6754
 7623SOL     OW34327   4.564   0.147   2.447 -0.2444 -0.2006  0.8249
 7623SOL    HW134328   4.541   0.126   2.357 -1.0216  1.3515  0.6665
 7623SOL    HW234329   4.618   0.225   2.437 -0.6661  0.3788  3.0967
 7624SOL     OW34330   4.719   0.886  10.205  0.5290  0.0231 -0.5765
 7624SOL    HW134331   4.627   0.886  10.233  0.0725 -0.1517 -2.0480
 7624SOL    HW234332   0.011   0.796  10.176 -0.7488 -0.3921 -0.0733
 7625SOL     OW34333   2.392   2.788   8.741  0.6901 -0.3904  0.8453
 7625SOL    HW134334   2.382   2.828   8.655  0.2540 -0.4266  0.8812
 7625SOL    HW234335   2.332   2.842   8.792 -0.4789 -0.8846 -0.0141
 7626SOL     OW34336   0.018   0.763   4.611  0.5592 -0.2714  0.2922
 7626SOL    HW134337   0.005   0.759   4.706  1.7047  0.5469  0.4776
 7626SOL    HW234338   0.010   0.674   4.576 -0.8329  0.9238 -2.3977
 7627SOL     OW34339   3.611   2.125  16.609  0.4524  0.1056  0.2357
 7627SOL    HW134340   3.693   2.094  16.570  0.3613 -1.7136  1.4961
 7627SOL    HW234341   3.568   2.176  16.541 -0.6393 -0.8440  0.2085
 7628SOL     OW34342   3.806   3.368   5.071 -0.4778 -0.2672 -0.2988
 7628SOL    HW134343   3.804   3.399   4.981 -0.3605  2.3569  0.5879
 7628SOL    HW234344   3.893   3.330   5.082 -1.8100 -2.9801  0.9474
 7629SOL     OW34345   1.012   0.292   7.849 -0.0448  0.4307  0.2813
 7629SOL    HW134346   0.934   0.315   7.799 -0.7490 -1.1282  0.6466
 7629SOL    HW234347   0.966   0.264   7.929  2.3811 -0.5697  1.3211
 7630SOL     OW34348   0.810   3.506   1.548  0.1989  0.0070  0.2382
 7630SOL    HW134349   0.880   3.539   1.605 -0.0512  1.7040 -0.4218
 7630SOL    HW234350   0.850   3.429   1.507  1.7955  1.2944 -0.6184
 7631SOL     OW34351   0.198   1.989   1.200  0.0205  0.4175  0.2642
 7631SOL    HW134352   0.190   1.951   1.287 -0.6191  0.1533  0.0903
 7631SOL    HW234353   0.175   2.080   1.218  2.2036  0.8511  0.8215
 7632SOL     OW34354   0.418   3.857   1.498 -0.4737  0.6152 -0.1716
 7632SOL    HW134355   0.357   3.856   1.571  0.7034  0.1056  0.8054
 7632SOL    HW234356   0.467   3.778   1.519  0.8418  1.2904 -0.6696
 7633SOL     OW34357   0.133   4.016  16.863 -0.6930 -0.0889 -0.3474
 7633SOL    HW134358   0.228   4.011  16.877 -0.7410 -2.3162 -0.8338
 7633SOL    HW234359   0.113   3.965  16.943  1.5521 -2.1668 -1.0888
 7634SOL     OW34360   0.760   2.739   8.076 -0.7366  0.1151 -0.6595
 7634SOL    HW134361   0.785   2.652   8.047 -1.4204  0.1205 -1.2587
 7634SOL    HW234362   0.830   2.799   8.049 -0.1565 -0.2064  0.1357
 7635SOL     OW34363   1.293   0.271   4.387  0.2267 -0.5027  0.3460
 7635SOL    HW134364   1.356   0.342   4.401 -1.7158  0.9970  1.5523
 7635SOL    HW234365   1.241   0.277   4.467  1.0315  0.0934  0.8319
 7636SOL     OW34366   2.578   3.026   6.332  0.0392 -0.0661  0.1884
 7636SOL    HW134367   2.636   3.097   6.359 -0.9507  1.4562 -1.7383
 7636SOL    HW234368   2.640   2.988   6.268  1.1874  3.3444 -0.6948
 7637SOL     OW34369   1.225   2.949  16.330 -0.0385 -0.1285 -0.0380
 7637SOL    HW134370   1.278   2.881  16.371 -0.6089 -0.7757 -0.3732
 7637SOL    HW234371   1.276   3.026  16.356 -1.5065  0.9472 -0.2989
 7638SOL     OW34372   1.614   4.093   3.030 -0.1488 -0.4144  0.2215
 7638SOL    HW134373   1.690   4.149   3.015 -0.4386 -0.7835 -2.7251
 7638SOL    HW234374   1.666   4.012   3.026  0.4965  0.0377 -0.4724
 7639SOL     OW34375   4.323   3.578   4.193  0.1294 -0.7571 -0.0530
 7639SOL    HW134376   4.276   3.495   4.191 -1.3042  0.0460 -0.4920
 7639SOL    HW234377   4.413   3.556   4.218 -0.3588 -0.5972  1.9023
 7640SOL     OW34378   3.184   4.210   0.169 -0.3661 -0.2946 -0.3500
 7640SOL    HW134379   3.167   4.303   0.153  0.3815 -0.0764  0.1305
 7640SOL    HW234380   3.113   4.192   0.231 -1.2285  2.4434 -0.5583
 7641SOL     OW34381   0.495   3.922   5.280  0.1237  0.2494 -0.2600
 7641SOL    HW134382   0.582   3.914   5.319 -0.4943  0.5984  1.1945
 7641SOL    HW234383   0.447   3.981   5.338 -0.0837 -0.5466  0.3830
 7642SOL     OW34384   1.445   4.196  11.147 -0.1335  0.5905 -0.2347
 7642SOL    HW134385   1.536   4.214  11.172  0.4552 -4.2846  1.1759
 7642SOL    HW234386   1.409   4.219  11.232 -1.5090  1.0738 -0.9396
 7643SOL     OW34387   4.598   0.214  17.114  0.1121 -0.2313 -0.6817
 7643SOL    HW134388   4.598   0.306  17.091 -0.7099 -0.1013 -0.1735
 7643SOL    HW234389   4.637   0.171  17.037 -0.6633 -2.3251  0.0807
 7644SOL     OW34390   1.978   1.839  11.773 -0.0804  0.5878 -0.7832
 7644SOL    HW134391   1.913   1.768  11.774  0.7010 -0.0950  1.8942
 7644SOL    HW234392   2.061   1.799  11.796 -1.1122 -1.6325 -0.9079
 7645SOL     OW34393   2.303   2.313   6.218  0.9386 -0.2744  0.3445
 7645SOL    HW134394   2.248   2.248   6.263 -2.0079  1.9574 -0.0462
 7645SOL    HW234395   2.261   2.322   6.133 -0.8731  1.9055  1.4725
 7646SOL     OW34396   1.251   3.514   0.868  0.5066  0.0191  0.0910
 7646SOL    HW134397   1.247   3.567   0.788  2.0484  1.3037  0.8599
 7646SOL    HW234398   1.324   3.454   0.854  1.2534  1.0000 -0.2403
 7647SOL     OW34399   1.582   3.771   2.824  0.5605 -0.5955 -0.6575
 7647SOL    HW134400   1.615   3.682   2.840 -1.7267 -1.4225 -0.5539
 7647SOL    HW234401   1.670   3.810   2.823  0.1574  0.3574  0.6604
 7648SOL     OW34402   4.567   1.215   5.458  0.4430 -0.1245 -0.3544
 7648SOL    HW134403   4.554   1.190   5.366 -0.4748  1.6290 -0.7085
 7648SOL    HW234404   4.476   1.206   5.488 -0.0396  0.4295 -1.6337
 7649SOL     OW34405   1.680   1.039   6.634 -0.2129 -0.5543 -0.2311
 7649SOL    HW134406   1.747   0.979   6.604  0.7899  1.1465 -1.4161
 7649SOL    HW234407   1.696   1.110   6.572 -1.0122 -1.6518 -1.6876
 7650SOL     OW34408   1.037   3.356   8.494  0.3150  0.3236 -0.0304
 7650SOL    HW134409   0.942   3.349   8.504  0.3421 -0.2255 -0.1330
 7650SOL    HW234410   1.043   3.381   8.402 -2.5245  1.2191  0.0244
 7651SOL     OW34411   0.317   2.363  16.936 -0.3732  0.1893  0.5706
 7651SOL    HW134412   0.228   2.351  16.903 -0.7268  0.9796  1.2345
 7651SOL    HW234413   0.348   2.347  16.847 -0.9454  0.3228  0.3449
 7652SOL     OW34414   4.025   4.359   2.627 -0.2049 -0.1321  0.0268
 7652SOL    HW134415   4.021   4.451   2.600  0.2637  0.1044  0.7694
 7652SOL    HW234416   3.966   4.352   2.702  0.0043  0.9041  0.2876
 7653SOL     OW34417   1.846   1.468   6.432 -0.3391 -0.0905  0.2618
 7653SOL    HW134418   1.910   1.440   6.497  0.4261 -0.4114 -0.6371
 7653SOL    HW234419   1.764   1.433   6.466 -0.1317 -1.0491 -0.2285
 7654SOL     OW34420   2.601   2.218   6.586  0.1866  0.7520  0.3467
 7654SOL    HW134421   2.548   2.167   6.524  1.6096  0.9221 -1.0141
 7654SOL    HW234422   2.639   2.280   6.524 -2.1667  1.2610 -0.6160
 7655SOL     OW34423   0.493   2.154   9.512  0.2406  0.4115 -0.2721
 7655SOL    HW134424   0.404   2.132   9.540  0.5923  0.1517  0.6495
 7655SOL    HW234425   0.521   2.067   9.484 -0.4430  0.8319 -2.2209
 7656SOL     OW34426   3.874   3.736   6.662 -0.6900  0.4667 -0.0961
 7656SOL    HW134427   3.824   3.793   6.721  0.5168  3.4095 -1.9038
 7656SOL    HW234428   3.913   3.800   6.602 -0.4192  0.6331  0.2547
 7657SOL     OW34429   3.875   1.620   4.972  0.1152 -0.0928 -0.0801
 7657SOL    HW134430   3.904   1.531   4.993 -1.5712 -0.4109  0.8582
 7657SOL    HW234431   3.809   1.626   5.041  1.4193  0.6090  1.1124
 7658SOL     OW34432   3.928   2.140   0.082 -0.5332 -0.1939 -0.8083
 7658SOL    HW134433   3.920   2.053   0.043 -2.7396 -0.3305 -0.0505
 7658SOL    HW234434   4.000   2.131   0.145  0.3074  2.5927 -1.3394
 7659SOL     OW34435   3.747   3.231   8.015  0.3115  0.2868 -1.0248
 7659SOL    HW134436   3.842   3.242   8.024  0.3327  0.0333 -0.9583
 7659SOL    HW234437   3.728   3.234   7.921  0.1139 -0.6260 -1.0164
 7660SOL     OW34438   2.827   3.899   7.335  0.2839  0.8610  0.0518
 7660SOL    HW134439   2.908   3.882   7.381 -0.1994  1.3650  1.0830
 7660SOL    HW234440   2.769   3.841   7.383 -0.7956  1.2890 -0.6989
 7661SOL     OW34441   3.389   4.466   7.870 -0.6462 -0.0743 -0.1636
 7661SOL    HW134442   3.437   4.448   7.789 -1.9709  1.7315 -1.3699
 7661SOL    HW234443   3.456   4.458   7.937 -1.0640  2.5703  0.5697
 7662SOL     OW34444   3.155   1.727   6.627 -0.3822  0.2799 -0.2087
 7662SOL    HW134445   3.209   1.739   6.705 -2.4658 -0.8407  1.4435
 7662SOL    HW234446   3.069   1.715   6.670  0.0104  2.1372  1.1081
 7663SOL     OW34447   2.380   2.927   7.606  0.0542 -0.5103 -0.1680
 7663SOL    HW134448   2.373   2.983   7.683  0.5688  0.6255 -0.9412
 7663SOL    HW234449   2.373   2.842   7.649 -1.1200  0.2856  1.1959
 7664SOL     OW34450   1.417   0.197   2.988  0.5978  0.1077  0.2223
 7664SOL    HW134451   1.461   0.282   2.990  0.7649  0.0638 -1.5995
 7664SOL    HW234452   1.369   0.210   3.070 -0.1053  1.4282 -0.4038
 7665SOL     OW34453   1.646   0.663   8.516  0.1552  0.1176  0.5655
 7665SOL    HW134454   1.741   0.676   8.508  0.0376  0.6505  0.0520
 7665SOL    HW234455   1.620   0.745   8.558 -1.4473  0.1270 -0.4659
 7666SOL     OW34456   4.370   4.069   8.699 -0.4962 -0.3842 -0.1433
 7666SOL    HW134457   4.304   4.111   8.754 -0.7731 -2.3171  1.0031
 7666SOL    HW234458   4.438   4.138   8.699 -0.3398 -0.5641 -2.6149
 7667SOL     OW34459   3.730   3.742   7.739 -0.1144  0.3967  0.3371
 7667SOL    HW134460   3.807   3.796   7.757  0.0358  0.5000 -0.6460
 7667SOL    HW234461   3.749   3.702   7.655  0.9789  3.4160 -0.8536
 7668SOL     OW34462   1.414   2.752   6.914 -0.3046  0.0766  0.3163
 7668SOL    HW134463   1.355   2.691   6.869 -0.1092  0.5059 -0.5286
 7668SOL    HW234464   1.358   2.776   6.988 -1.6520  1.4072 -1.1306
 7669SOL     OW34465   1.041   3.420   8.231  0.1622 -0.5905  0.7940
 7669SOL    HW134466   1.026   3.338   8.186  1.6164  0.2048 -1.1506
 7669SOL    HW234467   0.952   3.453   8.221  0.4129 -0.5946 -1.3814
 7670SOL     OW34468   0.570   0.873   7.247  0.2509 -0.7802 -0.0732
 7670SOL    HW134469   0.599   0.873   7.338 -0.6614 -0.5854  0.2160
 7670SOL    HW234470   0.597   0.787   7.214  0.9323 -0.9459  0.9197
 7671SOL     OW34471   3.362   1.959  11.002 -0.3840 -0.0641  0.2765
 7671SOL    HW134472   3.451   1.976  10.971 -0.4667  0.6316  0.4360
 7671SOL    HW234473   3.353   1.882  10.945  0.2039  0.1222 -0.0753
 7672SOL     OW34474   3.190   2.356   5.682 -0.0476  0.1657  0.1714
 7672SOL    HW134475   3.133   2.419   5.638 -1.9072 -1.6869 -0.0877
 7672SOL    HW234476   3.124   2.309   5.733  0.1455  0.4316  0.6658
 7673SOL     OW34477   3.121   0.149   7.566  0.4019  0.2734 -0.3485
 7673SOL    HW134478   3.127   0.150   7.470  0.5006 -3.0794 -0.3748
 7673SOL    HW234479   3.209   0.151   7.602  0.0580 -0.3491  0.5084
 7674SOL     OW34480   3.663   1.283   6.502 -0.6582  0.5009 -0.2572
 7674SOL    HW134481   3.668   1.353   6.437  0.3504  1.5886  1.0131
 7674SOL    HW234482   3.613   1.320   6.574 -1.1549 -0.4941 -0.0887
 7675SOL     OW34483   0.848   4.275   9.229  0.1612  0.2262  0.8123
 7675SOL    HW134484   0.859   4.365   9.260  0.7659  0.4265  0.0185
 7675SOL    HW234485   0.769   4.251   9.277  1.1545 -1.1061  1.8189
 7676SOL     OW34486   3.083   2.155  12.463 -0.0491 -0.2455  0.0800
 7676SOL    HW134487   2.990   2.135  12.474 -0.0894 -0.8359 -1.4374
 7676SOL    HW234488   3.108   2.205  12.542 -0.3405 -1.9901  1.2761
 7677SOL     OW34489   0.480   2.029   4.117 -0.2720  0.5498  0.1771
 7677SOL    HW134490   0.489   2.106   4.061  0.4599  2.1366  2.4987
 7677SOL    HW234491   0.563   1.989   4.089  0.2606  0.4639  1.8503
 7678SOL     OW34492   2.351   2.972  13.636  0.5814  0.0437  0.1008
 7678SOL    HW134493   2.439   3.010  13.644  0.6545 -0.8585  3.7194
 7678SOL    HW234494   2.365   2.889  13.682  0.3843 -0.7676 -1.3242
 7679SOL     OW34495   0.585   4.332   6.806  0.4469  0.0865 -0.4503
 7679SOL    HW134496   0.650   4.269   6.774 -0.5961 -0.4722 -1.4510
 7679SOL    HW234497   0.566   4.381   6.726  1.2205 -0.0409 -0.7181
 7680SOL     OW34498   1.901   0.328  12.251  0.6572  0.3827  0.1967
 7680SOL    HW134499   1.944   0.307  12.168  0.6091 -1.9140  0.7563
 7680SOL    HW234500   1.865   0.415  12.237  0.3191  0.0308 -1.0684
 7681SOL     OW34501   0.945   0.459   1.008  0.3816  0.4911  0.0924
 7681SOL    HW134502   0.917   0.467   1.099  3.5279  0.2078  1.0939
 7681SOL    HW234503   0.862   0.460   0.961 -0.9875  1.9367  2.5606
 7682SOL     OW34504   1.394   2.694   9.044  0.2940 -0.0514 -0.6885
 7682SOL    HW134505   1.365   2.605   9.022  0.3407  0.0187 -1.0268
 7682SOL    HW234506   1.373   2.699   9.137  1.4796 -1.6330 -0.3199
 7683SOL     OW34507   3.032   4.518  15.307 -0.1165 -0.1946  0.0618
 7683SOL    HW134508   3.112   4.484  15.346  1.5404  1.3274 -1.9932
 7683SOL    HW234509   3.071   4.580  15.245  0.3506 -0.4255  0.1249
 7684SOL     OW34510   0.826   2.123  12.309  0.3196  0.0538 -0.4165
 7684SOL    HW134511   0.796   2.180  12.238 -0.8515 -0.3913 -0.2863
 7684SOL    HW234512   0.836   2.189  12.378 -1.1515 -0.6176  0.4421
 7685SOL     OW34513   4.617   1.622   9.753 -0.1657 -0.1135  0.5980
 7685SOL    HW134514   4.680   1.693   9.766  0.9658 -1.3840  2.0903
 7685SOL    HW234515   4.568   1.616   9.835 -0.8965 -0.4664  0.1379
 7686SOL     OW34516   3.248   4.148  15.248 -0.4377 -0.6368  0.1079
 7686SOL    HW134517   3.203   4.093  15.312 -0.6299  0.6060  1.0657
 7686SOL    HW234518   3.216   4.104  15.170  1.7790 -3.1128  0.6022
 7687SOL     OW34519   3.633   3.871   8.951  0.1357  0.0396  0.2955
 7687SOL    HW134520   3.658   3.960   8.977 -2.8892  1.5877 -2.1617
 7687SOL    HW234521   3.688   3.835   9.021 -1.1323  0.0191  1.2683
 7688SOL     OW34522   2.706   3.229   3.459  0.0793 -0.1034  0.0722
 7688SOL    HW134523   2.622   3.273   3.456  0.3482  0.4185  0.1041
 7688SOL    HW234524   2.689   3.144   3.501 -1.2833  0.4015  0.5209
 7689SOL     OW34525   0.564   0.298   1.118 -0.1042 -0.3288  0.2270
 7689SOL    HW134526   0.517   0.352   1.182  0.7804 -0.3858  0.9259
 7689SOL    HW234527   0.527   0.330   1.036  0.5690 -1.8023 -0.6389
 7690SOL     OW34528   0.041   2.757   7.317  0.2985 -0.1727 -0.3801
 7690SOL    HW134529   0.114   2.708   7.279  0.4924  1.2273 -1.8127
 7690SOL    HW234530   4.719   2.773   7.236 -0.7817  1.0420  0.5017
 7691SOL     OW34531   1.045   2.018  10.547 -0.4105  0.4182  0.1133
 7691SOL    HW134532   1.100   1.945  10.520  0.0058  0.2175  1.4830
 7691SOL    HW234533   1.019   1.978  10.631 -0.1438  0.3125  0.1451
 7692SOL     OW34534   2.640   1.769   0.253  0.4772  0.0833  0.0932
 7692SOL    HW134535   2.586   1.720   0.314 -2.2976  1.1395 -1.5342
 7692SOL    HW234536   2.603   1.731   0.173  1.3377 -1.3418  0.3637
 7693SOL     OW34537   0.926   2.463  14.757 -0.1696  0.3961  0.3643
 7693SOL    HW134538   0.852   2.461  14.698 -1.3744  2.8278  1.7920
 7693SOL    HW234539   0.920   2.378  14.801  1.4873  0.0788 -0.0103
 7694SOL     OW34540   0.491   1.244  15.557  0.5266  0.0348 -0.3616
 7694SOL    HW134541   0.463   1.160  15.522  1.6463 -1.4616  2.3932
 7694SOL    HW234542   0.450   1.301  15.492  0.1820  0.3402  0.1218
 7695SOL     OW34543   0.636   4.247  11.780 -0.2032 -0.1413 -0.0761
 7695SOL    HW134544   0.570   4.184  11.809  2.4412 -1.4090  3.1710
 7695SOL    HW234545   0.712   4.230  11.836 -1.6080  0.5443  2.0333
 7696SOL     OW34546   0.775   4.495   7.641 -0.6222 -0.3998 -0.3255
 7696SOL    HW134547   0.730   4.444   7.574  2.9512  1.1479 -3.8715
 7696SOL    HW234548   0.843   4.543   7.594 -1.2229  0.7023 -0.0829
 7697SOL     OW34549   2.644   0.757   4.838  0.8266 -0.1334 -0.1279
 7697SOL    HW134550   2.703   0.687   4.868 -1.2251 -1.5402  0.6641
 7697SOL    HW234551   2.597   0.780   4.919 -0.7357  2.0153 -1.6355
 7698SOL     OW34552   0.196   2.946  10.631  0.3406  0.1267  0.3035
 7698SOL    HW134553   0.247   2.867  10.612 -1.9457 -1.3425  0.2266
 7698SOL    HW234554   0.177   2.928  10.723 -1.7639  0.1346 -0.1312
 7699SOL     OW34555   1.666   0.112   7.352  0.7557  0.1473  0.4441
 7699SOL    HW134556   1.690   0.025   7.321  2.4310  0.5808  0.5043
 7699SOL    HW234557   1.623   0.150   7.276  0.7384 -3.7522 -1.4778
 7700SOL     OW34558   3.938   4.245   8.440 -0.0824  0.5479  0.3407
 7700SOL    HW134559   4.023   4.219   8.405  0.5500 -0.4907  2.6489
 7700SOL    HW234560   3.905   4.158   8.461 -0.2093  0.2877 -0.9666
 7701SOL     OW34561   3.383   4.138  15.710  0.4591  0.4768  0.2304
 7701SOL    HW134562   3.302   4.130  15.660  1.7925 -0.2414 -1.8216
 7701SOL    HW234563   3.426   4.214  15.670  1.0529 -0.6894 -1.3713
 7702SOL     OW34564   4.162   3.889   7.059 -1.3004  0.3547 -0.2673
 7702SOL    HW134565   4.136   3.801   7.087  1.8373 -0.9449 -1.4698
 7702SOL    HW234566   4.078   3.926   7.029 -0.9974  1.9319  0.8449
 7703SOL     OW34567   2.323   2.822   4.620 -0.0791 -0.0043  0.5312
 7703SOL    HW134568   2.369   2.901   4.646  2.4783 -0.6242 -2.0546
 7703SOL    HW234569   2.286   2.794   4.704 -1.5656 -1.5569 -0.6248
 7704SOL     OW34570   4.089   0.382   8.189  0.7210 -0.9495 -0.2022
 7704SOL    HW134571   4.081   0.345   8.101  0.2641  1.8510 -1.3302
 7704SOL    HW234572   4.151   0.322   8.231  0.1013 -2.1681 -1.0071
 7705SOL     OW34573   4.170   3.418   3.051  0.3517 -0.0073 -0.6286
 7705SOL    HW134574   4.190   3.429   2.958 -0.5876 -1.5496 -1.0026
 7705SOL    HW234575   4.113   3.493   3.070  0.5883 -0.5233  2.1892
 7706SOL     OW34576   2.089   1.920   1.613  0.7200  0.0382  0.4154
 7706SOL    HW134577   2.048   1.898   1.696 -0.3276 -1.6684 -0.5434
 7706SOL    HW234578   2.153   1.849   1.604 -1.2551 -1.7193  0.1097
 7707SOL     OW34579   2.509   2.733  15.909  0.2724  0.4801 -0.6477
 7707SOL    HW134580   2.467   2.791  15.845 -0.5845 -1.0058 -1.4181
 7707SOL    HW234581   2.480   2.776  15.990 -0.1786 -0.7334 -0.1603
 7708SOL     OW34582   1.484   1.901   0.233  0.6718 -0.3446 -0.0454
 7708SOL    HW134583   1.393   1.882   0.258  1.3413 -2.3168  0.8454
 7708SOL    HW234584   1.528   1.831   0.280 -0.3355 -1.3865 -0.6557
 7709SOL     OW34585   4.420   0.947   5.218 -0.7002 -0.2539  0.1037
 7709SOL    HW134586   4.478   1.023   5.212 -2.0399  0.8943  1.7692
 7709SOL    HW234587   4.351   0.983   5.162 -1.1129 -1.7374 -0.3536
 7710SOL     OW34588   4.025   0.339   2.853 -0.5141 -0.1117  0.4401
 7710SOL    HW134589   4.011   0.313   2.944 -2.2156  0.6358  0.4007
 7710SOL    HW234590   4.121   0.337   2.853 -0.5470 -1.6207 -1.4698
 7711SOL     OW34591   2.873   3.972   8.708 -0.1410  0.0984  0.2488
 7711SOL    HW134592   2.918   4.056   8.718 -0.4391  0.2180  0.5874
 7711SOL    HW234593   2.861   3.953   8.801 -0.6729  0.0595  0.1733
 7712SOL     OW34594   1.877   1.308  11.943 -0.4953 -0.2902  0.6281
 7712SOL    HW134595   1.909   1.306  12.033  3.2893  2.1387 -0.7054
 7712SOL    HW234596   1.955   1.269  11.904  1.0337  3.1440  0.2487
 7713SOL     OW34597   3.279   2.091   3.840 -0.2027 -0.3072  0.0384
 7713SOL    HW134598   3.314   2.180   3.839  1.5659 -0.9976 -0.1366
 7713SOL    HW234599   3.349   2.033   3.811  0.8548 -0.7692  3.4664
 7714SOL     OW34600   2.715   0.411   0.873 -0.1026  0.6473  0.2778
 7714SOL    HW134601   2.777   0.343   0.899 -1.2827 -0.2715  0.7089
 7714SOL    HW234602   2.647   0.411   0.940 -1.1399  0.4841 -0.7711
 7715SOL     OW34603   0.228   3.103  17.607  0.4848  0.3392  0.2138
 7715SOL    HW134604   0.188   3.186  17.633  1.0130  0.2851  1.1826
 7715SOL    HW234605   0.270   3.079  17.689  1.7955  0.6934 -0.3444
 7716SOL     OW34606   3.923   3.732  13.563 -0.2249 -0.2060 -0.2695
 7716SOL    HW134607   3.948   3.816  13.523 -0.0319 -0.1957 -0.1228
 7716SOL    HW234608   3.987   3.711  13.631 -2.5927  1.6801  2.5332
 7717SOL     OW34609   3.427   2.373   3.411 -0.2306 -0.5022 -0.1167
 7717SOL    HW134610   3.363   2.344   3.346 -0.1116 -0.6544 -0.1653
 7717SOL    HW234611   3.483   2.295   3.421  1.5749  0.8620  0.5092
 7718SOL     OW34612   1.735   3.384  15.475 -0.1369  0.1183 -0.0331
 7718SOL    HW134613   1.744   3.456  15.537 -0.0547 -0.6604  0.8726
 7718SOL    HW234614   1.809   3.401  15.416  0.2875  0.0678  0.4824
 7719SOL     OW34615   0.178   3.381   5.552 -0.0511 -0.2997 -0.4426
 7719SOL    HW134616   0.159   3.287   5.557  0.4397 -0.4012 -0.5369
 7719SOL    HW234617   0.273   3.386   5.560 -0.1285 -1.8434  1.5983
 7720SOL     OW34618   0.484   0.919   2.728 -0.0962 -0.6189 -0.0450
 7720SOL    HW134619   0.546   0.865   2.678 -0.6740 -1.1343 -0.2103
 7720SOL    HW234620   0.497   1.005   2.689  1.6970 -0.7866  0.1773
 7721SOL     OW34621   3.232   3.285   1.915 -0.6638 -0.1424  0.5172
 7721SOL    HW134622   3.236   3.377   1.889  0.3912 -0.2552  0.2742
 7721SOL    HW234623   3.158   3.281   1.976 -0.8614 -2.4844  0.1411
 7722SOL     OW34624   2.237   3.608   4.785  0.1390  0.8998  0.1489
 7722SOL    HW134625   2.232   3.530   4.730  0.7016  2.1682 -1.6799
 7722SOL    HW234626   2.325   3.594   4.821  0.1518 -0.4384 -0.4039
 7723SOL     OW34627   2.612   3.822   8.080 -0.3809 -0.1743  0.3144
 7723SOL    HW134628   2.680   3.866   8.131 -0.4030  0.3882 -0.1376
 7723SOL    HW234629   2.578   3.894   8.028 -1.6817  0.2705  1.7651
 7724SOL     OW34630   3.412   2.607  16.860 -0.5547 -0.0211 -0.8540
 7724SOL    HW134631   3.365   2.528  16.887 -0.9155 -0.0216 -1.4868
 7724SOL    HW234632   3.466   2.565  16.792 -1.0724 -0.8957 -0.7149
 7725SOL     OW34633   3.303   2.652  10.043  0.7183  0.7895  0.1305
 7725SOL    HW134634   3.296   2.745  10.024  1.2128  0.7435 -0.2919
 7725SOL    HW234635   3.316   2.618   9.954  0.6768  2.5571 -0.5333
 7726SOL     OW34636   2.856   4.059   7.675 -0.5472 -0.2832 -0.7690
 7726SOL    HW134637   2.769   4.098   7.679 -1.0740 -1.4963 -0.2907
 7726SOL    HW234638   2.836   3.966   7.671  0.7653 -0.6622  1.0094
 7727SOL     OW34639   3.012   3.049   7.450 -0.5858 -0.0941  0.2699
 7727SOL    HW134640   3.078   3.059   7.381 -2.9475  2.5625 -1.5915
 7727SOL    HW234641   3.007   2.954   7.444  1.5270 -0.1452 -0.5638
 7728SOL     OW34642   0.348   0.266   2.688 -0.1850 -0.3922  0.5554
 7728SOL    HW134643   0.439   0.250   2.664 -0.7838 -1.4565 -1.0035
 7728SOL    HW234644   0.364   0.329   2.759  0.5611  0.4869 -0.3982
 7729SOL     OW34645   0.261   1.490  10.086 -0.5970  0.1582  0.0216
 7729SOL    HW134646   0.190   1.500  10.150  0.9181  0.7425  1.6045
 7729SOL    HW234647   0.299   1.416  10.135  1.3841 -0.6136 -2.7042
 7730SOL     OW34648   1.182   4.456   1.734 -0.2028  0.1821 -0.1527
 7730SOL    HW134649   1.218   4.491   1.815 -1.2455 -0.3603  0.5316
 7730SOL    HW234650   1.112   4.518   1.715  0.1311  0.3813 -0.7411
 7731SOL     OW34651   0.000   0.460   0.264  0.2606  0.1507  0.2204
 7731SOL    HW134652   0.078   0.405   0.274  0.0333 -0.1538  0.3309
 7731SOL    HW234653   0.042   0.526   0.210 -0.7846  0.5919 -0.0427
 7732SOL     OW34654   3.945   3.161   8.857 -0.6219  0.3307  0.1405
 7732SOL    HW134655   3.860   3.199   8.879 -0.0791  0.0591  2.7110
 7732SOL    HW234656   3.960   3.189   8.767 -4.5706 -1.4282 -1.0604
 7733SOL     OW34657   3.205   3.875   7.696  0.5405  0.5693 -0.2879
 7733SOL    HW134658   3.156   3.797   7.721 -1.7279  2.4898  1.3126
 7733SOL    HW234659   3.232   3.915   7.779 -1.2319 -0.8829  1.0006
 7734SOL     OW34660   0.683   1.006   4.521  0.1687  0.4883  0.0485
 7734SOL    HW134661   0.731   1.003   4.438 -0.4979  0.4498 -0.3426
 7734SOL    HW234662   0.740   1.064   4.571 -0.1936  1.1699 -0.3255
 7735SOL     OW34663   2.783   2.711   7.067  0.1906 -0.5518 -0.4105
 7735SOL    HW134664   2.760   2.697   6.975 -1.2338  4.6379 -0.8833
 7735SOL    HW234665   2.720   2.780   7.091  2.3548  0.7735  1.4717
 7736SOL     OW34666   3.068   1.938   7.233  0.2160 -0.4541  0.1752
 7736SOL    HW134667   3.057   1.862   7.290  0.0552 -0.7505 -0.2521
 7736SOL    HW234668   2.989   1.932   7.178 -1.1209 -1.8319  2.2367
 7737SOL     OW34669   1.780   4.249   6.283  0.1429  0.3231  0.1511
 7737SOL    HW134670   1.788   4.336   6.243  1.4780  0.4576  0.6917
 7737SOL    HW234671   1.729   4.269   6.362 -0.8695  0.0996 -0.4494
 7738SOL     OW34672   0.948   0.728   2.138 -0.5178  0.0495 -0.3805
 7738SOL    HW134673   0.978   0.725   2.047  2.7587  1.8806  0.6367
 7738SOL    HW234674   0.901   0.645   2.143 -1.7826  0.7341 -0.9751
 7739SOL     OW34675   3.230   3.299  16.744 -0.0724  0.2043 -0.4219
 7739SOL    HW134676   3.186   3.383  16.752  3.2522  1.8792  0.4848
 7739SOL    HW234677   3.163   3.238  16.776  0.7551 -1.2165 -1.4045
 7740SOL     OW34678   0.661   0.034  17.164  0.2698 -0.5609  0.1569
 7740SOL    HW134679   0.712   0.115  17.168  0.3681 -0.7147  1.7733
 7740SOL    HW234680   0.586   0.060  17.110 -0.1812  0.0485  1.0750
 7741SOL     OW34681   2.114   2.838   1.844  0.6641 -0.0398  0.4151
 7741SOL    HW134682   2.130   2.749   1.812 -2.0979  0.2107 -1.6282
 7741SOL    HW234683   2.127   2.811   1.935 -1.8407  2.3807  1.4885
 7742SOL     OW34684   2.177   2.360   7.565 -0.3122  0.1966  0.1237
 7742SOL    HW134685   2.270   2.381   7.550 -1.0345  1.8861 -1.9866
 7742SOL    HW234686   2.168   2.302   7.489  2.9355  0.1151 -0.2206
 7743SOL     OW34687   4.139   3.506   5.847 -0.2126  0.1904 -0.0349
 7743SOL    HW134688   4.199   3.480   5.918 -2.7347 -0.1162  2.0076
 7743SOL    HW234689   4.122   3.426   5.798 -0.7840  1.1870 -1.4681
 7744SOL     OW34690   2.652   2.713   8.724  0.0931  0.4986  0.1349
 7744SOL    HW134691   2.563   2.740   8.744  0.1691  2.5084 -2.2747
 7744SOL    HW234692   2.713   2.785   8.705  1.6350 -0.9491 -0.4078
 7745SOL     OW34693   1.883   1.846   5.853  0.0929  0.1334  0.7632
 7745SOL    HW134694   1.882   1.917   5.917  1.0920  0.0573  0.8531
 7745SOL    HW234695   1.827   1.782   5.898 -1.3069  1.7466  1.3551
 7746SOL     OW34696   2.110   2.931   6.997  0.4362 -0.1583  0.3851
 7746SOL    HW134697   2.178   2.955   6.934 -1.6758  0.1301 -1.7631
 7746SOL    HW234698   2.042   2.983   6.955  1.3383  0.8603  0.1854
 7747SOL     OW34699   0.443   1.848   5.859  0.1825 -0.2565 -0.2693
 7747SOL    HW134700   0.488   1.933   5.859 -0.5936  0.1631 -2.5517
 7747SOL    HW234701   0.519   1.794   5.837 -1.2842 -2.9660  1.5204
 7748SOL     OW34702   4.177   2.499   5.999  0.5225  0.1410  0.9761
 7748SOL    HW134703   4.166   2.584   6.042 -0.5463  0.5947 -0.2011
 7748SOL    HW234704   4.258   2.516   5.951  0.3121 -1.9627 -0.0970
 7749SOL     OW34705   0.801   1.538   8.911  0.1734  0.1989  0.0861
 7749SOL    HW134706   0.794   1.444   8.898 -1.6834  0.3618 -0.0590
 7749SOL    HW234707   0.856   1.538   8.990  0.2047  1.4486  0.0698
 7750SOL     OW34708   3.771   3.926   5.997  0.2477  0.1626  0.0837
 7750SOL    HW134709   3.726   4.005   5.967 -1.3404 -2.4660 -4.5188
 7750SOL    HW234710   3.703   3.893   6.055 -0.2882 -0.0882 -0.6777
 7751SOL     OW34711   1.203   3.685  17.024  0.1811  0.2889  0.4211
 7751SOL    HW134712   1.243   3.640  17.097  0.9827  2.9922  1.6638
 7751SOL    HW234713   1.223   3.775  17.052  3.3332 -0.6065  1.0052
 7752SOL     OW34714   1.683   2.985   7.020  0.0791  0.2985 -0.3705
 7752SOL    HW134715   1.603   3.006   7.068 -0.4010 -1.6141 -0.3150
 7752SOL    HW234716   1.731   2.961   7.100 -1.8714  1.4977  1.1502
 7753SOL     OW34717   2.734   0.444   2.970  0.0250  0.0961 -0.0983
 7753SOL    HW134718   2.787   0.522   2.983 -1.8150  1.3180  0.0784
 7753SOL    HW234719   2.798   0.373   2.962 -1.5760 -1.2288 -1.0188
 7754SOL     OW34720   3.997   4.208   3.031 -0.2093  0.1919 -0.0899
 7754SOL    HW134721   3.993   4.266   3.107  0.4585 -0.5484  0.5036
 7754SOL    HW234722   3.993   4.279   2.966 -1.5137 -0.1890 -0.4214
 7755SOL     OW34723   4.655   1.320   0.868 -0.3351  0.4472  0.4545
 7755SOL    HW134724   4.622   1.348   0.783 -0.4542 -2.9952 -0.6099
 7755SOL    HW234725   4.642   1.402   0.915 -0.5214  0.7057 -0.0505
 7756SOL     OW34726   3.867   3.006   9.296  0.1609  0.4088 -0.0867
 7756SOL    HW134727   3.949   2.973   9.258  1.5223  0.5041  2.7652
 7756SOL    HW234728   3.833   2.923   9.328  1.9708 -0.5917 -0.7573
 7757SOL     OW34729   0.445   4.185   4.412  0.1983 -0.4957  0.1055
 7757SOL    HW134730   0.414   4.264   4.457  0.3242  0.2874 -1.2094
 7757SOL    HW234731   0.379   4.125   4.446  0.7765 -1.4402 -0.4256
 7758SOL     OW34732   1.019   0.597   6.895  0.0455  0.4628 -0.2741
 7758SOL    HW134733   1.067   0.645   6.828  0.6748  1.7617  1.0890
 7758SOL    HW234734   0.984   0.669   6.948  0.3052  0.2256  0.2204
 7759SOL     OW34735   2.275   3.208   2.325  0.0586 -0.0473  0.1090
 7759SOL    HW134736   2.317   3.135   2.371  1.7994  0.4286 -0.7250
 7759SOL    HW234737   2.288   3.188   2.232 -1.6240 -1.7340  0.2261
 7760SOL     OW34738   3.335   0.714   2.522  0.0159 -0.6089 -0.0171
 7760SOL    HW134739   3.255   0.754   2.558  0.5537  1.1934 -0.8307
 7760SOL    HW234740   3.404   0.776   2.546  2.3546 -3.4977  0.7534
 7761SOL     OW34741   0.985   1.578   6.295  0.5674 -0.1088  0.3454
 7761SOL    HW134742   0.939   1.534   6.224 -1.2821  0.7542  1.0019
 7761SOL    HW234743   1.034   1.649   6.253  2.2249 -2.2259 -1.2755
 7762SOL     OW34744   1.950   1.623   3.073  0.6180  0.3354 -0.0918
 7762SOL    HW134745   1.938   1.552   3.135 -1.0896  0.0037 -0.7834
 7762SOL    HW234746   1.861   1.625   3.037  1.2520  2.3737 -1.5306
 7763SOL     OW34747   1.082   1.838   7.263  0.0109 -0.5890 -0.2034
 7763SOL    HW134748   1.037   1.841   7.348 -2.7403  0.5884 -1.7058
 7763SOL    HW234749   1.026   1.897   7.213 -1.0911 -0.9482  0.6006
 7764SOL     OW34750   1.420   0.812   7.676  0.0224  0.3244  0.2798
 7764SOL    HW134751   1.478   0.869   7.626  0.8923 -1.8540 -1.1692
 7764SOL    HW234752   1.348   0.788   7.618 -0.3262 -2.9769  2.0817
 7765SOL     OW34753   4.267   4.256   6.843  0.0271  0.0545 -0.0456
 7765SOL    HW134754   4.281   4.306   6.763  1.0631  2.2917  1.5255
 7765SOL    HW234755   4.294   4.318   6.912 -1.6367 -0.4252  1.0407
 7766SOL     OW34756   1.944   1.739   5.142  0.0641  0.0720 -0.0884
 7766SOL    HW134757   2.018   1.681   5.160 -0.4402 -0.3706  0.5390
 7766SOL    HW234758   1.953   1.821   5.190  1.2791 -0.0828 -0.0571
 7767SOL     OW34759   1.841   0.885   2.492  0.7961  0.3352 -0.3621
 7767SOL    HW134760   1.913   0.876   2.430  0.1730  0.4077 -1.0880
 7767SOL    HW234761   1.791   0.955   2.451 -0.7327 -0.5632 -0.0392
 7768SOL     OW34762   3.823   1.270  12.107  0.2169 -0.0262  0.2167
 7768SOL    HW134763   3.888   1.287  12.038  0.3013  1.7677  0.7383
 7768SOL    HW234764   3.884   1.249  12.177 -0.6476 -1.8433  0.4183
 7769SOL     OW34765   2.243   2.867   7.264  0.0887  0.2448  0.1508
 7769SOL    HW134766   2.187   2.882   7.188 -0.3566 -4.0890 -0.3407
 7769SOL    HW234767   2.252   2.772   7.260  1.8470  0.5069 -2.2650
 7770SOL     OW34768   1.305   3.514   3.835 -0.6717  0.1970 -0.0251
 7770SOL    HW134769   1.358   3.568   3.893 -1.1987 -0.7397  1.3246
 7770SOL    HW234770   1.343   3.428   3.854 -1.4657 -0.5128 -1.5918
 7771SOL     OW34771   1.047   4.167   2.786  0.2228 -0.2044 -0.6770
 7771SOL    HW134772   1.080   4.253   2.812  2.5543 -1.1559 -0.4734
 7771SOL    HW234773   1.109   4.149   2.715  1.6947  0.2078  0.5121
 7772SOL     OW34774   2.395   2.548   2.949  0.0974  0.1027 -0.8167
 7772SOL    HW134775   2.331   2.615   2.925  2.0928  2.5903  0.7483
 7772SOL    HW234776   2.374   2.473   2.893 -1.1252 -0.8098  0.8861
 7773SOL     OW34777   0.612   0.082   3.131  0.2186 -0.6091 -0.1279
 7773SOL    HW134778   0.536   0.101   3.185  0.3234  1.9006 -0.9082
 7773SOL    HW234779   0.582   0.086   3.041 -0.1772  1.8539  0.1154
 7774SOL     OW34780   0.544   3.382   1.347  0.1195  0.3017 -0.3050
 7774SOL    HW134781   0.626   3.387   1.298  0.6290  1.1715  0.6288
 7774SOL    HW234782   0.545   3.465   1.394 -0.1716  0.6467 -0.9146
 7775SOL     OW34783   2.796   4.227  12.813 -0.1451 -0.4070 -0.1921
 7775SOL    HW134784   2.796   4.176  12.894  1.2277  1.4013  0.9336
 7775SOL    HW234785   2.738   4.298  12.841  0.6891  0.2836 -0.2012
 7776SOL     OW34786   0.277   3.425   8.979  0.2218  0.0375 -0.1938
 7776SOL    HW134787   0.225   3.364   8.926  0.3125  0.8277 -1.1917
 7776SOL    HW234788   0.334   3.360   9.020  1.3756 -0.3844 -2.4739
 7777SOL     OW34789   4.471   4.256   6.271  0.0419 -0.4185  0.3635
 7777SOL    HW134790   4.449   4.210   6.352  0.0252 -0.1756  0.4973
 7777SOL    HW234791   4.566   4.243   6.277  0.0657 -0.2008  0.4586
 7778SOL     OW34792   3.313   2.457   3.012  0.8567  0.0384  0.0444
 7778SOL    HW134793   3.285   2.503   2.933  0.9445  0.1872  0.1001
 7778SOL    HW234794   3.314   2.537   3.064 -0.0969  0.6555 -0.8922
 7779SOL     OW34795   0.121   4.183  11.030  0.2275  0.3855 -0.1108
 7779SOL    HW134796   0.154   4.153  11.115  0.0796  2.6658  0.7439
 7779SOL    HW234797   0.121   4.100  10.981  1.7606  0.1297  0.3474
 7780SOL     OW34798   4.091   0.316  10.444 -0.2716  0.7256 -1.0307
 7780SOL    HW134799   4.065   0.408  10.444 -1.3259  0.4282  2.2107
 7780SOL    HW234800   4.183   0.317  10.416 -0.5350 -0.4193 -1.9172
 7781SOL     OW34801   1.488   4.025   8.320 -0.3466  0.3752 -0.1592
 7781SOL    HW134802   1.583   4.030   8.311 -0.2625 -1.3628 -0.2247
 7781SOL    HW234803   1.463   3.945   8.275  1.9918 -1.6897  2.2219
 7782SOL     OW34804   0.930   1.211   9.616  0.2644  0.2150  0.3270
 7782SOL    HW134805   0.838   1.208   9.591  0.5699 -0.2754 -0.7224
 7782SOL    HW234806   0.923   1.163   9.699  0.5536 -0.1195  0.1606
 7783SOL     OW34807   1.092   1.042   3.650 -0.4554 -0.0113  0.2331
 7783SOL    HW134808   1.081   0.993   3.568 -0.9041  1.4811 -0.5903
 7783SOL    HW234809   1.049   0.975   3.703  0.6307 -1.6571 -0.9803
 7784SOL     OW34810   2.634   2.591   7.851  0.5966  0.0181  0.0072
 7784SOL    HW134811   2.679   2.577   7.767 -1.2197 -1.1276 -0.7748
 7784SOL    HW234812   2.639   2.686   7.856  1.7965 -0.0898  0.9322
 7785SOL     OW34813   2.466   3.798   0.093 -0.4760 -0.0248 -0.5249
 7785SOL    HW134814   2.555   3.815   0.123 -0.0777 -0.2766 -1.5293
 7785SOL    HW234815   2.410   3.841   0.158 -1.3209 -1.3629 -0.3648
 7786SOL     OW34816   4.395   1.602   7.754  0.6507 -0.3336 -0.5615
 7786SOL    HW134817   4.378   1.696   7.756 -0.1097 -0.5136  1.6534
 7786SOL    HW234818   4.415   1.599   7.848 -0.2381 -3.6722 -0.4786
 7787SOL     OW34819   2.301   0.274   3.108  0.3537 -0.1986  0.3327
 7787SOL    HW134820   2.239   0.312   3.171  2.0496  1.8801  0.7585
 7787SOL    HW234821   2.370   0.238   3.164 -0.5386 -0.2106  1.4300
 7788SOL     OW34822   1.002   1.495   6.829 -0.2732  0.3151 -0.0423
 7788SOL    HW134823   1.077   1.552   6.847  0.6137 -0.7559 -0.3396
 7788SOL    HW234824   1.015   1.479   6.735  1.1887  0.5043  0.1253
 7789SOL     OW34825   0.057   3.933   0.583 -0.2232 -0.0392 -0.2818
 7789SOL    HW134826   0.036   4.013   0.534 -0.8899  0.6705  1.1715
 7789SOL    HW234827   0.087   3.975   0.663 -1.0715  2.2267 -1.1638
 7790SOL     OW34828   4.157   4.206   1.087 -0.2363 -0.2141 -0.2051
 7790SOL    HW134829   4.097   4.278   1.066 -1.3375 -0.6860  1.4006
 7790SOL    HW234830   4.213   4.214   1.010 -2.4400  1.4934 -1.6643
 7791SOL     OW34831   4.496   0.598  15.438 -0.3697 -0.2121 -0.4501
 7791SOL    HW134832   4.535   0.562  15.517 -2.4248 -1.2371  0.1025
 7791SOL    HW234833   4.415   0.548  15.431 -0.4517 -0.5155  2.9015
 7792SOL     OW34834   0.255   2.783  13.846 -0.0400 -0.2457 -0.4256
 7792SOL    HW134835   0.210   2.762  13.764  1.2026 -2.1646 -0.6215
 7792SOL    HW234836   0.341   2.812  13.816 -0.6274  2.0428  0.0721
 7793SOL     OW34837   0.718   1.995  11.079  0.1531  0.4791  0.1165
 7793SOL    HW134838   0.780   1.943  11.130 -0.1304  0.0135 -0.0030
 7793SOL    HW234839   0.727   2.089  11.096  0.9954  0.6104 -1.1167
 7794SOL     OW34840   4.483   3.508   5.395 -0.4920 -0.4573  0.3416
 7794SOL    HW134841   4.550   3.511   5.464 -1.3429  1.6890  1.0668
 7794SOL    HW234842   4.482   3.598   5.364 -0.5122 -0.9963 -1.1936
 7795SOL     OW34843   1.031   3.259   4.505 -0.9894  0.2443  0.5939
 7795SOL    HW134844   1.073   3.345   4.509  0.1922 -0.2351 -1.4889
 7795SOL    HW234845   0.972   3.273   4.432 -1.4132 -2.0147  0.5069
 7796SOL     OW34846   1.192   0.512  13.387 -0.2119  0.3731 -0.0642
 7796SOL    HW134847   1.155   0.557  13.463 -0.9053 -1.5203  0.7121
 7796SOL    HW234848   1.238   0.434  13.419 -1.0183  0.1511  0.5354
 7797SOL     OW34849   1.953   3.342   4.574 -0.0414 -0.7899  0.0320
 7797SOL    HW134850   1.955   3.383   4.488 -1.8870 -1.0995 -0.1612
 7797SOL    HW234851   2.048   3.334   4.585 -0.2259 -1.5188  1.0994
 7798SOL     OW34852   0.416   0.965   9.301 -0.4045  0.4373  0.3479
 7798SOL    HW134853   0.447   0.875   9.311  1.7021  1.0467 -0.7187
 7798SOL    HW234854   0.460   0.989   9.219 -0.2361 -1.1517 -0.0345
 7799SOL     OW34855   3.077   0.268  11.420  0.2739  0.6588  0.1101
 7799SOL    HW134856   3.118   0.258  11.334 -1.4902 -0.3453 -0.6352
 7799SOL    HW234857   3.063   0.178  11.450  2.4534 -0.2546 -1.6101
 7800SOL     OW34858   0.874   4.458  13.242 -0.2575  0.3182  0.1180
 7800SOL    HW134859   0.779   4.469  13.249 -0.3333  1.9186 -3.8652
 7800SOL    HW234860   0.897   4.390  13.306 -1.1672 -0.6827 -0.6177
 7801SOL     OW34861   1.462   1.468   6.181 -0.1029 -0.3575  0.3474
 7801SOL    HW134862   1.425   1.534   6.240  0.4308  1.2575 -1.1374
 7801SOL    HW234863   1.486   1.509   6.099 -1.2107  0.5309  0.4611
 7802SOL     OW34864   4.319   0.104   1.399 -0.1083  0.2370  0.4776
 7802SOL    HW134865   4.401   0.151   1.381  2.2997 -3.1808  2.4252
 7802SOL    HW234866   4.303   0.135   1.488  3.2099  0.3208  1.0352
 7803SOL     OW34867   4.535   3.288   5.879  0.0955 -0.3435  0.5402
 7803SOL    HW134868   4.630   3.301   5.879  0.0927 -0.3079 -1.0165
 7803SOL    HW234869   4.522   3.307   5.786  0.6825 -0.6492  0.3922
 7804SOL     OW34870   3.832   4.449   6.909  0.2513 -0.2310 -0.7586
 7804SOL    HW134871   3.858   4.459   7.001 -2.0243 -1.3732 -0.0126
 7804SOL    HW234872   3.899   4.504   6.867 -0.0021  2.4220  2.2828
 7805SOL     OW34873   1.866   1.982   8.384  0.1405  0.2535  0.2572
 7805SOL    HW134874   1.773   2.006   8.386  0.3318  1.2431 -3.4153
 7805SOL    HW234875   1.883   1.987   8.479  0.2295  0.2598  0.2409
 7806SOL     OW34876   0.511   4.298   5.006  0.1594 -0.5805  0.7147
 7806SOL    HW134877   0.484   4.207   4.994 -1.6174  0.1989 -1.2325
 7806SOL    HW234878   0.601   4.300   4.972 -0.9163  0.3807 -2.0900
 7807SOL     OW34879   1.804   3.473   3.964  1.0115  0.3431 -0.3888
 7807SOL    HW134880   1.753   3.541   4.008 -0.4448 -0.0833 -1.4033
 7807SOL    HW234881   1.788   3.495   3.872  2.3799  3.2938  0.0877
 7808SOL     OW34882   1.644   3.303   9.202 -0.9913  0.1735 -0.2736
 7808SOL    HW134883   1.668   3.366   9.270 -3.1749 -1.1868  1.7639
 7808SOL    HW234884   1.575   3.257   9.250 -1.4711  0.9924 -0.1800
 7809SOL     OW34885   2.847   0.788   0.738  0.1322 -0.0342  0.5026
 7809SOL    HW134886   2.895   0.706   0.728 -0.2296 -0.3020  0.9687
 7809SOL    HW234887   2.855   0.819   0.648  2.3370 -4.0322 -0.6555
 7810SOL     OW34888   3.496   1.082   1.606  0.2426  0.0618  0.0652
 7810SOL    HW134889   3.587   1.111   1.594  0.7182 -1.1437  0.8188
 7810SOL    HW234890   3.500   0.995   1.645  0.3067  0.0376  0.0050
 7811SOL     OW34891   2.547   3.098   8.269 -0.2687 -0.0099  0.1463
 7811SOL    HW134892   2.471   3.109   8.327  0.5836  1.4736  1.0078
 7811SOL    HW234893   2.510   3.071   8.185  1.1487  1.6929 -1.0260
 7812SOL     OW34894   4.268   0.185   7.219  0.3462 -0.9078  0.0152
 7812SOL    HW134895   4.305   0.247   7.282 -3.0364  1.3167 -0.1628
 7812SOL    HW234896   4.210   0.246   7.172  2.6342  0.9036 -0.4713
 7813SOL     OW34897   3.803   2.356   4.141 -0.4640  0.5221  0.1887
 7813SOL    HW134898   3.721   2.342   4.188 -1.2788 -1.9921 -2.0252
 7813SOL    HW234899   3.777   2.430   4.087  0.1201  0.2644 -0.4430
 7814SOL     OW34900   0.425   0.087   0.129  0.0100 -0.2696 -0.2395
 7814SOL    HW134901   0.399   0.003   0.092 -0.1469  0.3251 -1.4921
 7814SOL    HW234902   0.410   0.141   0.051 -0.0127 -0.3838 -0.3132
 7815SOL     OW34903   4.413   4.247   7.724 -0.6474  0.0493 -0.2908
 7815SOL    HW134904   4.340   4.308   7.731 -0.5347  0.1540 -0.0570
 7815SOL    HW234905   4.462   4.256   7.806  0.3501 -0.0982 -0.8622
 7816SOL     OW34906   0.581   1.266   1.579 -0.4221  0.5290  0.1910
 7816SOL    HW134907   0.552   1.195   1.523 -0.4401  1.0710 -0.4923
 7816SOL    HW234908   0.673   1.255   1.554 -0.4781 -1.1212  0.7586
 7817SOL     OW34909   0.096   1.825   6.291  0.0872  0.5728  0.2343
 7817SOL    HW134910   0.107   1.755   6.226 -2.1231 -0.8410  1.3852
 7817SOL    HW234911   0.012   1.865   6.269  0.5906  0.5512 -1.7172
 7818SOL     OW34912   0.153   3.026   4.321 -0.0572  1.1364 -1.0189
 7818SOL    HW134913   0.211   3.102   4.333  1.1002  0.4767 -2.4428
 7818SOL    HW234914   0.066   3.064   4.307 -1.1755 -0.8979  0.4070
 7819SOL     OW34915   0.232   0.108   4.270 -0.0817 -0.7024 -0.3893
 7819SOL    HW134916   0.272   0.163   4.203 -0.8367 -0.9718 -1.0606
 7819SOL    HW234917   0.300   0.045   4.295 -0.0195 -0.5755 -0.2445
 7820SOL     OW34918   3.512   2.336   2.876 -0.1613 -0.0674  0.2312
 7820SOL    HW134919   3.441   2.358   2.935 -1.8456 -0.6458 -1.5750
 7820SOL    HW234920   3.577   2.305   2.939  1.1835 -0.0179 -1.1288
 7821SOL     OW34921   3.064   2.095   8.597 -0.2173 -0.1282  0.0122
 7821SOL    HW134922   3.126   2.033   8.634  0.5097  0.6299  0.0677
 7821SOL    HW234923   3.001   2.097   8.669 -1.6764 -0.7501 -1.2554
 7822SOL     OW34924   0.616   3.489   2.270 -0.2616 -0.5090 -0.1132
 7822SOL    HW134925   0.618   3.394   2.260  1.1883 -0.5429  0.5064
 7822SOL    HW234926   0.707   3.516   2.281 -0.4749  1.1039 -2.2095
 7823SOL     OW34927   4.457   0.825  10.292  0.0373 -0.3405 -0.0511
 7823SOL    HW134928   4.372   0.845  10.253 -1.3878 -1.4925  2.4613
 7823SOL    HW234929   4.477   0.732  10.283 -0.8812 -0.5755  0.3138
 7824SOL     OW34930   2.374   4.030   9.855 -0.2717 -0.0761  0.6836
 7824SOL    HW134931   2.344   4.119   9.873 -1.6516 -0.5357  0.6973
 7824SOL    HW234932   2.402   4.004   9.942  1.4313  1.3074  0.5394
 7825SOL     OW34933   4.703   0.665  17.507  0.1672  0.0688 -0.1667
 7825SOL    HW134934   4.609   0.653  17.491  0.2908  1.6807 -2.0739
 7825SOL    HW234935   0.015   0.671  17.419 -0.3785  0.6734 -0.3600
 7826SOL     OW34936   1.361   4.471  14.787  0.0725 -0.1088  0.2545
 7826SOL    HW134937   1.283   4.428  14.751  1.0364 -0.5583 -1.3249
 7826SOL    HW234938   1.399   4.389  14.820 -1.9341 -0.4072  1.8073
 7827SOL     OW34939   4.298   3.883   9.029 -0.1913  0.2611 -0.5358
 7827SOL    HW134940   4.314   3.959   8.975 -0.4025 -0.0590 -1.0507
 7827SOL    HW234941   4.318   3.909   9.119 -0.8834 -0.6794 -0.1004
 7828SOL     OW34942   2.162   1.462   0.611 -0.0764  0.2896 -0.3154
 7828SOL    HW134943   2.170   1.392   0.676  0.6169  0.1042 -0.5974
 7828SOL    HW234944   2.068   1.475   0.625 -0.1803 -0.4020 -0.3430
 7829SOL     OW34945   3.177   2.571   4.596 -0.8731 -0.2827 -0.4377
 7829SOL    HW134946   3.197   2.503   4.661 -1.4494  0.0791  0.1198
 7829SOL    HW234947   3.085   2.550   4.576 -0.5487 -2.0469 -0.1545
 7830SOL     OW34948   3.328   4.431  12.405  0.2210  0.0502  0.1514
 7830SOL    HW134949   3.408   4.476  12.379 -0.1939  0.7430  0.0950
 7830SOL    HW234950   3.334   4.388  12.490  1.1966 -0.6201 -0.2440
 7831SOL     OW34951   2.386   3.435   8.619  1.1276  0.3542  0.3479
 7831SOL    HW134952   2.471   3.479   8.621  1.0920  0.3611  1.8852
 7831SOL    HW234953   2.326   3.510   8.612 -0.2032 -0.9863 -2.4422
 7832SOL     OW34954   1.215   2.593   5.250  0.1329 -0.2249  0.2846
 7832SOL    HW134955   1.119   2.586   5.254 -0.0941  1.9171 -1.5420
 7832SOL    HW234956   1.225   2.674   5.201 -0.0596  0.2297  0.9866
 7833SOL     OW34957   4.030   2.866   4.863 -0.1693 -0.0459 -0.1951
 7833SOL    HW134958   3.983   2.849   4.781 -0.3736 -1.1117  0.1417
 7833SOL    HW234959   4.050   2.959   4.855  0.1620 -0.1558 -0.6574
 7834SOL     OW34960   0.155   2.849   7.924 -0.2145 -0.1452  0.5532
 7834SOL    HW134961   0.129   2.760   7.947 -0.4253  0.2530  1.8548
 7834SOL    HW234962   0.082   2.878   7.868  0.5899 -1.4916 -1.1950
 7835SOL     OW34963   0.198   0.563   1.363 -0.2744  0.4016  0.4585
 7835SOL    HW134964   0.132   0.604   1.308 -0.4432  0.8986  1.0294
 7835SOL    HW234965   0.242   0.647   1.377  0.7748 -0.1595  0.5268
 7836SOL     OW34966   0.392   0.656  10.761  0.0887  0.0493 -0.2480
 7836SOL    HW134967   0.308   0.675  10.719 -0.6492 -3.8507 -0.5438
 7836SOL    HW234968   0.408   0.739  10.805  1.1202 -0.5559  0.5118
 7837SOL     OW34969   0.443   4.190   3.566 -0.1591  0.2659 -0.2181
 7837SOL    HW134970   0.466   4.200   3.474 -0.0679  1.0561 -0.1030
 7837SOL    HW234971   0.376   4.258   3.569 -0.3198  0.1772 -1.5322
 7838SOL     OW34972   3.931   2.440   4.652 -0.1105 -0.2992 -0.8184
 7838SOL    HW134973   3.935   2.494   4.731  0.1271  1.1394 -1.8180
 7838SOL    HW234974   3.941   2.357   4.700 -0.9258 -0.5449 -1.0868
 7839SOL     OW34975   2.103   2.587  12.085  0.4451 -0.0146  0.4268
 7839SOL    HW134976   2.023   2.597  12.137 -0.3393 -2.2641 -0.3626
 7839SOL    HW234977   2.119   2.680  12.073  0.5919 -0.6087 -4.1021
 7840SOL     OW34978   3.922   2.467   2.229 -0.3284 -0.0187  0.2929
 7840SOL    HW134979   3.827   2.466   2.225 -0.2554  0.8681 -1.9256
 7840SOL    HW234980   3.937   2.487   2.137 -0.6063 -1.4489 -0.0655
 7841SOL     OW34981   1.269   0.041   8.812 -0.2347 -0.4737  0.4231
 7841SOL    HW134982   1.283   0.136   8.805 -1.1857 -0.2438  1.7453
 7841SOL    HW234983   1.182   0.031   8.773  0.2799 -1.8753 -0.3919
 7842SOL     OW34984   1.544   0.564  16.368  0.2416  0.0221 -0.5571
 7842SOL    HW134985   1.586   0.491  16.413 -0.5415  1.6243  2.7053
 7842SOL    HW234986   1.520   0.608  16.449  0.1559  0.2924 -0.7305
 7843SOL     OW34987   0.416   3.639   1.249  0.0215 -0.4498  0.0676
 7843SOL    HW134988   0.345   3.583   1.281  0.2703 -1.3931 -1.0370
 7843SOL    HW234989   0.462   3.644   1.333  0.9672  3.2105 -0.6604
 7844SOL     OW34990   1.493   2.811   4.347  0.0163  0.2678  0.0553
 7844SOL    HW134991   1.428   2.808   4.276 -1.1572  0.1284  1.1226
 7844SOL    HW234992   1.441   2.870   4.402  0.1969 -0.4354  0.9843
 7845SOL     OW34993   3.499   1.538   9.502 -0.1192 -0.1095  0.4041
 7845SOL    HW134994   3.587   1.510   9.528 -1.0263 -2.8066  0.6720
 7845SOL    HW234995   3.506   1.540   9.407 -0.0165  0.0386  0.4147
 7846SOL     OW34996   0.120   3.817   0.290  0.3920  0.3159  0.0124
 7846SOL    HW134997   0.099   3.881   0.358  2.8487  2.4549 -1.2462
 7846SOL    HW234998   0.061   3.744   0.310  2.5017 -1.1846  0.7545
 7847SOL     OW34999   2.576   1.446   3.727  0.5612  0.8607 -0.0224
 7847SOL    HW135000   2.486   1.464   3.698  0.5023 -0.8037 -0.8655
 7847SOL    HW235001   2.610   1.403   3.649 -2.0418 -0.9758 -0.1387
 7848SOL     OW35002   2.895   0.862   3.610  0.3656 -0.4609 -0.3969
 7848SOL    HW135003   2.988   0.841   3.602  0.9065  2.0668 -0.7247
 7848SOL    HW235004   2.889   0.924   3.537  0.9193 -3.0069 -2.5809
 7849SOL     OW35005   3.415   0.384   7.407 -0.1395 -0.1409 -0.0030
 7849SOL    HW135006   3.351   0.412   7.473  0.0718  2.8956 -1.0754
 7849SOL    HW235007   3.432   0.469   7.366 -0.7541  0.2517  0.5574
 7850SOL     OW35008   0.737   0.369  12.189 -0.0008  0.2865 -0.4386
 7850SOL    HW135009   0.813   0.426  12.200  0.5152 -0.5724  0.5402
 7850SOL    HW235010   0.668   0.416  12.237 -0.4348  2.5236 -3.2831
 7851SOL     OW35011   0.622   3.265   3.235 -0.2589  0.6402  0.2375
 7851SOL    HW135012   0.673   3.329   3.185  0.0502 -0.5461 -0.9629
 7851SOL    HW235013   0.591   3.203   3.169 -0.5242  0.9088  0.1129
 7852SOL     OW35014   2.554   1.305   7.466  0.1993 -0.0780 -0.2764
 7852SOL    HW135015   2.490   1.376   7.462  0.4882  0.2784  1.7608
 7852SOL    HW235016   2.565   1.303   7.371 -1.8351 -0.7396 -0.5085
 7853SOL     OW35017   3.739   3.786   8.306  0.3625  0.0309  0.6325
 7853SOL    HW135018   3.673   3.821   8.366 -1.8634 -1.0084 -1.2179
 7853SOL    HW235019   3.808   3.750   8.362  0.4289 -0.5008  0.2134
 7854SOL     OW35020   3.460   1.818   5.188  0.0821  0.1200 -0.9659
 7854SOL    HW135021   3.530   1.881   5.172  0.7002 -0.6616 -1.3724
 7854SOL    HW235022   3.459   1.806   5.283  0.4804 -1.2221 -1.1284
 7855SOL     OW35023   2.542   0.572   8.746 -0.2290 -0.0977 -0.2228
 7855SOL    HW135024   2.541   0.504   8.679  0.3907  0.9286 -1.2745
 7855SOL    HW235025   2.620   0.548   8.797  0.4170 -0.0186 -1.1808
 7856SOL     OW35026   4.316   3.608   7.202 -0.3384 -0.2040  0.2921
 7856SOL    HW135027   4.290   3.668   7.271 -2.0239 -0.2285 -0.3383
 7856SOL    HW235028   4.255   3.534   7.207 -0.2219 -0.2618  0.8756
 7857SOL     OW35029   0.820   4.640  14.662 -0.0484  0.4552  0.2654
 7857SOL    HW135030   0.841   4.625  14.754 -0.9760 -0.4500  0.3277
 7857SOL    HW235031   0.772   4.722  14.676 -1.7896 -0.6259  0.6263
 7858SOL     OW35032   0.137   1.610   8.828  0.2259 -0.4607  0.3287
 7858SOL    HW135033   0.106   1.520   8.841 -0.2755 -0.5279 -1.2533
 7858SOL    HW235034   0.127   1.622   8.733  1.1230 -1.1787  0.1472
 7859SOL     OW35035   4.543   0.371   7.220 -0.0122  0.4467  0.4407
 7859SOL    HW135036   4.504   0.392   7.305 -1.8438  1.0225 -0.5440
 7859SOL    HW235037   4.563   0.278   7.227  3.7446  1.3031  1.0437
 7860SOL     OW35038   1.238   0.881  11.140 -0.2448 -0.2040 -0.6832
 7860SOL    HW135039   1.235   0.942  11.066  4.1091  0.2998 -0.4599
 7860SOL    HW235040   1.333   0.882  11.150 -0.2451  1.5578 -0.7900
 7861SOL     OW35041   0.451   0.992   6.392 -0.1612 -0.1699 -1.0611
 7861SOL    HW135042   0.426   1.018   6.304 -0.1175 -1.3339 -1.4170
 7861SOL    HW235043   0.371   1.012   6.441 -0.8420  0.5563 -2.4914
 7862SOL     OW35044   1.134   2.632   7.963 -0.1691  0.4532  0.0152
 7862SOL    HW135045   1.223   2.597   7.968 -0.9892 -1.7030 -0.1891
 7862SOL    HW235046   1.142   2.714   8.011  0.0914  0.1522  0.4810
 7863SOL     OW35047   2.446   0.365   6.342  0.8033 -0.3043  0.8074
 7863SOL    HW135048   2.362   0.324   6.362 -0.4412  0.5301 -2.7445
 7863SOL    HW235049   2.456   0.327   6.255 -0.8622  0.5511  0.2368
 7864SOL     OW35050   0.619   3.654   3.362 -0.1176  0.0948 -0.0869
 7864SOL    HW135051   0.583   3.741   3.348 -1.6966 -0.5240  0.1161
 7864SOL    HW235052   0.679   3.656   3.437  0.4520 -0.0509 -0.5421
 7865SOL     OW35053   3.892   4.497   7.186 -0.0107  0.0976  0.4326
 7865SOL    HW135054   3.800   4.521   7.189  0.2047  0.9433  0.3398
 7865SOL    HW235055   3.942   4.575   7.212 -0.1351  0.5693 -0.7771
 7866SOL     OW35056   0.811   2.707   6.551  0.1354 -0.2745  0.4476
 7866SOL    HW135057   0.820   2.741   6.462  1.0320  0.5384  0.8530
 7866SOL    HW235058   0.807   2.788   6.602 -1.8031  0.0322 -0.2057
 7867SOL     OW35059   2.831   1.799   7.721 -0.0319  0.2441 -0.3343
 7867SOL    HW135060   2.841   1.707   7.745 -0.2132  0.0392 -1.0445
 7867SOL    HW235061   2.852   1.845   7.803 -0.8833  2.1747 -1.2013
 7868SOL     OW35062   3.577   0.709   6.800 -0.0890 -0.3643  0.5437
 7868SOL    HW135063   3.666   0.699   6.766 -0.8816  0.0521 -1.6383
 7868SOL    HW235064   3.569   0.805   6.798 -3.2512 -0.6317  0.2424
 7869SOL     OW35065   0.207   1.042   4.957  0.0464 -1.0527  0.3483
 7869SOL    HW135066   0.271   1.083   5.015  0.0774 -1.3058  0.4930
 7869SOL    HW235067   0.144   1.112   4.941 -0.8055 -1.0895  3.6844
 7870SOL     OW35068   1.414   3.271   1.008 -0.7988  0.0234  0.2297
 7870SOL    HW135069   1.382   3.286   1.097  1.2149  3.2097  0.3836
 7870SOL    HW235070   1.507   3.277   1.027 -0.5985  1.3976 -1.2495
 7871SOL     OW35071   1.214   0.458  15.441  0.3977  0.0473 -0.0372
 7871SOL    HW135072   1.177   0.499  15.363 -1.1634 -0.4870  0.4338
 7871SOL    HW235073   1.309   0.463  15.427  0.3531 -0.0520 -0.3856
 7872SOL     OW35074   3.736   0.602   5.494 -0.3642  0.0866 -0.8046
 7872SOL    HW135075   3.713   0.545   5.567 -0.1089 -0.1230 -0.8862
 7872SOL    HW235076   3.829   0.610   5.515 -0.3662  2.9852 -1.9640
 7873SOL     OW35077   4.280   1.675  10.217 -0.1316 -0.7138 -0.4692
 7873SOL    HW135078   4.212   1.739  10.236 -0.5305 -0.9727 -1.0397
 7873SOL    HW235079   4.254   1.600  10.271  0.4921  0.0617  0.8928
 7874SOL     OW35080   0.266   3.365   6.615  0.4168 -0.1597 -0.0197
 7874SOL    HW135081   0.247   3.454   6.585 -1.2583 -0.1213  1.1348
 7874SOL    HW235082   0.361   3.377   6.613  0.2068  1.3762 -0.1000
 7875SOL     OW35083   4.194   4.190   9.462 -0.5870  0.2692 -0.1199
 7875SOL    HW135084   4.264   4.175   9.526 -0.1657 -1.5147 -1.0128
 7875SOL    HW235085   4.133   4.253   9.500 -1.8511 -1.8054  1.2860
 7876SOL     OW35086   4.122   0.222   3.471  0.0620 -0.3143  0.1432
 7876SOL    HW135087   4.120   0.291   3.406  0.2798 -1.3813 -1.0074
 7876SOL    HW235088   4.177   0.157   3.426  2.0862  0.8839  0.8801
 7877SOL     OW35089   0.635   2.044  15.273  0.1138 -0.2449  0.1172
 7877SOL    HW135090   0.579   2.032  15.350  1.4639  0.0095  1.1433
 7877SOL    HW235091   0.588   2.109  15.221 -0.2439  1.3941  2.4362
 7878SOL     OW35092   2.727   0.648   5.833  0.0313 -0.4824  0.4491
 7878SOL    HW135093   2.721   0.612   5.745 -0.0101  1.5744 -0.3915
 7878SOL    HW235094   2.815   0.627   5.866  0.1122  0.8388  1.1115
 7879SOL     OW35095   4.330   0.452   2.218 -0.5058  0.5970  0.3357
 7879SOL    HW135096   4.344   0.483   2.307 -1.8954 -0.8942  1.0692
 7879SOL    HW235097   4.301   0.536   2.181  0.0114  0.0233 -1.3834
 7880SOL     OW35098   0.233   1.637   3.576  0.0653 -1.3265  0.2206
 7880SOL    HW135099   0.327   1.628   3.587  0.2143 -0.6154 -0.4300
 7880SOL    HW235100   0.208   1.546   3.565  3.0255 -1.9897 -0.9220
 7881SOL     OW35101   0.918   1.928   3.034  0.0595  0.0950 -0.0997
 7881SOL    HW135102   0.921   2.022   3.050 -0.4904 -0.0330  0.7636
 7881SOL    HW235103   1.009   1.900   3.023  0.2544  1.5121 -2.1338
 7882SOL     OW35104   3.339   1.615   5.596  0.6914 -0.7011 -0.1179
 7882SOL    HW135105   3.325   1.625   5.690  0.6320  0.2839 -0.2354
 7882SOL    HW235106   3.286   1.543   5.560  1.4202 -1.2632 -0.0702
 7883SOL     OW35107   2.612   1.685   7.424 -0.0440  0.1743  0.2260
 7883SOL    HW135108   2.668   1.646   7.493  0.4063 -2.7179 -1.7664
 7883SOL    HW235109   2.669   1.759   7.405  0.3716  0.1023  1.1433
 7884SOL     OW35110   1.422   0.818  12.165  0.3690  0.0668  0.0099
 7884SOL    HW135111   1.395   0.899  12.122  1.2945 -1.2404 -3.0143
 7884SOL    HW235112   1.386   0.760  12.098  0.0970 -0.9508  1.0277
 7885SOL     OW35113   4.457   4.005   0.560 -0.5316  0.3844 -0.2923
 7885SOL    HW135114   4.465   4.099   0.577  1.0472  0.0820  0.5746
 7885SOL    HW235115   4.471   3.977   0.651  0.1151  1.7269  0.0186
 7886SOL     OW35116   4.237   1.925   4.831 -0.0637 -0.0870  0.3022
 7886SOL    HW135117   4.234   1.997   4.894  1.8966  0.2586 -0.0122
 7886SOL    HW235118   4.244   1.989   4.761 -2.3248 -1.1558 -0.9142
 7887SOL     OW35119   3.548   0.696   1.865  0.1056  0.1745 -0.4162
 7887SOL    HW135120   3.628   0.712   1.814 -0.4727  2.8347 -0.5165
 7887SOL    HW235121   3.487   0.693   1.791  1.0452  1.4893 -1.2605
 7888SOL     OW35122   1.210   4.381   5.176 -0.7290  0.1814 -0.1530
 7888SOL    HW135123   1.292   4.347   5.212 -0.8067  0.2220  0.0635
 7888SOL    HW235124   1.248   4.439   5.110 -0.2033  1.7603  1.5266
 7889SOL     OW35125   0.423   2.770  13.560 -0.0497  0.1394  0.2321
 7889SOL    HW135126   0.504   2.769  13.510  0.0268  2.2149  0.2856
 7889SOL    HW235127   0.427   2.846  13.618  0.0313 -0.2885  0.7849
 7890SOL     OW35128   3.869   1.395  13.048  0.4171 -0.4464 -0.4058
 7890SOL    HW135129   3.939   1.429  12.992 -0.6599  2.7434  0.1726
 7890SOL    HW235130   3.895   1.447  13.124  2.1623 -1.7592 -0.1077
 7891SOL     OW35131   2.621   4.720   2.425  0.9778 -0.8584  0.0070
 7891SOL    HW135132   2.571   4.640   2.441  0.0008 -0.7262 -2.3565
 7891SOL    HW235133   2.693   4.682   2.374  1.4158  1.5709 -1.1816
 7892SOL     OW35134   3.351   2.972   2.583  0.3285  0.6709 -0.6317
 7892SOL    HW135135   3.421   2.989   2.520 -0.2534  3.4229 -0.5417
 7892SOL    HW235136   3.386   2.903   2.639  0.4628  2.1382  1.1194
 7893SOL     OW35137   2.915   1.754   6.758  0.1865 -0.8157 -0.4150
 7893SOL    HW135138   2.936   1.834   6.806  1.3387 -0.1009 -2.0874
 7893SOL    HW235139   2.855   1.730   6.828 -0.8772 -0.2369 -1.1178
 7894SOL     OW35140   3.017   3.842   7.485 -0.2910 -0.1868  0.1590
 7894SOL    HW135141   2.995   3.771   7.546  0.3108 -1.5964 -1.2471
 7894SOL    HW235142   3.089   3.887   7.529 -0.2681 -0.8016  0.7496
 7895SOL     OW35143   2.646   0.651  12.289  0.0354 -0.0261  0.5291
 7895SOL    HW135144   2.675   0.560  12.297  2.3993  0.6361 -0.7549
 7895SOL    HW235145   2.608   0.642  12.201  1.8928  0.7539 -0.3480
 7896SOL     OW35146   2.937   4.313   0.924  0.3949  0.0432 -0.1317
 7896SOL    HW135147   2.859   4.281   0.879  0.8033 -1.6454  0.3526
 7896SOL    HW235148   2.943   4.244   0.990  2.3424  1.1901  0.9053
 7897SOL     OW35149   4.695   3.487   2.214 -0.2753  0.1657  0.0950
 7897SOL    HW135150   4.701   3.578   2.243  0.2408 -0.0263  0.5706
 7897SOL    HW235151   4.611   3.486   2.167 -1.0152  0.6200  1.4243
 7898SOL     OW35152   3.971   0.937   0.450  0.1834 -0.2251  0.2956
 7898SOL    HW135153   3.896   0.939   0.391 -0.3638 -1.6942  0.9606
 7898SOL    HW235154   3.996   0.846   0.440  2.9842  0.6551 -0.7720
 7899SOL     OW35155   4.112   2.452   8.716 -0.2890 -0.0917 -0.8945
 7899SOL    HW135156   4.032   2.463   8.767  0.5050 -0.9344  0.5377
 7899SOL    HW235157   4.075   2.436   8.629 -0.4549  0.3839 -0.9082
 7900SOL     OW35158   4.095   3.073  16.353  0.1079  0.3029 -0.1119
 7900SOL    HW135159   4.070   3.133  16.282  0.7921 -0.6833 -1.1903
 7900SOL    HW235160   4.057   3.119  16.427 -1.1434  0.6274 -0.9503
 7901SOL     OW35161   1.008   3.019   7.239 -0.1917 -0.2298 -0.1953
 7901SOL    HW135162   0.959   3.101   7.243 -0.9460 -0.7373  1.0553
 7901SOL    HW235163   0.936   2.961   7.219  0.8024 -1.7444  0.6436
 7902SOL     OW35164   2.063   3.061  15.139  0.3374 -0.3250 -0.1273
 7902SOL    HW135165   2.012   3.142  15.134  1.3096  0.3028  0.2551
 7902SOL    HW235166   2.030   3.018  15.060 -0.5090  0.1995 -0.0694
 7903SOL     OW35167   4.679   2.391  13.191  0.4942  0.4173  0.1066
 7903SOL    HW135168   4.720   2.305  13.194 -1.3991 -0.4167  2.1479
 7903SOL    HW235169   4.585   2.373  13.196  0.2002  2.3128  1.4096
 7904SOL     OW35170   3.481   4.432   2.550 -0.1479 -1.0833  0.0097
 7904SOL    HW135171   3.555   4.475   2.507 -0.9153 -1.6711 -1.8780
 7904SOL    HW235172   3.467   4.372   2.477 -2.5769  1.2062 -1.4131
 7905SOL     OW35173   2.460   2.549   3.854 -0.1316 -0.1683 -0.7203
 7905SOL    HW135174   2.551   2.533   3.828 -0.4511 -0.7479 -1.4883
 7905SOL    HW235175   2.462   2.493   3.933  2.0088  0.5611 -0.2585
 7906SOL     OW35176   4.037   2.071  15.601  0.4268  0.0124  0.0448
 7906SOL    HW135177   3.942   2.063  15.593  0.5191 -1.2074  0.2776
 7906SOL    HW235178   4.056   1.993  15.549  0.9187  0.4761 -0.4707
 7907SOL     OW35179   3.495   0.396   3.989  0.3568 -0.4451 -0.3367
 7907SOL    HW135180   3.528   0.435   3.908 -2.7738  2.1981 -0.3521
 7907SOL    HW235181   3.541   0.314   4.007  2.1600  0.2445 -1.8223
 7908SOL     OW35182   2.232   2.963   4.426 -0.5303  0.1541  0.1504
 7908SOL    HW135183   2.273   3.033   4.477 -1.5887  1.3602 -0.6639
 7908SOL    HW235184   2.249   2.888   4.483  2.4779 -0.0862 -1.0651
 7909SOL     OW35185   2.030   4.091   7.245  0.1468 -0.3146 -0.4878
 7909SOL    HW135186   1.968   4.038   7.194 -0.8353  1.9930 -1.7121
 7909SOL    HW235187   2.102   4.028   7.249 -0.3130 -0.7593  0.7579
 7910SOL     OW35188   1.964   3.060   7.709 -0.3149  0.6902  0.3321
 7910SOL    HW135189   1.926   2.976   7.685  0.8092  0.5847 -1.1348
 7910SOL    HW235190   1.940   3.097   7.624  3.2837  2.0792 -0.1047
 7911SOL     OW35191   0.053   3.585   6.824 -0.0297 -0.0905  0.2079
 7911SOL    HW135192   4.724   3.529   6.770 -1.8838 -2.7668  4.9166
 7911SOL    HW235193   0.037   3.673   6.788  0.8377  0.3795  0.9635
 7912SOL     OW35194   1.437   4.037   6.290  0.1681 -0.4482 -0.1076
 7912SOL    HW135195   1.530   4.016   6.302  0.2414  0.5734  1.0427
 7912SOL    HW235196   1.420   4.116   6.342 -0.5290 -1.1625  0.7534
 7913SOL     OW35197   3.678   1.686   2.904  0.5346  0.2782  0.3815
 7913SOL    HW135198   3.619   1.751   2.942  1.6283  0.8299  1.1617
 7913SOL    HW235199   3.654   1.606   2.950 -1.2977  0.8888  0.4976
 7914SOL     OW35200   4.477   4.665   9.840  0.6533  0.2333  0.3689
 7914SOL    HW135201   4.510   4.584   9.802 -0.3790 -0.9444  1.9711
 7914SOL    HW235202   4.484   4.642   9.933 -0.4339 -0.0412  0.3843
 7915SOL     OW35203   1.466   3.273   6.809 -0.4293 -0.4190  0.1094
 7915SOL    HW135204   1.456   3.178   6.813  1.3317 -0.6144 -0.1963
 7915SOL    HW235205   1.431   3.303   6.893 -0.0126 -0.9865  0.4885
 7916SOL     OW35206   3.350   2.534   1.239  0.3152 -0.0685  0.2667
 7916SOL    HW135207   3.277   2.511   1.180  2.5335 -3.7130 -1.0274
 7916SOL    HW235208   3.347   2.460   1.300  1.2434  0.9821  1.5878
 7917SOL     OW35209   3.236   3.811  15.236 -0.0912  0.1480  0.2401
 7917SOL    HW135210   3.212   3.862  15.159  1.0733 -0.8619 -0.7991
 7917SOL    HW235211   3.332   3.809  15.229 -0.0714 -0.4008  0.6119
 7918SOL     OW35212   0.850   2.024   4.969 -0.2445 -0.4156  0.1356
 7918SOL    HW135213   0.774   2.033   4.912 -0.2154  0.7101  0.2730
 7918SOL    HW235214   0.927   2.032   4.913  1.9915 -1.9363  2.9525
 7919SOL     OW35215   2.599   4.411  12.593 -0.0084  0.1586 -0.1184
 7919SOL    HW135216   2.591   4.449  12.680  2.1340  0.2000  0.0552
 7919SOL    HW235217   2.511   4.434  12.562  0.4943  0.9643 -0.9489
 7920SOL     OW35218   1.241   1.053   8.395  0.0617 -0.0957 -0.3092
 7920SOL    HW135219   1.299   0.999   8.341  0.2908 -2.1423  1.9642
 7920SOL    HW235220   1.262   1.030   8.486 -2.3905 -0.4536  0.1570
 7921SOL     OW35221   3.015   3.262   0.240 -0.0729  0.1713  0.4015
 7921SOL    HW135222   3.010   3.296   0.329  0.6200 -1.1026  0.9334
 7921SOL    HW235223   3.028   3.171   0.268 -0.3119 -0.0140 -0.0837
 7922SOL     OW35224   0.808   4.657   8.796 -0.0228 -0.2273 -0.2618
 7922SOL    HW135225   0.779   4.594   8.862  1.2589  0.0055  0.5199
 7922SOL    HW235226   0.726   4.700   8.771 -0.1837  0.2310  1.0402
 7923SOL     OW35227   4.368   3.735   1.267 -0.5582 -0.0284 -0.2773
 7923SOL    HW135228   4.387   3.716   1.359  2.0299  1.5793 -0.4660
 7923SOL    HW235229   4.284   3.779   1.278 -0.2908  0.5480 -0.5579
 7924SOL     OW35230   4.549   2.585  12.018 -0.6296  0.1153  0.1130
 7924SOL    HW135231   4.455   2.587  12.000 -0.2636 -0.3454 -1.8681
 7924SOL    HW235232   4.585   2.619  11.937 -0.6493  1.6984  0.7677
 7925SOL     OW35233   1.769   3.591   6.497 -0.1472 -0.4168 -0.0052
 7925SOL    HW135234   1.777   3.499   6.520  4.3047  0.0890  0.4638
 7925SOL    HW235235   1.851   3.619   6.538 -0.1854  0.0866 -0.2678
 7926SOL     OW35236   0.353   3.816  12.652  0.8438 -0.0268 -0.0619
 7926SOL    HW135237   0.281   3.757  12.674  0.7489 -0.7679 -2.4182
 7926SOL    HW235238   0.417   3.787  12.717  2.2514 -2.5263 -2.5886
 7927SOL     OW35239   2.350   1.928   8.850 -0.2183 -0.5196 -0.6126
 7927SOL    HW135240   2.387   2.011   8.820 -0.7246  0.3177  1.1607
 7927SOL    HW235241   2.392   1.916   8.935  1.8773 -0.3631 -1.5998
 7928SOL     OW35242   3.421   3.505   2.964  0.4688  0.0330  0.1736
 7928SOL    HW135243   3.485   3.498   3.035  0.1543  2.1255  0.6895
 7928SOL    HW235244   3.395   3.597   2.977 -0.2304  0.2019 -2.4358
 7929SOL     OW35245   1.680   3.638   3.059 -0.0884 -0.3233 -0.3694
 7929SOL    HW135246   1.751   3.587   3.020  0.1338 -0.4598  0.2173
 7929SOL    HW235247   1.698   3.725   3.022 -0.0131 -1.0343 -1.9988
 7930SOL     OW35248   4.350   0.418  11.707  0.5917  0.0567  0.5169
 7930SOL    HW135249   4.400   0.384  11.632  0.0432  0.1689  0.1006
 7930SOL    HW235250   4.283   0.468  11.661  1.5636 -0.6427 -1.6677
 7931SOL     OW35251   1.088   1.058  10.283  0.2610  0.1867 -0.7999
 7931SOL    HW135252   1.174   1.020  10.265  0.5865  0.3643  0.3763
 7931SOL    HW235253   1.073   1.031  10.374  2.3695  2.3524  0.2150
 7932SOL     OW35254   0.745   2.769   3.404  0.2443  0.1898 -0.2879
 7932SOL    HW135255   0.708   2.800   3.486  2.5687  0.6173  0.5719
 7932SOL    HW235256   0.757   2.856   3.365 -0.0190  0.5374  0.4095
 7933SOL     OW35257   4.443   4.304   6.022 -0.1213 -1.2242 -0.6024
 7933SOL    HW135258   4.467   4.286   6.113 -1.6298  0.6132  0.1688
 7933SOL    HW235259   4.349   4.285   6.034 -1.4813  3.9702 -3.0355
 7934SOL     OW35260   0.592   3.551  14.798  0.4521 -0.3480  0.0712
 7934SOL    HW135261   0.510   3.504  14.813  0.3385 -0.3725 -0.6319
 7934SOL    HW235262   0.570   3.628  14.745  0.3249 -0.3921  0.0616
 7935SOL     OW35263   2.228   0.775   3.450  0.3945  0.5502 -0.3028
 7935SOL    HW135264   2.227   0.852   3.507  1.1099 -0.3653  0.9489
 7935SOL    HW235265   2.141   0.738   3.466  0.7234 -1.4894 -3.1184
 7936SOL     OW35266   2.924   0.600   0.453  0.5387  0.5040 -0.5264
 7936SOL    HW135267   2.842   0.551   0.457  2.2516 -2.4209 -0.6547
 7936SOL    HW235268   2.894   0.689   0.465  1.7199  0.4303  2.7609
 7937SOL     OW35269   0.906   4.277   8.462  0.8812 -0.2466  0.3412
 7937SOL    HW135270   0.930   4.228   8.540  1.2574 -0.0792  0.3321
 7937SOL    HW235271   0.815   4.298   8.481  0.3781  0.9346 -3.2036
 7938SOL     OW35272   1.918   2.701  12.853 -0.3821 -0.7307 -0.2444
 7938SOL    HW135273   1.830   2.709  12.890 -0.9815 -2.3999 -1.2904
 7938SOL    HW235274   1.906   2.623  12.798  2.1101 -1.9399  0.8907
 7939SOL     OW35275   1.822   0.636   5.594  0.0678  0.0401  0.7240
 7939SOL    HW135276   1.914   0.627   5.619  0.5527  0.7703 -0.8188
 7939SOL    HW235277   1.830   0.587   5.512 -0.1437  2.7686 -0.9315
 7940SOL     OW35278   0.553   1.910   8.437 -0.4803  1.4971 -0.6412
 7940SOL    HW135279   0.621   1.843   8.436 -0.7575  1.2066 -0.1014
 7940SOL    HW235280   0.542   1.922   8.532 -0.8810  1.4780 -0.6848
 7941SOL     OW35281   1.885   4.253  11.131 -1.0180  0.2693  0.0861
 7941SOL    HW135282   1.854   4.163  11.127  2.9761 -1.1255  1.2577
 7941SOL    HW235283   1.828   4.280  11.203 -2.4522  2.9988 -2.0737
 7942SOL     OW35284   1.900   1.031   7.739  0.5468 -0.1009  0.8562
 7942SOL    HW135285   1.971   0.969   7.724  0.8857  0.7407 -1.0370
 7942SOL    HW235286   1.951   1.111   7.755  0.3690  0.6800 -2.6715
 7943SOL     OW35287   2.837   3.779   5.001  0.0830  0.3311 -0.1648
 7943SOL    HW135288   2.920   3.791   4.956  0.0607  2.0452  0.2516
 7943SOL    HW235289   2.866   3.786   5.092 -0.9276  1.0133  0.1170
 7944SOL     OW35290   4.420   4.440   2.509  0.6948  0.3031  0.3499
 7944SOL    HW135291   4.357   4.429   2.438  0.6178  1.0505  0.3004
 7944SOL    HW235292   4.361   4.475   2.576  1.1262  1.1618  0.2826
 7945SOL     OW35293   0.139   0.047   7.234  0.0864  0.1143 -0.1964
 7945SOL    HW135294   0.048   0.041   7.206  0.5671  0.4390 -1.8413
 7945SOL    HW235295   0.121   0.120   7.293 -1.2493  0.4322 -0.9953
 7946SOL     OW35296   1.896   2.562   8.097  0.2733  0.0039  0.6567
 7946SOL    HW135297   1.981   2.562   8.052 -0.0528 -0.6075  0.0331
 7946SOL    HW235298   1.883   2.657   8.098  1.2122  0.1233  1.0035
 7947SOL     OW35299   4.109   1.882   7.221  0.6161 -0.0218 -0.2982
 7947SOL    HW135300   4.165   1.926   7.157 -3.6047  3.1023 -1.8813
 7947SOL    HW235301   4.078   1.963   7.262  1.2633 -0.5968  1.3155
 7948SOL     OW35302   2.154   0.088   7.509  0.2059  0.2318 -0.1562
 7948SOL    HW135303   2.102   0.039   7.573  0.6081 -0.1608 -0.1389
 7948SOL    HW235304   2.238   0.083   7.555 -0.0017 -1.2100  0.0730
 7949SOL     OW35305   3.271   1.516   1.309 -0.1632  0.5241  0.0162
 7949SOL    HW135306   3.241   1.426   1.300 -3.1674  1.7494 -1.9855
 7949SOL    HW235307   3.314   1.517   1.395 -0.6371 -4.2001  0.2999
 7950SOL     OW35308   0.323   4.577   1.911  0.1316  0.0059 -0.1299
 7950SOL    HW135309   0.249   4.536   1.866  0.5674 -0.8787 -0.0297
 7950SOL    HW235310   0.389   4.530   1.861 -0.6748 -3.0425  1.6585
 7951SOL     OW35311   0.784   1.177   0.137 -0.6375  0.0084 -0.4570
 7951SOL    HW135312   0.840   1.134   0.073 -0.3252  0.1141 -0.2572
 7951SOL    HW235313   0.778   1.111   0.206 -0.4046 -0.3053 -0.7351
 7952SOL     OW35314   2.275   1.876   2.828  0.3231  0.6132  0.3472
 7952SOL    HW135315   2.244   1.861   2.738 -1.2281 -3.1920  1.5454
 7952SOL    HW235316   2.191   1.878   2.873  0.4126  3.1950  0.4061
 7953SOL     OW35317   0.312   1.691  16.545  0.3087 -0.1253  0.3263
 7953SOL    HW135318   0.310   1.615  16.602  1.5479 -0.6033 -0.2639
 7953SOL    HW235319   0.323   1.641  16.464 -3.9195 -0.3695 -0.0630
 7954SOL     OW35320   0.503   1.851   2.222 -0.2087  0.1819 -0.6237
 7954SOL    HW135321   0.481   1.764   2.256  2.3617 -1.0543 -2.1263
 7954SOL    HW235322   0.481   1.915   2.290  0.1543 -0.8183  0.4404
 7955SOL     OW35323   1.617   2.962   9.310 -0.3738  0.2206  0.2349
 7955SOL    HW135324   1.637   2.879   9.352 -0.6870  0.2199  0.3789
 7955SOL    HW235325   1.706   2.998   9.309  0.2370 -1.3028 -1.6172
 7956SOL     OW35326   1.640   2.945  13.562  0.6195  0.0004  0.2468
 7956SOL    HW135327   1.621   3.023  13.511  0.6391 -0.1431  0.0161
 7956SOL    HW235328   1.571   2.953  13.627  1.0846  1.5272  0.5459
 7957SOL     OW35329   0.697   3.793   3.859  0.4391  0.4555  0.1307
 7957SOL    HW135330   0.671   3.877   3.821 -2.4162  1.6206  4.6482
 7957SOL    HW235331   0.755   3.758   3.791  0.4464  1.0827 -0.1827
 7958SOL     OW35332   3.331   3.181   7.523 -0.3415  0.3421 -0.1798
 7958SOL    HW135333   3.271   3.193   7.448  1.5757  0.9483 -1.6039
 7958SOL    HW235334   3.408   3.132   7.493 -0.5499  0.4023 -0.8315
 7959SOL     OW35335   0.626   0.585   7.226 -0.4500 -0.0650 -0.0631
 7959SOL    HW135336   0.690   0.544   7.285 -0.1243  2.7510  1.5326
 7959SOL    HW235337   0.553   0.613   7.282 -0.8471 -1.6257  0.1957
 7960SOL     OW35338   3.763   3.748   1.958  0.2754 -0.3922 -0.2285
 7960SOL    HW135339   3.692   3.787   1.907  1.1098 -0.0014 -1.0865
 7960SOL    HW235340   3.789   3.683   1.892 -1.0194 -0.8377 -0.3043
 7961SOL     OW35341   1.553   0.356   0.061 -0.1093 -1.1369  0.5187
 7961SOL    HW135342   1.620   0.306   0.108  1.2956  0.8193  0.6440
 7961SOL    HW235343   1.484   0.296   0.034 -0.4166 -0.4335 -0.2765
 7962SOL     OW35344   2.029   1.095   8.583 -0.3583  0.1660  0.2841
 7962SOL    HW135345   2.113   1.131   8.611  0.4484 -0.3150 -1.5127
 7962SOL    HW235346   2.040   1.056   8.496  0.4545 -1.0950  0.9476
 7963SOL     OW35347   1.911   0.669   0.155  0.1866  0.6760 -0.6846
 7963SOL    HW135348   1.878   0.750   0.193  1.5199 -0.6032  3.1431
 7963SOL    HW235349   1.899   0.621   0.236  0.7441 -0.9336 -1.5647
 7964SOL     OW35350   1.255   1.513   2.739 -0.0572  0.1866 -0.2568
 7964SOL    HW135351   1.300   1.430   2.752  1.2912  0.8941 -0.4612
 7964SOL    HW235352   1.171   1.472   2.716 -1.1640  1.2101  1.8924
 7965SOL     OW35353   3.815   0.018   2.754 -0.3499  0.4218 -0.3077
 7965SOL    HW135354   3.874   4.723   2.827 -0.3228 -0.2686 -0.5332
 7965SOL    HW235355   3.742   0.049   2.807 -0.7065  0.3756 -0.7767
 7966SOL     OW35356   3.460   3.253  15.532 -0.2975  0.2779  0.5468
 7966SOL    HW135357   3.552   3.279  15.535 -0.3806  0.6554 -0.2147
 7966SOL    HW235358   3.420   3.332  15.496  1.9971  1.5546  0.8081
 7967SOL     OW35359   1.559   2.064  14.199 -0.0668 -0.1720  0.2392
 7967SOL    HW135360   1.604   2.137  14.242  0.4515  0.3001 -1.1286
 7967SOL    HW235361   1.627   2.025  14.144 -1.1944 -0.0681 -1.2382
 7968SOL     OW35362   3.931   1.424   7.558 -0.0071 -0.4401 -0.2043
 7968SOL    HW135363   3.868   1.381   7.616 -1.2621 -1.2166 -2.1449
 7968SOL    HW235364   3.975   1.348   7.520  0.8603 -0.0558  0.0420
 7969SOL     OW35365   0.330   1.784   9.719  0.6112  0.4672  0.0679
 7969SOL    HW135366   0.404   1.827   9.678  1.1084 -1.7689 -1.3455
 7969SOL    HW235367   0.258   1.810   9.662  0.1566  0.2769  0.5496
 7970SOL     OW35368   3.951   3.801  15.448  0.1584 -0.8694  0.0947
 7970SOL    HW135369   3.893   3.749  15.504 -2.1325  1.9703  0.3667
 7970SOL    HW235370   3.980   3.741  15.380  0.3176 -0.2735 -0.3598
 7971SOL     OW35371   0.907   1.484  16.153  0.2764  0.1723  0.0910
 7971SOL    HW135372   0.881   1.405  16.200 -1.5507  0.3458 -0.6132
 7971SOL    HW235373   0.991   1.444  16.129 -0.3245 -1.0015 -0.0851
 7972SOL     OW35374   1.322   1.872  15.432  0.1147  0.2560 -0.5695
 7972SOL    HW135375   1.380   1.797  15.449 -1.1653 -0.7846 -0.7762
 7972SOL    HW235376   1.362   1.919  15.359 -0.4542 -0.3580 -1.2811
 7973SOL     OW35377   4.569   0.765   3.744  0.3232 -0.2859 -0.5843
 7973SOL    HW135378   4.661   0.773   3.718 -0.0395  0.1514 -1.7331
 7973SOL    HW235379   4.570   0.834   3.811 -2.2279 -0.5649 -0.2672
 7974SOL     OW35380   0.749   0.213  11.888 -0.4978  0.4372  0.2371
 7974SOL    HW135381   0.667   0.257  11.866 -0.8683  0.3333  1.4017
 7974SOL    HW235382   0.750   0.138  11.829  1.2052  1.2239 -0.7133
 7975SOL     OW35383   4.481   2.497   0.639 -0.5475 -0.2532 -0.1596
 7975SOL    HW135384   4.469   2.447   0.559 -1.2931 -0.3820  0.0348
 7975SOL    HW235385   4.395   2.540   0.640  1.0037  2.7922  2.0665
 7976SOL     OW35386   0.388   0.090   6.238 -0.4097  0.2236 -0.1402
 7976SOL    HW135387   0.338   0.139   6.304 -0.9823  2.0186 -1.9147
 7976SOL    HW235388   0.451   0.156   6.212 -0.9570  2.0079  3.0205
 7977SOL     OW35389   4.504   1.107  16.920  0.0325  0.3334 -0.2364
 7977SOL    HW135390   4.491   1.167  16.994  0.4360  1.6453 -1.2269
 7977SOL    HW235391   4.500   1.158  16.839 -1.0963  2.0961  0.9099
 7978SOL     OW35392   2.338   0.726   5.815 -0.0276  0.9283 -0.3390
 7978SOL    HW135393   2.372   0.658   5.873  1.3633  0.3425 -1.8291
 7978SOL    HW235394   2.327   0.674   5.735  1.8451 -0.2658  0.1833
 7979SOL     OW35395   2.018   4.544  10.508  0.3223 -0.4865 -0.4913
 7979SOL    HW135396   1.975   4.563  10.591 -2.4005  1.4339 -2.3499
 7979SOL    HW235397   2.035   4.450  10.512  2.7621 -0.0985 -1.7862
 7980SOL     OW35398   1.020   2.134   4.276 -0.1388 -0.4310  0.0324
 7980SOL    HW135399   0.998   2.139   4.183 -0.1400 -2.0351 -0.0596
 7980SOL    HW235400   1.021   2.039   4.283  2.9415 -0.4434 -0.5240
 7981SOL     OW35401   3.477   3.118   9.813 -0.0615  0.2602  0.1492
 7981SOL    HW135402   3.564   3.127   9.774  0.0367 -0.7141  0.1523
 7981SOL    HW235403   3.496   3.049   9.876 -1.4051 -0.4688 -0.2595
 7982SOL     OW35404   2.863   1.554   2.828 -0.1176  0.2206  0.2513
 7982SOL    HW135405   2.892   1.565   2.738  1.4352  1.7740  0.9546
 7982SOL    HW235406   2.950   1.553   2.869  0.6359  0.4584 -1.3647
 7983SOL     OW35407   0.573   3.667  17.441 -0.1478 -0.0422  0.4257
 7983SOL    HW135408   0.571   3.575  17.414  1.5053 -0.5486  2.1053
 7983SOL    HW235409   0.653   3.695  17.395 -1.2980 -1.6355 -2.5738
 7984SOL     OW35410   4.442   3.571   8.260  0.5640  0.5446 -0.1751
 7984SOL    HW135411   4.469   3.645   8.314  0.8557 -1.5309  2.4713
 7984SOL    HW235412   4.399   3.620   8.190  2.1075  1.3079 -0.5888
 7985SOL     OW35413   0.295   2.473   3.842 -0.4012  0.4138  0.2129
 7985SOL    HW135414   0.367   2.438   3.791  0.8563  0.8673  1.6744
 7985SOL    HW235415   0.222   2.454   3.783  1.4552 -0.5755 -1.7245
 7986SOL     OW35416   3.996   2.884   7.254 -0.9351  0.0187 -0.1107
 7986SOL    HW135417   4.018   2.792   7.236  0.1123  0.7590 -2.6146
 7986SOL    HW235418   3.937   2.903   7.181 -0.7200  0.0088 -0.2877
 7987SOL     OW35419   4.694   0.483   6.463  0.6662 -0.2254  0.2792
 7987SOL    HW135420   4.708   0.473   6.557  1.5985 -0.8756  0.0712
 7987SOL    HW235421   4.606   0.455   6.438  0.4455  0.4155  0.3345
 7988SOL     OW35422   3.821   2.713   2.038 -0.4506 -0.1278  0.0875
 7988SOL    HW135423   3.727   2.710   2.023 -0.4795 -0.3418  0.3189
 7988SOL    HW235424   3.862   2.633   2.006 -1.0540 -0.8941  1.2273
 7989SOL     OW35425   3.289   3.115  13.040 -0.3104 -0.0887 -0.2336
 7989SOL    HW135426   3.197   3.092  13.056 -1.4557  4.4731 -0.2861
 7989SOL    HW235427   3.283   3.204  13.072 -0.2029 -0.1579 -0.0247
 7990SOL     OW35428   1.066   1.621   9.001  0.4858 -0.2126  0.2052
 7990SOL    HW135429   1.066   1.546   8.942 -0.8077  1.1337 -1.5286
 7990SOL    HW235430   1.026   1.583   9.079  2.9649  0.8069  1.9484
 7991SOL     OW35431   2.523   0.466   7.183  0.4165 -0.2422  0.3893
 7991SOL    HW135432   2.582   0.535   7.152 -0.1084  0.8921  1.9163
 7991SOL    HW235433   2.587   0.426   7.242 -0.5578 -0.9058  0.9767
 7992SOL     OW35434   4.113   0.542   9.713  0.0384  0.1131  0.2365
 7992SOL    HW135435   4.176   0.545   9.641  1.1444  1.3731  1.2453
 7992SOL    HW235436   4.154   0.481   9.773  0.1454  0.8440  0.9145
 7993SOL     OW35437   3.903   1.445   3.719  0.8704  0.3435  0.1750
 7993SOL    HW135438   3.905   1.350   3.735  0.2444  0.8769  3.4694
 7993SOL    HW235439   3.919   1.443   3.625  0.2784  0.0775  0.0763
 7994SOL     OW35440   3.432   1.888   3.380  0.1707  0.3755 -0.0871
 7994SOL    HW135441   3.408   1.809   3.429  1.0921 -0.0040 -0.2332
 7994SOL    HW235442   3.521   1.860   3.359  0.3796  0.1150  1.1401
 7995SOL     OW35443   3.055   3.350   2.088  0.6490 -0.1881  0.1981
 7995SOL    HW135444   2.990   3.382   2.026 -0.4115 -2.9908 -0.1029
 7995SOL    HW235445   3.033   3.415   2.155 -0.4912  0.5244 -0.8667
 7996SOL     OW35446   2.725   0.737   1.855  0.2208  0.3943 -0.3616
 7996SOL    HW135447   2.757   0.736   1.945 -2.1970 -0.0812  0.5028
 7996SOL    HW235448   2.798   0.702   1.804 -0.0199 -0.3170 -0.2199
 7997SOL     OW35449   1.574   4.275   1.110  0.8599  0.6321 -0.4114
 7997SOL    HW135450   1.526   4.320   1.180  0.4241 -0.7309  0.1556
 7997SOL    HW235451   1.567   4.186   1.143 -0.9493  0.6292 -0.8123
 7998SOL     OW35452   3.892   2.538   7.126  0.0102  0.1167 -0.0373
 7998SOL    HW135453   3.921   2.460   7.081 -1.3420 -0.7376  0.5625
 7998SOL    HW235454   3.820   2.567   7.070 -0.1529 -0.0805  0.0685
 7999SOL     OW35455   0.398   3.172   3.890 -0.0560  0.2110  0.2121
 7999SOL    HW135456   0.320   3.119   3.880  0.3523 -0.6299  1.6319
 7999SOL    HW235457   0.361   3.227   3.959 -0.2435 -0.2518  0.4802
 8000SOL     OW35458   1.946   3.484   7.655  0.2635 -0.2012  0.3385
 8000SOL    HW135459   1.891   3.562   7.650 -2.3281 -2.1329 -1.2753
 8000SOL    HW235460   1.878   3.428   7.694 -0.0059  0.7140  1.1825
 8001SOL     OW35461   3.860   2.692  13.500 -0.1667  0.7632 -0.7376
 8001SOL    HW135462   3.952   2.717  13.488  0.1715  0.1598  0.5762
 8001SOL    HW235463   3.808   2.753  13.448 -0.8570  0.4834 -0.3670
 8002SOL     OW35464   1.758   0.267  13.936 -0.3560  0.1516  0.0776
 8002SOL    HW135465   1.681   0.317  13.962 -2.3105 -1.7395 -2.1006
 8002SOL    HW235466   1.813   0.233  14.007  1.6813  1.2209 -0.9846
 8003SOL     OW35467   1.548   2.610   5.425 -0.7832 -0.2646 -0.6687
 8003SOL    HW135468   1.627   2.658   5.450  0.3234 -1.8415 -1.1343
 8003SOL    HW235469   1.564   2.519   5.452  0.0293 -0.6420 -2.4016
 8004SOL     OW35470   2.477   2.403   3.469 -0.1992 -0.5400  0.5614
 8004SOL    HW135471   2.425   2.366   3.397  0.4928  0.1197 -0.2731
 8004SOL    HW235472   2.560   2.355   3.470  1.5990  2.5689  0.5558
 8005SOL     OW35473   0.944   1.647   2.841  0.3428 -0.2118  0.0555
 8005SOL    HW135474   0.869   1.674   2.789  0.3053 -1.3791 -0.5104
 8005SOL    HW235475   0.955   1.557   2.811  0.9883  0.6401 -2.2979
 8006SOL     OW35476   1.082   1.456  10.836 -0.5756 -0.4297 -0.2047
 8006SOL    HW135477   1.111   1.372  10.800 -1.3555 -0.4153 -0.8853
 8006SOL    HW235478   1.165   1.498  10.857 -0.4162  0.1157 -1.9416
 8007SOL     OW35479   3.041   1.801   5.263  0.2482  0.4673 -0.1889
 8007SOL    HW135480   3.046   1.809   5.358  0.5220  0.8331 -0.2351
 8007SOL    HW235481   2.951   1.775   5.245  0.5953  0.6094 -2.1567
 8008SOL     OW35482   1.196   0.337   4.620 -0.3162  0.1031 -0.5223
 8008SOL    HW135483   1.280   0.308   4.657 -0.3666 -0.0753 -0.5464
 8008SOL    HW235484   1.147   0.370   4.695  0.5621  0.9915 -0.3283
 8009SOL     OW35485   0.702   4.103  13.276  0.3207 -0.7082  0.1590
 8009SOL    HW135486   0.782   4.150  13.301  0.6780 -2.4730  2.3670
 8009SOL    HW235487   0.706   4.103  13.180  0.8210 -3.3538  0.1770
 8010SOL     OW35488   1.495   3.453   0.309  0.1818 -0.2999  0.6681
 8010SOL    HW135489   1.402   3.445   0.332 -0.3298 -1.6665 -1.8876
 8010SOL    HW235490   1.517   3.361   0.295  0.9103  0.1004 -0.7639
 8011SOL     OW35491   4.425   1.017   8.504 -0.3043 -0.2676  0.1174
 8011SOL    HW135492   4.474   0.945   8.543  0.3564  1.4679  2.5335
 8011SOL    HW235493   4.416   0.981   8.415  2.4555  0.4506 -0.4497
 8012SOL     OW35494   4.034   2.118   7.363 -0.1790  0.3394 -0.3240
 8012SOL    HW135495   4.106   2.179   7.347  1.0697 -0.9689  0.3165
 8012SOL    HW235496   3.961   2.152   7.312  1.3993  1.0545 -2.0955
 8013SOL     OW35497   2.940   3.726  10.558  0.3169  0.0736 -0.0414
 8013SOL    HW135498   2.990   3.650  10.586  2.3196  0.6760 -1.9744
 8013SOL    HW235499   2.893   3.699  10.479 -4.2990  3.2139  1.6165
 8014SOL     OW35500   4.593   2.805   3.579  0.0635  0.0714 -0.4613
 8014SOL    HW135501   4.565   2.735   3.638 -2.8515  0.2464 -1.6544
 8014SOL    HW235502   4.550   2.796   3.494  2.6313  1.1112 -1.8604
 8015SOL     OW35503   0.075   1.289   7.864 -0.5079  0.1554  0.6742
 8015SOL    HW135504   0.108   1.213   7.912 -1.4151  0.0254  1.1019
 8015SOL    HW235505   4.707   1.269   7.865 -0.3561 -0.6083  0.3837
 8016SOL     OW35506   4.586   2.570   1.104 -0.1652  0.1882 -0.3412
 8016SOL    HW135507   4.501   2.526   1.108  0.6912 -1.5680 -1.3458
 8016SOL    HW235508   4.593   2.587   1.198  0.3770 -1.3996 -0.0842
 8017SOL     OW35509   2.054   3.779  11.142 -0.5690  0.0100  0.1416
 8017SOL    HW135510   2.140   3.771  11.100 -1.8935  0.6896 -2.7339
 8017SOL    HW235511   2.015   3.692  11.140 -1.8262  0.5738  0.7301
 8018SOL     OW35512   4.136   3.002   3.554 -0.1801  0.6855 -0.5905
 8018SOL    HW135513   4.143   2.930   3.490  1.1625 -0.1546  0.5064
 8018SOL    HW235514   4.046   3.030   3.566 -0.1852  0.2255  0.4540
 8019SOL     OW35515   3.359   4.070   0.403 -0.3001 -0.4506 -0.0299
 8019SOL    HW135516   3.308   4.126   0.345 -1.5983 -0.0738  1.4709
 8019SOL    HW235517   3.359   3.989   0.352  1.2621 -0.3540 -0.1628
 8020SOL     OW35518   2.243   2.076  14.281  0.1611  0.3286  0.1334
 8020SOL    HW135519   2.280   2.032  14.358 -2.6675 -2.8305 -0.3087
 8020SOL    HW235520   2.319   2.066  14.224 -0.9288 -1.1137 -1.0361
 8021SOL     OW35521   3.773   1.674   4.660 -0.1225 -0.2212  0.0065
 8021SOL    HW135522   3.791   1.665   4.753 -0.5871  1.1495  0.2297
 8021SOL    HW235523   3.682   1.705   4.658 -0.3898 -1.0685 -1.2282
 8022SOL     OW35524   3.628   1.441   2.991 -0.2717  0.1255 -0.3845
 8022SOL    HW135525   3.639   1.367   3.051  0.6692  0.4333 -0.1880
 8022SOL    HW235526   3.669   1.407   2.911 -1.7435  0.4086 -1.2712
 8023SOL     OW35527   4.335   4.470   7.078 -0.6782 -0.0550 -0.3465
 8023SOL    HW135528   4.398   4.501   7.013  0.8465 -0.9084  0.7104
 8023SOL    HW235529   4.325   4.546   7.135 -0.7841  0.6081 -1.2464
 8024SOL     OW35530   2.311   0.237   3.641 -0.6871 -0.1285  0.1064
 8024SOL    HW135531   2.245   0.185   3.687  0.2290 -0.5908  0.9243
 8024SOL    HW235532   2.391   0.205   3.684 -1.3701 -2.3344 -0.2702
 8025SOL     OW35533   0.021   3.077  13.252 -0.5240  0.2964 -0.1870
 8025SOL    HW135534   0.090   3.027  13.208 -0.4563  1.3053 -1.2291
 8025SOL    HW235535   0.063   3.162  13.263  0.1453 -0.2592  1.4387
 8026SOL     OW35536   4.470   2.529   6.543  0.1501 -0.1810  0.5831
 8026SOL    HW135537   4.517   2.480   6.610 -1.2190  0.0188  1.6835
 8026SOL    HW235538   4.428   2.454   6.500 -0.1703 -0.0760  0.7081
 8027SOL     OW35539   4.560   3.081   4.514  0.1564  0.1055  0.7124
 8027SOL    HW135540   4.621   3.145   4.551  0.6859  0.6179 -1.0342
 8027SOL    HW235541   4.580   3.097   4.421 -1.1024  1.7882  0.7178
 8028SOL     OW35542   2.290   0.312   7.195 -0.2799 -0.2307  0.0436
 8028SOL    HW135543   2.211   0.365   7.197 -0.8445 -1.0711  0.1673
 8028SOL    HW235544   2.350   0.366   7.246  1.4081 -0.0738 -2.1386
 8029SOL     OW35545   0.078   2.171  12.316 -0.3534  0.2074 -0.1918
 8029SOL    HW135546   0.065   2.078  12.296  0.0376  0.1261 -0.0591
 8029SOL    HW235547   0.167   2.191  12.285  0.0059  0.2492  0.8704
 8030SOL     OW35548   3.589   4.205   0.356 -0.0884 -0.8575 -0.0751
 8030SOL    HW135549   3.549   4.292   0.359  2.8777  0.5160 -0.0892
 8030SOL    HW235550   3.535   4.153   0.416 -1.1939 -0.8744 -1.0870
 8031SOL     OW35551   1.183   4.173   9.120  0.2649  0.0964 -0.2793
 8031SOL    HW135552   1.107   4.115   9.113 -0.0466  0.0950  3.2534
 8031SOL    HW235553   1.245   4.127   9.063 -0.7967 -1.5299 -0.1349
 8032SOL     OW35554   1.200   2.998   2.331 -0.2610 -0.3085 -0.3580
 8032SOL    HW135555   1.227   3.075   2.381  0.1520 -1.2237  0.8213
 8032SOL    HW235556   1.279   2.983   2.280 -0.2984 -1.4372 -0.0754
 8033SOL     OW35557   1.215   1.836   3.863 -0.1787 -0.0198 -0.3347
 8033SOL    HW135558   1.156   1.761   3.856 -2.4700  1.6943  0.0924
 8033SOL    HW235559   1.177   1.879   3.940 -0.3887  1.2189 -1.1149
 8034SOL     OW35560   2.411   3.856   1.363  0.1330 -0.1979  0.0263
 8034SOL    HW135561   2.325   3.813   1.368 -0.2918  0.9537  2.5860
 8034SOL    HW235562   2.388   3.941   1.400 -0.3070 -0.5082  0.4569
 8035SOL     OW35563   4.287   0.864   7.475  0.2936  0.1180  0.0452
 8035SOL    HW135564   4.276   0.846   7.568 -0.2913 -2.7262 -0.5931
 8035SOL    HW235565   4.379   0.888   7.466  0.3630 -0.3714 -0.5923
 8036SOL     OW35566   4.152   0.224   6.316 -0.1600 -0.0700 -0.0771
 8036SOL    HW135567   4.073   0.201   6.267  0.3571  0.0806 -0.9841
 8036SOL    HW235568   4.198   0.282   6.255  0.2858 -1.9766 -1.5247
 8037SOL     OW35569   0.562   1.138   5.674 -0.0651  0.2859  0.7073
 8037SOL    HW135570   0.582   1.222   5.633  0.0131 -0.6094 -1.0672
 8037SOL    HW235571   0.646   1.095   5.659 -0.7987 -0.9348  0.1161
 8038SOL     OW35572   4.510   0.887  11.834  0.1942  0.4327 -0.3233
 8038SOL    HW135573   4.540   0.935  11.757 -2.9747 -0.3363 -2.0546
 8038SOL    HW235574   4.570   0.920  11.900 -1.0347  0.3704  0.8349
 8039SOL     OW35575   4.288   3.333   4.375 -0.2908 -0.5085  0.3239
 8039SOL    HW135576   4.341   3.331   4.294 -0.7978  0.8051 -0.0404
 8039SOL    HW235577   4.266   3.242   4.392 -3.5478  0.1724 -0.3186
 8040SOL     OW35578   1.883   2.588  12.254  0.0398 -0.6457 -0.0252
 8040SOL    HW135579   1.809   2.549  12.208  0.9120 -1.5432 -0.6751
 8040SOL    HW235580   1.848   2.671  12.287  2.2093 -0.3404  1.5083
 8041SOL     OW35581   2.916   4.263   7.874  0.8275 -0.5370  0.1489
 8041SOL    HW135582   2.938   4.180   7.832  0.6982  0.3470 -1.6675
 8041SOL    HW235583   2.995   4.318   7.872  0.9958 -0.6572  3.0125
 8042SOL     OW35584   2.495   0.609   6.738  0.0936  0.5504  0.1011
 8042SOL    HW135585   2.431   0.592   6.808  0.1370  2.0257  0.5201
 8042SOL    HW235586   2.492   0.525   6.694 -0.2843  2.0245 -2.6558
 8043SOL     OW35587   0.003   1.373   1.284 -0.0910 -0.0492 -0.1094
 8043SOL    HW135588   4.681   1.318   1.345  0.4504 -0.0690  0.2999
 8043SOL    HW235589   0.065   1.410   1.347 -0.0096 -0.8830  0.3018
 8044SOL     OW35590   0.479   0.048   4.040 -0.1954  0.2703  0.6601
 8044SOL    HW135591   0.513   0.076   4.125  1.0581 -1.0125  0.5831
 8044SOL    HW235592   0.513   0.126   3.996  0.1906  0.5611  1.4749
 8045SOL     OW35593   0.010   2.625   0.652 -0.1496  0.2517  0.5415
 8045SOL    HW135594   4.647   2.596   0.672 -0.4187 -0.8246 -2.2902
 8045SOL    HW235595   0.029   2.689   0.720  0.9571 -2.2785  2.6277
 8046SOL     OW35596   2.628   2.646  10.204  0.3483 -0.2346  0.0105
 8046SOL    HW135597   2.706   2.599  10.233 -0.7592 -1.0059  1.7509
 8046SOL    HW235598   2.605   2.694  10.283  0.5395 -0.2226  0.0580
 8047SOL     OW35599   4.163   3.297  13.702 -0.4706 -0.2413  0.0203
 8047SOL    HW135600   4.182   3.228  13.766  0.7386 -1.7522 -1.9865
 8047SOL    HW235601   4.230   3.282  13.635  0.4774 -1.6149  1.2777
 8048SOL     OW35602   0.241   2.115  11.983 -0.0586 -0.0323 -0.2721
 8048SOL    HW135603   0.246   2.207  11.957 -1.4652  0.4862  1.2704
 8048SOL    HW235604   0.310   2.121  12.049  0.6336 -0.9383 -0.9080
 8049SOL     OW35605   0.927   2.358  15.521 -0.0368 -0.1234  0.7594
 8049SOL    HW135606   0.935   2.446  15.484 -0.9571 -0.8748 -1.2020
 8049SOL    HW235607   0.833   2.343  15.513  0.5420 -2.5924 -1.3642
 8050SOL     OW35608   2.611   0.956   0.452 -0.1662  0.8977 -0.0624
 8050SOL    HW135609   2.608   0.861   0.467  1.8915  0.7213 -0.7043
 8050SOL    HW235610   2.520   0.977   0.434 -0.8553 -0.2869  2.0100
 8051SOL     OW35611   0.230   2.595   7.261 -0.7811  0.3689  0.9405
 8051SOL    HW135612   0.244   2.532   7.190 -0.2509  1.6078 -0.0493
 8051SOL    HW235613   0.317   2.612   7.298  0.2743 -1.0057 -0.9506
 8052SOL     OW35614   1.166   0.817  10.662  0.4487 -0.0842 -0.1021
 8052SOL    HW135615   1.189   0.753  10.731  4.0319 -2.3178 -3.3391
 8052SOL    HW235616   1.253   0.824  10.623 -0.5988  0.9281 -2.2038
 8053SOL     OW35617   2.972   3.424   1.737 -0.3130  0.4928  0.7749
 8053SOL    HW135618   3.035   3.441   1.666  0.8189 -1.1335  1.3765
 8053SOL    HW235619   2.943   3.335   1.717 -1.3902  0.9843  0.1717
 8054SOL     OW35620   4.574   3.935  11.058 -0.4781 -0.6566 -0.6300
 8054SOL    HW135621   4.483   3.937  11.029 -0.2668 -1.5373 -1.3658
 8054SOL    HW235622   4.601   3.854  11.014 -0.2312 -0.5822 -0.6150
 8055SOL     OW35623   4.708   4.640   1.475 -0.3794  0.3497 -0.1602
 8055SOL    HW135624   4.664   4.692   1.542 -1.2906 -1.8053  0.8943
 8055SOL    HW235625   4.670   4.685   1.399  0.7575  1.7601  0.1203
 8056SOL     OW35626   2.292   3.269   5.289 -0.0824 -0.3067  0.5039
 8056SOL    HW135627   2.218   3.286   5.347 -1.7811 -0.3635 -1.6598
 8056SOL    HW235628   2.356   3.234   5.351 -0.8290 -2.3225  0.1433
 8057SOL     OW35629   4.188   1.183   8.626  0.5267  0.3961  0.2815
 8057SOL    HW135630   4.273   1.193   8.583  1.0020 -1.1878  0.8620
 8057SOL    HW235631   4.164   1.111   8.568 -1.2841  0.9971  0.2978
 8058SOL     OW35632   3.941   4.120   7.755  0.3687 -0.0109  0.1043
 8058SOL    HW135633   3.983   4.109   7.670 -3.4207  0.0703 -1.7327
 8058SOL    HW235634   3.964   4.033   7.786  0.0833 -0.7172 -1.6988
 8059SOL     OW35635   1.251   1.098  15.580  0.3664 -0.3998  0.2911
 8059SOL    HW135636   1.186   1.112  15.648  1.5900  0.9720  1.1889
 8059SOL    HW235637   1.283   1.188  15.566  1.1291 -0.7112  0.0098
 8060SOL     OW35638   2.614   2.949   1.682 -0.1231 -0.5517 -0.4152
 8060SOL    HW135639   2.524   2.925   1.701  0.0850 -1.3872 -0.4887
 8060SOL    HW235640   2.617   3.045   1.685 -0.3743 -0.5695  0.5422
 8061SOL     OW35641   3.114   0.852   2.639  0.3562 -0.2379  0.4329
 8061SOL    HW135642   3.102   0.914   2.567 -2.2913 -2.0739 -0.6980
 8061SOL    HW235643   3.025   0.848   2.676 -0.2046 -1.4650 -1.0539
 8062SOL     OW35644   1.668   4.546  15.021 -0.3110 -0.0441  0.0148
 8062SOL    HW135645   1.723   4.482  14.977  2.7872  0.3886  3.2516
 8062SOL    HW235646   1.725   4.622  15.008  0.2664 -0.3400  0.8269
 8063SOL     OW35647   1.268   1.786   4.529  0.5776  0.2250 -0.2459
 8063SOL    HW135648   1.303   1.699   4.508  1.9958  0.8450 -0.5034
 8063SOL    HW235649   1.277   1.788   4.624  0.2298  1.0591 -0.2246
 8064SOL     OW35650   2.112   2.209   8.627 -0.1871  0.5770 -0.0737
 8064SOL    HW135651   2.143   2.223   8.716 -0.8724 -0.2319  0.2908
 8064SOL    HW235652   2.035   2.158   8.651  0.8547  0.1953  2.3979
 8065SOL     OW35653   3.208   3.684   8.466  0.0520  0.1309 -0.7701
 8065SOL    HW135654   3.189   3.733   8.546  0.0618  1.9361 -1.8834
 8065SOL    HW235655   3.253   3.611   8.510  0.2077 -0.1449 -1.3897
 8066SOL     OW35656   1.401   3.705   4.005 -0.4133 -0.0211 -0.3747
 8066SOL    HW135657   1.342   3.690   4.080 -0.9645  3.0325 -0.2273
 8066SOL    HW235658   1.481   3.732   4.050 -1.1085 -1.6924  1.9315
 8067SOL     OW35659   3.827   0.073   6.956  0.5854  0.1929 -0.1714
 8067SOL    HW135660   3.774   0.112   7.025 -0.1222 -0.5037 -0.3294
 8067SOL    HW235661   3.834   0.154   6.906  0.2032  1.7567  2.3089
 8068SOL     OW35662   1.015   0.098   5.497 -0.5238  0.5725  1.1199
 8068SOL    HW135663   1.073   0.074   5.425 -1.2813  2.2736 -0.0735
 8068SOL    HW235664   1.071   0.162   5.541 -0.3033  2.6339 -2.1622
 8069SOL     OW35665   2.562   2.538   7.211  0.1498 -0.1072 -0.4710
 8069SOL    HW135666   2.466   2.537   7.206  0.1900 -1.3624 -1.0479
 8069SOL    HW235667   2.583   2.630   7.222 -2.8516  0.3185  1.9193
 8070SOL     OW35668   0.293   0.915  14.951  0.1498 -0.4611 -0.0107
 8070SOL    HW135669   0.204   0.881  14.941  0.2966 -0.8110 -0.1257
 8070SOL    HW235670   0.346   0.836  14.959  0.3540 -0.4199 -0.9123
 8071SOL     OW35671   4.094   0.242   2.485  0.8763 -0.1067  0.0223
 8071SOL    HW135672   4.125   0.332   2.489 -0.4334  0.3277  0.4514
 8071SOL    HW235673   4.125   0.214   2.571 -0.1797 -2.0422 -0.2235
 8072SOL     OW35674   1.377   0.393   1.997  0.0041  0.8607 -0.6028
 8072SOL    HW135675   1.383   0.302   1.968  0.9979  0.7177  0.0588
 8072SOL    HW235676   1.292   0.392   2.041  0.0505  1.9345 -0.4931
 8073SOL     OW35677   1.752   0.618  10.136  0.7541  0.4228 -0.6229
 8073SOL    HW135678   1.686   0.627  10.068 -0.0357 -1.6672 -0.1499
 8073SOL    HW235679   1.727   0.530  10.166  2.0434  0.3501  0.2539
 8074SOL     OW35680   0.033   2.118  13.170 -0.7133 -1.3097  0.2619
 8074SOL    HW135681   0.116   2.080  13.197  0.1029  0.9924  0.9591
 8074SOL    HW235682   0.046   2.121  13.075 -0.8554  4.5083  0.4587
 8075SOL     OW35683   1.725   0.697   2.657  0.0052  0.7207 -0.3360
 8075SOL    HW135684   1.764   0.756   2.592  2.6237 -1.8063 -1.0859
 8075SOL    HW235685   1.739   0.609   2.621 -2.7454  0.9869 -2.0738
 8076SOL     OW35686   1.262   4.194   2.135  0.3753 -0.1848 -0.0552
 8076SOL    HW135687   1.310   4.254   2.079 -1.7487 -0.4068 -2.1138
 8076SOL    HW235688   1.181   4.179   2.087 -0.1228  2.2989  0.0183
 8077SOL     OW35689   3.395   4.026   8.561 -0.1121 -0.3097 -0.0461
 8077SOL    HW135690   3.391   4.077   8.642  0.3338 -2.7049  1.4748
 8077SOL    HW235691   3.416   3.940   8.598  1.1187 -0.4827 -1.1369
 8078SOL     OW35692   4.716   0.549   9.580  0.3073  0.2939 -0.9925
 8078SOL    HW135693   0.067   0.605   9.573  0.4731  0.2733  0.6577
 8078SOL    HW235694   0.027   0.465   9.606 -0.8262  0.6963  1.8853
 8079SOL     OW35695   4.234   0.024   6.504 -0.3155 -0.5584 -0.1743
 8079SOL    HW135696   4.278   4.701   6.434 -0.1321 -0.7539  0.0748
 8079SOL    HW235697   4.164   0.058   6.449  0.6382 -1.5696 -2.0124
 8080SOL     OW35698   2.796   3.163  10.529 -0.8087 -0.7086  0.4120
 8080SOL    HW135699   2.819   3.253  10.552  2.0700 -1.2293 -0.3693
 8080SOL    HW235700   2.855   3.143  10.456  0.3489  0.9546  0.9162
 8081SOL     OW35701   0.017   4.494  12.944  0.1801  0.4075  0.1519
 8081SOL    HW135702   0.098   4.506  12.995  0.3446  0.7198 -0.1818
 8081SOL    HW235703   0.056   4.448  12.870  0.7788  1.3239 -0.1082
 8082SOL     OW35704   1.059   4.476   2.081 -0.0547  0.2416  0.3515
 8082SOL    HW135705   0.987   4.508   2.026  1.5362  0.6482 -1.4974
 8082SOL    HW235706   1.013   4.400   2.116  1.4065 -1.6567 -1.8250
 8083SOL     OW35707   2.177   3.424   1.951 -0.3240  0.2224 -0.5326
 8083SOL    HW135708   2.181   3.371   1.871 -0.5913 -1.3133  0.4716
 8083SOL    HW235709   2.149   3.504   1.907  2.0363  0.2013 -2.1232
 8084SOL     OW35710   2.045   1.972   9.023  0.3070 -0.0267  0.5165
 8084SOL    HW135711   2.125   1.993   8.975 -1.3646  2.1116 -1.3008
 8084SOL    HW235712   1.986   1.925   8.964 -0.0008  1.6726 -0.5454
 8085SOL     OW35713   4.041   3.637   8.031 -1.0347  0.1383 -0.0008
 8085SOL    HW135714   4.006   3.715   8.074  1.1362  0.7769  0.6371
 8085SOL    HW235715   4.024   3.566   8.093  3.3298  0.4049  1.5502
 8086SOL     OW35716   3.429   4.147  17.536 -0.3726  0.0810  0.0696
 8086SOL    HW135717   3.414   4.227  17.587  1.7742 -0.2624  1.2471
 8086SOL    HW235718   3.524   4.155  17.523 -0.3896 -0.7506 -0.5308
 8087SOL     OW35719   1.752   0.537   6.417 -0.1580  0.0335 -0.3022
 8087SOL    HW135720   1.659   0.549   6.435  0.3536  1.1254  1.6154
 8087SOL    HW235721   1.753   0.482   6.338 -0.7581  1.6484 -1.4175
 8088SOL     OW35722   0.278   4.429   5.620  0.1394  0.2463 -0.4762
 8088SOL    HW135723   0.304   4.501   5.563 -0.9884  0.7004 -0.4109
 8088SOL    HW235724   0.232   4.479   5.687  1.7626  2.1466 -0.7891
 8089SOL     OW35725   1.571   3.082   2.798  0.3621  0.2486  0.2398
 8089SOL    HW135726   1.508   3.012   2.815 -1.7023  1.3495 -2.8172
 8089SOL    HW235727   1.604   3.050   2.715  2.6582 -2.4752  2.2476
 8090SOL     OW35728   0.305   1.956   3.415 -0.2607  0.3441 -1.0976
 8090SOL    HW135729   0.342   2.037   3.449 -2.8952  0.3157  1.8509
 8090SOL    HW235730   0.351   1.883   3.457 -1.4847  0.0761 -0.2209
 8091SOL     OW35731   1.358   0.316   3.496 -0.3549 -0.1689 -0.0001
 8091SOL    HW135732   1.264   0.303   3.499 -0.2896 -0.2183  2.0602
 8091SOL    HW235733   1.384   0.243   3.440 -0.0587  1.2668 -1.7424
 8092SOL     OW35734   3.124   1.826  14.690 -0.1088 -0.0729 -0.2950
 8092SOL    HW135735   3.217   1.837  14.670 -0.0071  0.3052  0.3911
 8092SOL    HW235736   3.081   1.806  14.607 -0.4457  1.4118 -0.4885
 8093SOL     OW35737   3.025   4.482   8.766 -0.2116  0.4058  0.0630
 8093SOL    HW135738   3.003   4.576   8.770  1.4656  0.8206 -0.7147
 8093SOL    HW235739   3.074   4.474   8.685  0.1149  0.4582  0.2565
 8094SOL     OW35740   3.744   2.887   4.445  0.2116  0.1446 -0.5153
 8094SOL    HW135741   3.717   2.799   4.422  1.4795 -0.3553 -0.0916
 8094SOL    HW235742   3.656   2.920   4.464  0.2902  1.2938 -2.1424
 8095SOL     OW35743   1.993   1.832   3.687  0.3308  0.2283  0.1972
 8095SOL    HW135744   1.918   1.790   3.728  0.8030 -0.3929  0.4163
 8095SOL    HW235745   1.959   1.920   3.669 -2.4201 -0.9679 -0.2969
 8096SOL     OW35746   1.828   1.008  14.612 -0.2795 -0.1602  0.4538
 8096SOL    HW135747   1.835   0.955  14.691  1.4113 -1.2652 -0.4293
 8096SOL    HW235748   1.833   0.938  14.547  0.1661  0.4860 -0.2115
 8097SOL     OW35749   4.075   3.462  11.521  0.0934  0.5732 -0.4627
 8097SOL    HW135750   4.106   3.499  11.604  0.9342  1.4014 -1.1477
 8097SOL    HW235751   4.072   3.367  11.534  0.4501  0.8141  1.3093
 8098SOL     OW35752   3.070   3.386  11.952  0.1339  0.3152 -0.6419
 8098SOL    HW135753   3.012   3.460  11.972 -3.1282 -2.1978 -0.7360
 8098SOL    HW235754   3.145   3.444  11.949  0.4836 -0.0676  1.0107
 8099SOL     OW35755   2.469   3.374   3.440 -0.1453  0.2280  0.7796
 8099SOL    HW135756   2.424   3.365   3.357  0.9975 -1.1864  0.3210
 8099SOL    HW235757   2.404   3.405   3.504  0.8746 -0.2818  2.0722
 8100SOL     OW35758   4.602   1.689   8.423  0.1325  0.0613  0.0959
 8100SOL    HW135759   4.651   1.764   8.389  1.6609  0.4372  3.1139
 8100SOL    HW235760   4.517   1.699   8.381 -0.2442  0.9734  1.0768
 8101SOL     OW35761   3.487   4.231   4.957 -0.2459  0.2711 -0.2597
 8101SOL    HW135762   3.537   4.212   4.877 -0.9566 -0.1510 -0.6008
 8101SOL    HW235763   3.521   4.162   5.014 -0.2302 -0.4443 -1.1266
 8102SOL     OW35764   1.087   4.609   3.412  0.0372 -0.2925 -0.4407
 8102SOL    HW135765   1.129   4.649   3.488 -0.3465  1.1485 -1.0002
 8102SOL    HW235766   1.047   4.679   3.361 -1.7129 -0.3879  0.7951
 8103SOL     OW35767   4.370   0.301  15.195  0.0534 -0.0299  0.0075
 8103SOL    HW135768   4.355   0.271  15.284  0.0515  2.1919  0.7621
 8103SOL    HW235769   4.450   0.251  15.177 -0.2265 -0.5699  0.2936
 8104SOL     OW35770   0.816   3.633  16.715 -0.1975  0.0115 -0.5282
 8104SOL    HW135771   0.890   3.598  16.764 -0.5090  3.5047  2.4022
 8104SOL    HW235772   0.754   3.615  16.786  0.3491  0.7547  0.1278
 8105SOL     OW35773   0.032   4.366   5.085 -0.4813  0.7756 -0.0188
 8105SOL    HW135774   0.033   4.303   5.013 -0.3477  2.5742 -1.5992
 8105SOL    HW235775   0.033   4.309   5.162  1.8360  0.2150 -0.4770
 8106SOL     OW35776   0.623   0.571   5.442  0.7446 -0.4004  0.9314
 8106SOL    HW135777   0.637   0.499   5.504 -2.4802 -1.6165  0.2177
 8106SOL    HW235778   0.609   0.520   5.363  1.4180  0.5930  0.1752
 8107SOL     OW35779   2.295   3.702   7.414  0.5016 -0.1097 -0.1092
 8107SOL    HW135780   2.241   3.623   7.404 -0.3414  0.1005  2.7241
 8107SOL    HW235781   2.376   3.654   7.430  0.2967 -0.5524 -0.4143
 8108SOL     OW35782   3.145   1.501  10.780  0.0316 -0.0626 -0.1391
 8108SOL    HW135783   3.211   1.508  10.710  1.9075 -3.3617  1.2906
 8108SOL    HW235784   3.205   1.476  10.850  0.0739  1.7458  0.4573
 8109SOL     OW35785   0.210   1.889   6.836  0.0110 -0.0348  0.4027
 8109SOL    HW135786   0.152   1.823   6.798  0.6195 -1.5688  2.0933
 8109SOL    HW235787   0.227   1.849   6.922  0.1679  0.7120  0.7192
 8110SOL     OW35788   0.340   1.862   2.979  0.4314  0.3593  0.0579
 8110SOL    HW135789   0.433   1.857   2.999  0.3905  1.8759  0.6366
 8110SOL    HW235790   0.293   1.809   3.043 -3.0358  2.9305 -0.3171
 8111SOL     OW35791   0.180   0.051   9.501 -0.0504  0.2814 -0.3807
 8111SOL    HW135792   0.090   0.026   9.522  0.4053  0.3106  1.5670
 8111SOL    HW235793   0.226   4.726   9.567  0.8273 -1.5220 -2.3899
 8112SOL     OW35794   1.397   1.185   6.323  0.4653  0.0333  0.4502
 8112SOL    HW135795   1.384   1.109   6.378  1.4308  1.4113  2.5929
 8112SOL    HW235796   1.339   1.250   6.364  0.2210 -1.0367  1.7848
 8113SOL     OW35797   3.694   2.257  10.142  0.5412 -0.9731 -0.6262
 8113SOL    HW135798   3.782   2.291  10.154 -1.1782  2.4120  2.4266
 8113SOL    HW235799   3.699   2.165  10.115  1.0158 -0.8729 -0.8794
 8114SOL     OW35800   1.196   0.784  14.638  0.1272  0.4158 -0.7931
 8114SOL    HW135801   1.267   0.730  14.605  1.8802  2.1722  0.1273
 8114SOL    HW235802   1.174   0.742  14.721 -0.0478 -0.8996 -1.5101
 8115SOL     OW35803   4.459   2.485   3.231 -0.0489 -0.0524  0.0698
 8115SOL    HW135804   4.539   2.454   3.274 -0.7368  1.4125  2.3771
 8115SOL    HW235805   4.432   2.411   3.177 -1.7262 -0.2939  1.2547
 8116SOL     OW35806   1.249   0.238   5.658 -0.0534 -0.1944  0.1760
 8116SOL    HW135807   1.170   0.234   5.712  0.3189  1.6856  0.8643
 8116SOL    HW235808   1.316   0.271   5.719  0.7035  0.2198 -0.8706
 8117SOL     OW35809   0.267   2.696   1.476 -0.4211  0.2458  0.2427
 8117SOL    HW135810   0.292   2.608   1.507 -0.4433  0.4550  0.8578
 8117SOL    HW235811   0.186   2.702   1.525 -0.2155 -1.8427  0.8670
 8118SOL     OW35812   3.341   1.841   8.401 -0.2932 -0.2766  0.5968
 8118SOL    HW135813   3.431   1.828   8.431  0.2129  0.4466 -0.5872
 8118SOL    HW235814   3.318   1.753   8.371 -0.0922 -0.0783 -0.1321
 8119SOL     OW35815   3.411   2.670   5.680 -0.5772 -0.1169  0.1096
 8119SOL    HW135816   3.424   2.578   5.701  1.6579 -0.4670 -2.7793
 8119SOL    HW235817   3.488   2.687   5.626 -1.1041 -3.4268 -1.7066
 8120SOL     OW35818   4.193   0.524   5.539  0.0168 -0.4436  0.3385
 8120SOL    HW135819   4.155   0.442   5.571  0.6099 -1.2948 -1.1544
 8120SOL    HW235820   4.214   0.509   5.447  0.6821 -1.1779  0.6123
 8121SOL     OW35821   2.857   4.559   3.918 -0.2891 -0.4197  0.8869
 8121SOL    HW135822   2.855   4.533   3.826  2.8800  0.5542  0.5509
 8121SOL    HW235823   2.917   4.489   3.943  0.7199 -0.0503 -0.5207
 8122SOL     OW35824   3.734   0.117   3.776 -0.3821  0.4079 -0.4195
 8122SOL    HW135825   3.731   0.024   3.753  1.2818  0.3575 -0.4766
 8122SOL    HW235826   3.801   0.140   3.711  1.8488  0.5643  1.9644
 8123SOL     OW35827   1.485   1.926   2.034  0.8863  0.6429 -0.3886
 8123SOL    HW135828   1.515   1.950   1.946 -1.5572  1.9824 -0.8462
 8123SOL    HW235829   1.569   1.926   2.081  0.9416  0.6740 -0.4857
 8124SOL     OW35830   2.811   0.988  15.992 -0.2159 -0.2102  0.2720
 8124SOL    HW135831   2.806   0.900  15.955  1.3560 -0.6917  1.2386
 8124SOL    HW235832   2.873   1.037  15.938  0.5042 -0.4415  0.8820
 8125SOL     OW35833   0.867   1.890   0.597  0.0764  0.0330  0.7555
 8125SOL    HW135834   0.889   1.803   0.631 -1.6772 -1.1796 -1.2141
 8125SOL    HW235835   0.810   1.864   0.525  0.6871  2.7957 -0.7080
 8126SOL     OW35836   0.635   4.308   5.935  0.4151  0.0538 -0.3601
 8126SOL    HW135837   0.586   4.378   5.978  3.8346  2.1523  0.0969
 8126SOL    HW235838   0.588   4.307   5.851 -0.8381 -2.8945  0.3771
 8127SOL     OW35839   4.295   3.788   6.819  0.3676 -0.3280 -0.0658
 8127SOL    HW135840   4.355   3.794   6.893  2.1786  0.1546 -1.5825
 8127SOL    HW235841   4.219   3.834   6.855 -0.2825 -1.0579 -0.5010
 8128SOL     OW35842   2.747   0.610   7.082 -0.1438 -0.0816 -0.0231
 8128SOL    HW135843   2.839   0.599   7.108  0.1239  2.0110 -0.1391
 8128SOL    HW235844   2.749   0.652   6.996 -1.0851 -2.7741 -1.3642
 8129SOL     OW35845   1.337   0.566   9.573  0.2468  0.2143  0.0503
 8129SOL    HW135846   1.325   0.588   9.665 -3.5954  1.3841 -0.7293
 8129SOL    HW235847   1.291   0.483   9.562 -0.3969  0.7259 -1.2548
 8130SOL     OW35848   1.302   0.333   5.117  0.5246 -0.3056 -0.4248
 8130SOL    HW135849   1.224   0.277   5.110  1.1928 -1.3195  0.1141
 8130SOL    HW235850   1.264   0.384   5.188 -0.4250 -1.5641 -0.0147
 8131SOL     OW35851   4.186   1.998  10.063 -0.0957  0.2364 -0.3467
 8131SOL    HW135852   4.235   1.977   9.983  0.6474 -0.4485  0.2841
 8131SOL    HW235853   4.112   1.939  10.044  0.1680 -1.0104  2.5660
 8132SOL     OW35854   3.327   1.437   0.363  0.5338  0.0839  0.3896
 8132SOL    HW135855   3.400   1.377   0.349  1.2799  1.6774 -2.4200
 8132SOL    HW235856   3.286   1.409   0.445 -0.6944  0.4961 -0.0774
 8133SOL     OW35857   0.160   0.335   6.673  0.4826  0.2538 -0.5173
 8133SOL    HW135858   0.165   0.257   6.728  0.3485  0.8366  0.3228
 8133SOL    HW235859   0.085   0.376   6.715 -1.7259 -1.7989 -2.4815
 8134SOL     OW35860   3.773   4.552  15.747  0.4011  0.1077  0.4567
 8134SOL    HW135861   3.841   4.615  15.770 -0.1964  1.2768 -0.9092
 8134SOL    HW235862   3.732   4.588  15.668  1.5504  1.7269  0.5882
 8135SOL     OW35863   3.261   0.931   2.876 -0.3969 -0.2377  0.0183
 8135SOL    HW135864   3.327   1.000   2.885  0.8082 -1.4439  0.2636
 8135SOL    HW235865   3.282   0.895   2.789 -1.0927 -0.0036 -0.2474
 8136SOL     OW35866   3.987   2.571   5.758 -0.3719 -0.0912  0.3939
 8136SOL    HW135867   4.012   2.482   5.785  2.1106  0.8299  1.1678
 8136SOL    HW235868   3.944   2.602   5.838  1.1701 -0.0038  1.1980
 8137SOL     OW35869   0.984   3.702   8.148 -0.6596 -0.1467  0.0111
 8137SOL    HW135870   1.065   3.746   8.175  0.6497  0.0654 -4.1434
 8137SOL    HW235871   0.928   3.779   8.137 -0.5319 -0.0026  0.3606
 8138SOL     OW35872   3.177   3.070   1.480  0.3445  0.5785  0.3029
 8138SOL    HW135873   3.190   3.159   1.446  1.0710  0.4871  0.3480
 8138SOL    HW235874   3.247   3.020   1.437  0.3525  1.6873 -0.9735
 8139SOL     OW35875   2.633   2.599   9.262 -0.3899  0.2482  0.2043
 8139SOL    HW135876   2.540   2.621   9.263  0.1675  2.7079  0.4026
 8139SOL    HW235877   2.637   2.527   9.200 -0.4600 -0.3102  0.8523
 8140SOL     OW35878   2.870   0.341   8.265  0.1355 -0.0489  0.0701
 8140SOL    HW135879   2.815   0.269   8.233  2.0227 -0.8490 -1.3656
 8140SOL    HW235880   2.909   0.384   8.189  1.7818 -1.3862  0.1565
 8141SOL     OW35881   2.073   3.737   8.989  0.5060 -0.0637 -0.6348
 8141SOL    HW135882   2.040   3.649   9.006  0.2231  0.2354  0.3541
 8141SOL    HW235883   2.167   3.718   8.987  0.2646 -1.2931 -0.0641
 8142SOL     OW35884   2.147   3.654  15.438 -0.1620 -0.1268 -0.6530
 8142SOL    HW135885   2.194   3.593  15.381 -1.4329  0.1109 -1.9605
 8142SOL    HW235886   2.218   3.718  15.444 -0.5925  0.2882 -0.0653
 8143SOL     OW35887   1.043   3.223  13.066 -0.3001  0.3239  0.0010
 8143SOL    HW135888   0.962   3.199  13.111  0.3714  1.1700  1.6634
 8143SOL    HW235889   1.098   3.167  13.121  0.7904 -0.7913 -2.2257
 8144SOL     OW35890   4.689   2.891   2.197 -0.6461 -0.4125 -0.5234
 8144SOL    HW135891   0.026   2.958   2.171 -1.5876 -0.2881 -2.4781
 8144SOL    HW235892   4.700   2.846   2.113  1.9094  0.0742 -0.4489
 8145SOL     OW35893   1.333   3.432   2.631 -0.4858  0.5992 -0.1830
 8145SOL    HW135894   1.310   3.523   2.612 -2.7615 -0.2090 -1.3930
 8145SOL    HW235895   1.414   3.428   2.580  1.2467 -0.3792  2.6737
 8146SOL     OW35896   2.575   1.845   6.810 -0.1056 -0.2647 -0.8969
 8146SOL    HW135897   2.655   1.878   6.850 -0.6963 -1.5702  1.3747
 8146SOL    HW235898   2.596   1.753   6.822 -1.1136 -0.2761  0.8043
 8147SOL     OW35899   1.277   0.464   5.969  0.2990 -0.1976  0.4290
 8147SOL    HW135900   1.275   0.410   6.048  1.5830 -2.3892 -1.0384
 8147SOL    HW235901   1.308   0.545   6.009 -0.7087 -1.3885  3.5920
 8148SOL     OW35902   1.288   1.387   6.509  0.1421  0.0479 -0.3897
 8148SOL    HW135903   1.345   1.454   6.470  1.0187 -0.3598  0.1993
 8148SOL    HW235904   1.315   1.383   6.601  1.3958 -2.4965 -0.8843
 8149SOL     OW35905   2.321   3.593   7.891  0.1481 -0.4464 -0.3045
 8149SOL    HW135906   2.374   3.538   7.948 -0.5679 -2.5354 -1.6851
 8149SOL    HW235907   2.375   3.643   7.830  2.0791 -0.9773  0.9882
 8150SOL     OW35908   1.855   1.041  12.912 -0.1160  0.4581  0.0893
 8150SOL    HW135909   1.909   1.120  12.911  0.0161  0.3592 -0.3285
 8150SOL    HW235910   1.767   1.078  12.908 -1.7809 -3.5230 -0.9227
 8151SOL     OW35911   0.527   1.181   0.074  0.3942 -0.0582  0.4242
 8151SOL    HW135912   0.524   1.258   0.131 -1.5023 -0.4401  0.8271
 8151SOL    HW235913   0.622   1.172   0.085  0.5623 -0.8760 -1.6677
 8152SOL     OW35914   3.189   1.014   9.315  0.4851 -0.1333 -0.3957
 8152SOL    HW135915   3.269   0.964   9.297  0.8682  0.6058 -0.7634
 8152SOL    HW235916   3.151   1.014   9.227  0.0617  0.3144 -0.2106
 8153SOL     OW35917   1.050   3.093  14.392  0.4141  0.0537 -0.5029
 8153SOL    HW135918   1.122   3.033  14.371  0.0020 -0.6275  0.0249
 8153SOL    HW235919   1.007   3.039  14.458 -0.4026  1.1929 -0.1183
 8154SOL     OW35920   4.431   3.615   5.852 -0.0809  0.4945  0.7579
 8154SOL    HW135921   4.394   3.549   5.911 -1.7718  0.3363 -0.5004
 8154SOL    HW235922   4.525   3.596   5.861 -0.7957 -3.4143 -0.2426
 8155SOL     OW35923   1.835   4.520  11.723  0.2025  0.3972 -0.6159
 8155SOL    HW135924   1.852   4.426  11.729  0.8096  0.6166  0.9612
 8155SOL    HW235925   1.922   4.559  11.735  1.0442 -1.5765 -0.3063
 8156SOL     OW35926   3.003   2.595   5.831  0.3725 -0.0189 -0.0369
 8156SOL    HW135927   2.996   2.690   5.831  0.6752  0.0045 -0.4266
 8156SOL    HW235928   2.926   2.557   5.874 -0.0862  1.2375  0.2486
 8157SOL     OW35929   1.279   3.828   5.361 -0.2681  0.2223 -0.3889
 8157SOL    HW135930   1.281   3.736   5.384  0.7164  0.3567  0.0705
 8157SOL    HW235931   1.365   3.851   5.398 -0.8140  1.1285  0.3149
 8158SOL     OW35932   4.535   3.423   7.315  0.3701 -0.2228  0.3934
 8158SOL    HW135933   4.585   3.501   7.340 -0.7288  0.2091  1.2216
 8158SOL    HW235934   4.487   3.452   7.237 -1.4260  0.8294  1.9161
 8159SOL     OW35935   0.690   2.722   0.290  0.4127  0.0768 -0.0085
 8159SOL    HW135936   0.658   2.807   0.260  1.2690  1.1225  2.0547
 8159SOL    HW235937   0.747   2.756   0.359  1.0841  0.0311 -0.5458
 8160SOL     OW35938   1.533   4.554  12.057 -0.3396  0.4855  0.2895
 8160SOL    HW135939   1.570   4.470  12.086  3.5969  1.8926 -0.6348
 8160SOL    HW235940   1.607   4.614  12.044 -0.0266  0.3737  1.4992
 8161SOL     OW35941   0.495   2.814   4.462  0.3379 -0.7892 -0.1382
 8161SOL    HW135942   0.517   2.903   4.434  0.0446 -0.9298 -0.8198
 8161SOL    HW235943   0.558   2.813   4.534  0.3536 -1.7252 -0.1656
 8162SOL     OW35944   2.383   2.168   2.127  0.1291  0.0006  0.0224
 8162SOL    HW135945   2.423   2.180   2.040  1.1076 -2.1844  0.1881
 8162SOL    HW235946   2.432   2.091   2.154  0.5383  0.2815  0.0952
 8163SOL     OW35947   3.708   1.983   1.651 -0.2134  0.9351 -0.1158
 8163SOL    HW135948   3.780   2.014   1.596  0.9366  0.1079  0.9346
 8163SOL    HW235949   3.757   1.997   1.732  2.1345  0.8022 -1.5113
 8164SOL     OW35950   1.496   2.121  13.636 -0.3217  0.3254  0.2161
 8164SOL    HW135951   1.555   2.071  13.579 -0.2283 -0.7213  1.2220
 8164SOL    HW235952   1.500   2.074  13.719 -1.5941  0.2765  0.2449
 8165SOL     OW35953   1.536   3.405   4.968  0.4813  0.0561 -0.0224
 8165SOL    HW135954   1.475   3.437   4.902 -0.4339 -0.4426  0.5823
 8165SOL    HW235955   1.538   3.481   5.026  1.8247  0.5598 -0.7400
 8166SOL     OW35956   0.355   1.488   6.990 -0.3090 -0.2484 -0.0805
 8166SOL    HW135957   0.422   1.480   7.057  3.0493  0.8645 -3.2820
 8166SOL    HW235958   0.327   1.397   6.980 -0.1143 -0.2490 -0.6242
 8167SOL     OW35959   4.000   2.942   2.878 -0.3530  0.1433  0.2577
 8167SOL    HW135960   3.940   3.005   2.840  0.7455 -0.3886 -2.3130
 8167SOL    HW235961   4.079   2.941   2.824 -0.0507  2.1018  0.6659
 8168SOL     OW35962   0.036   2.098   8.428 -0.0825  0.3167 -0.4010
 8168SOL    HW135963   0.023   2.012   8.388  0.8996 -0.3352  0.6589
 8168SOL    HW235964   0.119   2.080   8.473 -0.5770 -0.3898  0.2422
 8169SOL     OW35965   3.518   4.231  15.231  0.2353 -0.0927 -0.2670
 8169SOL    HW135966   3.425   4.207  15.226  0.3334 -0.3223 -1.0944
 8169SOL    HW235967   3.568   4.165  15.183  0.7170 -1.2417  1.8494
 8170SOL     OW35968   4.473   3.724  16.628 -0.3136 -0.6110 -0.1936
 8170SOL    HW135969   4.401   3.743  16.688 -1.0371 -1.4331 -0.7879
 8170SOL    HW235970   4.526   3.803  16.635  0.7743 -1.0634 -3.5168
 8171SOL     OW35971   1.816   1.351  12.436  0.0525 -0.1654  0.5190
 8171SOL    HW135972   1.795   1.422  12.497  2.1618  0.1280  0.9238
 8171SOL    HW235973   1.777   1.277  12.483  1.5140 -0.7643  0.8156
 8172SOL     OW35974   2.163   3.070  10.029 -0.1824 -0.0438  0.3311
 8172SOL    HW135975   2.086   3.039   9.982  0.5126 -0.8905 -0.2562
 8172SOL    HW235976   2.222   3.077   9.954 -0.4410 -0.7567  0.0610
 8173SOL     OW35977   0.431   0.437  13.856 -0.7270 -0.6288 -0.0222
 8173SOL    HW135978   0.435   0.498  13.930 -1.3259 -0.1448 -0.3925
 8173SOL    HW235979   0.499   0.376  13.882  0.2400  0.2596 -0.5013
 8174SOL     OW35980   1.030   2.161   5.347  0.0839  0.1170  0.7379
 8174SOL    HW135981   1.047   2.243   5.393  0.1401  0.6365 -0.1899
 8174SOL    HW235982   0.988   2.197   5.268 -3.2395 -0.1485  2.3857
 8175SOL     OW35983   1.884   2.659   8.405 -1.0704  0.2671 -0.3769
 8175SOL    HW135984   1.917   2.743   8.372 -0.3492  0.5499  1.0249
 8175SOL    HW235985   1.894   2.599   8.332  2.0449 -1.0867  1.1466
 8176SOL     OW35986   0.342   1.961   7.555  0.7433 -0.2727  1.0615
 8176SOL    HW135987   0.339   1.991   7.465 -1.6627  2.6672  2.1339
 8176SOL    HW235988   0.423   1.911   7.542 -0.3267 -1.8055  0.3646
 8177SOL     OW35989   3.745   1.392   3.281 -0.1721 -0.0382  0.1004
 8177SOL    HW135990   3.667   1.336   3.278 -0.5940  0.4242  2.8179
 8177SOL    HW235991   3.794   1.330   3.226  2.0985  1.2529  0.6652
 8178SOL     OW35992   0.467   4.466   2.117 -0.1299 -0.5922  0.4691
 8178SOL    HW135993   0.410   4.516   2.058 -1.6067 -0.5906  1.9218
 8178SOL    HW235994   0.443   4.503   2.202 -1.4899 -0.3434 -0.0170
 8179SOL     OW35995   4.116   4.576   1.105  0.5245  0.4293 -0.2779
 8179SOL    HW135996   4.113   4.530   1.189  0.3704  2.2608  0.7240
 8179SOL    HW235997   4.024   4.601   1.094  0.3646 -0.0820 -0.1107
 8180SOL     OW35998   0.782   2.491  12.652 -0.0778 -0.2463  0.1976
 8180SOL    HW135999   0.762   2.570  12.702  2.3359 -0.1360  1.0276
 8180SOL    HW236000   0.856   2.459  12.705 -0.7532 -1.1978  0.5602
 8181SOL     OW36001   3.045   0.381   6.750 -0.0213  0.2313  0.2362
 8181SOL    HW136002   3.124   0.336   6.779  0.3100 -0.4230 -1.6612
 8181SOL    HW236003   3.036   0.447   6.818 -0.8552 -0.6081  0.9348
 8182SOL     OW36004   1.706   2.952   2.585 -0.1101  0.4372  0.1212
 8182SOL    HW136005   1.753   2.876   2.552  0.1069  0.5024  0.2783
 8182SOL    HW236006   1.674   2.986   2.501  1.4038  0.0443 -0.6201
 8183SOL     OW36007   3.230   2.798  11.933 -0.5311  0.1481 -0.5175
 8183SOL    HW136008   3.214   2.787  11.839  0.3986  0.8445 -0.7623
 8183SOL    HW236009   3.148   2.834  11.966 -0.7553 -1.2979  0.5076
 8184SOL     OW36010   4.547   0.604   8.234 -0.1904  0.3766  0.5558
 8184SOL    HW136011   4.533   0.592   8.140 -1.7604  0.7017  0.7512
 8184SOL    HW236012   4.598   0.686   8.234  1.0550 -0.3912 -0.5094
 8185SOL     OW36013   4.663   2.768   8.252  0.4381 -0.0787 -0.3461
 8185SOL    HW136014   4.649   2.674   8.254  0.1088 -0.0350 -0.6368
 8185SOL    HW236015   0.033   2.774   8.249  0.5177 -1.3008  0.0378
 8186SOL     OW36016   3.388   2.172   5.134 -0.1428  0.1517  0.0035
 8186SOL    HW136017   3.311   2.221   5.163 -1.0540 -2.7158  2.4657
 8186SOL    HW236018   3.354   2.130   5.055 -2.7923  2.3894 -0.0520
 8187SOL     OW36019   2.925   3.343   6.656  0.1759 -0.1800  0.5897
 8187SOL    HW136020   3.019   3.326   6.658  0.2021 -0.0083  0.7987
 8187SOL    HW236021   2.918   3.417   6.716  0.1121  0.4628 -0.2008
 8188SOL     OW36022   0.632   1.891   0.390 -0.1739 -0.1479 -0.2371
 8188SOL    HW136023   0.569   1.960   0.367  1.6940  1.9341  0.8323
 8188SOL    HW236024   0.594   1.814   0.348 -1.9597  0.3712  0.4272
 8189SOL     OW36025   0.966   4.080   2.488  0.6989  0.3556 -0.5324
 8189SOL    HW136026   1.028   4.034   2.545 -1.3843 -1.8201 -0.0584
 8189SOL    HW236027   0.938   4.004   2.439  0.2664  0.9541 -1.2048
 8190SOL     OW36028   3.706   0.041   6.120  0.3021  0.2029 -0.3438
 8190SOL    HW136029   3.643   0.052   6.191 -0.7003 -0.6037 -1.1016
 8190SOL    HW236030   3.696   4.677   6.087 -0.3487 -0.0307  0.4747
 8191SOL     OW36031   1.578   0.383   4.043  0.2866 -0.0728  0.3708
 8191SOL    HW136032   1.590   0.361   3.951  0.1252  0.9046  0.1163
 8191SOL    HW236033   1.666   0.391   4.078  0.8469 -2.4505 -0.4879
 8192SOL     OW36034   2.045   1.382   6.611  0.1640  0.4962 -0.0890
 8192SOL    HW136035   2.088   1.415   6.689  0.1207  1.3956 -0.4451
 8192SOL    HW236036   2.079   1.294   6.597 -1.4836 -0.0987 -0.3968
 8193SOL     OW36037   1.317   2.678   9.291  0.0688 -0.1111 -0.1559
 8193SOL    HW136038   1.300   2.668   9.385  1.0342 -0.2444  0.0111
 8193SOL    HW236039   1.271   2.605   9.251 -1.2392  0.5218  0.1950
 8194SOL     OW36040   3.859   1.558   2.296 -0.1101 -0.4704 -0.6423
 8194SOL    HW136041   3.841   1.649   2.274 -2.0958 -0.4913  0.8273
 8194SOL    HW236042   3.832   1.525   2.210  0.0742  0.1355 -0.9307
 8195SOL     OW36043   1.550   1.174   3.139  0.4673 -0.2699  0.1794
 8195SOL    HW136044   1.595   1.250   3.103  1.2302 -0.2885  1.0992
 8195SOL    HW236045   1.470   1.174   3.086  0.6869 -0.0673 -0.1548
 8196SOL     OW36046   0.363   1.010   5.513  0.3704  0.0435  0.0451
 8196SOL    HW136047   0.408   0.953   5.450  0.3302  0.2883 -0.2092
 8196SOL    HW236048   0.443   1.050   5.547  0.2070 -0.5664  1.1239
 8197SOL     OW36049   4.539   0.341   1.398 -0.2459 -0.2293  0.4620
 8197SOL    HW136050   4.619   0.382   1.431  0.4460 -1.9014  0.8384
 8197SOL    HW236051   4.475   0.413   1.400  1.4680  1.2698  1.8323
 8198SOL     OW36052   4.535   3.829   5.655 -0.3605 -0.3068 -0.4123
 8198SOL    HW136053   4.479   3.904   5.640 -1.2748 -0.8132  0.4652
 8198SOL    HW236054   4.476   3.755   5.670  0.4141 -1.0250 -0.8887
 8199SOL     OW36055   1.083   3.038   4.060  0.1804 -0.1899 -0.3432
 8199SOL    HW136056   1.123   3.081   4.136  1.7328 -1.5361 -0.3820
 8199SOL    HW236057   1.061   2.959   4.110 -0.8333  0.1440 -0.2670
 8200SOL     OW36058   2.096   4.301   6.549 -0.7816 -0.0143 -0.9209
 8200SOL    HW136059   2.061   4.215   6.574  0.3226  0.9449  3.9054
 8200SOL    HW236060   2.130   4.286   6.461 -0.9995 -1.0452 -0.8373
 8201SOL     OW36061   3.669   2.382   1.832  0.5323  0.2273  0.1660
 8201SOL    HW136062   3.764   2.368   1.832  0.3298 -1.1839  0.6240
 8201SOL    HW236063   3.627   2.308   1.788  1.2347 -0.0549 -0.0457
 8202SOL     OW36064   2.014   4.174   3.325  0.3119 -0.1953  1.1528
 8202SOL    HW136065   2.094   4.204   3.369 -0.6535  2.1910  1.2599
 8202SOL    HW236066   2.021   4.219   3.241  0.0607 -1.3251  0.5250
 8203SOL     OW36067   2.192   1.435  13.953 -0.2683  0.2409  0.7375
 8203SOL    HW136068   2.116   1.484  13.922 -1.0852 -1.2105  0.4084
 8203SOL    HW236069   2.165   1.409  14.041  2.5206  1.5423  1.9768
 8204SOL     OW36070   1.701   4.050   6.631 -0.2874  0.0979  0.1296
 8204SOL    HW136071   1.670   3.964   6.604  1.8283 -0.2335 -1.2435
 8204SOL    HW236072   1.793   4.049   6.606  0.0802 -3.1212  1.6364
 8205SOL     OW36073   0.849   3.877   2.333  0.3658 -0.6698  0.6906
 8205SOL    HW136074   0.768   3.828   2.320 -0.3626  0.9922 -1.0183
 8205SOL    HW236075   0.877   3.876   2.241 -1.6037 -0.5886  0.0997
 8206SOL     OW36076   4.148   2.579  10.539 -0.2933 -0.1616 -0.0490
 8206SOL    HW136077   4.231   2.536  10.558 -0.6277 -0.6944  0.2124
 8206SOL    HW236078   4.132   2.640  10.611  2.0544 -1.3253  1.4247
 8207SOL     OW36079   0.761   0.119   5.143  0.3966  0.0575  0.0260
 8207SOL    HW136080   0.780   0.212   5.155  1.4243 -0.0619 -0.6982
 8207SOL    HW236081   0.732   0.111   5.052  2.9727 -0.6102 -0.7365
 8208SOL     OW36082   0.515   3.495   4.967 -0.5033 -0.8087  0.0319
 8208SOL    HW136083   0.536   3.557   5.037  0.6223 -0.2791 -0.7721
 8208SOL    HW236084   0.433   3.530   4.931 -0.4710  1.1523  1.8607
 8209SOL     OW36085   0.603   3.039   4.754  0.0866 -0.4397 -0.0918
 8209SOL    HW136086   0.590   2.964   4.696  2.2760 -2.4511  2.0377
 8209SOL    HW236087   0.663   3.090   4.699 -1.1651  0.9190 -0.2090
 8210SOL     OW36088   1.967   1.331   8.463  0.3595 -0.2096 -0.0852
 8210SOL    HW136089   2.015   1.250   8.479 -1.8794 -1.5000  0.0787
 8210SOL    HW236090   2.021   1.405   8.490 -2.6497  2.2914 -0.9036
 8211SOL     OW36091   4.522   1.568   5.212  0.0443  0.1661 -0.0294
 8211SOL    HW136092   4.567   1.575   5.128  1.6696  1.1219  0.9238
 8211SOL    HW236093   4.589   1.592   5.277 -0.1164  1.8710 -0.5092
 8212SOL     OW36094   0.829   1.542   5.012  0.1872  0.4477 -0.4313
 8212SOL    HW136095   0.846   1.591   4.931  0.4288 -0.6752 -1.0560
 8212SOL    HW236096   0.734   1.553   5.011 -0.1457 -2.5244  1.3081
 8213SOL     OW36097   4.182   2.263   5.274  0.5152  0.3024 -0.0275
 8213SOL    HW136098   4.135   2.185   5.303  0.1953  0.3417 -0.4372
 8213SOL    HW236099   4.130   2.325   5.324  0.2193  0.4678 -0.5408
 8214SOL     OW36100   3.455   2.398   5.409 -0.0931 -0.3037 -0.3916
 8214SOL    HW136101   3.526   2.335   5.394  0.8644  0.8577 -0.6589
 8214SOL    HW236102   3.456   2.412   5.504 -0.2555 -0.5453 -0.3536
 8215SOL     OW36103   2.617   3.063   8.733  0.4826 -0.2491 -0.5538
 8215SOL    HW136104   2.699   3.051   8.781 -0.7657  2.1596  2.1852
 8215SOL    HW236105   2.632   3.026   8.646 -0.7754 -3.2278  0.5343
 8216SOL     OW36106   4.065   0.439   5.075  0.3147  0.2833 -0.4056
 8216SOL    HW136107   4.110   0.403   4.999  2.2366  1.3409  0.2284
 8216SOL    HW236108   4.132   0.458   5.140  0.0309 -2.1655  0.5825
 8217SOL     OW36109   2.144   1.464   6.849 -0.0265  0.1391 -0.3648
 8217SOL    HW136110   2.148   1.554   6.815 -0.9875  1.2565  2.4836
 8217SOL    HW236111   2.099   1.481   6.932  1.0545 -0.3994  0.3431
 8218SOL     OW36112   0.695   0.711   0.533 -0.4288 -0.6318  0.4863
 8218SOL    HW136113   0.689   0.622   0.569 -3.3705 -0.4323  0.5457
 8218SOL    HW236114   0.749   0.698   0.455  0.1343 -0.3077  0.8282
 8219SOL     OW36115   0.251   4.229   1.899 -0.2170 -0.1171  0.2794
 8219SOL    HW136116   0.229   4.285   1.974 -0.1286  0.2248  0.0466
 8219SOL    HW236117   0.303   4.171   1.955 -0.7838  0.2654  1.2147
 8220SOL     OW36118   4.352   3.887   0.990  0.0162 -0.5930 -0.0589
 8220SOL    HW136119   4.266   3.931   0.994 -0.0317 -0.6645 -0.2569
 8220SOL    HW236120   4.329   3.795   0.999  1.0926 -1.0757 -2.3134
 8221SOL     OW36121   2.221   0.032   5.548  0.0999 -0.4013  0.1801
 8221SOL    HW136122   2.126   0.031   5.556  0.0084 -0.5642 -0.9309
 8221SOL    HW236123   2.234   4.701   5.472  0.0021  0.0793 -0.1983
 8222SOL     OW36124   0.065   4.423   3.134  0.4965  0.0866  0.3575
 8222SOL    HW136125   0.109   4.376   3.063  0.1876 -0.7716  0.7378
 8222SOL    HW236126   4.703   4.397   3.106  0.2614  1.8761 -0.5832
 8223SOL     OW36127   4.460   0.548   9.905  0.0254 -0.2844  0.1415
 8223SOL    HW136128   4.408   0.481   9.950 -1.1625  1.2994  1.1042
 8223SOL    HW236129   4.420   0.548   9.818  0.1704  0.4383  0.0793
 8224SOL     OW36130   1.523   1.476   1.940  0.3527 -0.8473  0.2233
 8224SOL    HW136131   1.606   1.429   1.929 -0.6696 -2.0955 -2.3008
 8224SOL    HW236132   1.451   1.417   1.964  0.2560 -1.1425 -0.7784
 8225SOL     OW36133   2.816   2.040   3.223  0.3710 -0.3743 -0.9252
 8225SOL    HW136134   2.790   2.088   3.144  0.6129  0.9290 -0.2058
 8225SOL    HW236135   2.747   1.977   3.242  2.4435 -2.1804  0.6307
 8226SOL     OW36136   2.750   0.223   8.516  0.0817 -0.1040  0.0457
 8226SOL    HW136137   2.835   0.234   8.473  0.1045  2.7951  0.9010
 8226SOL    HW236138   2.702   0.183   8.443 -3.0231  1.7464  1.0695
 8227SOL     OW36139   4.318   3.475  16.628 -0.2480  0.5545  0.2535
 8227SOL    HW136140   4.379   3.547  16.644 -2.0662  1.7204  1.9530
 8227SOL    HW236141   4.276   3.484  16.542  0.5164 -1.4129 -0.3217
 8228SOL     OW36142   3.256   4.478  11.410 -0.0843 -0.2885 -0.2950
 8228SOL    HW136143   3.241   4.396  11.363  0.0379 -0.9632  0.8475
 8228SOL    HW236144   3.177   4.487  11.463 -0.1356 -0.7426 -0.2968
 8229SOL     OW36145   0.437   4.509   7.707 -0.5344 -0.7438  0.1808
 8229SOL    HW136146   0.438   4.413   7.695  2.0845 -0.4266 -2.1707
 8229SOL    HW236147   0.480   4.526   7.790 -1.0877 -0.3749  0.3942
 8230SOL     OW36148   3.392   0.910   5.847  0.3700 -0.0362 -0.3531
 8230SOL    HW136149   3.391   0.833   5.791 -0.0449  0.1344 -0.5870
 8230SOL    HW236150   3.320   0.892   5.907  0.3335 -0.4999 -0.5396
 8231SOL     OW36151   0.370   3.557  12.459 -0.4079  0.2526  0.0646
 8231SOL    HW136152   0.341   3.634  12.509 -0.5299 -0.4416  1.0506
 8231SOL    HW236153   0.331   3.490  12.514  0.3888 -0.7886 -0.6425
 8232SOL     OW36154   0.691   4.718   8.213 -0.6923 -0.6906  0.0822
 8232SOL    HW136155   0.712   4.625   8.205  0.7814 -0.3956  0.5938
 8232SOL    HW236156   0.734   0.007   8.297  0.6427 -0.3911 -0.6494
 8233SOL     OW36157   3.552   1.620   3.578  0.2740 -0.2195  0.5339
 8233SOL    HW136158   3.483   1.560   3.548 -0.7905  2.9799 -3.5181
 8233SOL    HW236159   3.605   1.627   3.499 -0.2029  2.0851  0.4207
 8234SOL     OW36160   3.201   2.943   8.335 -1.0489 -0.3011 -0.2194
 8234SOL    HW136161   3.275   2.955   8.394 -0.8199 -1.9116 -0.1733
 8234SOL    HW236162   3.210   3.009   8.266  1.1196 -0.3651 -0.0005
 8235SOL     OW36163   2.168   3.506  16.056 -0.1318 -0.2697  0.4817
 8235SOL    HW136164   2.212   3.456  16.125  1.3247  0.8578  0.3666
 8235SOL    HW236165   2.242   3.528  16.000 -0.0155 -1.4400  0.1920
 8236SOL     OW36166   2.456   0.899   5.110  0.4593  0.7104  0.6494
 8236SOL    HW136167   2.416   0.976   5.070 -2.1818 -1.1738 -0.3580
 8236SOL    HW236168   2.427   0.916   5.200  1.0985 -0.6367  1.1051
 8237SOL     OW36169   4.339   1.902   7.751  0.0595 -0.1303 -0.2519
 8237SOL    HW136170   4.274   1.972   7.760  0.2013 -0.0473  0.1549
 8237SOL    HW236171   4.338   1.901   7.656 -0.5671 -1.7162 -0.2412
 8238SOL     OW36172   1.435   2.522  12.682 -0.0880 -0.4348  0.4082
 8238SOL    HW136173   1.422   2.436  12.721  2.0649 -0.0657  1.9562
 8238SOL    HW236174   1.503   2.515  12.615 -1.6379  1.0817 -1.3108
 8239SOL     OW36175   1.992   2.886   7.436 -0.1796 -0.1951  0.1500
 8239SOL    HW136176   2.064   2.941   7.465 -0.3308 -0.3499  0.8053
 8239SOL    HW236177   1.958   2.938   7.363 -0.3994  0.0070  0.3986
 8240SOL     OW36178   2.744   0.898   7.159 -0.2195 -0.0043  0.5303
 8240SOL    HW136179   2.662   0.911   7.112 -0.3078 -2.1558  0.0958
 8240SOL    HW236180   2.756   0.804   7.143 -2.5912 -0.3671  0.8707
 8241SOL     OW36181   2.060   1.406   9.257  0.6006  0.3336  0.2262
 8241SOL    HW136182   1.997   1.340   9.230  1.6853  0.2026 -1.9547
 8241SOL    HW236183   2.103   1.424   9.174 -0.1393 -0.8829 -0.4306
 8242SOL     OW36184   1.402   1.138   5.712  0.0082  0.4930 -0.9370
 8242SOL    HW136185   1.417   1.182   5.796  0.4247 -0.3897 -0.5489
 8242SOL    HW236186   1.471   1.072   5.706 -0.1624  0.3558 -1.3685
 8243SOL     OW36187   3.108   1.582   2.935  0.4840  0.1960 -0.3455
 8243SOL    HW136188   3.167   1.629   2.877 -0.9014 -1.3125 -2.9836
 8243SOL    HW236189   3.154   1.582   3.019  1.3281 -0.6554 -0.8134
 8244SOL     OW36190   3.150   3.359   9.008 -0.4683 -0.5840  0.0783
 8244SOL    HW136191   3.228   3.306   8.991 -0.7022 -0.6384 -0.8122
 8244SOL    HW236192   3.149   3.427   8.940 -1.0745  0.1979  0.8670
 8245SOL     OW36193   4.262   4.647   8.934  0.0155 -0.8131 -0.3924
 8245SOL    HW136194   4.209   4.708   8.883 -1.3644 -1.6204  0.0592
 8245SOL    HW236195   4.194   4.606   8.988  2.1354 -2.2826  1.1640
 8246SOL     OW36196   2.546   3.644   3.348 -0.0023  0.2307  0.0565
 8246SOL    HW136197   2.541   3.550   3.361 -0.1500  0.2212 -0.0610
 8246SOL    HW236198   2.591   3.669   3.428  0.4529  0.4024 -0.2548
 8247SOL     OW36199   1.953   1.279  12.200 -0.8308 -0.2895 -0.7115
 8247SOL    HW136200   2.040   1.310  12.224 -1.6014 -0.0115  1.7434
 8247SOL    HW236201   1.905   1.318  12.274 -2.4564  0.3565 -2.0978
 8248SOL     OW36202   2.555   2.935   8.969  0.0002  0.8115  0.1189
 8248SOL    HW136203   2.469   2.924   9.011 -1.6638  3.0819 -2.7384
 8248SOL    HW236204   2.535   2.939   8.876  1.3675  0.1648 -0.1934
 8249SOL     OW36205   1.179   2.413  10.920 -0.7687 -0.0300 -0.3791
 8249SOL    HW136206   1.091   2.395  10.888 -1.1572  1.3549 -0.1130
 8249SOL    HW236207   1.159   2.502  10.950  0.5041  0.0626  0.2064
 8250SOL     OW36208   4.412   2.387  13.215 -0.6020  0.8862  0.2006
 8250SOL    HW136209   4.375   2.306  13.249 -2.0821  1.0589 -0.9709
 8250SOL    HW236210   4.367   2.385  13.130  0.3335  1.0920 -0.3101
 8251SOL     OW36211   0.994   4.562   7.930  0.7280  0.3863  0.3961
 8251SOL    HW136212   1.012   4.593   7.841  1.0509 -0.7373  0.0625
 8251SOL    HW236213   0.906   4.596   7.947  0.7564  0.6068  0.1068
 8252SOL     OW36214   2.998   0.628   7.188 -0.1192  0.2818 -0.3187
 8252SOL    HW136215   2.989   0.600   7.279  0.9125  0.2428 -0.2344
 8252SOL    HW236216   3.065   0.696   7.194  1.3504 -0.9584 -2.8362
 8253SOL     OW36217   3.468   2.231   4.707 -0.4292 -0.3690  0.7516
 8253SOL    HW136218   3.532   2.234   4.778 -0.2952  4.7291  0.4031
 8253SOL    HW236219   3.470   2.137   4.688 -0.4749 -0.1520 -0.3122
 8254SOL     OW36220   4.093   1.098   5.737  0.2819  0.9516 -0.2140
 8254SOL    HW136221   4.132   1.025   5.690  0.8857  1.0485  0.1404
 8254SOL    HW236222   4.031   1.134   5.673 -0.7768 -0.9505 -0.2636
 8255SOL     OW36223   1.395   4.462  11.584 -0.1621  0.1008  0.3265
 8255SOL    HW136224   1.398   4.421  11.670 -0.9773  0.6771  0.6257
 8255SOL    HW236225   1.308   4.500  11.589  1.3511  3.5727  0.4138
 8256SOL     OW36226   1.089   1.006   3.199  0.5254 -0.1788 -0.4395
 8256SOL    HW136227   1.124   0.984   3.113  1.9936 -1.2812  0.4373
 8256SOL    HW236228   1.059   1.094   3.176  0.3548 -1.1021 -3.7526
 8257SOL     OW36229   2.431   0.553   2.553  0.8612  0.1316 -0.4399
 8257SOL    HW136230   2.488   0.600   2.493  0.3443  0.3608 -0.7497
 8257SOL    HW236231   2.483   0.475   2.574 -2.9164 -1.9262  1.4255
 8258SOL     OW36232   4.241   4.663   7.249 -0.2483 -0.0219  0.3695
 8258SOL    HW136233   4.252   0.030   7.227 -1.5974  0.0031 -0.1674
 8258SOL    HW236234   4.266   4.657   7.341 -1.4017 -0.7208  0.6265
 8259SOL     OW36235   3.498   0.371  16.460 -0.2035  0.3636  0.2041
 8259SOL    HW136236   3.536   0.438  16.517 -0.1529 -0.2048  0.8331
 8259SOL    HW236237   3.405   0.380  16.482 -0.5379  1.0160 -1.4491
 8260SOL     OW36238   0.455   0.923  17.647 -0.1356  0.2537  0.3823
 8260SOL    HW136239   0.449   0.945  17.554 -0.7290  0.2456  0.4198
 8260SOL    HW236240   0.459   1.008  17.690 -0.8442  1.2044 -1.4299
 8261SOL     OW36241   4.683   4.233   5.329  0.2864  0.1345 -0.0113
 8261SOL    HW136242   4.607   4.186   5.365  0.3939 -0.6595 -0.8263
 8261SOL    HW236243   0.009   4.241   5.409 -0.9352  0.9915  0.6996
 8262SOL     OW36244   0.152   4.494   8.417  0.0234 -0.0775  0.0210
 8262SOL    HW136245   0.184   4.575   8.377 -2.1885  0.6420 -0.2875
 8262SOL    HW236246   0.057   4.505   8.419 -0.0243 -0.7822  1.3774
 8263SOL     OW36247   3.136   3.831   1.780 -0.4512 -0.1771  0.9341
 8263SOL    HW136248   3.217   3.878   1.763 -1.8191  1.8971  0.1192
 8263SOL    HW236249   3.067   3.894   1.800 -0.0369  0.2300  1.0542
 8264SOL     OW36250   0.824   3.914   8.422 -0.1655  0.4853 -0.5894
 8264SOL    HW136251   0.876   3.870   8.488 -1.9205  0.6149  0.8793
 8264SOL    HW236252   0.890   3.934   8.355  0.4821  0.1401 -0.0497
 8265SOL     OW36253   1.524   2.483   8.747 -0.5847 -0.0437 -0.7106
 8265SOL    HW136254   1.500   2.447   8.662 -0.1535  2.7440 -2.0017
 8265SOL    HW236255   1.576   2.557   8.716 -1.4176  1.6130  1.8124
 8266SOL     OW36256   2.066   2.042   4.938 -0.6745  0.1413  0.3917
 8266SOL    HW136257   2.011   2.082   5.006  0.5870  1.1718  0.8049
 8266SOL    HW236258   2.069   2.104   4.864 -1.9122  1.0347  1.0782
 8267SOL     OW36259   1.123   4.334  13.916 -0.1745 -0.0182 -0.1100
 8267SOL    HW136260   1.053   4.304  13.858  0.5601 -0.3508 -0.8282
 8267SOL    HW236261   1.198   4.349  13.858 -0.2015 -1.2943 -0.4774
 8268SOL     OW36262   3.332   1.307  15.579 -0.7499 -0.1895  0.0837
 8268SOL    HW136263   3.327   1.346  15.666  0.3660  0.0594  0.0234
 8268SOL    HW236264   3.239   1.302  15.554 -0.7206  3.2653 -0.7816
 8269SOL     OW36265   0.999   4.452   1.288 -0.6320  0.1286 -0.1325
 8269SOL    HW136266   0.961   4.369   1.318 -1.6146  0.1969 -1.1873
 8269SOL    HW236267   1.087   4.442   1.325 -0.8137  0.4977  0.3954
 8270SOL     OW36268   1.597   2.676   9.381 -0.2155  0.2229  0.0506
 8270SOL    HW136269   1.518   2.684   9.328  1.6763  0.3276 -2.7447
 8270SOL    HW236270   1.650   2.616   9.329 -2.8733 -1.4094 -0.7897
 8271SOL     OW36271   4.648   4.222  16.557  0.4061 -0.0410  0.6212
 8271SOL    HW136272   4.576   4.159  16.571  0.7541 -0.3330  1.0859
 8271SOL    HW236273   4.716   4.185  16.613  0.9165 -0.6112 -0.3849
 8272SOL     OW36274   3.130   3.047   1.186  0.2986  0.3130  0.1749
 8272SOL    HW136275   3.064   2.977   1.191  1.6900 -1.0143 -0.1222
 8272SOL    HW236276   3.207   3.002   1.221  0.0136 -0.4522 -0.1747
 8273SOL     OW36277   2.922   0.118   5.906 -0.7984 -0.1707  0.0642
 8273SOL    HW136278   2.952   0.046   5.851 -1.2818  0.6498 -1.2891
 8273SOL    HW236279   2.887   0.073   5.983  1.4983  0.2077  1.3166
 8274SOL     OW36280   4.417   3.391  16.018  0.6478  0.4171 -0.1398
 8274SOL    HW136281   4.482   3.419  15.954  0.0836  1.1306 -0.3977
 8274SOL    HW236282   4.424   3.469  16.074 -2.0717  1.4119 -1.1926
 8275SOL     OW36283   0.569   1.637   4.517 -0.3535  0.1079 -0.2863
 8275SOL    HW136284   0.537   1.697   4.450 -0.7070 -0.5682 -0.7235
 8275SOL    HW236285   0.506   1.653   4.587 -0.4000  0.1960 -0.3482
 8276SOL     OW36286   2.794   3.506   3.333 -0.4715  0.3236 -0.7141
 8276SOL    HW136287   2.856   3.474   3.399 -0.7673 -0.2160 -0.6994
 8276SOL    HW236288   2.726   3.440   3.332  0.8014 -0.9956  1.7799
 8277SOL     OW36289   0.397   0.320   8.510 -0.4094 -0.2956 -0.0154
 8277SOL    HW136290   0.391   0.405   8.467 -0.3327 -1.1202 -1.6645
 8277SOL    HW236291   0.430   0.345   8.597  0.5158 -2.6319  0.3296
 8278SOL     OW36292   3.226   3.456   3.628 -0.5358 -0.0472 -0.2791
 8278SOL    HW136293   3.300   3.395   3.630  2.2325  3.3669  0.5874
 8278SOL    HW236294   3.253   3.513   3.699 -0.0351 -1.2299  0.4710
 8279SOL     OW36295   0.808   2.310   6.027 -0.2454 -0.4834  0.0628
 8279SOL    HW136296   0.852   2.379   6.077  0.0185  1.1113 -2.3916
 8279SOL    HW236297   0.779   2.256   6.101 -1.6267 -0.7434 -0.6732
 8280SOL     OW36298   2.531   0.082   6.607 -0.2587  0.3705  0.4009
 8280SOL    HW136299   2.554   0.044   6.692  0.9671 -0.7970 -0.4471
 8280SOL    HW236300   2.572   0.012   6.556  1.4114  2.2410 -0.8277
 8281SOL     OW36301   3.091   1.130   9.051  0.8382  0.3363 -0.1304
 8281SOL    HW136302   3.063   1.159   8.965  2.7811  0.6999 -0.6530
 8281SOL    HW236303   3.011   1.153   9.098 -0.9904 -0.7842 -2.6851
 8282SOL     OW36304   1.097   0.321   4.186 -0.0737 -0.1008 -0.4432
 8282SOL    HW136305   1.175   0.310   4.240 -0.8805 -0.1291  0.7071
 8282SOL    HW236306   1.135   0.350   4.103  0.0934 -1.3138 -0.7877
 8283SOL     OW36307   3.169   2.758   5.584  0.3914  0.3692  0.6175
 8283SOL    HW136308   3.198   2.795   5.501  3.8089  0.3759  1.8392
 8283SOL    HW236309   3.254   2.724   5.611  0.7472 -2.2564 -3.7713
 8284SOL     OW36310   3.296   0.063  11.573  0.4302  0.6615  0.2665
 8284SOL    HW136311   3.362   0.000  11.545 -1.0742 -1.4221  1.3903
 8284SOL    HW236312   3.211   0.022  11.559  0.5534  0.1035  1.1590
 8285SOL     OW36313   3.477   4.652   3.674  0.5034 -0.3701 -0.1262
 8285SOL    HW136314   3.561   4.645   3.630 -0.6027 -2.6534 -1.8708
 8285SOL    HW236315   3.472   0.020   3.693  0.4169 -0.6481  1.2616
 8286SOL     OW36316   2.884   1.312  12.485  0.6280 -0.1357 -0.5086
 8286SOL    HW136317   2.959   1.362  12.516 -0.2470  0.9875 -0.2115
 8286SOL    HW236318   2.819   1.379  12.464  1.2373  0.3176 -0.9356
 8287SOL     OW36319   2.622   2.515  15.786  0.3846 -0.1559 -0.0433
 8287SOL    HW136320   2.590   2.595  15.827  0.7621 -0.4001  0.7459
 8287SOL    HW236321   2.664   2.568  15.719 -0.8097 -0.9178 -1.3936
 8288SOL     OW36322   2.499   1.436   6.737  0.1963  0.7435 -0.1814
 8288SOL    HW136323   2.505   1.361   6.678  0.0284  1.5624 -1.2492
 8288SOL    HW236324   2.432   1.494   6.701 -0.0955  0.0177 -0.8081
 8289SOL     OW36325   2.567   3.242  17.108  0.0070 -0.5252  0.5467
 8289SOL    HW136326   2.564   3.331  17.145 -1.4825 -0.3814  0.0879
 8289SOL    HW236327   2.634   3.201  17.162  0.4763  0.3007  0.5957
 8290SOL     OW36328   2.045   0.875   2.720  0.1945 -0.6157  0.0992
 8290SOL    HW136329   2.101   0.799   2.705  0.3977 -0.2462 -1.0745
 8290SOL    HW236330   1.962   0.851   2.679  0.1406  0.7889 -0.6328
 8291SOL     OW36331   1.775   3.775  13.423  0.6455 -0.1965  0.6644
 8291SOL    HW136332   1.851   3.762  13.480  0.1871  0.0008  1.3273
 8291SOL    HW236333   1.814   3.827  13.353 -0.7501  1.3773  1.0444
 8292SOL     OW36334   3.360   1.564   1.558  0.0237 -0.0023  0.2295
 8292SOL    HW136335   3.425   1.516   1.609 -0.3170 -2.6059 -1.8236
 8292SOL    HW236336   3.334   1.637   1.615  1.3815 -0.1652  1.0567
 8293SOL     OW36337   1.622   3.786  10.746  0.4107 -0.5490 -0.0919
 8293SOL    HW136338   1.652   3.876  10.751  1.2589 -0.8617  0.3425
 8293SOL    HW236339   1.532   3.790  10.780  2.1024  3.3668  3.8768
 8294SOL     OW36340   1.228   3.399   0.368 -0.3591  0.7056 -0.0695
 8294SOL    HW136341   1.192   3.343   0.436  1.1019  0.4283  0.4679
 8294SOL    HW236342   1.144   3.440   0.349 -0.7816 -0.0677  0.1438
 8295SOL     OW36343   1.135   2.325   7.718  0.5593 -0.5685 -0.2670
 8295SOL    HW136344   1.215   2.276   7.736  0.0907 -1.6280 -1.0976
 8295SOL    HW236345   1.131   2.319   7.622 -2.2814 -0.6178 -0.1514
 8296SOL     OW36346   3.064   0.442   6.235  0.2660  0.4725 -0.2297
 8296SOL    HW136347   3.036   0.509   6.172  0.3862 -0.2199 -1.0150
 8296SOL    HW236348   3.050   0.497   6.312 -2.0501  1.0604 -1.0735
 8297SOL     OW36349   3.980   4.373   7.876  0.0200  0.1080  0.3519
 8297SOL    HW136350   3.968   4.355   7.969  2.1131 -1.0188  0.3984
 8297SOL    HW236351   3.996   4.288   7.835  0.5036  0.5662 -0.4137
 8298SOL     OW36352   0.591   2.415   9.362  0.2590 -0.6775 -0.2230
 8298SOL    HW136353   0.641   2.397   9.442 -0.5825  0.0419  0.4569
 8298SOL    HW236354   0.511   2.376   9.398  0.4084 -0.6590  0.1288
 8299SOL     OW36355   3.686   4.148   5.871  0.5044  0.5402 -0.3019
 8299SOL    HW136356   3.726   4.191   5.796  1.3736  0.8270  0.3244
 8299SOL    HW236357   3.591   4.150   5.856  0.4088  1.8084  0.4566
 8300SOL     OW36358   2.352   4.574  13.685 -0.5993 -0.3603  0.3957
 8300SOL    HW136359   2.342   4.598  13.777 -1.6048  1.3040 -0.1534
 8300SOL    HW236360   2.404   4.493  13.688 -0.7845 -0.5085 -0.3390
 8301SOL     OW36361   0.717   0.291   7.069 -0.0297 -0.0307  0.0660
 8301SOL    HW136362   0.642   0.286   7.128 -0.8977  0.2906 -1.0281
 8301SOL    HW236363   0.694   0.367   7.017 -1.6559 -0.4628  0.1493
 8302SOL     OW36364   1.317   3.697   7.647  0.2149 -0.4871  0.2299
 8302SOL    HW136365   1.273   3.612   7.650 -0.4854 -0.1703 -0.8202
 8302SOL    HW236366   1.266   3.740   7.715 -0.3670 -0.5771 -0.1477
 8303SOL     OW36367   1.791   2.167  11.171  0.0184  0.0453 -0.3883
 8303SOL    HW136368   1.804   2.167  11.266  1.5667 -0.6216 -0.5991
 8303SOL    HW236369   1.867   2.118  11.141 -0.5674 -1.0723 -0.0553
 8304SOL     OW36370   3.291   2.769   4.182  0.0628  0.1380 -0.0101
 8304SOL    HW136371   3.296   2.690   4.235  0.0954 -0.2705 -0.6263
 8304SOL    HW236372   3.383   2.796   4.175 -0.6064  2.4749  0.2718
 8305SOL     OW36373   4.389   1.963   2.591  0.2013  0.5759  0.3605
 8305SOL    HW136374   4.368   2.045   2.547  0.8618 -0.2198 -1.4428
 8305SOL    HW236375   4.450   1.992   2.659 -0.6480  3.0291  0.0827
 8306SOL     OW36376   3.084   1.949   1.150 -0.3987 -0.6837 -0.5877
 8306SOL    HW136377   2.991   1.957   1.173 -0.4658 -2.3542 -0.3157
 8306SOL    HW236378   3.124   1.968   1.234 -1.3530  1.0768 -0.5293
 8307SOL     OW36379   0.351   4.724   3.731 -0.2372  0.4881 -0.0612
 8307SOL    HW136380   0.366   4.689   3.819  1.0506  1.5069  0.1343
 8307SOL    HW236381   0.442   0.003   3.700  0.1016  0.0343  0.8756
 8308SOL     OW36382   0.728   0.836  12.812  0.8105  0.5594  0.0354
 8308SOL    HW136383   0.732   0.795  12.726  1.4218  1.4203 -0.3493
 8308SOL    HW236384   0.636   0.812  12.822  1.1002 -0.3867  0.4280
 8309SOL     OW36385   2.719   1.056   2.192  0.0915 -0.7857 -0.6634
 8309SOL    HW136386   2.773   1.096   2.124 -1.8791  1.1876 -1.0560
 8309SOL    HW236387   2.633   1.049   2.150 -1.4030  0.0810  2.2116
 8310SOL     OW36388   4.410   4.001   8.257 -0.4012 -0.1137 -1.0090
 8310SOL    HW136389   4.492   4.050   8.262 -1.2905  1.1529  1.0865
 8310SOL    HW236390   4.442   3.932   8.315 -0.5760  1.5762  1.0726
 8311SOL     OW36391   0.302   2.719  16.854 -0.1292  0.1846  0.2100
 8311SOL    HW136392   0.269   2.779  16.921  0.9181 -0.0766  0.9543
 8311SOL    HW236393   0.332   2.645  16.906  0.1968  0.7012  0.7547
 8312SOL     OW36394   0.027   2.759   9.992  0.1783  0.2102  0.1382
 8312SOL    HW136395   4.693   2.745   9.918  1.7649  0.5366 -1.2098
 8312SOL    HW236396   0.116   2.739   9.963  0.2072  0.7325 -0.1316
 8313SOL     OW36397   2.875   1.036   3.365  0.4995 -0.4844  0.7487
 8313SOL    HW136398   2.947   0.995   3.318  0.7403 -0.0150  0.7166
 8313SOL    HW236399   2.886   1.128   3.341 -0.6735 -0.1722  1.4081
 8314SOL     OW36400   4.324   0.081   4.689 -0.2965  0.2506 -0.6660
 8314SOL    HW136401   4.392   0.140   4.656  1.0871  0.1623  1.9845
 8314SOL    HW236402   4.368   0.044   4.766 -1.4326  0.0434 -0.1214
 8315SOL     OW36403   0.580   0.128  15.327  0.4464 -0.2051 -0.1738
 8315SOL    HW136404   0.674   0.138  15.341  0.0991  2.4026  0.1950
 8315SOL    HW236405   0.558   0.039  15.357  2.3072 -0.1100  1.4567
 8316SOL     OW36406   3.920   3.564   9.357  0.6831  0.4404  0.1219
 8316SOL    HW136407   3.947   3.594   9.271 -0.4714 -0.7860 -0.6777
 8316SOL    HW236408   3.910   3.470   9.340  1.1816  0.3928  0.0919
 8317SOL     OW36409   0.619   0.523   6.976 -0.1522  0.5885 -0.6012
 8317SOL    HW136410   0.600   0.546   7.067 -1.3363  1.7621 -1.1422
 8317SOL    HW236411   0.636   0.610   6.940 -0.5465  0.5978 -0.7658
 8318SOL     OW36412   0.440   3.152  12.077 -0.5691 -0.1424  0.6264
 8318SOL    HW136413   0.525   3.197  12.067 -1.7635  1.5214 -2.2122
 8318SOL    HW236414   0.416   3.175  12.166  1.7084  1.8845  0.7426
 8319SOL     OW36415   2.241   2.537   8.405  0.7517 -0.4092 -0.1480
 8319SOL    HW136416   2.286   2.454   8.420 -1.0605 -1.1911  0.8937
 8319SOL    HW236417   2.199   2.557   8.488  3.0187 -1.5516  1.2890
 8320SOL     OW36418   0.015   2.055   4.140  0.5341 -0.1180 -0.4132
 8320SOL    HW136419   0.007   2.149   4.156 -1.3084 -0.2265 -0.6950
 8320SOL    HW236420   0.105   2.033   4.164  0.1360 -1.4473 -0.1581
 8321SOL     OW36421   2.099   2.394   3.898 -0.3315 -0.6368 -0.1820
 8321SOL    HW136422   2.053   2.475   3.877 -1.2841 -1.2759 -0.5401
 8321SOL    HW236423   2.102   2.396   3.994 -0.2752  2.9971 -0.2613
 8322SOL     OW36424   1.087   1.059  10.557  0.2158 -0.1856  0.0542
 8322SOL    HW136425   1.143   1.001  10.609  1.2299  1.3312  0.6482
 8322SOL    HW236426   1.101   1.147  10.590 -0.8928 -0.2154  0.6065
 8323SOL     OW36427   4.557   1.271  11.771 -0.1323  0.5833  0.1520
 8323SOL    HW136428   4.623   1.338  11.754  1.1312 -0.5695  0.4619
 8323SOL    HW236429   4.585   1.208  11.705  0.0436  0.1095  0.6799
 8324SOL     OW36430   4.142   4.325   6.066 -0.0011 -0.3745  0.3139
 8324SOL    HW136431   4.056   4.319   6.110 -0.3158 -0.8239 -0.3696
 8324SOL    HW236432   4.116   4.313   5.975 -1.9831  0.0692  0.8085
 8325SOL     OW36433   3.182   3.732   6.690  0.3817 -0.1482 -0.4733
 8325SOL    HW136434   3.214   3.751   6.602  0.3146  0.9634 -0.2528
 8325SOL    HW236435   3.132   3.813   6.699 -1.8389 -1.4595 -0.8467
 8326SOL     OW36436   3.310   4.235   3.094  0.0014  0.1265 -0.5109
 8326SOL    HW136437   3.226   4.259   3.053  0.8882  1.2484 -1.6510
 8326SOL    HW236438   3.278   4.173   3.160  0.3422 -0.1537 -0.6072
 8327SOL     OW36439   2.587   0.450  15.709 -0.2573 -0.0953 -0.6945
 8327SOL    HW136440   2.531   0.424  15.782 -0.2656  1.6719 -0.0653
 8327SOL    HW236441   2.651   0.380  15.700 -1.5033 -1.3814  0.6715
 8328SOL     OW36442   0.489   0.555   4.474 -0.0563 -0.2050 -0.1093
 8328SOL    HW136443   0.433   0.593   4.542  0.2486  0.2642 -0.1232
 8328SOL    HW236444   0.486   0.615   4.400  1.5978  0.0151  0.0135
 8329SOL     OW36445   3.249   0.972  14.679  0.1180 -0.1236 -0.3946
 8329SOL    HW136446   3.182   0.904  14.671 -0.7613  0.5963  1.0771
 8329SOL    HW236447   3.293   0.968  14.594  0.8892  1.6625 -0.0708
 8330SOL     OW36448   0.926   0.768   3.083 -0.1273  0.3924  0.7627
 8330SOL    HW136449   0.939   0.696   3.021 -0.3498  1.9285 -1.0691
 8330SOL    HW236450   1.016   0.800   3.087  0.0491 -0.1731  1.1953
 8331SOL     OW36451   3.517   2.903  10.029  0.4617  0.3909  0.6932
 8331SOL    HW136452   3.593   2.852  10.056  0.1179  1.1589  3.0891
 8331SOL    HW236453   3.472   2.913  10.113 -1.0450 -0.2363 -0.0334
 8332SOL     OW36454   3.701   2.437  13.435 -0.0924 -0.0345 -0.6333
 8332SOL    HW136455   3.706   2.507  13.501 -0.6264  0.7477 -1.4188
 8332SOL    HW236456   3.791   2.409  13.419 -1.4938 -3.3701 -2.4325
 8333SOL     OW36457   2.949   4.644   6.625  0.3870  0.2378  0.5794
 8333SOL    HW136458   2.911   0.003   6.647 -1.6746 -0.7432  0.8237
 8333SOL    HW236459   3.019   4.641   6.691  1.0128 -0.5820 -0.1325
 8334SOL     OW36460   1.062   2.187  10.318 -0.5479  0.0520 -0.6420
 8334SOL    HW136461   1.021   2.109  10.280  0.8063  0.1179 -2.2513
 8334SOL    HW236462   1.078   2.158  10.407 -2.5562  0.3132 -0.1915
 8335SOL     OW36463   0.179   0.339   1.155  0.6577 -0.1996 -0.1893
 8335SOL    HW136464   0.219   0.365   1.073 -0.2839  0.8479 -0.3150
 8335SOL    HW236465   0.245   0.377   1.213 -0.1375  0.1855  0.4593
 8336SOL     OW36466   3.467   4.085   7.032 -0.3441 -0.0747  0.6974
 8336SOL    HW136467   3.523   4.145   7.081 -0.2985 -0.2586  0.8694
 8336SOL    HW236468   3.452   4.145   6.959 -2.4553  2.3783  3.1855
 8337SOL     OW36469   3.185   3.372   3.934  0.5924 -0.9647 -0.2821
 8337SOL    HW136470   3.275   3.404   3.937 -0.5448  2.1661 -0.0312
 8337SOL    HW236471   3.142   3.456   3.944 -1.1009 -1.7661 -0.9203
 8338SOL     OW36472   0.558   0.245   0.619 -0.0906  0.6131  0.0715
 8338SOL    HW136473   0.539   0.228   0.711  1.0623  2.6179  0.6827
 8338SOL    HW236474   0.506   0.322   0.597 -0.1479  0.8927  1.2072
 8339SOL     OW36475   3.593   0.723   3.249 -0.5776  0.3250 -0.5762
 8339SOL    HW136476   3.585   0.637   3.290 -2.6204  0.2530 -1.1304
 8339SOL    HW236477   3.608   0.696   3.158  1.2560  0.6449 -0.3773
 8340SOL     OW36478   2.941   0.640   8.715 -0.2619  0.2299  0.1775
 8340SOL    HW136479   3.034   0.621   8.710 -0.0904  0.8780  0.9484
 8340SOL    HW236480   2.911   0.630   8.625 -3.5506  3.4058  0.9134
 8341SOL     OW36481   4.491   2.336   1.943 -0.4496 -0.2550 -0.2865
 8341SOL    HW136482   4.451   2.387   1.873 -1.1406 -2.4347 -1.4693
 8341SOL    HW236483   4.417   2.346   2.003 -0.3167 -0.7891 -0.0312
 8342SOL     OW36484   4.321   4.349  10.126  0.1597  0.7200  0.0088
 8342SOL    HW136485   4.241   4.341  10.074 -0.0059  1.9329  0.0718
 8342SOL    HW236486   4.321   4.272  10.182  0.4388  0.9294  0.2988
 8343SOL     OW36487   3.741   3.059   3.631  0.7167 -0.7911  0.8297
 8343SOL    HW136488   3.724   3.129   3.567  0.9499 -1.1401  0.3919
 8343SOL    HW236489   3.720   3.109   3.710 -0.4826  0.3329 -0.1841
 8344SOL     OW36490   3.290   1.778   2.828 -0.0321 -0.5909  0.2138
 8344SOL    HW136491   3.343   1.810   2.755 -1.3501 -0.4062 -0.6764
 8344SOL    HW236492   3.227   1.849   2.843  0.4045 -0.4444  1.3408
 8345SOL     OW36493   3.718   0.458   4.359  0.0435  0.1517  0.0946
 8345SOL    HW136494   3.763   0.375   4.347 -0.5888 -0.0889 -0.6414
 8345SOL    HW236495   3.769   0.519   4.305  1.1049 -0.5995  0.2564
 8346SOL     OW36496   3.375   1.304  13.166 -0.1648 -0.4123  0.7051
 8346SOL    HW136497   3.453   1.293  13.221  0.3298  0.1557  0.1235
 8346SOL    HW236498   3.336   1.382  13.207 -2.0805 -0.5180 -0.9391
 8347SOL     OW36499   2.886   2.811   9.937 -0.5457 -0.1996  0.0196
 8347SOL    HW136500   2.931   2.796   9.854  0.0608 -3.6951  0.9777
 8347SOL    HW236501   2.854   2.900   9.925 -0.6268 -0.1649  0.4926
 8348SOL     OW36502   4.036   3.300   2.266  0.1435  0.1354  0.1126
 8348SOL    HW136503   4.113   3.265   2.222 -0.2145  0.6059 -0.8918
 8348SOL    HW236504   3.970   3.266   2.205 -0.0179  1.9431 -0.7016
 8349SOL     OW36505   3.654   3.269   1.374 -0.1088 -0.6526  0.0415
 8349SOL    HW136506   3.660   3.198   1.438  2.0387  0.4790  1.0859
 8349SOL    HW236507   3.596   3.324   1.426 -0.4468  0.2592 -1.3013
 8350SOL     OW36508   0.938   1.954  10.793 -0.3306  0.3086 -0.0032
 8350SOL    HW136509   0.881   2.006  10.851 -0.7113 -1.9628  1.6475
 8350SOL    HW236510   0.944   1.872  10.841 -0.3056  0.4152  0.1766
 8351SOL     OW36511   3.173   4.660  12.751 -0.0206  0.0927  0.5377
 8351SOL    HW136512   3.182   4.709  12.670  2.5096 -1.5269 -0.1535
 8351SOL    HW236513   3.183   0.009  12.810  3.9566 -0.1878  0.2216
 8352SOL     OW36514   0.017   2.065   1.874 -0.0572 -0.2195 -0.0146
 8352SOL    HW136515   4.674   2.056   1.939  1.7917  1.1962  2.1458
 8352SOL    HW236516   0.089   2.103   1.924  0.0600 -1.9027  1.0828
 8353SOL     OW36517   0.820   3.353   5.035 -0.1493 -0.0702 -0.4204
 8353SOL    HW136518   0.729   3.324   5.027 -0.3425  0.5015 -0.2840
 8353SOL    HW236519   0.861   3.269   5.057 -0.7949  0.3159  2.3443
 8354SOL     OW36520   2.666   1.066   5.162  0.0209  0.1491  0.6292
 8354SOL    HW136521   2.594   1.004   5.157 -1.0723  1.5539 -1.0119
 8354SOL    HW236522   2.701   1.063   5.251  0.9613 -0.3349  0.2532
 8355SOL     OW36523   3.038   0.259   2.496 -0.1729  0.0713  0.2659
 8355SOL    HW136524   3.010   0.341   2.538 -0.4567  0.0294  0.1614
 8355SOL    HW236525   3.132   0.275   2.491 -0.2332  0.7854  1.2599
 8356SOL     OW36526   1.214   4.080   3.548  0.1922  0.6292  0.4871
 8356SOL    HW136527   1.142   4.025   3.579 -0.3129 -0.4751 -2.5712
 8356SOL    HW236528   1.285   4.046   3.601  1.2300  1.0027 -0.6533
 8357SOL     OW36529   3.355   0.703   6.144 -0.3177 -0.3478 -0.3187
 8357SOL    HW136530   3.301   0.760   6.089  2.1569 -0.6973 -3.0793
 8357SOL    HW236531   3.386   0.774   6.201 -2.8518 -0.5167  1.3005
 8358SOL     OW36532   4.622   2.942   8.031  0.9507  0.6374  0.3190
 8358SOL    HW136533   4.537   2.965   8.068  1.5483  0.0175  2.0704
 8358SOL    HW236534   4.669   2.909   8.108 -0.3219  1.7157  1.5622
 8359SOL     OW36535   2.724   2.288   5.298  0.7559  0.0942 -0.1387
 8359SOL    HW136536   2.783   2.328   5.234  1.5548  0.4693  0.8381
 8359SOL    HW236537   2.778   2.220   5.338  0.6117  0.6293  0.9729
 8360SOL     OW36538   2.808   2.026   2.302 -0.6599  0.4883  0.2445
 8360SOL    HW136539   2.772   2.113   2.321 -0.3079  1.3838 -3.1258
 8360SOL    HW236540   2.729   1.992   2.259  0.5892 -0.9872 -0.8518
 8361SOL     OW36541   4.048   4.619   6.901  0.1369 -0.1043 -0.2836
 8361SOL    HW136542   3.967   4.670   6.911  0.8421  0.5380  2.0703
 8361SOL    HW236543   4.120   4.676   6.927 -0.8491  1.0528 -0.0805
 8362SOL     OW36544   3.546   4.305   4.547  0.0887  0.3313  0.4171
 8362SOL    HW136545   3.537   4.246   4.472  2.5700  1.2517 -0.5941
 8362SOL    HW236546   3.539   4.239   4.617 -0.7367 -2.0872 -1.9567
 8363SOL     OW36547   2.030   2.563   9.066 -0.9320 -0.4461  0.2397
 8363SOL    HW136548   1.948   2.552   9.019 -0.7388 -0.3532 -0.1227
 8363SOL    HW236549   2.003   2.530   9.152 -0.9049  0.0705  0.4435
 8364SOL     OW36550   1.009   2.293   3.439  0.2236  0.5268  0.1034
 8364SOL    HW136551   1.029   2.385   3.424  1.8895  0.0004 -1.0307
 8364SOL    HW236552   1.089   2.244   3.418 -1.3209 -2.7857  1.9181
 8365SOL     OW36553   0.521   4.260   8.761  0.9110  0.5414  0.5696
 8365SOL    HW136554   0.455   4.251   8.829  1.0472 -0.6802  0.5440
 8365SOL    HW236555   0.502   4.345   8.722 -0.9496  1.2072  2.9560
 8366SOL     OW36556   3.952   1.898   3.200  0.2270 -1.1982  0.1977
 8366SOL    HW136557   4.031   1.857   3.235  0.3476 -2.3031 -1.3160
 8366SOL    HW236558   3.910   1.820   3.162 -0.0172 -1.7440  1.5873
 8367SOL     OW36559   2.032   3.269   9.350 -0.2981 -0.1588  0.1063
 8367SOL    HW136560   2.086   3.318   9.412 -1.1846 -0.2725  0.9753
 8367SOL    HW236561   1.980   3.347   9.327 -0.2915 -0.4227 -0.8002
 8368SOL     OW36562   1.677   0.636   0.870 -0.4025 -0.1296  0.1211
 8368SOL    HW136563   1.684   0.565   0.933  0.3882 -0.8877 -0.8057
 8368SOL    HW236564   1.636   0.589   0.797 -2.3603 -1.7254  2.2491
 8369SOL     OW36565   4.503   1.553   6.256  0.2714  0.1592 -0.0661
 8369SOL    HW136566   4.595   1.578   6.257 -0.2586  2.1127 -0.9688
 8369SOL    HW236567   4.458   1.637   6.256 -0.3329 -0.1606 -0.5487
 8370SOL     OW36568   3.209   1.519  10.126  0.0489  0.0571  0.6432
 8370SOL    HW136569   3.288   1.477  10.093  0.0683  0.2227  0.4793
 8370SOL    HW236570   3.145   1.512  10.055  0.8165 -0.9817  0.0429
 8371SOL     OW36571   4.544   4.232   3.784 -0.5649  0.3021 -0.5483
 8371SOL    HW136572   4.504   4.263   3.865 -3.1517  0.1570 -1.7927
 8371SOL    HW236573   4.466   4.228   3.729  0.4282  0.4749 -1.9810
 8372SOL     OW36574   2.505   0.701   2.023 -0.6456  0.5957  0.3542
 8372SOL    HW136575   2.570   0.700   1.953  0.8965 -0.2604  1.7920
 8372SOL    HW236576   2.519   0.787   2.064  1.6292  0.0042  0.8423
 8373SOL     OW36577   0.999   3.931   7.413  0.5155 -0.0998 -0.2676
 8373SOL    HW136578   1.082   3.975   7.428 -0.5327  0.9211  2.6836
 8373SOL    HW236579   0.955   3.996   7.358  0.1657 -2.1098 -2.3737
 8374SOL     OW36580   4.603   0.062  11.159  0.2189 -0.0696  0.1108
 8374SOL    HW136581   4.604   0.157  11.155  1.0241 -0.1271 -0.9312
 8374SOL    HW236582   4.519   0.037  11.197 -0.1494 -1.6067 -1.7297
 8375SOL     OW36583   2.566   1.895   7.696 -0.1862  0.0894  0.5823
 8375SOL    HW136584   2.648   1.846   7.691  0.5941  1.4228  0.2863
 8375SOL    HW236585   2.563   1.915   7.790 -1.1046 -0.8356  0.7413
 8376SOL     OW36586   3.495   1.935   9.333 -0.3649 -0.2863 -0.4921
 8376SOL    HW136587   3.526   1.847   9.315 -1.9079 -0.6196 -1.5248
 8376SOL    HW236588   3.425   1.947   9.268  0.9117 -1.1224 -2.0145
 8377SOL     OW36589   2.257   1.990   5.355 -0.2552  0.1810 -0.4776
 8377SOL    HW136590   2.251   1.917   5.417  2.1257  0.4306  0.0716
 8377SOL    HW236591   2.336   1.957   5.311  1.3253  2.0402  0.9686
 8378SOL     OW36592   2.798   2.950   8.127 -0.1772  0.1479  0.5745
 8378SOL    HW136593   2.740   3.024   8.141  0.0259  1.0141 -3.3383
 8378SOL    HW236594   2.884   2.991   8.119  0.2636 -0.6650  1.1196
 8379SOL     OW36595   0.729   1.297   0.954 -0.9082  0.1707  0.5314
 8379SOL    HW136596   0.644   1.314   0.993 -0.5518  3.9633 -0.3697
 8379SOL    HW236597   0.709   1.226   0.894 -1.1682 -0.9163  1.8923
 8380SOL     OW36598   0.530   2.993   6.112 -0.1781 -0.2647  0.2197
 8380SOL    HW136599   0.529   2.897   6.107  0.8135 -0.1500 -1.9818
 8380SOL    HW236600   0.584   2.999   6.191  0.4086  0.0460 -0.2073
 8381SOL     OW36601   4.724   2.474   9.587 -0.0176 -0.4233 -0.1702
 8381SOL    HW136602   4.649   2.495   9.532  0.3025  0.2003 -0.3634
 8381SOL    HW236603   4.673   2.418   9.646  0.4157  0.3211  0.9283
 8382SOL     OW36604   3.200   3.946   1.260  0.0457  0.2120  0.3028
 8382SOL    HW136605   3.117   3.986   1.283  1.3728  2.1546  1.7366
 8382SOL    HW236606   3.191   3.942   1.165  1.4939 -0.2378  0.1789
 8383SOL     OW36607   2.734   2.343   3.186  0.1314 -0.1656 -0.8395
 8383SOL    HW136608   2.653   2.392   3.199  1.4915  2.0996 -1.0149
 8383SOL    HW236609   2.700   2.254   3.200  0.2332 -0.1353 -0.4299
 8384SOL     OW36610   0.044   3.154  12.603  0.3241  0.1879  0.3100
 8384SOL    HW136611   4.713   3.140  12.679  1.1320  1.1466  1.0942
 8384SOL    HW236612   4.705   3.162  12.532  1.2154 -0.2486 -0.5450
 8385SOL     OW36613   3.598   4.399   8.083 -0.2072  0.3599  0.2604
 8385SOL    HW136614   3.633   4.467   8.141  1.0396 -0.6694  0.7021
 8385SOL    HW236615   3.652   4.325   8.112 -1.1322 -0.3977  0.0495
 8386SOL     OW36616   2.381   0.812   4.051 -0.5061 -0.2543 -0.0599
 8386SOL    HW136617   2.342   0.884   4.100 -1.8579 -2.0536  1.5000
 8386SOL    HW236618   2.434   0.865   3.992 -1.4092  0.6385 -0.0574
 8387SOL     OW36619   1.433   2.284   1.278  0.4572  0.3150  0.1039
 8387SOL    HW136620   1.415   2.231   1.201 -1.2921  0.4627  0.4224
 8387SOL    HW236621   1.415   2.220   1.347  0.4297  1.5757  1.2682
 8388SOL     OW36622   3.321   0.477  11.237  0.4068  0.2597 -0.3139
 8388SOL    HW136623   3.333   0.427  11.156  0.7667  0.6338 -0.4935
 8388SOL    HW236624   3.228   0.501  11.240  0.1586 -0.8988  1.4783
 8389SOL     OW36625   2.355   4.517   6.973  0.0334 -0.1098  0.4256
 8389SOL    HW136626   2.324   4.522   6.882  0.4330  0.3247  0.3097
 8389SOL    HW236627   2.326   4.428   6.992  0.2482 -0.4104 -0.6761
 8390SOL     OW36628   2.810   3.594  11.229 -0.2852  0.0721 -0.3250
 8390SOL    HW136629   2.781   3.615  11.318  0.1836  0.7987 -0.3442
 8390SOL    HW236630   2.721   3.577  11.196 -0.4399 -2.1598  1.2889
 8391SOL     OW36631   2.427   1.647   7.795  0.0575  0.4313  0.0208
 8391SOL    HW136632   2.452   1.681   7.880  0.0894  1.0302 -0.2275
 8391SOL    HW236633   2.445   1.724   7.741 -0.0867  0.4749  0.0362
 8392SOL     OW36634   1.415   4.404   2.885 -0.6231 -0.2019 -1.3292
 8392SOL    HW136635   1.388   4.313   2.889 -1.8286  0.3116  2.1659
 8392SOL    HW236636   1.464   4.408   2.802  0.0160  1.7666 -0.8556
 8393SOL     OW36637   4.696   0.481   8.789 -0.8546  0.3244 -0.1375
 8393SOL    HW136638   4.718   0.566   8.826  0.3861  0.0655 -0.2699
 8393SOL    HW236639   4.723   0.413   8.852 -0.7677 -0.2622 -0.8096
 8394SOL     OW36640   0.888   2.155  16.960  0.5407 -0.1926 -0.1152
 8394SOL    HW136641   0.800   2.119  16.954  1.1716 -1.5938 -0.8242
 8394SOL    HW236642   0.934   2.085  17.006  1.5680  0.8604  0.4793
 8395SOL     OW36643   4.227   1.489   9.657 -0.0015  0.4701 -0.5016
 8395SOL    HW136644   4.259   1.574   9.685  0.7056  0.3488 -0.9270
 8395SOL    HW236645   4.301   1.452   9.609 -0.8168 -0.6113 -0.9175
 8396SOL     OW36646   0.326   0.186   9.310  0.1840 -0.0481  0.0665
 8396SOL    HW136647   0.397   0.130   9.280  0.4312  0.7998 -0.9124
 8396SOL    HW236648   0.279   0.123   9.366 -0.4058  0.3282 -0.0086
 8397SOL     OW36649   4.655   3.932  16.409 -0.4175  0.5210 -0.8643
 8397SOL    HW136650   4.674   3.943  16.502 -0.5690  0.2204 -0.8003
 8397SOL    HW236651   4.560   3.942  16.407 -0.4925 -0.5592 -3.3895
 8398SOL     OW36652   0.320   3.074  14.236 -0.2653  0.2863 -0.0553
 8398SOL    HW136653   0.261   3.058  14.162 -0.1977  1.0776 -0.2753
 8398SOL    HW236654   0.374   2.995  14.227  0.0479  0.2992  1.7581
 8399SOL     OW36655   3.817   4.551   8.553  0.3589  0.4557  0.5850
 8399SOL    HW136656   3.855   4.614   8.615 -1.2000  3.1335 -1.1624
 8399SOL    HW236657   3.837   4.466   8.593  0.3466 -0.5729 -1.6312
 8400SOL     OW36658   1.919   0.218  14.140  0.1034 -0.2223 -0.4786
 8400SOL    HW136659   1.854   0.280  14.174  1.6379  0.4562  1.2024
 8400SOL    HW236660   1.995   0.250  14.188 -0.2643 -1.5883  1.0233
 8401SOL     OW36661   1.119   0.398   1.728 -0.4983  0.1373 -0.1797
 8401SOL    HW136662   1.142   0.343   1.653 -0.8734 -0.4643  0.1437
 8401SOL    HW236663   1.107   0.330   1.795 -0.4015 -0.4695 -0.7785
 8402SOL     OW36664   2.942   0.389   5.918  0.6480 -0.5281 -1.4511
 8402SOL    HW136665   2.937   0.425   5.829 -2.5208  1.5475 -0.4192
 8402SOL    HW236666   2.922   0.295   5.911 -0.6959 -0.3617  0.3356
 8403SOL     OW36667   2.533   1.360   5.704 -0.4994  0.2353  0.2567
 8403SOL    HW136668   2.514   1.282   5.652  1.3849  1.0892 -1.7497
 8403SOL    HW236669   2.534   1.435   5.644  1.7376  1.1343  1.3997
 8404SOL     OW36670   4.117   0.788   8.961 -0.4027  0.2147  0.1007
 8404SOL    HW136671   4.101   0.712   8.904 -0.4871 -0.7754  1.4579
 8404SOL    HW236672   4.075   0.860   8.914 -0.2013 -0.1423 -0.6308
 8405SOL     OW36673   2.284   4.569   5.324 -0.1567 -0.0232  0.3293
 8405SOL    HW136674   2.206   4.520   5.300 -0.0191 -0.2049  0.2508
 8405SOL    HW236675   2.353   4.522   5.277  0.2538 -1.3685  2.2971
 8406SOL     OW36676   4.032   0.390   8.542  0.4488 -0.3312 -0.4389
 8406SOL    HW136677   3.963   0.327   8.521 -0.6618 -0.0465  2.4349
 8406SOL    HW236678   4.104   0.327   8.545  0.6466  0.0335  2.3349
 8407SOL     OW36679   0.147   3.645  11.019  0.4583 -0.0674 -0.1171
 8407SOL    HW136680   0.184   3.686  11.097 -1.4274  0.0334  0.7199
 8407SOL    HW236681   0.054   3.660  11.031  0.5259  0.9186 -0.7710
 8408SOL     OW36682   1.309   4.146   2.974  0.5773 -0.0985  0.4829
 8408SOL    HW136683   1.345   4.129   3.061  0.0506 -3.6346  0.0114
 8408SOL    HW236684   1.272   4.059   2.955  0.2638  0.1326  0.0399
 8409SOL     OW36685   1.561   0.405  15.767  0.5774  0.5664  0.6456
 8409SOL    HW136686   1.533   0.392  15.677  0.7144 -0.4694  0.7469
 8409SOL    HW236687   1.477   0.401  15.813 -0.0622  1.2593 -0.4759
 8410SOL     OW36688   2.606   4.045  13.424 -0.0104 -0.1148 -0.0131
 8410SOL    HW136689   2.693   4.039  13.464  0.0203  2.2441  0.3035
 8410SOL    HW236690   2.577   3.958  13.450  3.2830 -1.1724  0.1142
 8411SOL     OW36691   0.112   3.117   5.531 -0.5957  0.4594 -0.0791
 8411SOL    HW136692   0.028   3.127   5.487 -1.3627  1.3201  1.5593
 8411SOL    HW236693   0.117   3.025   5.559  1.5069  0.3736 -0.7685
 8412SOL     OW36694   4.019   0.622  11.883 -0.4758 -0.0978  0.6476
 8412SOL    HW136695   4.019   0.599  11.975 -0.0175 -2.5696  0.0227
 8412SOL    HW236696   4.112   0.604  11.869 -0.1048  0.7954  2.0573
 8413SOL     OW36697   1.229   2.400   6.951  0.2243 -0.2592  0.1036
 8413SOL    HW136698   1.142   2.406   6.990  0.1565  2.7645 -0.5217
 8413SOL    HW236699   1.230   2.484   6.904 -0.1068  0.4962  1.4523
 8414SOL     OW36700   2.181   3.376   2.888 -0.5398 -0.4445 -0.3755
 8414SOL    HW136701   2.113   3.348   2.949 -1.1155  1.7099 -0.0136
 8414SOL    HW236702   2.127   3.388   2.809 -0.8984  1.8282  0.2235
 8415SOL     OW36703   2.496   3.981   2.414  0.0122  0.0632 -0.2571
 8415SOL    HW136704   2.543   3.975   2.331 -2.8802 -1.1706 -1.7812
 8415SOL    HW236705   2.425   4.043   2.397  0.2974  0.5833  0.4348
 8416SOL     OW36706   4.026   3.679   7.231 -0.0680 -0.3732  0.2401
 8416SOL    HW136707   4.087   3.714   7.296  2.0732 -1.1643 -1.3087
 8416SOL    HW236708   3.992   3.601   7.275 -1.3914 -0.5746 -1.1549
 8417SOL     OW36709   0.499   3.731  12.836 -0.5416 -0.3246 -0.1471
 8417SOL    HW136710   0.529   3.807  12.887 -0.0364 -0.7656  0.2099
 8417SOL    HW236711   0.584   3.695  12.809 -0.0140 -2.0976  3.8724
 8418SOL     OW36712   4.065   2.969  10.857  0.8057  0.5784  0.3650
 8418SOL    HW136713   4.128   3.022  10.807  2.0403 -1.7077 -0.5305
 8418SOL    HW236714   3.991   3.019  10.824 -1.3402 -1.2143  2.5670
 8419SOL     OW36715   2.543   0.451   2.164  0.0082 -0.1349  0.4421
 8419SOL    HW136716   2.578   0.492   2.243  0.5321  0.7692 -0.2648
 8419SOL    HW236717   2.500   0.522   2.117  1.8065  0.6362 -0.0370
 8420SOL     OW36718   2.869   4.017   3.998  0.2677  0.0241  0.6340
 8420SOL    HW136719   2.775   4.021   3.981  0.2745  0.5052  0.7193
 8420SOL    HW236720   2.875   4.087   4.063 -1.0740 -0.5218  1.3588
 8421SOL     OW36721   1.147   4.111   4.041  0.0514 -0.5657  0.4981
 8421SOL    HW136722   1.199   4.055   3.983 -1.8908 -1.5048 -0.3118
 8421SOL    HW236723   1.197   4.113   4.123  1.9566  0.0804 -0.6725
 8422SOL     OW36724   2.632   1.492  12.767 -0.1587 -0.1887 -0.4990
 8422SOL    HW136725   2.715   1.444  12.769  0.2937  0.6497  1.1464
 8422SOL    HW236726   2.610   1.490  12.860  0.1003 -4.2945 -0.5314
 8423SOL     OW36727   1.497   3.014   3.371 -0.3095 -0.5112 -0.0178
 8423SOL    HW136728   1.489   3.106   3.398 -0.9624 -0.4034 -0.5879
 8423SOL    HW236729   1.419   3.004   3.316 -1.3895  0.6114  1.2888
 8424SOL     OW36730   0.395   0.340   8.971  0.3027 -0.7096 -0.5543
 8424SOL    HW136731   0.437   0.310   9.051  1.8614 -0.7992 -1.4201
 8424SOL    HW236732   0.337   0.269   8.942 -0.0742 -0.1007 -1.2832
 8425SOL     OW36733   2.526   0.765   3.335 -0.2725 -0.1486  0.5371
 8425SOL    HW136734   2.528   0.860   3.345  1.1924 -0.0050 -1.2166
 8425SOL    HW236735   2.449   0.740   3.386 -0.5745  0.9991  0.6373
 8426SOL     OW36736   3.539   3.937   7.411  0.2881 -0.1949 -0.2813
 8426SOL    HW136737   3.447   3.947   7.435  0.1136 -0.7392 -0.7201
 8426SOL    HW236738   3.532   3.851   7.370  1.5974  0.2860 -1.5021
 8427SOL     OW36739   1.817   2.026   4.342  0.1476  0.1446 -0.0482
 8427SOL    HW136740   1.804   2.116   4.312 -1.9146  0.2279  1.0257
 8427SOL    HW236741   1.897   2.032   4.394  0.7812 -2.1416 -0.7622
 8428SOL     OW36742   0.304   3.328   2.797  0.2425 -0.5416 -0.3578
 8428SOL    HW136743   0.245   3.393   2.836  1.4604 -0.7071  1.7606
 8428SOL    HW236744   0.266   3.322   2.709 -1.1744 -0.1750  0.2299
 8429SOL     OW36745   2.746   0.413   0.066  0.4524 -0.6566 -0.1181
 8429SOL    HW136746   2.670   0.384   0.117  0.4539 -0.0208  0.2447
 8429SOL    HW236747   2.781   0.495   0.101  3.3938 -1.9781  0.0248
 8430SOL     OW36748   3.563   0.277   6.884  0.1870  0.3954  0.1862
 8430SOL    HW136749   3.658   0.291   6.874  0.3659  0.6521  2.2089
 8430SOL    HW236750   3.551   0.339   6.956  0.9745 -0.8748  1.4181
 8431SOL     OW36751   1.623   3.397  17.690 -0.1600 -0.5967 -0.1214
 8431SOL    HW136752   1.599   3.312  17.653 -0.4058 -1.1594  1.3273
 8431SOL    HW236753   1.639   3.361   0.073  1.7928  0.3021 -0.1086
 8432SOL     OW36754   2.400   2.336   2.727 -0.7808  0.5346 -0.4850
 8432SOL    HW136755   2.312   2.301   2.714 -0.2538 -1.3441  1.0923
 8432SOL    HW236756   2.440   2.253   2.753 -0.2124  0.3960 -1.7887
 8433SOL     OW36757   0.452   3.090  11.817 -0.2292 -0.3131 -0.1701
 8433SOL    HW136758   0.441   3.141  11.898  0.4694 -2.2640  1.1698
 8433SOL    HW236759   0.399   3.012  11.835 -3.3243  1.9106  0.2525
 8434SOL     OW36760   4.320   1.894   8.034  0.2632 -0.4907 -0.1723
 8434SOL    HW136761   4.317   1.861   7.944  0.5440 -0.1235 -0.3164
 8434SOL    HW236762   4.411   1.924   8.029 -0.4536  1.7600  0.0262
 8435SOL     OW36763   2.824   1.225   0.590  0.1066 -0.2118 -0.1211
 8435SOL    HW136764   2.813   1.320   0.585 -0.1889 -0.1722  1.5441
 8435SOL    HW236765   2.896   1.219   0.654 -0.0801 -0.6043  0.0517
 8436SOL     OW36766   0.575   4.033   2.441 -0.0464  0.0707  0.2019
 8436SOL    HW136767   0.517   4.037   2.517 -0.3276 -0.8540  0.0359
 8436SOL    HW236768   0.551   3.946   2.408  0.3719 -0.5652  1.6160
 8437SOL     OW36769   1.427   2.854  14.537  0.0529 -0.3502 -0.2740
 8437SOL    HW136770   1.399   2.875  14.448 -1.6774  0.3091  0.4213
 8437SOL    HW236771   1.338   2.836  14.570  0.3373 -1.0499  0.1108
 8438SOL     OW36772   2.282   1.153   2.370 -0.2055 -0.8067 -0.1090
 8438SOL    HW136773   2.280   1.247   2.354  3.5610 -1.0075 -1.6043
 8438SOL    HW236774   2.232   1.155   2.451  0.1430  0.6974  0.0516
 8439SOL     OW36775   1.223   4.012   2.611  0.4981  0.2028  0.0246
 8439SOL    HW136776   1.309   3.985   2.644 -0.2278 -0.8653  1.0740
 8439SOL    HW236777   1.248   4.051   2.528  0.9608 -0.1274  0.0111
 8440SOL     OW36778   1.590   4.446   0.680  0.1111 -0.5620 -0.0472
 8440SOL    HW136779   1.554   4.396   0.753 -1.3771  1.2730  0.4589
 8440SOL    HW236780   1.683   4.443   0.703  0.4289  2.1950 -1.0281
 8441SOL     OW36781   2.691   3.972   5.524 -0.4308 -0.2266  0.3753
 8441SOL    HW136782   2.679   4.057   5.567  0.8600  1.1379 -1.9987
 8441SOL    HW236783   2.774   3.939   5.558 -0.1797  0.8819  0.8367
 8442SOL     OW36784   4.387   4.423   5.091 -0.4176 -0.0105 -0.8869
 8442SOL    HW136785   4.305   4.456   5.054 -1.2190 -0.6252  0.3353
 8442SOL    HW236786   4.416   4.505   5.130  0.6975 -0.9889  0.3339
 8443SOL     OW36787   1.979   3.834  14.798 -0.0215  0.1183  0.0517
 8443SOL    HW136788   2.011   3.744  14.793 -0.6891 -0.2027  1.6474
 8443SOL    HW236789   2.054   3.890  14.777 -0.7980  0.4461 -1.8521
 8444SOL     OW36790   1.254   2.164   2.410  0.1112 -0.4002 -0.9822
 8444SOL    HW136791   1.179   2.220   2.391  0.9770  0.7597 -0.9921
 8444SOL    HW236792   1.227   2.116   2.489  1.6599 -0.5754 -0.5603
 8445SOL     OW36793   4.605   2.521  12.525  0.2265 -0.3822 -0.2441
 8445SOL    HW136794   4.522   2.482  12.553  0.1682  0.7625  1.2140
 8445SOL    HW236795   4.664   2.446  12.524 -3.0565 -2.9535 -1.0512
 8446SOL     OW36796   2.150   4.527   9.056 -0.1351  0.7373  0.0983
 8446SOL    HW136797   2.137   4.448   9.108  3.1373  1.1074  1.4939
 8446SOL    HW236798   2.238   4.561   9.074  0.2447  0.9349 -2.0670
 8447SOL     OW36799   1.567   1.022   7.576  0.8106 -0.4555 -0.1789
 8447SOL    HW136800   1.639   1.082   7.556  1.1501 -0.6508  0.4534
 8447SOL    HW236801   1.493   1.082   7.583  1.2391 -0.1154  1.3295
 8448SOL     OW36802   2.556   0.397   3.818  0.2815  0.8175 -0.0097
 8448SOL    HW136803   2.499   0.319   3.816  0.5676  0.5928  0.6428
 8448SOL    HW236804   2.506   0.457   3.761 -0.0469  1.5093  1.0125
 8449SOL     OW36805   4.297   0.082   3.853  0.9678  0.0200 -0.4014
 8449SOL    HW136806   4.255   4.721   3.853 -0.9885  0.9595  1.1143
 8449SOL    HW236807   4.358   0.070   3.926  0.0072 -2.1015  0.0601
 8450SOL     OW36808   0.681   4.486   2.855  0.2215 -0.0655 -0.6197
 8450SOL    HW136809   0.752   4.451   2.802 -0.6791 -1.3290 -0.9884
 8450SOL    HW236810   0.729   4.483   2.938 -0.4095 -1.3761 -0.2974
 8451SOL     OW36811   3.983   3.746   0.828  0.1052  0.3718  0.4539
 8451SOL    HW136812   4.024   3.770   0.745  0.6896 -0.6445  0.4409
 8451SOL    HW236813   4.024   3.803   0.893 -0.9172  1.7288 -0.0910
 8452SOL     OW36814   1.997   2.357   4.861  0.4034  0.0911  0.3303
 8452SOL    HW136815   1.949   2.403   4.792  1.8143  0.5670 -0.3345
 8452SOL    HW236816   1.985   2.420   4.932  0.5407 -1.4002  1.6590
 8453SOL     OW36817   0.117   1.473   6.628  0.2745 -0.2754  0.1456
 8453SOL    HW136818   0.129   1.566   6.645  0.5225 -0.4180  0.7571
 8453SOL    HW236819   0.024   1.469   6.607 -0.0359 -0.4897  1.5408
 8454SOL     OW36820   2.391   1.629   0.132  0.3856  0.7671  0.5805
 8454SOL    HW136821   2.449   1.553   0.135 -2.9371 -1.8053 -0.3209
 8454SOL    HW236822   2.351   1.617   0.219 -3.7137  0.8211 -1.2743
 8455SOL     OW36823   0.808   1.785   3.889  0.0182 -0.2469  0.1821
 8455SOL    HW136824   0.828   1.699   3.925  1.3260  0.2298  0.6081
 8455SOL    HW236825   0.744   1.759   3.823 -0.6332  0.4971  0.5247
 8456SOL     OW36826   3.406   3.747   3.038  0.2817 -0.1868 -0.0588
 8456SOL    HW136827   3.348   3.780   3.107  2.8295 -1.7814  2.8837
 8456SOL    HW236828   3.367   3.788   2.961  1.3869  1.1597  0.0953
 8457SOL     OW36829   3.855   1.085   7.892  0.2155  0.5123 -0.0078
 8457SOL    HW136830   3.928   1.048   7.940 -0.2821  0.5422  0.7708
 8457SOL    HW236831   3.790   1.019   7.916 -0.0028  0.2569 -1.2545
 8458SOL     OW36832   1.423   4.334   3.417 -0.2280  0.2961  0.4362
 8458SOL    HW136833   1.356   4.372   3.362 -0.0038 -0.8936 -0.6647
 8458SOL    HW236834   1.373   4.293   3.487  1.3169  2.6604  2.9220
 8459SOL     OW36835   4.146   1.132   0.549 -0.4047  0.1838 -0.4838
 8459SOL    HW136836   4.160   1.094   0.636  0.3755  0.2927 -0.5559
 8459SOL    HW236837   4.076   1.075   0.518 -0.5743  0.1417 -0.0266
 8460SOL     OW36838   4.166   1.030   3.446 -0.0464  0.0264  0.4142
 8460SOL    HW136839   4.213   1.088   3.505 -0.6757 -1.1855  2.1129
 8460SOL    HW236840   4.185   0.946   3.488  0.0142  0.3447  1.0175
 8461SOL     OW36841   4.686   3.164  12.093  0.2928 -0.8561 -0.0613
 8461SOL    HW136842   0.049   3.181  12.123 -0.9145 -0.5231  3.3619
 8461SOL    HW236843   4.705   3.169  12.000  1.3952 -0.4773  0.1818
 8462SOL     OW36844   0.083   1.899   9.574  0.5439 -0.5009  0.4693
 8462SOL    HW136845   0.054   1.839   9.505 -2.9388 -0.1597  1.6782
 8462SOL    HW236846   4.726   1.939   9.597  0.0738 -0.6066 -1.0600
 8463SOL     OW36847   1.551   3.709   8.934  0.6323 -0.0730  0.2631
 8463SOL    HW136848   1.616   3.728   9.001 -0.6096  0.6166  1.2805
 8463SOL    HW236849   1.549   3.614   8.943 -1.0222  0.1145  1.9940
 8464SOL     OW36850   1.162   0.641   0.359  0.0190 -0.2596 -0.0612
 8464SOL    HW136851   1.155   0.582   0.434 -1.0666  0.6404  0.5440
 8464SOL    HW236852   1.226   0.600   0.300  1.0261 -1.6761  2.0163
 8465SOL     OW36853   1.782   4.606  11.972  0.2198 -0.2890  0.4044
 8465SOL    HW136854   1.860   4.615  12.027  1.9329  1.2965 -2.2626
 8465SOL    HW236855   1.805   4.579  11.883 -0.0020  2.5236 -0.4898
 8466SOL     OW36856   2.496   2.288   0.881  0.3223 -0.2201  0.0802
 8466SOL    HW136857   2.487   2.357   0.815  2.4820  1.0952  1.1823
 8466SOL    HW236858   2.416   2.303   0.930 -1.1250 -0.2189 -2.2506
 8467SOL     OW36859   1.844   0.248   2.424 -0.2594  0.0590  0.5222
 8467SOL    HW136860   1.839   0.155   2.403 -0.9326  0.7840 -2.6102
 8467SOL    HW236861   1.761   0.273   2.384  1.1171 -0.2332 -2.5421
 8468SOL     OW36862   0.132   0.170   5.221 -0.1207  0.2890  0.0399
 8468SOL    HW136863   0.169   0.220   5.149  2.6276 -0.5453  0.8885
 8468SOL    HW236864   0.069   0.238   5.246  0.3277  1.0952 -1.0204
 8469SOL     OW36865   2.602   0.560   6.059  0.3342  0.5187 -0.1532
 8469SOL    HW136866   2.553   0.494   6.010  2.2537 -1.1772  0.2120
 8469SOL    HW236867   2.657   0.591   5.987 -0.9262 -0.3189 -1.4763
 8470SOL     OW36868   0.666   3.650  12.110 -0.3433 -0.6676  0.2743
 8470SOL    HW136869   0.680   3.694  12.025 -0.6191 -1.3858 -0.1421
 8470SOL    HW236870   0.748   3.601  12.107  0.2171  0.4457 -3.8018
 8471SOL     OW36871   1.231   2.805   7.166 -0.1202  0.6317  0.4473
 8471SOL    HW136872   1.148   2.807   7.118 -1.6829 -1.7896  3.0753
 8471SOL    HW236873   1.218   2.734   7.228 -0.5796  0.8053  0.5478
 8472SOL     OW36874   1.871   3.657   7.199  0.1356  0.0805 -0.1224
 8472SOL    HW136875   1.799   3.693   7.252  0.1956 -2.7465  1.8633
 8472SOL    HW236876   1.932   3.630   7.268  0.2286  3.1476  1.0256
 8473SOL     OW36877   0.842   4.486   3.487  0.2030  0.0051 -0.3741
 8473SOL    HW136878   0.822   4.569   3.531  1.5168 -0.6083  1.3482
 8473SOL    HW236879   0.927   4.508   3.449  1.2497 -0.0710  1.9115
 8474SOL     OW36880   0.070   0.838   7.180  0.0856 -0.4057 -0.5583
 8474SOL    HW136881   0.138   0.874   7.123 -0.3562 -0.7293 -1.2887
 8474SOL    HW236882   0.121   0.795   7.249 -0.5927 -0.6686 -0.2187
 8475SOL     OW36883   0.397   2.010   6.686 -0.0136  0.0867 -0.8591
 8475SOL    HW136884   0.335   1.968   6.746  1.2251 -2.6827 -1.4945
 8475SOL    HW236885   0.345   2.027   6.607 -0.7661  1.3104 -0.1036
 8476SOL     OW36886   3.422   0.931   8.995 -0.4688 -0.0163 -0.0144
 8476SOL    HW136887   3.460   0.999   8.938  1.6644  0.5743  2.1052
 8476SOL    HW236888   3.474   0.931   9.075 -1.9622 -1.2714  0.9548
 8477SOL     OW36889   3.429   1.686  15.139  1.3442  0.6642 -0.2139
 8477SOL    HW136890   3.383   1.620  15.088  0.3402  0.9684  0.3017
 8477SOL    HW236891   3.447   1.742  15.063 -1.0936 -1.0455 -2.0293
 8478SOL     OW36892   3.011   3.405   8.062  0.0510  0.0510 -0.1540
 8478SOL    HW136893   2.983   3.366   8.145  0.8179  2.0887  1.0569
 8478SOL    HW236894   3.053   3.486   8.092  0.0583  0.0643 -0.1996
 8479SOL     OW36895   1.460   2.082   7.505 -0.0457 -0.1860 -0.3550
 8479SOL    HW136896   1.423   1.993   7.503  0.5437 -0.4232 -0.4848
 8479SOL    HW236897   1.542   2.068   7.459  0.9146  1.9492  0.7214
 8480SOL     OW36898   4.055   4.350   3.273 -0.0284 -0.1555  0.0091
 8480SOL    HW136899   4.035   4.277   3.332  1.8125  0.7594  1.7613
 8480SOL    HW236900   4.149   4.335   3.269  0.0100  0.3805 -1.2008
 8481SOL     OW36901   0.671   2.062   6.630  0.5380 -0.1802 -0.2143
 8481SOL    HW136902   0.638   2.037   6.544 -0.7593 -0.3603  0.3393
 8481SOL    HW236903   0.592   2.072   6.684  0.1551 -1.2946 -0.5774
 8482SOL     OW36904   1.009   4.160   0.545 -0.2341  0.7280  0.4117
 8482SOL    HW136905   0.952   4.183   0.471 -1.6413 -0.7015  1.0604
 8482SOL    HW236906   0.949   4.107   0.597 -0.7339 -0.4719 -1.3650
 8483SOL     OW36907   4.640   1.067   1.866  0.5943 -0.3963  0.5069
 8483SOL    HW136908   4.585   1.026   1.800  0.0390 -0.0819  0.7749
 8483SOL    HW236909   4.713   1.005   1.876 -0.2554 -1.3150  1.0627
 8484SOL     OW36910   3.889   3.692  10.334 -0.3244  0.6046  0.1228
 8484SOL    HW136911   3.972   3.645  10.325  0.4601  1.8350  0.9958
 8484SOL    HW236912   3.916   3.748  10.406 -0.0818  1.0712 -0.3336
 8485SOL     OW36913   0.929   4.489   2.711  0.5866 -0.2616  0.7253
 8485SOL    HW136914   1.011   4.467   2.756  1.1246  0.2349  0.0099
 8485SOL    HW236915   0.955   4.455   2.625  1.3233 -1.9352  1.6066
 8486SOL     OW36916   4.526   1.976  10.968  0.0547  0.1706 -0.1905
 8486SOL    HW136917   4.600   2.029  10.941  0.7165 -1.0028 -0.6526
 8486SOL    HW236918   4.564   1.935  11.045 -1.9608  0.6678  1.0804
 8487SOL     OW36919   0.991   0.296  11.996  0.9349  0.1895  0.2833
 8487SOL    HW136920   0.906   0.261  11.970 -0.1512  1.2043  2.3847
 8487SOL    HW236921   1.004   0.239  12.072  2.6545 -0.5945 -0.6156
 8488SOL     OW36922   3.627   3.968   7.922 -0.3407 -0.4801 -0.5265
 8488SOL    HW136923   3.629   3.874   7.907 -0.2755 -0.1597 -2.5289
 8488SOL    HW236924   3.697   3.961   7.988  2.5107 -1.5902 -3.6740
 8489SOL     OW36925   1.187   0.883   6.826 -0.4577  0.6377 -0.3981
 8489SOL    HW136926   1.210   0.880   6.919  0.7396 -1.0447 -0.7271
 8489SOL    HW236927   1.148   0.970   6.823 -0.3514  0.6771 -0.6196
 8490SOL     OW36928   2.589   3.967   4.020  0.6342  0.1648  0.6214
 8490SOL    HW136929   2.548   3.886   3.990 -0.6485  1.1423 -0.2787
 8490SOL    HW236930   2.521   3.986   4.084 -0.4720 -1.3026 -0.1249
 8491SOL     OW36931   2.604   3.745   8.493 -0.1469  0.0047 -0.4550
 8491SOL    HW136932   2.693   3.777   8.482  0.3702 -0.3112  2.8619
 8491SOL    HW236933   2.623   3.674   8.554  0.5234 -0.7334 -1.5332
 8492SOL     OW36934   4.212   2.720  16.314  0.0190 -0.6083 -0.3089
 8492SOL    HW136935   4.210   2.684  16.225  1.2857 -1.0506 -0.1575
 8492SOL    HW236936   4.149   2.791  16.302 -1.2347 -1.4989  0.9643
 8493SOL     OW36937   2.716   3.386   9.034 -0.7128 -0.3462  0.1832
 8493SOL    HW136938   2.643   3.441   9.062  1.4999  2.2883  0.8522
 8493SOL    HW236939   2.722   3.315   9.098 -0.6287 -1.8651 -1.5190
 8494SOL     OW36940   1.678   0.468   3.241 -0.6528 -0.1204  0.4781
 8494SOL    HW136941   1.598   0.471   3.294 -1.2794  0.9999 -0.5250
 8494SOL    HW236942   1.741   0.442   3.308 -1.2904 -0.5102  0.9268
 8495SOL     OW36943   4.347   3.248   6.636  0.2418 -0.0464 -0.2091
 8495SOL    HW136944   4.338   3.157   6.609 -0.2128 -0.0777  0.0621
 8495SOL    HW236945   4.313   3.245   6.725 -0.9038  1.7510 -0.5929
 8496SOL     OW36946   2.392   4.053   4.156 -0.3677  0.1543  0.3103
 8496SOL    HW136947   2.342   4.118   4.207  0.3594  1.1686 -0.2680
 8496SOL    HW236948   2.342   4.020   4.081 -1.0878  0.4085  0.6719
 8497SOL     OW36949   3.932   2.592   4.431 -0.3113  0.4933  0.5059
 8497SOL    HW136950   3.934   2.529   4.503 -0.5588 -0.4828 -0.3422
 8497SOL    HW236951   3.843   2.614   4.457 -0.9929  1.4583 -2.6487
 8498SOL     OW36952   1.325   0.207  17.080  0.3418  0.0910  0.8996
 8498SOL    HW136953   1.291   0.230  16.994  0.7005 -0.8996  0.4911
 8498SOL    HW236954   1.247   0.230  17.131  1.5351 -0.3301  2.9316
 8499SOL     OW36955   3.174   3.812   7.259  0.0620  0.1978 -0.6988
 8499SOL    HW136956   3.214   3.898   7.243 -0.5252  1.0917  2.5395
 8499SOL    HW236957   3.122   3.822   7.339  0.9723  0.7680 -0.1739
 8500SOL     OW36958   3.018   0.101  12.993  0.1275  0.0051  0.0206
 8500SOL    HW136959   3.074   0.178  12.980 -0.5845  0.1991 -1.9141
 8500SOL    HW236960   3.073   0.054  13.055 -0.8744 -1.3459 -0.1061
 8501SOL     OW36961   2.102   4.677   4.212 -0.1409  0.4671 -0.7914
 8501SOL    HW136962   2.090   0.028   4.269  1.0374 -1.3797  1.9520
 8501SOL    HW236963   2.088   4.703   4.121 -1.5330 -1.8551 -1.2348
 8502SOL     OW36964   4.661   3.505   5.608 -0.1464 -0.3689  0.2198
 8502SOL    HW136965   0.016   3.453   5.603  0.1695  0.0700  0.8023
 8502SOL    HW236966   4.665   3.535   5.698 -0.1999 -0.2321  0.1762
 8503SOL     OW36967   2.438   2.992   2.437  0.6034  0.2716  0.2098
 8503SOL    HW136968   2.510   2.971   2.378 -0.1926 -3.3406  0.5701
 8503SOL    HW236969   2.476   3.028   2.518 -1.7984  0.8959  1.0652
 8504SOL     OW36970   4.067   0.099   9.486 -0.2563 -0.2603  0.0634
 8504SOL    HW136971   3.997   0.124   9.546  2.2860 -0.1445  2.9330
 8504SOL    HW236972   4.130   0.071   9.551  0.1995 -1.8208 -1.0384
 8505SOL     OW36973   1.553   2.255  11.127  0.2601  0.0428  0.3713
 8505SOL    HW136974   1.635   2.207  11.140  1.9002  1.9137 -3.1852
 8505SOL    HW236975   1.576   2.303  11.048 -2.5821 -0.7100 -0.8993
 8506SOL     OW36976   1.805   1.190   6.202 -0.1215 -0.4852 -0.2084
 8506SOL    HW136977   1.762   1.158   6.123  0.0838  0.1483 -0.5762
 8506SOL    HW236978   1.865   1.119   6.226  0.2874  0.7479  2.4048
 8507SOL     OW36979   1.374   2.367   5.854  0.7352 -0.2894 -0.9526
 8507SOL    HW136980   1.334   2.291   5.896 -0.3574 -1.8670 -4.8912
 8507SOL    HW236981   1.312   2.433   5.884  2.1276  0.1536  1.0033
 8508SOL     OW36982   0.027   0.812   0.013  0.1937  0.0654 -0.5978
 8508SOL    HW136983   0.035   0.907   0.009  0.9288  0.0656  0.8748
 8508SOL    HW236984   4.712   0.805  17.631 -3.2924 -0.3909  1.0745
 8509SOL     OW36985   3.900   2.612  12.709  0.7311 -0.6102 -0.0183
 8509SOL    HW136986   3.957   2.618  12.786 -0.5935  0.1620  0.9208
 8509SOL    HW236987   3.878   2.520  12.694 -1.3330 -0.6949  3.2891
 8510SOL     OW36988   3.124   1.231   3.900  0.2598 -0.2323  0.4356
 8510SOL    HW136989   3.079   1.152   3.872  0.2065  0.0632 -0.2987
 8510SOL    HW236990   3.103   1.296   3.833 -0.4531 -1.3275 -0.3973
 8511SOL     OW36991   0.970   3.467  15.593  0.3776 -0.1008  0.0920
 8511SOL    HW136992   1.045   3.505  15.547  0.1923 -0.4409 -0.4976
 8511SOL    HW236993   1.000   3.458  15.683  0.2316  1.0039  0.2508
 8512SOL     OW36994   0.099   4.539  14.308  0.3945  0.0919 -0.2280
 8512SOL    HW136995   0.088   4.454  14.350  0.0368  0.2568  0.0131
 8512SOL    HW236996   0.102   4.603  14.379 -2.7429  0.7914 -0.6961
 8513SOL     OW36997   4.262   0.946  16.240  0.2553  0.2777  0.4849
 8513SOL    HW136998   4.248   1.035  16.272 -1.4116  0.0948  0.2637
 8513SOL    HW236999   4.347   0.927  16.280  0.6039  1.1503  0.1568
 8514SOL     OW37000   1.336   0.508   4.130  0.0696  0.4894 -0.0200
 8514SOL    HW137001   1.409   0.453   4.103 -1.0020 -0.7942 -0.2670
 8514SOL    HW237002   1.287   0.506   4.049  0.1853 -1.6457 -0.0367
 8515SOL     OW37003   4.261   4.213   3.678 -0.4541  0.3226 -0.1511
 8515SOL    HW137004   4.203   4.213   3.603  0.7032  0.8136 -1.0460
 8515SOL    HW237005   4.275   4.120   3.696 -1.8047  0.3528  1.0481
 8516SOL     OW37006   3.609   1.446   1.599 -0.2659  0.2198 -0.4774
 8516SOL    HW137007   3.659   1.520   1.565 -2.4348  0.8819 -2.2214
 8516SOL    HW237008   3.660   1.377   1.557 -1.0988  0.4596 -1.8589
 8517SOL     OW37009   1.562   1.578  10.464 -0.7080  0.5991  0.0733
 8517SOL    HW137010   1.651   1.599  10.489 -0.4815 -1.2612  0.8432
 8517SOL    HW237011   1.519   1.582  10.549 -0.1297  1.2089  0.3388
 8518SOL     OW37012   3.876   0.091   8.244 -0.0809 -0.1937  0.3147
 8518SOL    HW137013   3.877   0.149   8.320 -0.4980  0.3475 -0.0985
 8518SOL    HW237014   3.965   0.056   8.247  0.1647  0.4148 -0.0490
 8519SOL     OW37015   1.288   3.828   6.192 -0.2766 -0.0847  0.0314
 8519SOL    HW137016   1.359   3.884   6.222 -0.8021  0.8182 -0.4051
 8519SOL    HW237017   1.265   3.777   6.270 -1.3974 -0.6996 -0.6960
 8520SOL     OW37018   3.354   3.146   8.534  0.5709 -0.0295 -0.5950
 8520SOL    HW137019   3.427   3.094   8.502  0.0413 -0.9705 -0.2902
 8520SOL    HW237020   3.347   3.205   8.459 -0.0046 -0.2348 -0.7076
 8521SOL     OW37021   3.557   3.948  10.775 -0.2057 -0.0599 -0.6594
 8521SOL    HW137022   3.558   4.021  10.838  1.2019 -0.5078 -0.1572
 8521SOL    HW237023   3.472   3.971  10.738 -0.5133 -1.4803 -0.8391
 8522SOL     OW37024   2.553   2.129   3.121 -0.4730  0.5729  0.1570
 8522SOL    HW137025   2.518   2.110   3.033 -0.3005 -0.1186  0.2344
 8522SOL    HW237026   2.480   2.176   3.162 -0.6598 -0.7662  1.3863
 8523SOL     OW37027   3.082   0.158   1.822 -0.0872  0.1367  0.2719
 8523SOL    HW137028   2.999   0.206   1.829 -0.3149  0.0960 -2.1913
 8523SOL    HW237029   3.104   0.174   1.731 -1.6591  1.4996  0.1259
 8524SOL     OW37030   0.093   2.685   4.967 -0.1547  0.1033  0.4841
 8524SOL    HW137031   0.026   2.641   4.915  0.8796 -0.7260 -0.1677
 8524SOL    HW237032   0.093   2.627   5.043 -2.9004 -0.2566  0.2163
 8525SOL     OW37033   2.020   2.239  12.890  0.0332  0.3319  0.0832
 8525SOL    HW137034   1.980   2.170  12.943  4.1320 -2.8046 -0.9753
 8525SOL    HW237035   2.060   2.175  12.832 -1.4357  0.6144 -1.2491
 8526SOL     OW37036   2.796   2.079   1.085 -0.1430  0.1780  0.2861
 8526SOL    HW137037   2.791   2.135   1.007 -3.2448 -0.5155 -0.0093
 8526SOL    HW237038   2.706   2.082   1.117 -0.2413 -1.9146  0.1979
 8527SOL     OW37039   3.888   3.175   3.188  0.4089 -0.1201 -0.5287
 8527SOL    HW137040   3.908   3.238   3.257  0.3568 -0.4722 -0.1982
 8527SOL    HW237041   3.794   3.174   3.174  0.3359  0.4951 -0.0679
 8528SOL     OW37042   2.656   3.582   7.958  0.1336  0.1926  0.1025
 8528SOL    HW137043   2.750   3.602   7.957  0.1740  0.0109  0.3147
 8528SOL    HW237044   2.625   3.644   8.024 -0.9392 -2.2738  1.8797
 8529SOL     OW37045   4.056   2.109   6.377 -0.4155  0.3593  0.6260
 8529SOL    HW137046   4.091   2.171   6.313 -0.0836  1.9244  2.2996
 8529SOL    HW237047   3.982   2.162   6.409  0.1894  0.8982  1.1255
 8530SOL     OW37048   3.117   0.043   4.260 -0.2177  0.1407  0.8494
 8530SOL    HW137049   3.117   0.059   4.354 -0.3013 -2.4184  1.2876
 8530SOL    HW237050   3.028   0.009   4.257  0.0934 -0.8861  3.4103
 8531SOL     OW37051   4.607   0.494   4.952  0.5329 -0.2352 -0.4565
 8531SOL    HW137052   4.546   0.511   4.881 -1.1507 -1.3402  0.7266
 8531SOL    HW237053   4.564   0.548   5.018  4.0758  2.9791 -0.7838
 8532SOL     OW37054   2.891   4.241  15.336  0.5450  0.1750 -0.7925
 8532SOL    HW137055   2.932   4.323  15.307 -1.7663  0.6165 -2.8771
 8532SOL    HW237056   2.960   4.175  15.331 -0.8309 -1.1262 -2.3789
 8533SOL     OW37057   3.190   0.061   5.604 -0.6225  0.5190 -0.1847
 8533SOL    HW137058   3.185   0.066   5.509  0.2422  1.0851 -0.1945
 8533SOL    HW237059   3.148   4.701   5.613  0.1352  0.0562 -1.1048
 8534SOL     OW37060   3.236   3.979  10.986 -0.0366 -0.5349 -0.7676
 8534SOL    HW137061   3.164   3.955  11.045  0.0726  1.4377  0.1606
 8534SOL    HW237062   3.301   3.993  11.055 -0.7798  0.5841 -0.2977
 8535SOL     OW37063   4.120   2.510   3.757  0.6126  0.1428  0.1931
 8535SOL    HW137064   4.201   2.459   3.754 -0.0236 -0.8963  0.3594
 8535SOL    HW237065   4.124   2.558   3.674 -2.0088 -1.3510 -0.8166
 8536SOL     OW37066   0.767   2.724   5.178 -0.2001 -0.3043 -0.4032
 8536SOL    HW137067   0.803   2.744   5.091 -0.6741  2.1180 -0.0316
 8536SOL    HW237068   0.676   2.754   5.179  0.4572  1.6809 -0.0091
 8537SOL     OW37069   3.150   2.117   7.414  0.2690  0.4782 -0.0125
 8537SOL    HW137070   3.074   2.175   7.408 -0.9880 -0.8586  3.0671
 8537SOL    HW237071   3.121   2.039   7.367  0.4884  1.3910 -1.6662
 8538SOL     OW37072   1.648   4.306   6.521 -0.1046 -0.1561 -0.2284
 8538SOL    HW137073   1.670   4.220   6.557 -1.5861 -0.4477 -0.0310
 8538SOL    HW237074   1.690   4.365   6.583 -1.3267  0.6223 -0.1541
 8539SOL     OW37075   2.683   2.148   4.704 -0.2106  0.4770 -0.7991
 8539SOL    HW137076   2.738   2.130   4.627 -1.3489 -2.2445 -0.9792
 8539SOL    HW237077   2.605   2.186   4.663 -3.1316 -2.8816  1.6252
 8540SOL     OW37078   3.324   4.019  12.177  0.3495  0.7223 -0.1160
 8540SOL    HW137079   3.268   4.039  12.251  1.7032  1.8978  0.5921
 8540SOL    HW237080   3.374   4.100  12.165 -0.0986  1.0704  0.3898
 8541SOL     OW37081   1.275   3.478   6.736 -0.2058 -0.9520  0.0528
 8541SOL    HW137082   1.309   3.388   6.740  0.6449 -0.6312 -0.0207
 8541SOL    HW237083   1.348   3.522   6.778 -0.3756 -0.5491 -0.0764
 8542SOL     OW37084   1.035   3.672   5.880  0.2577  0.3233  0.1823
 8542SOL    HW137085   0.979   3.726   5.935 -0.7892 -0.3843 -0.1923
 8542SOL    HW237086   0.978   3.595   5.886  1.6952 -0.7927 -0.4578
 8543SOL     OW37087   2.877   1.408   7.012 -0.0944 -0.0398 -0.5300
 8543SOL    HW137088   2.924   1.413   7.095  0.7896  0.2381 -1.0461
 8543SOL    HW237089   2.821   1.337   7.044 -0.5250  1.0077  1.0272
 8544SOL     OW37090   4.379   3.022   9.381  0.1585 -0.6382  0.3851
 8544SOL    HW137091   4.474   3.037   9.371 -0.2142  1.2681 -0.2968
 8544SOL    HW237092   4.362   3.096   9.439  0.7815 -0.2002  0.0194
 8545SOL     OW37093   2.692   2.225   3.521  0.2965  0.8683 -0.0563
 8545SOL    HW137094   2.786   2.219   3.536  0.6490  0.7912 -2.2508
 8545SOL    HW237095   2.666   2.133   3.516  2.4699  0.2927 -0.6475
 8546SOL     OW37096   3.256   3.504  15.252  0.2060  0.2243 -0.2035
 8546SOL    HW137097   3.223   3.593  15.241 -2.3481 -0.6969 -0.0765
 8546SOL    HW237098   3.213   3.467  15.175  0.4509 -1.9838  0.7219
 8547SOL     OW37099   3.186   1.474   4.099 -0.3768 -0.0573 -0.2157
 8547SOL    HW137100   3.261   1.426   4.137 -1.6976 -0.1166  2.3516
 8547SOL    HW237101   3.228   1.483   4.014  1.8944  3.4706  1.2940
 8548SOL     OW37102   3.478   0.048   3.245  0.2294 -0.4323 -0.0116
 8548SOL    HW137103   3.401   0.026   3.297  0.4514 -1.4098 -0.1089
 8548SOL    HW237104   3.545   0.032   3.312  0.7129 -1.2773 -0.7020
 8549SOL     OW37105   4.048   3.669  16.443  0.4520  0.5682  0.2673
 8549SOL    HW137106   4.090   3.590  16.411 -0.3216 -0.6715  2.3396
 8549SOL    HW237107   4.026   3.648  16.534 -0.3437 -1.4216 -0.3829
 8550SOL     OW37108   1.967   1.616   7.826  0.0175  0.2952 -0.3972
 8550SOL    HW137109   2.047   1.568   7.850 -0.0419  0.3472 -0.0879
 8550SOL    HW237110   1.953   1.574   7.742  2.8722  1.4689 -1.4821
 8551SOL     OW37111   0.941   4.505  10.415 -0.0698  0.1417 -0.1214
 8551SOL    HW137112   1.026   4.464  10.429 -1.1123 -1.5938  1.1632
 8551SOL    HW237113   0.902   4.462  10.339 -0.8217  3.0319 -1.3933
 8552SOL     OW37114   3.669   2.548   8.940 -0.0923 -0.2366 -0.2740
 8552SOL    HW137115   3.580   2.516   8.925  0.0498 -0.7922  0.0575
 8552SOL    HW237116   3.649   2.609   9.011  0.3712 -0.7242  0.2889
 8553SOL     OW37117   0.693   1.113  12.794 -0.6539  0.5209  0.7380
 8553SOL    HW137118   0.762   1.118  12.861  2.3825  0.1075 -2.3510
 8553SOL    HW237119   0.669   1.020  12.799 -2.7272  0.9308 -1.9170
 8554SOL     OW37120   4.243   2.592   0.720  0.1501 -0.0376  0.3985
 8554SOL    HW137121   4.168   2.649   0.734  1.1749  1.7875 -1.5906
 8554SOL    HW237122   4.299   2.601   0.797  0.2912  1.3056  0.1309
 8555SOL     OW37123   2.794   2.630   2.612  0.3196 -0.0528 -0.6032
 8555SOL    HW137124   2.815   2.620   2.520 -0.7143  0.7687 -0.9317
 8555SOL    HW237125   2.720   2.691   2.603  1.4606  1.4504  0.1461
 8556SOL     OW37126   1.917   3.094   6.916  0.0675  0.1721  0.2059
 8556SOL    HW137127   1.912   3.188   6.896 -0.1846  0.4492  1.5575
 8556SOL    HW237128   1.826   3.078   6.940  0.0873  1.1171  0.9323
 8557SOL     OW37129   2.520   4.603  11.881 -0.4114  0.7431  0.1199
 8557SOL    HW137130   2.592   4.540  11.883 -1.5021 -0.5411 -1.1746
 8557SOL    HW237131   2.533   4.643  11.795 -2.6133  1.8875  0.2928
 8558SOL     OW37132   4.110   0.349   9.302 -0.8869  0.1761  0.0474
 8558SOL    HW137133   4.158   0.403   9.364 -2.7614 -1.2643  2.7188
 8558SOL    HW237134   4.108   0.265   9.347 -0.0359 -0.4575 -1.0876
 8559SOL     OW37135   3.198   3.160  15.709  0.3509 -0.6254  0.4623
 8559SOL    HW137136   3.144   3.225  15.666  0.3096 -0.1958  1.1688
 8559SOL    HW237137   3.283   3.167  15.666 -1.2117 -2.7542 -2.9496
 8560SOL     OW37138   1.384   2.877   4.612  0.0326 -0.2889  0.0000
 8560SOL    HW137139   1.315   2.935   4.579 -0.6757  0.2943  2.4649
 8560SOL    HW237140   1.335   2.837   4.683  0.1102 -0.3170  0.0376
 8561SOL     OW37141   3.507   4.534  10.648  0.3120  0.1080  0.6827
 8561SOL    HW137142   3.498   4.444  10.681 -2.7652 -0.3885 -1.5792
 8561SOL    HW237143   3.434   4.530  10.587  0.6786 -0.0941  0.2518
 8562SOL     OW37144   3.107   3.465   9.769  0.0372  0.6703 -0.5738
 8562SOL    HW137145   3.173   3.397   9.778 -2.7336 -2.2591 -2.3803
 8562SOL    HW237146   3.033   3.441   9.824  0.2389  0.3386 -0.4516
 8563SOL     OW37147   4.147   2.326   6.245 -0.2594  0.0770  0.6694
 8563SOL    HW137148   4.139   2.360   6.156 -0.7228  2.7765  1.7493
 8563SOL    HW237149   4.118   2.404   6.292 -0.1000  0.3012  0.3987
 8564SOL     OW37150   1.178   2.702   2.638  0.1186  0.1194 -0.1811
 8564SOL    HW137151   1.139   2.651   2.567 -0.2108  1.0284 -0.6430
 8564SOL    HW237152   1.259   2.734   2.599 -1.2695  1.8299 -1.6535
 8565SOL     OW37153   0.141   4.446  15.251 -0.4937 -0.7388  0.3736
 8565SOL    HW137154   0.189   4.375  15.293 -0.4021 -1.2559 -0.5868
 8565SOL    HW237155   0.197   4.516  15.284  0.4552 -0.3774 -1.9489
 8566SOL     OW37156   4.648   0.247   1.159  0.0661  0.0431  0.0091
 8566SOL    HW137157   0.013   0.277   1.153  0.4944 -0.8363  2.1869
 8566SOL    HW237158   4.609   0.288   1.236  0.2454 -0.1306  0.1915
 8567SOL     OW37159   1.514   0.224   5.983  0.3872  0.0174 -0.1475
 8567SOL    HW137160   1.442   0.164   5.965  0.7611 -0.8734  1.4025
 8567SOL    HW237161   1.494   0.299   5.926  0.2729  0.8086  0.9314
 8568SOL     OW37162   2.732   1.556   3.369  0.5575  0.1694 -0.0072
 8568SOL    HW137163   2.643   1.588   3.381 -0.3211 -2.2823  0.0126
 8568SOL    HW237164   2.738   1.557   3.273  0.2895  2.0109 -0.0097
 8569SOL     OW37165   4.565   4.162   7.171  0.5706  0.0829 -0.1608
 8569SOL    HW137166   4.478   4.125   7.188  0.4221  0.4790 -0.0620
 8569SOL    HW237167   4.591   4.181   7.261 -0.6950  0.5132  0.1208
 8570SOL     OW37168   0.797   2.133   6.923  0.2239  0.1957  0.1868
 8570SOL    HW137169   0.773   2.224   6.937  1.1637  0.9791 -3.1900
 8570SOL    HW237170   0.836   2.141   6.835  1.0478 -0.4169  0.4950
 8571SOL     OW37171   0.233   4.620   6.956 -0.5290  0.3570 -0.3958
 8571SOL    HW137172   0.323   4.589   6.970 -0.3909  1.4833  1.2023
 8571SOL    HW237173   0.195   4.549   6.905 -1.0680 -1.4500  2.5717
 8572SOL     OW37174   3.098   1.113   5.909  0.2225 -0.7868 -0.4877
 8572SOL    HW137175   3.078   1.040   5.850 -0.4340  0.5957 -1.9606
 8572SOL    HW237176   3.035   1.084   5.975 -1.6086 -0.9418 -2.3112
 8573SOL     OW37177   1.330   1.413   4.864 -0.5092  0.2737 -0.0322
 8573SOL    HW137178   1.302   1.495   4.905 -1.3221 -0.2677  0.4879
 8573SOL    HW237179   1.274   1.423   4.786 -0.0734  2.1473 -0.1087
 8574SOL     OW37180   1.259   3.489   4.213 -0.0150  0.0827 -0.0943
 8574SOL    HW137181   1.305   3.505   4.295 -1.5576 -0.8698  0.9755
 8574SOL    HW237182   1.327   3.458   4.153  1.4420  3.1457 -0.0178
 8575SOL     OW37183   4.163   2.573   9.110 -0.2407 -0.4788 -0.0177
 8575SOL    HW137184   4.230   2.641   9.110 -2.0268  1.2840  0.8246
 8575SOL    HW237185   4.085   2.628   9.117  0.4372  0.6385 -1.3121
 8576SOL     OW37186   0.956   4.209   6.131 -0.2955 -0.2769  0.1220
 8576SOL    HW137187   0.995   4.135   6.083  1.2220  1.0795 -0.7548
 8576SOL    HW237188   0.938   4.266   6.056  0.2440 -0.7646 -0.3845
 8577SOL     OW37189   0.632   1.514   3.104  0.0854 -0.2806 -0.2358
 8577SOL    HW137190   0.582   1.536   3.183 -2.2353 -3.5286 -0.7905
 8577SOL    HW237191   0.572   1.520   3.029  2.2900  0.0908 -1.9659
 8578SOL     OW37192   2.256   0.247   8.765 -0.3123 -0.4952 -0.0935
 8578SOL    HW137193   2.203   0.168   8.771 -0.3949 -0.3099  1.6716
 8578SOL    HW237194   2.206   0.319   8.804 -1.0884 -0.5583 -0.9822
 8579SOL     OW37195   2.524   0.371   6.603  0.7170  0.0138  0.3776
 8579SOL    HW137196   2.530   0.278   6.627 -0.1097  0.5621  2.7129
 8579SOL    HW237197   2.512   0.366   6.508  0.1781 -0.7177  0.4863
 8580SOL     OW37198   1.263   0.602  12.828 -0.1069 -0.8474 -0.1154
 8580SOL    HW137199   1.195   0.544  12.794 -0.8790  0.4649 -0.8093
 8580SOL    HW237200   1.250   0.676  12.768 -1.3270  1.6851  3.2489
 8581SOL     OW37201   4.144   0.683   4.573  0.3492 -0.2751 -0.1396
 8581SOL    HW137202   4.055   0.670   4.539  0.0280  2.6299 -0.3659
 8581SOL    HW237203   4.190   0.606   4.540  1.7414  0.6388 -0.3419
 8582SOL     OW37204   2.737   4.414   7.729 -0.0835 -0.0413 -0.1525
 8582SOL    HW137205   2.702   4.326   7.712  2.7113 -1.3791  0.9379
 8582SOL    HW237206   2.789   4.395   7.807 -0.6859  0.6664  0.4197
 8583SOL     OW37207   0.587   4.449   2.564 -0.1250 -0.1388 -0.4599
 8583SOL    HW137208   0.567   4.494   2.646  0.2449 -0.3379 -0.2613
 8583SOL    HW237209   0.612   4.364   2.599  0.2338  0.1931  0.0911
 8584SOL     OW37210   4.394   4.677   6.289 -0.4658 -0.2347  0.1684
 8584SOL    HW137211   4.347   4.638   6.216 -0.4368 -2.0720  1.1190
 8584SOL    HW237212   4.455   0.002   6.236  2.4479 -1.2097  2.5667
 8585SOL     OW37213   0.574   0.195   9.929  0.1763 -0.7201 -0.4694
 8585SOL    HW137214   0.564   0.144  10.009  0.8594 -1.2789 -0.7308
 8585SOL    HW237215   0.638   0.260   9.958 -1.5809  0.5842  0.4810
 8586SOL     OW37216   3.836   0.288   2.415 -0.6882  0.2625  0.3728
 8586SOL    HW137217   3.923   0.250   2.406 -1.2446 -0.7918 -0.4724
 8586SOL    HW237218   3.802   0.286   2.326  0.2498  0.7530  0.0018
 8587SOL     OW37219   4.685   1.697  10.148 -0.7334 -0.3934 -0.2381
 8587SOL    HW137220   0.026   1.641  10.109  1.0854  1.7829 -0.2309
 8587SOL    HW237221   4.606   1.652  10.117 -1.8049  3.7769 -3.6446
 8588SOL     OW37222   1.525   0.714   6.861  0.3977 -0.1830  0.3087
 8588SOL    HW137223   1.477   0.706   6.779 -0.0883  2.1281  0.3716
 8588SOL    HW237224   1.559   0.803   6.855  2.2417 -0.8964  0.0532
 8589SOL     OW37225   2.925   3.572   6.821 -0.4263  0.0688  0.4940
 8589SOL    HW137226   2.962   3.531   6.900  0.0196 -1.4090 -0.4875
 8589SOL    HW237227   2.976   3.653   6.824  1.5206 -1.1379 -0.0665
 8590SOL     OW37228   4.633   0.296   3.260 -0.0512  0.1803  0.3171
 8590SOL    HW137229   4.701   0.261   3.317  1.0051  2.9616  0.7890
 8590SOL    HW237230   4.647   0.247   3.179 -0.4391  1.1953 -0.3701
 8591SOL     OW37231   3.052   2.011   4.472  0.1696 -0.3743  0.0021
 8591SOL    HW137232   2.982   1.949   4.490  0.4692 -0.6270  0.2837
 8591SOL    HW237233   3.025   2.088   4.523  2.4219  0.3428  0.1240
 8592SOL     OW37234   3.218   1.127   0.683 -0.4148  0.0232 -0.3172
 8592SOL    HW137235   3.193   1.209   0.641 -0.4345  0.4977  0.6071
 8592SOL    HW237236   3.300   1.143   0.730 -0.4010 -0.5494 -0.1512
 8593SOL     OW37237   0.825   1.409   7.916 -0.1626  0.0947  0.1236
 8593SOL    HW137238   0.886   1.352   7.869 -1.6146 -2.4624  1.3171
 8593SOL    HW237239   0.787   1.337   7.967 -0.3671  0.5702  0.6314
 8594SOL     OW37240   4.472   2.556   3.929 -0.4306  1.0482 -0.6379
 8594SOL    HW137241   4.521   2.476   3.949 -1.4549  1.0977  2.0416
 8594SOL    HW237242   4.480   2.556   3.834  1.0033 -2.1666 -0.4959
 8595SOL     OW37243   0.958   4.134   8.251  0.3544 -0.2669 -0.0806
 8595SOL    HW137244   0.924   4.174   8.331 -1.4756  0.1390 -1.0647
 8595SOL    HW237245   0.971   4.217   8.205 -0.8390  1.5562  2.9135
 8596SOL     OW37246   2.973   4.554   7.018 -0.1372  0.3032 -0.1944
 8596SOL    HW137247   2.881   4.535   7.036  0.1779 -1.7948 -0.7618
 8596SOL    HW237248   3.008   4.581   7.103 -1.7938  0.8139  0.3346
 8597SOL     OW37249   0.482   0.794   5.344  0.6014 -0.4895 -0.6899
 8597SOL    HW137250   0.479   0.770   5.251 -1.7148  3.7813 -1.7197
 8597SOL    HW237251   0.527   0.711   5.363  1.3625 -0.1945 -1.2054
 8598SOL     OW37252   3.241   2.969   6.493  0.5537 -0.5134 -0.3102
 8598SOL    HW137253   3.269   2.883   6.525  1.4797 -0.0884  0.0167
 8598SOL    HW237254   3.146   2.967   6.486  0.7207  0.1609 -2.8049
 8599SOL     OW37255   1.602   4.712   7.907 -0.3826  0.1150 -0.3029
 8599SOL    HW137256   1.529   0.043   7.882 -0.7935 -0.8102 -1.2166
 8599SOL    HW237257   1.551   4.631   7.918  1.4765 -1.0816 -0.3671
 8600SOL     OW37258   4.022   1.992  10.668 -0.4704  0.4412 -0.2612
 8600SOL    HW137259   4.049   2.008  10.759  0.0904  2.6571 -0.8025
 8600SOL    HW237260   4.003   1.899  10.670  0.7907  0.2264  1.4283
 8601SOL     OW37261   4.704   2.402   3.393 -0.1240 -0.2141  0.5389
 8601SOL    HW137262   0.003   2.313   3.420  0.6773 -0.2465 -0.2882
 8601SOL    HW237263   0.049   2.414   3.329 -0.5069  0.5929  0.2635
 8602SOL     OW37264   0.226   3.961   7.979 -0.1316  0.0007  0.6032
 8602SOL    HW137265   0.199   4.051   7.959 -0.2432 -0.1879 -0.1084
 8602SOL    HW237266   0.137   3.928   7.990 -0.2272 -0.3305 -1.1730
 8603SOL     OW37267   3.449   2.419  15.591  0.0757  0.6944 -0.2583
 8603SOL    HW137268   3.384   2.469  15.540  0.4555 -1.5086 -2.8522
 8603SOL    HW237269   3.436   2.326  15.574  1.8312  0.4959 -0.5095
 8604SOL     OW37270   3.892   0.461  17.323  0.4615  0.1369  0.6522
 8604SOL    HW137271   3.961   0.401  17.352 -0.6263 -0.6306  1.6813
 8604SOL    HW237272   3.917   0.545  17.361  0.6017  0.1116  0.6162
 8605SOL     OW37273   0.349   3.674   6.245 -0.1203  0.3583 -0.3365
 8605SOL    HW137274   0.440   3.672   6.274 -0.0236  1.7814 -0.5637
 8605SOL    HW237275   0.342   3.768   6.232  3.3542  0.3403 -2.2421
 8606SOL     OW37276   3.214   1.586   0.172  0.5474  0.1288  0.5821
 8606SOL    HW137277   3.205   1.668   0.222  1.1872  0.7173 -0.2667
 8606SOL    HW237278   3.259   1.534   0.239  1.5853 -1.7362 -1.5766
 8607SOL     OW37279   0.269   2.366   6.615 -0.2813 -0.6031 -0.6505
 8607SOL    HW137280   0.225   2.440   6.574 -1.3208 -1.5994 -1.3662
 8607SOL    HW237281   0.189   2.316   6.634 -0.2447 -0.7765 -0.9408
 8608SOL     OW37282   1.194   2.198   6.644  0.1552 -0.1020  0.4949
 8608SOL    HW137283   1.101   2.205   6.623  0.4309  0.0908 -0.6818
 8608SOL    HW237284   1.230   2.244   6.568 -1.6202 -2.0930 -1.5220
 8609SOL     OW37285   2.619   3.792   7.151  0.0335  0.2923  0.0119
 8609SOL    HW137286   2.672   3.769   7.228  0.4919  4.1796  0.8636
 8609SOL    HW237287   2.637   3.886   7.155  1.2566  0.1806 -2.5339
 8610SOL     OW37288   4.284   2.040  10.859 -0.0431  0.4020 -0.2566
 8610SOL    HW137289   4.232   1.991  10.922 -3.3251  2.2735 -1.5115
 8610SOL    HW237290   4.375   2.048  10.890  0.5043  2.6634 -2.4847
 8611SOL     OW37291   0.624   1.337  11.706 -0.1105  0.0767 -0.6346
 8611SOL    HW137292   0.694   1.274  11.691  0.4726  1.0692 -2.0643
 8611SOL    HW237293   0.679   1.415  11.695  1.0922 -0.6980 -0.0414
 8612SOL     OW37294   3.859   3.434   3.731  0.0712 -0.0619 -0.2874
 8612SOL    HW137295   3.945   3.392   3.740  0.1953  0.3385  0.4168
 8612SOL    HW237296   3.864   3.477   3.646  0.2603 -0.6944 -0.5995
 8613SOL     OW37297   1.060   3.229   4.823  0.0880  0.2725  0.1660
 8613SOL    HW137298   1.062   3.141   4.784 -0.5032 -0.2106  1.2325
 8613SOL    HW237299   0.999   3.217   4.896  1.5426 -1.1344  1.1440
 8614SOL     OW37300   3.943   1.422   7.121  0.4652  0.3118  0.2225
 8614SOL    HW137301   3.853   1.454   7.112  1.0620  1.7557 -0.5673
 8614SOL    HW237302   3.978   1.481   7.187 -0.3069 -0.3131  1.1865
 8615SOL     OW37303   2.814   3.155   5.885  0.2933 -0.3973 -0.3447
 8615SOL    HW137304   2.808   3.246   5.917 -2.0681 -0.7492  0.2154
 8615SOL    HW237305   2.725   3.141   5.851 -0.1095  4.0067 -1.1712
 8616SOL     OW37306   4.434   0.221  11.879  0.0830  0.0149  0.1863
 8616SOL    HW137307   4.413   0.280  11.807 -1.4798  0.1731  0.7806
 8616SOL    HW237308   4.352   0.174  11.894  0.3257 -0.7042 -0.8320
 8617SOL     OW37309   3.240   0.303   8.495 -0.4505 -0.0320  0.4814
 8617SOL    HW137310   3.228   0.242   8.422 -1.2975  1.6746 -0.8103
 8617SOL    HW237311   3.184   0.377   8.473  2.8726  2.3359 -0.0964
 8618SOL     OW37312   0.744   2.035   2.833  0.0574 -0.4013  0.2203
 8618SOL    HW137313   0.787   2.072   2.910  0.4599  0.1657 -0.2798
 8618SOL    HW237314   0.820   1.998   2.786 -0.5428  0.1560 -1.1773
 8619SOL     OW37315   2.533   4.175   8.019  0.1388 -0.3281  0.2478
 8619SOL    HW137316   2.452   4.181   8.068 -0.6198  0.1331 -1.0708
 8619SOL    HW237317   2.543   4.261   7.979  0.8122 -0.2676  0.5381
 8620SOL     OW37318   2.359   0.710   3.769  0.3280  0.1536 -0.5203
 8620SOL    HW137319   2.406   0.731   3.850 -1.6056 -1.0491  0.9182
 8620SOL    HW237320   2.318   0.794   3.747  1.8622  0.8410 -0.7724
 8621SOL     OW37321   2.548   2.203   5.521 -0.0541 -0.4951 -0.2386
 8621SOL    HW137322   2.576   2.242   5.439  1.5977  2.2466  1.6213
 8621SOL    HW237323   2.621   2.230   5.576 -0.2231  0.9700 -0.7506
 8622SOL     OW37324   3.042   2.198  14.928  0.3878  0.1142 -0.2781
 8622SOL    HW137325   3.076   2.271  14.980 -0.9118 -0.8140  1.8526
 8622SOL    HW237326   2.961   2.178  14.975  0.0029  0.6175 -0.7235
 8623SOL     OW37327   3.769   0.851   2.783 -0.8932  0.1458 -0.6325
 8623SOL    HW137328   3.781   0.944   2.765 -0.4770  0.3484  0.6823
 8623SOL    HW237329   3.746   0.810   2.700  1.3974 -0.7122 -0.8613
 8624SOL     OW37330   4.345   3.616  12.730 -0.1393  0.4887  0.2120
 8624SOL    HW137331   4.432   3.577  12.740  0.4021  1.8047  0.7069
 8624SOL    HW237332   4.291   3.538  12.737 -0.5169  0.5474 -2.0317
 8625SOL     OW37333   3.256   0.733  16.526 -0.8159  0.2749  0.5743
 8625SOL    HW137334   3.174   0.781  16.517 -0.4602  0.9726  1.1249
 8625SOL    HW237335   3.316   0.792  16.480 -2.2822  1.3578  0.0671
 8626SOL     OW37336   1.172   1.519  12.416  0.0062  0.2428 -0.3772
 8626SOL    HW137337   1.223   1.599  12.408 -0.2450  0.5639  1.1877
 8626SOL    HW237338   1.214   1.491  12.498 -1.7245  0.0091  0.4287
 8627SOL     OW37339   2.522   0.826  15.798 -0.3296  0.0070 -0.2284
 8627SOL    HW137340   2.506   0.916  15.828 -2.8445 -0.5625  0.1534
 8627SOL    HW237341   2.438   0.789  15.825 -0.3492 -0.4026 -0.8437
 8628SOL     OW37342   2.644   3.177   4.470  0.0069 -0.5171  0.1446
 8628SOL    HW137343   2.729   3.205   4.505 -0.3654  2.1394 -1.0420
 8628SOL    HW237344   2.652   3.216   4.383 -0.2616  0.8656  0.7346
 8629SOL     OW37345   3.740   3.728   9.171 -0.1993  0.6013  0.1879
 8629SOL    HW137346   3.719   3.734   9.264  2.3974 -1.5469  0.9261
 8629SOL    HW237347   3.832   3.753   9.177 -0.0778  0.5048 -1.2488
 8630SOL     OW37348   3.399   1.705  15.474  0.3301 -0.0074 -0.0609
 8630SOL    HW137349   3.470   1.747  15.522 -0.8387 -1.0450  2.5903
 8630SOL    HW237350   3.443   1.626  15.441  1.6488  0.7416 -0.0840
 8631SOL     OW37351   1.589   1.662  11.582 -0.6290 -0.0276  0.3781
 8631SOL    HW137352   1.533   1.586  11.567 -0.3657  0.3737 -2.7218
 8631SOL    HW237353   1.548   1.734  11.533  2.0265  0.0240 -1.7159
 8632SOL     OW37354   3.878   2.107   5.808 -0.0182 -0.3156  0.2504
 8632SOL    HW137355   3.844   2.118   5.719 -1.9271  0.5677  1.0794
 8632SOL    HW237356   3.852   2.019   5.833 -0.1433  0.5122  3.1009
 8633SOL     OW37357   2.044   4.563   2.497 -0.7074 -0.5507  0.0911
 8633SOL    HW137358   2.075   4.479   2.529 -0.3643 -0.0471  1.0760
 8633SOL    HW237359   2.129   4.587   2.461  0.3506  0.9484  3.5908
 8634SOL     OW37360   4.142   4.626  13.907  0.0177 -0.1029  0.4006
 8634SOL    HW137361   4.138   4.544  13.957 -1.6392 -1.6081 -2.1990
 8634SOL    HW237362   4.126   4.588  13.821 -0.6513 -1.6029  1.1878
 8635SOL     OW37363   4.084   2.741   9.582  0.2298 -0.0952  0.7405
 8635SOL    HW137364   4.037   2.707   9.658 -0.5004  0.8856  0.7333
 8635SOL    HW237365   4.071   2.836   9.587 -2.1985 -0.3400 -0.7628
 8636SOL     OW37366   3.897   2.642   7.758 -0.4719 -0.4163  0.2793
 8636SOL    HW137367   3.942   2.665   7.676 -1.0167 -2.2472 -0.5321
 8636SOL    HW237368   3.851   2.719   7.790 -0.5145 -0.7938  1.1160
 8637SOL     OW37369   2.833   2.524  11.035  0.8064 -0.5980  0.2427
 8637SOL    HW137370   2.923   2.546  11.010  1.3387 -1.7164  1.1585
 8637SOL    HW237371   2.854   2.449  11.091  2.0718 -0.9195 -0.6537
 8638SOL     OW37372   1.257   1.561   8.658  0.0179 -0.7891  0.2021
 8638SOL    HW137373   1.300   1.527   8.580  0.7617 -0.0701  0.2983
 8638SOL    HW237374   1.311   1.522   8.727 -0.3240 -0.5956  0.5803
 8639SOL     OW37375   3.807   2.817   4.114  0.1982 -0.3683  0.2615
 8639SOL    HW137376   3.776   2.728   4.098 -3.1769  1.2196 -2.0565
 8639SOL    HW237377   3.828   2.846   4.026  1.4529 -0.4456  0.5417
 8640SOL     OW37378   3.076   1.435   4.348  0.1418 -0.1109  0.2012
 8640SOL    HW137379   3.116   1.501   4.404  0.9669 -1.7834  1.5724
 8640SOL    HW237380   3.093   1.467   4.259 -0.3525 -0.6159 -0.0770
 8641SOL     OW37381   1.583   3.992  13.290 -0.0126 -0.7436 -0.2114
 8641SOL    HW137382   1.658   4.001  13.348  1.5532  0.9717 -2.5028
 8641SOL    HW237383   1.531   3.930  13.341 -0.7905  0.3829  0.3587
 8642SOL     OW37384   3.321   3.688  16.944  0.2728  0.3567  0.1748
 8642SOL    HW137385   3.412   3.662  16.963  0.6350  1.0955 -0.5720
 8642SOL    HW237386   3.291   3.718  17.030  0.7255 -0.2759  0.5548
 8643SOL     OW37387   2.586   4.461   3.627 -0.0324 -0.0257 -0.0734
 8643SOL    HW137388   2.507   4.471   3.573 -0.2122 -2.0631 -0.1689
 8643SOL    HW237389   2.555   4.381   3.670 -0.0638  0.6733  1.2134
 8644SOL     OW37390   0.287   2.097   2.809  0.3841  0.4451 -0.9330
 8644SOL    HW137391   0.276   2.156   2.883 -1.3981 -0.6385 -0.3527
 8644SOL    HW237392   0.314   2.021   2.860 -0.4190  0.3183 -0.7081
 8645SOL     OW37393   1.792   4.422   3.343  0.3666 -0.0405  0.2538
 8645SOL    HW137394   1.829   4.335   3.359  2.3682  0.3335 -2.3652
 8645SOL    HW237395   1.725   4.408   3.276  1.4640  3.1922 -1.5105
 8646SOL     OW37396   4.451   2.181   5.739 -0.3760 -0.2472 -0.4220
 8646SOL    HW137397   4.413   2.094   5.754 -1.1441  0.0956 -0.3858
 8646SOL    HW237398   4.442   2.190   5.644  1.6096 -1.4410 -0.7229
 8647SOL     OW37399   0.684   2.119   5.195 -0.2820 -0.0361  0.0219
 8647SOL    HW137400   0.741   2.106   5.119 -0.8240 -0.2682 -0.3500
 8647SOL    HW237401   0.714   2.044   5.245  1.1346  1.4045  1.3062
 8648SOL     OW37402   0.274   0.130   8.872  0.2624  1.1444  0.3323
 8648SOL    HW137403   0.282   0.039   8.903  2.7090  1.0882 -0.4274
 8648SOL    HW237404   0.276   0.113   8.778  0.2958  0.8981  0.3757
 8649SOL     OW37405   1.176   3.987   8.540  0.5094  0.0588 -0.1512
 8649SOL    HW137406   1.128   4.061   8.577 -0.3291 -0.7593  0.3969
 8649SOL    HW237407   1.266   4.005   8.568  0.8925 -1.6955 -0.2497
 8650SOL     OW37408   0.887   1.432   5.297  0.3886  0.1551 -0.4039
 8650SOL    HW137409   0.958   1.491   5.271  1.9631 -1.5521  0.0292
 8650SOL    HW237410   0.853   1.410   5.210 -2.9442  0.9359  0.7115
 8651SOL     OW37411   0.886   1.322   7.350 -1.0012 -0.0844 -0.2075
 8651SOL    HW137412   0.891   1.416   7.368 -0.4934 -0.0810 -0.3580
 8651SOL    HW237413   0.882   1.335   7.255 -2.7694 -2.8391 -0.5060
 8652SOL     OW37414   1.877   0.230   8.546  0.2652 -0.1447  0.3352
 8652SOL    HW137415   1.886   0.300   8.481  3.6671 -0.2761  0.6577
 8652SOL    HW237416   1.826   0.286   8.604 -1.2781 -0.3120 -0.8486
 8653SOL     OW37417   2.459   0.792   4.352  0.2067  0.2970 -0.7176
 8653SOL    HW137418   2.504   0.773   4.269  1.2497 -2.1144  0.4115
 8653SOL    HW237419   2.530   0.808   4.414 -2.6079  2.0599  2.0018
 8654SOL     OW37420   3.843   1.112  14.692  0.0055  0.2970  0.9273
 8654SOL    HW137421   3.866   1.021  14.710 -1.5097 -0.4585 -0.9241
 8654SOL    HW237422   3.926   1.160  14.698  0.5016 -0.7758  2.6098
 8655SOL     OW37423   2.806   3.603   0.404  0.0892 -0.2894 -0.2378
 8655SOL    HW137424   2.855   3.571   0.480  0.5611  1.0929  0.0398
 8655SOL    HW237425   2.775   3.689   0.428 -1.2039 -0.4294 -1.4126
 8656SOL     OW37426   0.496   2.222   1.174  0.3726  0.7920  0.5590
 8656SOL    HW137427   0.401   2.213   1.176  0.4576 -0.3607 -0.1159
 8656SOL    HW237428   0.524   2.137   1.137 -1.9312  0.3462 -0.1906
 8657SOL     OW37429   1.065   4.645   8.231  0.2287 -0.1686  0.0381
 8657SOL    HW137430   1.054   4.610   8.320  2.5824 -0.2834  0.2702
 8657SOL    HW237431   1.033   0.009   8.235  0.3654 -0.1383  0.4723
 8658SOL     OW37432   2.788   0.293   6.191  0.2271 -0.1620  0.7020
 8658SOL    HW137433   2.857   0.309   6.126 -0.3895 -2.4455 -0.5166
 8658SOL    HW237434   2.770   0.379   6.227 -0.7264  0.1770 -0.5816
 8659SOL     OW37435   3.097   0.613  14.315 -0.6037 -0.6623 -0.4113
 8659SOL    HW137436   3.179   0.662  14.320 -0.6706 -0.6461  0.5733
 8659SOL    HW237437   3.034   0.681  14.291  3.7041  2.3204 -3.3021
 8660SOL     OW37438   0.502   3.283  14.130  0.1304 -0.4683  0.1758
 8660SOL    HW137439   0.564   3.214  14.152  0.4154 -0.3499 -0.2578
 8660SOL    HW237440   0.419   3.244  14.160  0.0574  0.2584  0.9157
 8661SOL     OW37441   3.676   0.489   3.532 -0.7685 -0.0014  0.0789
 8661SOL    HW137442   3.755   0.516   3.485 -1.2559  1.0892 -0.1184
 8661SOL    HW237443   3.615   0.486   3.459 -1.2813  1.6738  0.4342
 8662SOL     OW37444   2.727   4.501   8.629  0.1191  0.1650 -0.5114
 8662SOL    HW137445   2.673   4.425   8.650  2.1628 -1.1549 -0.0492
 8662SOL    HW237446   2.811   4.482   8.670  1.4834 -3.1926 -4.9357
 8663SOL     OW37447   1.950   0.193  16.446  0.1363 -0.4093 -0.0806
 8663SOL    HW137448   2.028   0.216  16.395  1.3950 -0.0045  2.0116
 8663SOL    HW237449   1.975   0.102  16.462  2.5066  0.2692  0.1773
 8664SOL     OW37450   4.193   0.861  11.913  0.3504  0.1252 -0.6694
 8664SOL    HW137451   4.214   0.768  11.903  0.5797  0.0714  0.2740
 8664SOL    HW237452   4.281   0.896  11.901 -0.9004  3.7377  0.7703
 8665SOL     OW37453   4.383   4.013   9.287  0.3200  0.0106 -0.5526
 8665SOL    HW137454   4.409   3.972   9.370  0.1135  0.9814 -0.0151
 8665SOL    HW237455   4.385   4.107   9.302  1.6507  0.0455 -0.9201
 8666SOL     OW37456   1.057   2.076   0.488  0.1420 -0.0918 -0.3483
 8666SOL    HW137457   1.090   2.132   0.558  0.2188 -0.7900  0.1781
 8666SOL    HW237458   0.993   2.026   0.538  0.3825 -0.3365 -0.2864
 8667SOL     OW37459   2.792   3.581   9.670 -0.8276  0.1183 -0.2544
 8667SOL    HW137460   2.842   3.658   9.643 -2.0797  0.6026 -1.2012
 8667SOL    HW237461   2.759   3.543   9.588 -0.7718 -0.6200  0.0634
 8668SOL     OW37462   0.903   1.517   3.709 -0.1617 -0.2550  0.0566
 8668SOL    HW137463   0.971   1.521   3.642  1.1737  0.4197  1.4441
 8668SOL    HW237464   0.959   1.558   3.775 -1.6282  0.7178  0.6928
 8669SOL     OW37465   3.170   1.756   3.926 -0.0400 -0.1855  0.5000
 8669SOL    HW137466   3.181   1.751   3.831  4.1014  0.6801  0.9478
 8669SOL    HW237467   3.074   1.757   3.932 -0.0404 -2.7093  0.8798
 8670SOL     OW37468   0.635   0.226   2.685  0.2017  0.1841  0.6124
 8670SOL    HW137469   0.654   0.135   2.707 -0.8327 -0.7325 -2.2796
 8670SOL    HW237470   0.694   0.275   2.741  1.0973 -1.4375  1.0995
 8671SOL     OW37471   3.742   4.194   2.863  0.4360 -0.0010 -0.5536
 8671SOL    HW137472   3.681   4.246   2.914  2.8109  1.3281  0.9291
 8671SOL    HW237473   3.817   4.171   2.918 -0.7580  1.0604  1.5092
 8672SOL     OW37474   2.173   2.300  16.075  0.2646 -0.2989 -0.3811
 8672SOL    HW137475   2.267   2.320  16.070 -0.4091  2.7931 -0.7276
 8672SOL    HW237476   2.154   2.287  15.982  0.3875  0.4492 -0.5117
 8673SOL     OW37477   2.176   3.415   6.693 -0.1009 -0.6294  0.1846
 8673SOL    HW137478   2.245   3.349   6.702  0.8721  0.3127 -0.3427
 8673SOL    HW237479   2.194   3.459   6.611  0.5058  1.1815  1.2977
 8674SOL     OW37480   4.168   3.493  16.094  0.6139  0.3216  0.2267
 8674SOL    HW137481   4.150   3.567  16.036  1.3389  0.7311  0.5245
 8674SOL    HW237482   4.262   3.478  16.102  0.7963  2.0477  1.2414
 8675SOL     OW37483   3.182   4.663   6.006 -0.1640  0.0420  0.0832
 8675SOL    HW137484   3.143   4.577   6.018 -1.5722  0.6506 -0.2201
 8675SOL    HW237485   3.135   4.715   6.071 -0.0498  0.1269  0.0983
 8676SOL     OW37486   2.703   0.597   7.872  0.2099 -0.0037  0.1229
 8676SOL    HW137487   2.635   0.531   7.858  0.6552 -0.4357  0.0037
 8676SOL    HW237488   2.651   0.661   7.920  2.4070 -0.0224  2.4890
 8677SOL     OW37489   2.360   1.153   0.105  0.2309  0.0407 -0.5353
 8677SOL    HW137490   2.371   1.241   0.141  1.0388  0.1172 -0.9600
 8677SOL    HW237491   2.349   1.102   0.185  0.5455 -1.0292 -1.1736
 8678SOL     OW37492   1.902   1.411   2.301 -0.4932  0.5169  0.7381
 8678SOL    HW137493   1.910   1.344   2.233 -0.1373 -0.7783  2.0285
 8678SOL    HW237494   1.874   1.347   2.368 -1.0774  0.8116  0.7750
 8679SOL     OW37495   3.302   1.340   8.481  0.5844 -0.2570  0.4581
 8679SOL    HW137496   3.212   1.311   8.492  0.4344  0.0448  0.0202
 8679SOL    HW237497   3.345   1.293   8.410  2.2892  1.3514  0.4209
 8680SOL     OW37498   4.311   3.711   4.843  0.0225 -0.3198  0.6262
 8680SOL    HW137499   4.335   3.677   4.930 -0.5068 -1.8336  0.1784
 8680SOL    HW237500   4.273   3.796   4.868 -0.2532  0.2619 -1.7951
 8681SOL     OW37501   0.848   3.249   4.317 -0.2685 -0.3299 -0.2224
 8681SOL    HW137502   0.761   3.276   4.288 -0.8829 -1.2789  0.7258
 8681SOL    HW237503   0.886   3.206   4.241  1.8441 -0.3015  0.8270
 8682SOL     OW37504   2.796   3.265  14.554 -0.1808 -0.0155  0.2770
 8682SOL    HW137505   2.782   3.349  14.596  1.6094 -0.2769  1.3924
 8682SOL    HW237506   2.760   3.203  14.618  2.4327 -0.9229  0.8661
 8683SOL     OW37507   3.244   0.658   8.355  0.1670 -0.2492  0.4645
 8683SOL    HW137508   3.195   0.737   8.331 -0.6625 -0.3101  1.9316
 8683SOL    HW237509   3.176   0.593   8.373  2.2416 -1.5859  3.3251
 8684SOL     OW37510   4.134   2.461   9.843 -0.2915 -0.4042 -0.0648
 8684SOL    HW137511   4.218   2.450   9.798  0.1989 -2.3443  1.2974
 8684SOL    HW237512   4.144   2.381   9.896  2.1390  1.0311  1.6271
 8685SOL     OW37513   0.024   0.771   1.272 -0.0811 -0.1449 -0.3001
 8685SOL    HW137514   4.687   0.776   1.344  0.8339  2.2699  0.3426
 8685SOL    HW237515   4.694   0.784   1.195  0.2007 -2.6720 -0.9166
 8686SOL     OW37516   2.012   1.366  10.685 -0.1497 -0.0096 -0.4127
 8686SOL    HW137517   1.947   1.335  10.622  0.7499 -0.5746 -1.0733
 8686SOL    HW237518   2.092   1.332  10.643  0.0693 -0.0598  0.0487
 8687SOL     OW37519   1.480   1.975   4.165 -0.2955  0.2679 -1.2886
 8687SOL    HW137520   1.489   2.024   4.083  0.2525 -1.7241 -2.4289
 8687SOL    HW237521   1.493   1.883   4.141 -2.2936 -0.5270  0.7768
 8688SOL     OW37522   3.717   1.336   1.808 -0.1653  0.1555 -0.5735
 8688SOL    HW137523   3.792   1.390   1.784 -0.4848  1.1043  0.5767
 8688SOL    HW237524   3.650   1.363   1.745  2.0360 -1.5382 -3.5956
 8689SOL     OW37525   4.527   4.180   2.886 -0.5447  0.2507  0.3287
 8689SOL    HW137526   4.608   4.217   2.851 -0.2660 -1.0484 -0.4074
 8689SOL    HW237527   4.468   4.253   2.869  0.5415  1.3763  1.4664
 8690SOL     OW37528   2.684   1.513  12.485  0.7026 -0.1519 -0.2943
 8690SOL    HW137529   2.596   1.542  12.462  1.1241  1.7510  0.4551
 8690SOL    HW237530   2.684   1.514  12.580 -3.9938 -1.3997 -0.3268
 8691SOL     OW37531   2.441   3.255   1.332 -0.5363 -0.1668 -0.2920
 8691SOL    HW137532   2.514   3.286   1.279 -0.5412  1.8858  0.9032
 8691SOL    HW237533   2.364   3.288   1.287 -0.6942  0.7918  0.6719
 8692SOL     OW37534   0.308   2.473  12.370 -0.4567 -0.4582  0.2401
 8692SOL    HW137535   0.275   2.392  12.332  1.9993 -0.9040 -0.8894
 8692SOL    HW237536   0.366   2.437  12.437 -0.8160  1.0426  1.3547
 8693SOL     OW37537   2.441   2.277   5.196  0.4075  0.2736  0.3219
 8693SOL    HW137538   2.415   2.206   5.137 -0.3287  2.6717 -2.2010
 8693SOL    HW237539   2.524   2.252   5.235  1.2570  0.6486 -1.2426
 8694SOL     OW37540   0.288   2.222   4.447  0.1193 -0.3590 -0.1939
 8694SOL    HW137541   0.279   2.223   4.542  2.3080 -0.6917  0.0023
 8694SOL    HW237542   0.336   2.304   4.434 -0.0892 -0.4621 -1.6941
 8695SOL     OW37543   1.252   3.434   8.651 -0.4064  0.6098  0.2915
 8695SOL    HW137544   1.298   3.516   8.632 -2.1592  1.9920  1.9351
 8695SOL    HW237545   1.199   3.427   8.571  1.8680  0.9491 -1.2406
 8696SOL     OW37546   0.773   0.646   8.581  0.2371 -0.3347  0.2472
 8696SOL    HW137547   0.695   0.693   8.608  0.7642  1.7232 -1.7686
 8696SOL    HW237548   0.743   0.561   8.548  1.3928 -1.0177  0.9600
 8697SOL     OW37549   1.857   1.520   2.550  0.1017 -0.3253  0.2148
 8697SOL    HW137550   1.884   1.611   2.537 -1.2380  0.0240 -0.0869
 8697SOL    HW237551   1.885   1.473   2.471 -1.1623 -2.2049  0.8876
 8698SOL     OW37552   0.882   0.972   4.326  0.0011  0.5366  0.2895
 8698SOL    HW137553   0.818   0.908   4.296 -1.9585  1.2954  2.8080
 8698SOL    HW237554   0.883   1.027   4.248 -1.9139 -0.2444 -0.2673
 8699SOL     OW37555   2.377   1.435   5.996 -0.1904 -0.6018 -0.5064
 8699SOL    HW137556   2.312   1.369   5.975 -1.0599 -0.2083  0.9623
 8699SOL    HW237557   2.350   1.454   6.086 -1.2593 -1.2922 -0.6926
 8700SOL     OW37558   3.912   1.145   9.026 -0.2770 -0.0655  0.4528
 8700SOL    HW137559   3.946   1.088   8.957 -0.2996 -0.9590  1.1764
 8700SOL    HW237560   3.917   1.093   9.106 -0.3168  0.0815  0.5517
 8701SOL     OW37561   2.955   1.234   4.149 -0.1395 -0.1368  0.3301
 8701SOL    HW137562   2.966   1.326   4.174 -1.0127  0.1015 -0.1711
 8701SOL    HW237563   3.009   1.242   4.070  1.0166 -4.6311  0.6846
 8702SOL     OW37564   3.222   3.225  10.290 -0.2680  0.0310  0.7334
 8702SOL    HW137565   3.145   3.269  10.253  0.0855 -0.1475 -0.2110
 8702SOL    HW237566   3.199   3.140  10.253 -1.5610  0.1212  1.3149
 8703SOL     OW37567   4.008   0.773   7.512 -0.1861  0.1330  0.3138
 8703SOL    HW137568   3.959   0.785   7.593  1.2169  0.9992  1.0383
 8703SOL    HW237569   4.099   0.782   7.541 -0.8854  0.8807  2.3055
 8704SOL     OW37570   4.287   3.358   8.104  0.2121 -0.4363 -0.4905
 8704SOL    HW137571   4.346   3.403   8.044  0.2079 -0.7141 -0.7047
 8704SOL    HW237572   4.344   3.305   8.160  0.9749 -0.4767 -1.3043
 8705SOL     OW37573   1.650   3.212   3.641 -0.2594  0.1796  0.4142
 8705SOL    HW137574   1.737   3.239   3.611 -0.5566 -1.3293 -1.8612
 8705SOL    HW237575   1.611   3.217   3.554  0.1103  1.9638  0.3510
 8706SOL     OW37576   1.460   0.167   0.513 -0.0877  0.5317 -0.1129
 8706SOL    HW137577   1.432   0.083   0.549 -2.8382  0.8938 -1.4561
 8706SOL    HW237578   1.506   0.194   0.593  0.2763 -0.8805  0.1528
 8707SOL     OW37579   0.469   4.708   0.789  0.4690  0.0112  0.3676
 8707SOL    HW137580   0.520   4.663   0.722  0.6443  2.1255 -0.8854
 8707SOL    HW237581   0.542   0.033   0.826  0.6175  0.5019 -0.6059
 8708SOL     OW37582   3.071   2.962   2.461 -0.4253 -0.2587  0.0420
 8708SOL    HW137583   3.095   3.006   2.379 -0.2783  1.4220  0.9811
 8708SOL    HW237584   3.139   2.983   2.525 -0.3546  1.2219 -0.5019
 8709SOL     OW37585   1.647   3.819   6.486  0.2418  0.1600  0.1940
 8709SOL    HW137586   1.674   3.869   6.409  0.3668  0.0123  0.1424
 8709SOL    HW237587   1.703   3.741   6.488  1.5324  1.1032  1.1986
 8710SOL     OW37588   1.749   2.563   9.167  0.2187 -0.0660  0.0608
 8710SOL    HW137589   1.716   2.634   9.112  1.2034  0.5779  0.3115
 8710SOL    HW237590   1.717   2.476   9.142  2.1899  0.0292 -2.7235
 8711SOL     OW37591   1.005   1.684   8.706 -0.3153  0.0453  0.3603
 8711SOL    HW137592   0.960   1.626   8.769  0.7416 -0.2422  0.8583
 8711SOL    HW237593   1.093   1.648   8.698 -0.5470 -0.0658 -1.5893
 8712SOL     OW37594   4.673   1.848  17.697 -0.3228 -0.0078  0.2683
 8712SOL    HW137595   0.022   1.897  17.665 -1.5143  0.7032 -1.4262
 8712SOL    HW237596   4.622   1.914   0.039 -0.8769 -1.0502  1.1615
 8713SOL     OW37597   4.032   2.804   1.751 -0.6835 -0.1485 -0.2476
 8713SOL    HW137598   4.036   2.899   1.743 -1.4513 -0.0296  0.7220
 8713SOL    HW237599   3.958   2.770   1.699 -1.9630  0.6904  1.0271
 8714SOL     OW37600   2.709   1.550   8.402  0.0170 -0.0559 -0.2757
 8714SOL    HW137601   2.622   1.561   8.363  0.5300 -1.5402 -1.8817
 8714SOL    HW237602   2.743   1.631   8.364 -2.1837  1.1258  0.2445
 8715SOL     OW37603   4.608   2.275  17.078  0.4774  0.2137 -0.0336
 8715SOL    HW137604   4.691   2.273  17.126 -0.5358 -1.2272  1.6669
 8715SOL    HW237605   4.633   2.225  17.001 -1.5123 -2.2227  0.8865
 8716SOL     OW37606   1.339   1.399   1.692  0.0804  0.1507  0.6901
 8716SOL    HW137607   1.398   1.411   1.767  0.4150 -0.5341  0.5468
 8716SOL    HW237608   1.286   1.477   1.703  1.0585  0.6697  1.7456
 8717SOL     OW37609   0.403   4.590   5.411 -0.0110  0.1682 -0.1368
 8717SOL    HW137610   0.391   4.684   5.425 -0.5955  0.1126 -0.2650
 8717SOL    HW237611   0.476   4.593   5.349  1.4008 -0.5366  1.5093
 8718SOL     OW37612   1.244   1.625   6.875 -0.1096 -0.2856  0.0450
 8718SOL    HW137613   1.287   1.544   6.846  1.2387 -0.2235  1.8553
 8718SOL    HW237614   1.212   1.603   6.962 -0.9319  1.7931  0.2802
 8719SOL     OW37615   0.372   4.683   4.453 -0.3833  0.3918 -0.6635
 8719SOL    HW137616   0.444   4.692   4.515 -1.3959 -0.9809  0.7301
 8719SOL    HW237617   0.303   0.011   4.494 -1.1496  0.3052 -1.8442
 8720SOL     OW37618   4.134   1.522  10.940  0.0496 -0.5046 -0.1850
 8720SOL    HW137619   4.057   1.495  10.891 -0.5299  0.2348  0.3230
 8720SOL    HW237620   4.187   1.569  10.875 -1.5990 -0.1449 -1.2619
 8721SOL     OW37621   0.003   3.908   5.847  0.8835  0.0637  0.0854
 8721SOL    HW137622   4.667   3.892   5.776 -0.8475  1.3551  1.2928
 8721SOL    HW237623   4.681   3.976   5.895  1.8664  0.7521  0.1160
 8722SOL     OW37624   0.294   0.059   1.232  0.2970 -0.3013 -0.2668
 8722SOL    HW137625   0.265   0.147   1.207 -2.2370 -1.0230  0.0725
 8722SOL    HW237626   0.385   0.069   1.260  0.1248 -1.0321  0.5413
 8723SOL     OW37627   1.649   4.047   2.197  0.0438  0.0551  0.2019
 8723SOL    HW137628   1.661   4.117   2.133  0.2518 -1.0002 -0.9094
 8723SOL    HW237629   1.659   4.100   2.276  0.3420 -0.8704  0.7842
 8724SOL     OW37630   3.058   4.475  12.421  0.0359  0.0607  0.3972
 8724SOL    HW137631   3.059   4.407  12.488 -0.8363  0.2282  0.5897
 8724SOL    HW237632   3.148   4.506  12.430 -0.2714  1.2675 -0.5328
 8725SOL     OW37633   1.851   2.541   0.311  0.2944 -0.3670 -0.4081
 8725SOL    HW137634   1.782   2.606   0.325 -0.2190 -1.6266  2.7512
 8725SOL    HW237635   1.909   2.588   0.251 -1.3346  0.5115 -1.2850
 8726SOL     OW37636   4.449   0.717   3.442  0.2539  0.5199 -0.6600
 8726SOL    HW137637   4.518   0.760   3.493 -1.2866 -0.2157  2.0526
 8726SOL    HW237638   4.495   0.652   3.389  2.7577  1.4348  0.4197
 8727SOL     OW37639   0.349   2.989   2.227 -0.1886 -0.2665 -0.5827
 8727SOL    HW137640   0.313   2.902   2.247 -0.5801  0.1180  0.4206
 8727SOL    HW237641   0.393   3.011   2.309 -1.5264  0.4821 -0.0676
 8728SOL     OW37642   3.915   1.070   1.015  0.2989  0.2578  0.0695
 8728SOL    HW137643   4.003   1.069   1.052 -0.4305  0.7564  1.8573
 8728SOL    HW237644   3.913   1.009   0.942 -3.2496  1.3326 -0.7168
 8729SOL     OW37645   1.469   2.297  11.870 -0.2925 -0.5499  0.2072
 8729SOL    HW137646   1.478   2.391  11.887  1.1717 -1.1832  2.9256
 8729SOL    HW237647   1.559   2.275  11.848  0.6198  2.9671  0.5181
 8730SOL     OW37648   4.023   0.542  12.167 -0.2430  0.0353 -0.0669
 8730SOL    HW137649   4.060   0.577  12.248  0.5853  1.6875 -1.1618
 8730SOL    HW237650   4.074   0.461  12.165  1.8314  1.3233  0.3361
 8731SOL     OW37651   0.628   1.173   0.455  0.0907 -0.3364  0.3697
 8731SOL    HW137652   0.545   1.128   0.468  0.1100 -1.3249 -2.9452
 8731SOL    HW237653   0.669   1.104   0.403  2.4766  0.3887  1.2589
 8732SOL     OW37654   1.796   3.007   8.609 -0.0065  0.0692  0.2458
 8732SOL    HW137655   1.747   3.077   8.654 -1.3698  1.5755 -3.6449
 8732SOL    HW237656   1.815   2.952   8.685  1.3329 -1.8990 -1.5243
 8733SOL     OW37657   4.124   1.296   0.908 -0.6706  1.1576  0.0720
 8733SOL    HW137658   4.035   1.265   0.895 -1.7857  3.4463  2.2938
 8733SOL    HW237659   4.151   1.220   0.959  1.1158  0.2873 -2.1526
 8734SOL     OW37660   3.713   3.388  11.805 -0.0315 -0.1217 -0.4563
 8734SOL    HW137661   3.715   3.349  11.717 -3.4215 -1.5243  0.0673
 8734SOL    HW237662   3.789   3.443  11.790 -2.7082  3.1731 -1.8151
 8735SOL     OW37663   1.504   4.308   2.622  0.3320 -0.1093  0.2926
 8735SOL    HW137664   1.566   4.241   2.651  0.8350  0.2615  0.0716
 8735SOL    HW237665   1.559   4.368   2.573 -0.5399 -1.2889 -2.1503
 8736SOL     OW37666   2.688   0.629   4.144  0.3026 -0.5405  0.5510
 8736SOL    HW137667   2.748   0.698   4.116 -0.5736 -0.2598 -0.6305
 8736SOL    HW237668   2.713   0.558   4.085 -0.5872 -1.2199  0.9817
 8737SOL     OW37669   3.448   2.621   6.009 -0.1977 -0.1333  0.0737
 8737SOL    HW137670   3.373   2.572   5.976 -1.0098  0.0646  1.6301
 8737SOL    HW237671   3.410   2.670   6.082 -0.6255  1.2331 -1.0565
 8738SOL     OW37672   4.540   1.043   6.486  0.3203  0.4564  0.0705
 8738SOL    HW137673   4.488   0.980   6.437  1.5698  0.3459 -1.1050
 8738SOL    HW237674   4.588   0.984   6.545  2.6395 -1.3320 -3.6141
 8739SOL     OW37675   4.478   3.452   7.909  0.5319 -0.5198  0.1692
 8739SOL    HW137676   4.491   3.546   7.925  0.8379 -0.5964  0.3602
 8739SOL    HW237677   4.560   3.422   7.870  0.5581 -1.5884  1.0761
 8740SOL     OW37678   1.793   0.428   7.842  0.0676 -0.1590  0.1040
 8740SOL    HW137679   1.710   0.448   7.800  0.9654  0.2218 -1.4718
 8740SOL    HW237680   1.837   0.369   7.780  1.0393 -3.3334  3.7832
 8741SOL     OW37681   1.019   2.857   4.256  0.3545  0.3464  0.0631
 8741SOL    HW137682   1.080   2.795   4.297 -1.2766 -3.0326 -2.5605
 8741SOL    HW237683   0.961   2.877   4.330 -1.7489  0.5241 -1.6525
 8742SOL     OW37684   0.688   4.039   3.722 -0.5264  0.4782 -0.2970
 8742SOL    HW137685   0.610   4.092   3.734 -0.1930  0.6183  1.2605
 8742SOL    HW237686   0.701   4.059   3.630  1.1764 -0.4144 -0.2670
 8743SOL     OW37687   2.892   4.310  16.381  0.4910  0.3312  0.1440
 8743SOL    HW137688   2.981   4.279  16.401  0.4753  0.2073  0.0213
 8743SOL    HW237689   2.851   4.272  16.459 -1.4257  2.3379  0.1011
 8744SOL     OW37690   2.558   4.134  17.020 -0.2828  0.3912  0.0985
 8744SOL    HW137691   2.570   4.063  17.082 -0.6078  0.3421  0.1085
 8744SOL    HW237692   2.466   4.146  16.993  0.1417 -0.1075 -1.5848
 8745SOL     OW37693   4.678   2.610   0.081 -0.0290 -0.1028  0.0763
 8745SOL    HW137694   0.037   2.627   0.040 -0.0369  2.3869  1.1250
 8745SOL    HW237695   4.658   2.697   0.116  0.2351 -0.1559  0.3568
 8746SOL     OW37696   4.594   1.130   5.158 -0.2683 -0.2509  0.1426
 8746SOL    HW137697   4.540   1.208   5.169  0.8944  0.3375  1.6763
 8746SOL    HW237698   4.632   1.157   5.074  1.4009  2.9718  1.9364
 8747SOL     OW37699   0.377   1.538   5.241  0.0079 -0.2076 -0.5038
 8747SOL    HW137700   0.449   1.602   5.242  1.0483 -1.3564 -2.6086
 8747SOL    HW237701   0.316   1.597   5.285 -0.0328  0.9191 -2.0295
 8748SOL     OW37702   1.552   4.480   5.144 -0.0494  0.2132  0.1262
 8748SOL    HW137703   1.537   4.573   5.123 -0.3249  0.3766  1.0507
 8748SOL    HW237704   1.502   4.487   5.226 -0.8554  0.1291 -0.3567
 8749SOL     OW37705   1.128   3.233   9.961  0.7012  0.7911  0.1532
 8749SOL    HW137706   1.107   3.276  10.044 -2.2695 -1.5498  0.5985
 8749SOL    HW237707   1.094   3.146   9.980  1.7049 -0.0271 -1.8462
 8750SOL     OW37708   1.294   3.949  16.005  0.0456  0.9904  0.8037
 8750SOL    HW137709   1.339   4.008  15.945 -0.7382  0.4484 -0.3224
 8750SOL    HW237710   1.270   3.876  15.949 -0.8552  0.4079  1.9454
 8751SOL     OW37711   3.738   0.718   8.370 -0.0020  0.1140 -0.0144
 8751SOL    HW137712   3.782   0.649   8.320 -0.1442 -0.1829  0.2646
 8751SOL    HW237713   3.669   0.656   8.396 -1.0383  0.8216 -1.0638
 8752SOL     OW37714   2.598   3.967   1.207  0.2583 -0.1430  0.2990
 8752SOL    HW137715   2.549   4.000   1.132  2.8460  0.2887 -1.1927
 8752SOL    HW237716   2.530   3.921   1.257  0.6876  1.2409  2.1772
 8753SOL     OW37717   3.282   4.074   6.676  0.1990 -0.1585  0.2750
 8753SOL    HW137718   3.220   4.052   6.746  0.1998 -2.1035 -0.3122
 8753SOL    HW237719   3.246   4.154   6.639 -0.6878 -1.1970 -1.1157
 8754SOL     OW37720   2.539   1.377   0.170 -0.1112 -0.3377  0.0737
 8754SOL    HW137721   2.501   1.354   0.085 -1.1594 -1.1603  0.7556
 8754SOL    HW237722   2.602   1.308   0.191  1.3081  0.5665 -1.2573
 8755SOL     OW37723   2.913   3.672   2.537  0.6411 -0.0506 -0.1613
 8755SOL    HW137724   2.974   3.636   2.602  1.6601 -0.8960 -1.5866
 8755SOL    HW237725   2.848   3.706   2.599 -1.4340 -2.5005 -0.9984
 8756SOL     OW37726   4.725   0.373   5.390 -0.1284 -0.5768 -0.7214
 8756SOL    HW137727   0.071   0.433   5.373  0.4352 -0.9745  0.2161
 8756SOL    HW237728   4.706   0.411   5.476 -1.5773 -2.7959 -0.0597
 8757SOL     OW37729   1.167   2.314   3.688 -0.1133  0.4317 -0.8948
 8757SOL    HW137730   1.154   2.385   3.752 -1.5108 -0.3167 -0.3473
 8757SOL    HW237731   1.142   2.352   3.604 -1.8743 -0.9151 -0.9637
 8758SOL     OW37732   0.549   4.142   1.135 -0.0851  0.6163  0.1634
 8758SOL    HW137733   0.632   4.099   1.155 -0.4222 -0.4481 -0.7592
 8758SOL    HW237734   0.492   4.079   1.179 -1.1568  1.2084 -0.3665
 8759SOL     OW37735   3.415   0.522   3.637  1.0813  0.1500  0.1539
 8759SOL    HW137736   3.507   0.517   3.612  1.0247  0.7086 -0.1680
 8759SOL    HW237737   3.425   0.614   3.663  1.3725  0.5059 -1.1963
 8760SOL     OW37738   1.957   3.130   5.941 -0.2722 -0.2116  0.2411
 8760SOL    HW137739   1.907   3.203   5.977  0.2860 -0.2317  1.0520
 8760SOL    HW237740   1.891   3.076   5.896 -0.0447  0.4223 -0.8675
 8761SOL     OW37741   1.763   0.510   8.169 -0.2402 -0.3753  0.4604
 8761SOL    HW137742   1.788   0.467   8.087 -2.0693  1.0368 -0.8551
 8761SOL    HW237743   1.671   0.527   8.149 -0.0588 -0.4344 -0.4272
 8762SOL     OW37744   3.484   2.081   4.146  0.2562  0.4453  0.0463
 8762SOL    HW137745   3.405   2.038   4.115  1.2599 -1.1343 -0.3140
 8762SOL    HW237746   3.448   2.099   4.233  0.2741 -1.4247  0.4473
 8763SOL     OW37747   3.297   4.294  11.811  0.2483 -0.1504 -0.1587
 8763SOL    HW137748   3.228   4.323  11.871 -0.6554 -2.2381 -0.1722
 8763SOL    HW237749   3.356   4.369  11.815 -0.4464  0.3314  1.1886
 8764SOL     OW37750   1.755   2.616  13.698 -0.1595 -0.2224  0.1865
 8764SOL    HW137751   1.702   2.536  13.705  0.7643 -0.8470  0.0037
 8764SOL    HW237752   1.711   2.672  13.762 -0.2241 -0.1762  0.1019
 8765SOL     OW37753   3.785   2.904  14.685 -0.4544 -0.3594 -0.2365
 8765SOL    HW137754   3.871   2.936  14.714 -0.6060 -0.3264  0.1743
 8765SOL    HW237755   3.731   2.956  14.743  0.1007 -1.8243  1.6102
 8766SOL     OW37756   4.668   2.989   9.402  0.4452 -0.5070 -0.1483
 8766SOL    HW137757   0.010   3.009   9.466 -1.2969  3.1779  0.5497
 8766SOL    HW237758   4.706   3.030   9.325 -2.2913 -0.5229 -1.5229
 8767SOL     OW37759   0.584   1.315   5.176 -0.7688  0.2012 -0.2169
 8767SOL    HW137760   0.571   1.265   5.096  0.2671  0.2469 -0.4058
 8767SOL    HW237761   0.551   1.403   5.157 -1.4072 -0.0048 -0.0702
 8768SOL     OW37762   1.145   3.191   8.140  0.2351 -0.3833 -0.1086
 8768SOL    HW137763   1.170   3.214   8.051 -1.0261 -0.4837 -0.4792
 8768SOL    HW237764   1.220   3.221   8.191 -0.2134 -0.0497  0.3519
 8769SOL     OW37765   0.558   1.474   7.141  0.0473  0.4517  0.3174
 8769SOL    HW137766   0.637   1.500   7.092 -0.8990 -0.1874 -1.5647
 8769SOL    HW237767   0.578   1.508   7.228  0.0736  0.1491  0.4316
 8770SOL     OW37768   0.039   1.236   4.670  0.0153  0.1966  0.2299
 8770SOL    HW137769   4.719   1.295   4.610 -0.1420 -1.3500 -1.1918
 8770SOL    HW237770   4.719   1.157   4.640  0.0460  0.1601  0.2780
 8771SOL     OW37771   3.449   1.015  11.627 -0.1785 -0.5528 -0.0566
 8771SOL    HW137772   3.492   0.944  11.674 -1.2354 -0.5511  0.9154
 8771SOL    HW237773   3.517   1.044  11.566  1.6169 -0.8282  1.7860
 8772SOL     OW37774   3.966   4.138   4.170 -0.2724 -0.4867 -0.8080
 8772SOL    HW137775   3.906   4.213   4.162 -0.0871 -0.1250  1.1254
 8772SOL    HW237776   3.922   4.100   4.247 -1.7147  1.6563 -0.5542
 8773SOL     OW37777   3.181   1.990   9.340  0.4281  0.4154 -0.2996
 8773SOL    HW137778   3.217   1.996   9.252 -2.2302  0.5309 -1.3735
 8773SOL    HW237779   3.101   1.939   9.332  1.3956 -1.1621  0.0509
 8774SOL     OW37780   0.337   3.067   2.555 -0.1581  0.4936 -0.2475
 8774SOL    HW137781   0.263   3.007   2.544 -0.3915  1.4985 -4.0745
 8774SOL    HW237782   0.288   3.148   2.571  0.0868  0.5781  0.0840
 8775SOL     OW37783   2.497   0.088   3.815  0.3801 -0.0587  0.5599
 8775SOL    HW137784   2.473   4.724   3.837 -0.3345  0.2264  0.9425
 8775SOL    HW237785   2.593   0.089   3.822  0.5433 -1.1528 -1.4830
 8776SOL     OW37786   2.353   1.616   1.869 -0.0108 -0.2356  0.3393
 8776SOL    HW137787   2.324   1.665   1.792 -3.3542  0.0443  1.8083
 8776SOL    HW237788   2.349   1.689   1.931  0.4426 -1.8898  2.3308
 8777SOL     OW37789   2.808   0.049   4.487 -0.5300  0.6606  0.1560
 8777SOL    HW137790   2.811   0.120   4.422 -0.1604 -0.6102 -1.2290
 8777SOL    HW237791   2.716   0.027   4.498 -0.3809 -1.0577 -1.9802
 8778SOL     OW37792   3.298   2.020   4.935 -0.3695  0.2521  0.0828
 8778SOL    HW137793   3.263   2.011   4.847  0.0148  2.1327 -0.2667
 8778SOL    HW237794   3.369   1.957   4.932  2.2989  3.2306  0.7234
 8779SOL     OW37795   3.491   1.580   8.926  0.1393 -0.0693 -0.0225
 8779SOL    HW137796   3.492   1.535   8.842  0.2896  0.0121 -0.0647
 8779SOL    HW237797   3.398   1.601   8.933  0.3348  0.9593 -0.4328
 8780SOL     OW37798   0.119   2.232  12.886 -0.0293 -0.1391 -0.1474
 8780SOL    HW137799   0.150   2.199  12.802  1.8659 -1.3778  1.0380
 8780SOL    HW237800   0.120   2.325  12.860  4.5629 -0.1674 -0.0301
 8781SOL     OW37801   1.895   0.904   7.119  0.3115  0.0215 -0.7289
 8781SOL    HW137802   1.799   0.901   7.129  0.4612 -2.6102  0.0501
 8781SOL    HW237803   1.902   0.855   7.037  1.4015 -2.1827  0.6957
 8782SOL     OW37804   1.842   1.997   2.924  0.2610 -0.5428  0.7435
 8782SOL    HW137805   1.869   1.956   3.006 -0.6048 -2.0263  0.2861
 8782SOL    HW237806   1.755   2.017   2.959 -1.6532 -2.6082 -2.8074
 8783SOL     OW37807   4.499   3.788   7.649  0.3206 -0.7806 -0.1053
 8783SOL    HW137808   4.492   3.714   7.589 -0.4931  0.7261 -1.8812
 8783SOL    HW237809   4.445   3.859   7.612  1.1958  0.7155  1.4899
 8784SOL     OW37810   0.366   4.649  10.432 -0.0017  0.0384 -0.1907
 8784SOL    HW137811   0.412   4.636  10.515 -0.8371 -2.3815 -0.1029
 8784SOL    HW237812   0.272   4.650  10.454  0.2547 -0.1891  0.9471
 8785SOL     OW37813   2.837   3.481   1.964  0.2032  0.1893  0.7918
 8785SOL    HW137814   2.757   3.428   1.960 -1.5977  2.9670 -0.1041
 8785SOL    HW237815   2.873   3.470   1.876 -1.0370 -0.1398  0.3267
 8786SOL     OW37816   0.433   3.818  11.542  0.4549  0.0053 -0.0748
 8786SOL    HW137817   0.351   3.858  11.570  1.3227  1.8155 -0.0818
 8786SOL    HW237818   0.416   3.728  11.570 -0.6341  0.3093  0.2393
 8787SOL     OW37819   4.137   1.427   8.764  0.8575 -0.6208 -0.0857
 8787SOL    HW137820   4.133   1.352   8.706  2.5696  0.2553 -1.3360
 8787SOL    HW237821   4.218   1.420   8.816  0.2646 -0.9671  0.7987
 8788SOL     OW37822   2.609   0.845   4.569 -0.2423 -0.0742  0.3166
 8788SOL    HW137823   2.606   0.820   4.662  0.2199  0.1419  0.3901
 8788SOL    HW237824   2.702   0.868   4.575 -0.5200  0.9822  0.4943
 8789SOL     OW37825   1.266   4.634   6.492 -0.0427  0.0963  0.3679
 8789SOL    HW137826   1.323   4.600   6.560 -2.4141 -2.6127  1.0100
 8789SOL    HW237827   1.186   4.617   6.542 -0.1074  0.1706  0.2913
 8790SOL     OW37828   1.567   3.533   7.544  0.3905 -0.2726  0.3746
 8790SOL    HW137829   1.598   3.473   7.612  0.0332 -2.7039 -1.6306
 8790SOL    HW237830   1.503   3.581   7.597 -0.2451 -0.4556 -0.2210
 8791SOL     OW37831   4.479   1.682   3.942  0.0348 -0.1742 -0.0661
 8791SOL    HW137832   4.531   1.762   3.942 -0.4499  0.1407 -0.3594
 8791SOL    HW237833   4.394   1.710   3.976  0.9069 -0.1278  2.0523
 8792SOL     OW37834   3.445   1.579  17.697  0.4007  0.3768  0.5229
 8792SOL    HW137835   3.360   1.593   0.034  0.3113 -0.7382  0.7272
 8792SOL    HW237836   3.413   1.553  17.611 -0.2682 -1.6469  1.3780
 8793SOL     OW37837   3.166   4.424   6.863 -0.3699  0.2605  0.0305
 8793SOL    HW137838   3.096   4.418   6.928  0.3600 -0.6484  0.7276
 8793SOL    HW237839   3.231   4.464   6.921 -2.0186  0.7413  1.5620
 8794SOL     OW37840   4.007   4.469   3.791  0.6328 -0.4303  0.2532
 8794SOL    HW137841   4.082   4.486   3.848  0.8354  1.3367 -0.5410
 8794SOL    HW237842   4.040   4.480   3.701 -1.0544 -1.0663 -0.4342
 8795SOL     OW37843   2.261   2.276   8.848 -0.0635  0.3719  0.0733
 8795SOL    HW137844   2.294   2.364   8.829 -0.9353  1.3450  2.9951
 8795SOL    HW237845   2.321   2.250   8.919 -1.3998  1.8029  1.7240
 8796SOL     OW37846   1.945   3.115   4.140 -0.2971 -0.4572  0.5161
 8796SOL    HW137847   1.946   3.021   4.121  3.0902 -0.5612  1.1956
 8796SOL    HW237848   2.040   3.126   4.136 -0.1548 -1.2701  1.7663
 8797SOL     OW37849   2.231   1.668   5.940  0.0196 -0.0532 -0.6377
 8797SOL    HW137850   2.169   1.600   5.966  0.2346  0.2697  0.7034
 8797SOL    HW237851   2.305   1.609   5.933  1.3420  1.3346  1.5983
 8798SOL     OW37852   1.797   3.858   2.083 -0.2730 -0.8968 -0.0700
 8798SOL    HW137853   1.752   3.924   2.136  1.8115  0.6213 -0.1819
 8798SOL    HW237854   1.720   3.836   2.030 -1.1214 -0.0945  0.8252
 8799SOL     OW37855   4.237   0.079   5.311  0.4257 -0.0131 -0.5001
 8799SOL    HW137856   4.242   0.126   5.228  0.4433 -1.4940 -1.3474
 8799SOL    HW237857   4.294   0.004   5.293  0.5631  0.6099 -2.6087
 8800SOL     OW37858   0.681   0.387   4.201  0.0622 -0.5364 -0.5142
 8800SOL    HW137859   0.732   0.432   4.268 -0.6236 -1.1267  0.3888
 8800SOL    HW237860   0.673   0.301   4.241 -0.9143 -1.2171 -2.1468
 8801SOL     OW37861   1.085   3.417   5.136  0.3526 -0.1906  0.5057
 8801SOL    HW137862   1.125   3.477   5.074  0.2612  0.1118  0.7371
 8801SOL    HW237863   0.997   3.404   5.101  0.0718 -0.7240  1.3912
 8802SOL     OW37864   4.600   4.641  13.133 -0.0684 -0.1381  0.2785
 8802SOL    HW137865   4.627   4.570  13.192 -1.7707  0.0975  1.3521
 8802SOL    HW237866   4.639   4.619  13.049  0.2856 -3.3322  1.2768
 8803SOL     OW37867   4.502   4.381  12.937  0.4505 -0.0123 -0.4721
 8803SOL    HW137868   4.594   4.373  12.964 -0.0094  0.1089  1.1085
 8803SOL    HW237869   4.508   4.471  12.905  0.1898  1.0572  2.5789
 8804SOL     OW37870   2.847   4.271  12.496 -0.0549 -0.4468  0.2954
 8804SOL    HW137871   2.850   4.316  12.411 -2.2324  1.0821  1.0413
 8804SOL    HW237872   2.783   4.323  12.543 -1.7376 -1.6549 -0.6710
 8805SOL     OW37873   1.305   1.213   7.896  0.1337  0.5678 -0.2867
 8805SOL    HW137874   1.249   1.155   7.948 -0.8617  2.3780  0.6517
 8805SOL    HW237875   1.348   1.153   7.835 -1.7593 -1.4196  0.3071
 8806SOL     OW37876   1.033   3.685   2.445 -0.3212 -1.0919 -0.2405
 8806SOL    HW137877   0.954   3.738   2.445 -0.6835 -1.6482  1.2941
 8806SOL    HW237878   1.026   3.667   2.351 -2.5031  1.4904 -0.5568
 8807SOL     OW37879   0.253   1.981   3.742 -0.2077  0.3674  0.1140
 8807SOL    HW137880   0.232   1.992   3.650 -2.2513 -0.9855  0.4457
 8807SOL    HW237881   0.196   1.910   3.770  1.5668  0.0692  2.9779
 8808SOL     OW37882   1.265   4.658   5.036 -0.7054  0.2709  0.1392
 8808SOL    HW137883   1.187   4.707   5.009 -1.7469 -0.5610  1.5901
 8808SOL    HW237884   1.332   4.698   4.982 -0.6998  1.4328  1.0057
 8809SOL     OW37885   4.470   1.334   9.013  0.0716 -0.1100 -0.1593
 8809SOL    HW137886   4.442   1.300   8.927 -1.4348  1.3721 -0.2552
 8809SOL    HW237887   4.565   1.330   9.005 -0.1447 -3.6907 -1.3331
 8810SOL     OW37888   1.117   1.333   6.233  0.0216 -0.1405 -0.1660
 8810SOL    HW137889   1.176   1.401   6.266  0.6910 -1.1543  0.7135
 8810SOL    HW237890   1.046   1.328   6.298  0.4268  0.8949  0.3654
 8811SOL     OW37891   4.576   0.093   7.410 -0.2689 -0.0819  0.3339
 8811SOL    HW137892   4.512   0.114   7.479 -1.7330  0.2021 -1.1110
 8811SOL    HW237893   4.661   0.126   7.440 -0.3240 -0.3058  0.7451
 8812SOL     OW37894   1.751   1.175   5.349 -0.1545 -0.0870  0.5655
 8812SOL    HW137895   1.680   1.118   5.319  0.7872 -2.2507  2.3858
 8812SOL    HW237896   1.770   1.127   5.430  0.3486 -1.1028 -0.1476
 8813SOL     OW37897   4.027   1.676  11.167  0.0861 -0.3690  0.3280
 8813SOL    HW137898   4.018   1.610  11.098 -0.4579 -1.6399  1.6013
 8813SOL    HW237899   3.959   1.656  11.231  0.9778 -0.5164  1.2204
 8814SOL     OW37900   2.467   1.931   0.942 -0.0639  0.3190  0.3111
 8814SOL    HW137901   2.560   1.912   0.945 -0.8641 -3.2785  1.9246
 8814SOL    HW237902   2.467   2.026   0.929  0.3479  0.4307  1.1522
 8815SOL     OW37903   0.364   4.261   0.317 -0.7642  0.5973 -0.0497
 8815SOL    HW137904   0.344   4.232   0.406  0.2092  0.4789  0.1280
 8815SOL    HW237905   0.394   4.350   0.333 -1.3689  0.7168  0.4191
 8816SOL     OW37906   1.456   3.197  11.073  0.0025 -0.0636 -0.2145
 8816SOL    HW137907   1.489   3.187  11.162  2.1698  2.8839 -0.6939
 8816SOL    HW237908   1.381   3.254  11.089  1.5675  1.6511  0.8270
 8817SOL     OW37909   0.357   3.941   6.196 -0.8231  0.3285 -0.0704
 8817SOL    HW137910   0.307   4.021   6.209  1.2468  0.7578  5.1314
 8817SOL    HW237911   0.409   3.980   6.126 -1.9118  0.2557 -0.9175
 8818SOL     OW37912   1.449   3.048   5.810  0.1058 -0.8255 -0.3190
 8818SOL    HW137913   1.464   3.080   5.721  0.0999 -0.2042 -0.0924
 8818SOL    HW237914   1.497   2.965   5.812 -0.2469 -1.0824 -2.0270
 8819SOL     OW37915   0.561   1.350   2.849  0.2569  0.2004  0.2265
 8819SOL    HW137916   0.615   1.376   2.774 -2.2460 -1.1539 -2.0659
 8819SOL    HW237917   0.518   1.275   2.807  1.6401 -0.2693 -0.3729
 8820SOL     OW37918   0.383   4.029   9.279  0.5238  0.6643 -0.4972
 8820SOL    HW137919   0.448   4.021   9.209  2.3403 -2.0712  1.5051
 8820SOL    HW237920   0.317   3.968   9.248  0.4628  0.1307  0.6912
 8821SOL     OW37921   0.370   0.450   0.577 -0.2563  0.1913  0.3414
 8821SOL    HW137922   0.333   0.503   0.506  0.5425  1.3737  0.8174
 8821SOL    HW237923   0.307   0.467   0.647  0.3268  0.9087  0.6871
 8822SOL     OW37924   1.863   2.422  15.489 -0.7918  0.1881 -0.2145
 8822SOL    HW137925   1.939   2.478  15.473 -1.2607  0.4158 -1.6634
 8822SOL    HW237926   1.816   2.435  15.406 -0.4759  0.2504 -0.3834
 8823SOL     OW37927   0.047   1.683   4.405  0.1216  0.3830  0.4431
 8823SOL    HW137928   0.132   1.694   4.448 -0.9617  2.1973  2.1525
 8823SOL    HW237929   0.079   1.672   4.316  1.3820 -2.3689  1.2171
 8824SOL     OW37930   3.612   2.098   0.080  0.3930  0.2488 -0.2592
 8824SOL    HW137931   3.614   2.030   0.013 -1.4153  2.0501 -2.1488
 8824SOL    HW237932   3.695   2.142   0.059  0.2667 -0.0330 -1.3307
 8825SOL     OW37933   3.065   4.569  12.171  0.7174  0.3783 -0.7044
 8825SOL    HW137934   2.975   4.599  12.162  0.4474 -0.3586 -0.4609
 8825SOL    HW237935   3.067   4.526  12.257  1.0817 -2.0263 -1.9097
 8826SOL     OW37936   1.783   4.463   1.459  0.1128  0.1764 -0.5861
 8826SOL    HW137937   1.813   4.392   1.514 -0.1183 -0.3168 -1.0955
 8826SOL    HW237938   1.864   4.515   1.460  1.2450 -1.6428  0.7067
 8827SOL     OW37939   4.387   0.552  17.224  0.3628  0.2494 -0.4308
 8827SOL    HW137940   4.408   0.522  17.312  0.7749  2.9010  0.3875
 8827SOL    HW237941   4.472   0.533  17.184 -1.1912  1.7743 -4.5060
 8828SOL     OW37942   3.398   4.495   6.052  0.4028 -0.1021  0.2459
 8828SOL    HW137943   3.424   4.484   5.961 -0.3475 -0.9478  0.1251
 8828SOL    HW237944   3.340   4.571   6.055 -0.6742 -0.9465  1.1486
 8829SOL     OW37945   3.328   1.171  14.854  0.3815  0.4693 -0.4217
 8829SOL    HW137946   3.294   1.118  14.782  2.7470  0.5115 -1.5561
 8829SOL    HW237947   3.418   1.139  14.857 -0.0163 -0.4755  1.5613
 8830SOL     OW37948   2.833   0.523  15.941 -0.0716  0.0833  0.4110
 8830SOL    HW137949   2.806   0.613  15.919 -1.0599 -1.0961 -3.1066
 8830SOL    HW237950   2.894   0.503  15.870  3.8619 -0.6555  4.0212
 8831SOL     OW37951   2.661   0.235   1.329 -0.2811  0.2237  0.3871
 8831SOL    HW137952   2.623   0.175   1.265 -1.3280  0.8363  0.4373
 8831SOL    HW237953   2.715   0.296   1.278 -1.1445  2.6413  2.3330
 8832SOL     OW37954   4.076   1.599  12.688  0.1457  0.4764 -0.0154
 8832SOL    HW137955   4.107   1.679  12.645  0.5330  0.0691 -0.4924
 8832SOL    HW237956   4.030   1.562  12.613 -0.5522 -1.1439  1.2114
 8833SOL     OW37957   0.925   2.425  14.468 -0.1856 -0.0213  0.2264
 8833SOL    HW137958   1.003   2.391  14.513  0.0363  2.1089  1.5037
 8833SOL    HW237959   0.877   2.343  14.462 -0.7119  0.3958 -1.2606
 8834SOL     OW37960   1.265   3.660   6.402  0.5274 -0.4147 -0.0309
 8834SOL    HW137961   1.357   3.633   6.400  0.8458  0.4255  2.6418
 8834SOL    HW237962   1.224   3.606   6.334  1.7764  1.7079 -2.4588
 8835SOL     OW37963   3.915   4.587  11.811 -0.2775  0.4478 -0.2194
 8835SOL    HW137964   3.951   4.665  11.854  1.0791  0.0161 -0.5519
 8835SOL    HW237965   3.850   4.622  11.750 -0.4545  0.0216 -0.2691
 8836SOL     OW37966   4.261   3.113   8.733  0.1806  0.5558  0.4015
 8836SOL    HW137967   4.188   3.159   8.775  0.1957  1.1792 -0.2466
 8836SOL    HW237968   4.319   3.089   8.805 -0.1091 -0.9592  0.1275
 8837SOL     OW37969   1.551   1.991   5.363  0.6207 -0.7888 -0.0033
 8837SOL    HW137970   1.618   1.924   5.349  0.0151 -1.4959  0.5053
 8837SOL    HW237971   1.530   1.972   5.454  1.0152 -2.2150 -0.2196
 8838SOL     OW37972   1.844   3.830   5.146  0.5987 -0.3364  0.9859
 8838SOL    HW137973   1.921   3.807   5.093  1.0329  0.1139  1.4186
 8838SOL    HW237974   1.867   3.783   5.226  2.4531  2.7019  2.2430
 8839SOL     OW37975   0.176   2.819  15.268 -0.2153  0.1106 -0.0005
 8839SOL    HW137976   0.236   2.880  15.224  0.3081  0.2580  0.9101
 8839SOL    HW237977   0.091   2.858  15.248 -0.5811 -0.6387  0.1255
 8840SOL     OW37978   3.148   0.356   1.378  0.4578  0.4734  0.0735
 8840SOL    HW137979   3.149   0.358   1.282 -0.8020  0.2151  0.0510
 8840SOL    HW237980   3.205   0.429   1.404  1.5791 -0.9313  1.5519
 8841SOL     OW37981   2.403   0.067   4.150  0.2242  0.0224 -0.1146
 8841SOL    HW137982   2.484   0.016   4.145 -0.4567 -0.9609 -1.2304
 8841SOL    HW237983   2.393   0.117   4.069  1.5190  0.3063 -0.0891
 8842SOL     OW37984   3.760   2.223  15.401 -0.4550  0.5516  0.1056
 8842SOL    HW137985   3.769   2.167  15.324 -0.0858 -2.1450  2.1248
 8842SOL    HW237986   3.757   2.154  15.466  0.0621  1.4455  1.0701
 8843SOL     OW37987   0.459   1.974   2.484  0.4299  0.5620  0.5128
 8843SOL    HW137988   0.477   1.937   2.570  3.3046  0.8779  0.0709
 8843SOL    HW237989   0.387   1.919   2.453  1.3986 -1.6928  2.2903
 8844SOL     OW37990   0.646   4.601   5.253  0.2962  0.1003  0.0713
 8844SOL    HW137991   0.719   4.662   5.266 -0.7252  1.7366 -1.7574
 8844SOL    HW237992   0.650   4.579   5.159 -4.0972  1.0400 -0.3233
 8845SOL     OW37993   3.813   0.084   8.991 -0.1456  0.0305 -0.9137
 8845SOL    HW137994   3.892   0.137   9.003 -2.6392  3.0011  2.3752
 8845SOL    HW237995   3.805   0.049   9.079 -0.8870 -1.8262 -1.7034
 8846SOL     OW37996   0.187   3.845   9.200  0.2599 -0.5776 -0.3852
 8846SOL    HW137997   0.094   3.853   9.176  0.1387 -1.9163 -0.3982
 8846SOL    HW237998   0.189   3.751   9.218  1.4501 -0.1228  1.8312
 8847SOL     OW37999   3.765   1.703   9.888 -0.2655  0.6277 -0.3409
 8847SOL    HW138000   3.711   1.627   9.867 -1.4995  2.3833 -3.5004
 8847SOL    HW238001   3.770   1.741   9.801  1.4567 -0.9570 -0.9122
 8848SOL     OW38002   3.901   2.142  16.245 -0.4802 -0.1056 -0.0960
 8848SOL    HW138003   3.977   2.199  16.252 -1.1316  1.0052 -2.1141
 8848SOL    HW238004   3.892   2.124  16.152  2.0338 -2.9806  0.2312
 8849SOL     OW38005   2.222   2.382  16.377  0.3389 -0.5819 -0.3539
 8849SOL    HW138006   2.147   2.425  16.417  1.3639 -0.4422  1.4315
 8849SOL    HW238007   2.189   2.354  16.291  1.4064  1.0706 -1.3101
 8850SOL     OW38008   2.307   2.458  10.973 -0.2520  0.7585  0.1951
 8850SOL    HW138009   2.388   2.501  10.998  0.5062  0.0439 -1.0181
 8850SOL    HW238010   2.273   2.519  10.907  1.3219 -1.1527 -2.3998
 8851SOL     OW38011   1.511   3.526  11.165 -0.5601  0.4429 -0.4441
 8851SOL    HW138012   1.513   3.526  11.261 -0.3229  1.6041 -0.4539
 8851SOL    HW238013   1.467   3.443  11.146 -0.8543  0.9341 -1.8860
 8852SOL     OW38014   2.012   0.438  14.350 -0.3159 -0.4475 -1.1349
 8852SOL    HW138015   2.058   0.510  14.392 -2.5333  1.0552 -1.2694
 8852SOL    HW238016   2.084   0.374  14.352  0.0942  0.0852  1.4466
 8853SOL     OW38017   0.635   1.675   8.713  0.2554  0.3638  0.4366
 8853SOL    HW138018   0.697   1.648   8.781  0.8571 -1.6349 -0.8780
 8853SOL    HW238019   0.703   1.710   8.655 -0.7922  0.3793 -0.7822
 8854SOL     OW38020   1.547   2.808   8.762  0.3646 -0.5788  0.3202
 8854SOL    HW138021   1.573   2.776   8.849  0.4221  2.0220  1.2556
 8854SOL    HW238022   1.601   2.763   8.698 -0.2918 -2.8127  1.3185
 8855SOL     OW38023   4.113   4.261   9.205  0.0217 -0.4478 -0.1877
 8855SOL    HW138024   4.159   4.258   9.289  1.5361  0.4738 -0.9833
 8855SOL    HW238025   4.024   4.250   9.237  1.0190  0.7227  3.0291
 8856SOL     OW38026   4.597   3.284   3.952  0.4450  0.2126  0.3450
 8856SOL    HW138027   4.619   3.280   3.859  1.4924  0.9500  0.5631
 8856SOL    HW238028   4.673   3.334   3.981  0.8791 -0.9022  1.1375
 8857SOL     OW38029   0.075   1.905  12.285 -0.0078 -0.2252 -0.2802
 8857SOL    HW138030   0.088   1.820  12.327 -1.4348  0.3273  1.2658
 8857SOL    HW238031   0.034   1.876  12.204 -0.6419 -0.1507  0.0128
 8858SOL     OW38032   4.080   1.961   2.056  0.2065 -0.3746  0.1333
 8858SOL    HW138033   4.025   1.904   2.109 -0.0577 -0.3230 -0.0824
 8858SOL    HW238034   4.077   2.044   2.103 -2.0672  0.0580 -0.7860
 8859SOL     OW38035   4.724   1.158  13.934  0.4602 -0.0798 -0.4983
 8859SOL    HW138036   4.687   1.073  13.959  1.6384  0.2574  2.4373
 8859SOL    HW238037   0.090   1.148  13.961  0.3227  1.5990  0.6204
 8860SOL     OW38038   0.090   2.963   8.741 -0.5970  0.0701 -0.2290
 8860SOL    HW138039   0.157   2.914   8.788 -0.8242 -0.0728 -0.0515
 8860SOL    HW238040   0.023   2.894   8.734  1.0251 -1.4680 -0.5873
 8861SOL     OW38041   2.835   3.341   8.800 -0.3104 -0.0341 -0.1135
 8861SOL    HW138042   2.829   3.246   8.794 -0.3429  0.0742 -1.6559
 8861SOL    HW238043   2.799   3.358   8.887  0.2659  2.1091 -0.3122
 8862SOL     OW38044   3.417   0.073   1.179 -0.1166 -0.2362  0.5957
 8862SOL    HW138045   3.511   0.059   1.178 -0.0976 -0.1874  3.8766
 8862SOL    HW238046   3.400   0.166   1.189 -1.0398 -0.4367  0.9418
 8863SOL     OW38047   1.769   4.222   2.362 -0.9365  0.0875  0.6273
 8863SOL    HW138048   1.808   4.216   2.449 -2.7271 -0.9455  1.3625
 8863SOL    HW238049   1.831   4.228   2.290  0.1076 -0.7421  1.4714
 8864SOL     OW38050   1.624   0.408   2.323  0.1861  0.2204 -0.0605
 8864SOL    HW138051   1.646   0.493   2.286  0.3352  0.7243  1.1914
 8864SOL    HW238052   1.535   0.425   2.353 -0.6752 -3.9918 -0.2043
 8865SOL     OW38053   3.181   4.211   4.063 -0.0747 -0.2016  0.0371
 8865SOL    HW138054   3.256   4.257   4.025  1.0999 -2.1796  0.0293
 8865SOL    HW238055   3.198   4.210   4.157  1.0505  0.3415 -0.1635
 8866SOL     OW38056   2.634   4.488   9.777  0.3183 -0.0445  0.5341
 8866SOL    HW138057   2.727   4.491   9.801 -0.1953  0.6080  2.4455
 8866SOL    HW238058   2.643   4.452   9.689  1.2725  1.7875 -0.1405
 8867SOL     OW38059   2.153   3.684  10.915  0.2453 -0.2019 -0.6915
 8867SOL    HW138060   2.239   3.646  10.934  0.4792  0.7675  0.1691
 8867SOL    HW238061   2.092   3.631  10.965 -2.4977  2.9616 -0.7049
 8868SOL     OW38062   1.417   0.517  10.929 -0.6935 -0.3465  0.1145
 8868SOL    HW138063   1.337   0.467  10.947 -1.2772  1.0145  1.3970
 8868SOL    HW238064   1.476   0.474  10.992 -1.2858 -1.4585 -0.0884
 8869SOL     OW38065   1.954   0.739  16.573  0.2275 -0.0225 -0.4461
 8869SOL    HW138066   2.001   0.666  16.533  2.1803  1.3733 -0.6718
 8869SOL    HW238067   1.882   0.685  16.608  1.5483 -1.3427  0.2287
 8870SOL     OW38068   0.960   2.465   0.341 -0.3170  0.0515  0.2282
 8870SOL    HW138069   0.946   2.560   0.341 -0.0638  0.0895 -1.0429
 8870SOL    HW238070   0.952   2.448   0.435 -1.2381  1.6349  0.4390
 8871SOL     OW38071   1.589   4.344   8.823  0.5333 -0.1298  0.0754
 8871SOL    HW138072   1.600   4.420   8.767 -0.6004  1.4252  1.9772
 8871SOL    HW238073   1.666   4.344   8.879 -2.0166 -0.3297  3.5811
 8872SOL     OW38074   3.267   1.536   4.843  0.0950 -0.2004 -0.2886
 8872SOL    HW138075   3.240   1.591   4.917 -2.6494  1.2115 -2.3674
 8872SOL    HW238076   3.178   1.531   4.808 -1.0458  1.3231  2.3581
 8873SOL     OW38077   0.410   4.702   7.222 -0.0507  0.6266 -0.2684
 8873SOL    HW138078   0.319   4.682   7.199 -0.1420  1.4701 -0.6278
 8873SOL    HW238079   0.406   4.677   7.314  0.6396  2.6183  0.3065
 8874SOL     OW38080   0.215   4.185  11.295 -0.3174 -0.8061 -0.4286
 8874SOL    HW138081   0.288   4.125  11.311  0.0625 -0.5316 -1.0984
 8874SOL    HW238082   0.139   4.132  11.317 -0.2026 -1.1867 -0.9317
 8875SOL     OW38083   1.670   4.059  12.891 -0.1031  0.5843  0.3826
 8875SOL    HW138084   1.649   4.084  12.800  0.8570 -0.5204 -0.1330
 8875SOL    HW238085   1.759   4.093  12.894  0.1715 -0.1639  0.6268
 8876SOL     OW38086   1.566   4.585  13.790  0.2799  0.2138  0.0768
 8876SOL    HW138087   1.542   4.560  13.701  2.8246  0.4529 -0.6842
 8876SOL    HW238088   1.638   4.646  13.773  0.3735  0.1935  0.4037
 8877SOL     OW38089   0.275   4.547   6.569  0.2433 -0.1782 -0.3618
 8877SOL    HW138090   0.213   4.501   6.625 -0.4038  0.9374 -0.1663
 8877SOL    HW238091   0.248   4.638   6.566  2.0823  0.3737  0.0323
 8878SOL     OW38092   2.215   2.962  11.123  0.5807  0.2557 -0.0400
 8878SOL    HW138093   2.217   2.946  11.217  3.9462  0.7872 -0.0268
 8878SOL    HW238094   2.274   3.037  11.114  1.2017 -0.2891 -0.4568
 8879SOL     OW38095   4.109   2.907   9.249 -0.0724 -0.2402  0.1180
 8879SOL    HW138096   4.193   2.905   9.296 -0.5708  0.9362  1.0585
 8879SOL    HW238097   4.142   2.941   9.166 -2.3992 -0.7342 -0.9923
 8880SOL     OW38098   3.984   3.784   4.871 -0.3365  0.1510 -0.4461
 8880SOL    HW138099   4.067   3.829   4.887 -1.2590  2.2683 -1.6412
 8880SOL    HW238100   3.940   3.792   4.955 -1.1090 -1.9456 -0.6613
 8881SOL     OW38101   0.244   1.737   1.077  0.4329 -0.1399  0.5035
 8881SOL    HW138102   0.227   1.816   1.128  1.3266 -0.6351  1.5760
 8881SOL    HW238103   0.236   1.764   0.985 -2.2093  0.0644  0.8025
 8882SOL     OW38104   0.610   3.763   0.616  0.0249  0.1642 -0.2260
 8882SOL    HW138105   0.549   3.717   0.674  1.3102 -0.7475  0.4003
 8882SOL    HW238106   0.618   3.691   0.553  1.3086 -1.3021  1.6201
 8883SOL     OW38107   0.001   1.402   5.755  1.2101 -0.7206  0.0145
 8883SOL    HW138108   4.657   1.454   5.714  2.5592  2.4128  1.6710
 8883SOL    HW238109   4.680   1.322   5.779 -2.4733  0.7373 -2.2625
 8884SOL     OW38110   0.073   3.533   8.349  0.5292 -0.3123 -0.4826
 8884SOL    HW138111   0.084   3.608   8.290  0.9390 -0.7692 -0.9801
 8884SOL    HW238112   0.042   3.583   8.425  1.7169  1.8632 -1.4226
 8885SOL     OW38113   0.268   0.349   3.190 -0.3155 -0.1769 -0.5688
 8885SOL    HW138114   0.355   0.312   3.206 -0.1162  0.2721 -0.6176
 8885SOL    HW238115   0.219   0.281   3.236  0.5868  0.2234  0.9911
 8886SOL     OW38116   1.430   2.316   7.148 -0.4693  0.2066 -0.0060
 8886SOL    HW138117   1.361   2.252   7.168 -0.1341 -0.3302 -0.5639
 8886SOL    HW238118   1.392   2.369   7.078 -0.0036 -5.1236 -4.2817
 8887SOL     OW38119   3.287   0.498  16.980  0.2727 -0.7724 -0.2227
 8887SOL    HW138120   3.327   0.529  16.899  0.3574 -1.1041 -0.3073
 8887SOL    HW238121   3.202   0.473  16.942  0.4084 -1.4789 -0.0553
 8888SOL     OW38122   1.850   4.552   3.609 -0.4615  0.4964 -0.4875
 8888SOL    HW138123   1.761   4.584   3.593 -0.7739 -0.6977 -1.1304
 8888SOL    HW238124   1.837   4.537   3.703 -0.6123  0.2627 -0.5451
 8889SOL     OW38125   3.685   3.142   6.900  0.0618  0.0341  0.0210
 8889SOL    HW138126   3.631   3.091   6.840  0.8356  0.1641 -0.7894
 8889SOL    HW238127   3.763   3.171   6.852 -0.1591 -0.0831 -0.4084
 8890SOL     OW38128   0.819   0.456   1.276  0.4914  0.1198  0.0230
 8890SOL    HW138129   0.847   0.367   1.298 -2.4093 -1.3739 -2.3663
 8890SOL    HW238130   0.743   0.465   1.334  1.4259  0.8707  1.1459
 8891SOL     OW38131   2.777   0.891   2.784  0.2676 -0.3624  0.2122
 8891SOL    HW138132   2.834   0.936   2.846 -0.2830 -2.0538  1.9740
 8891SOL    HW238133   2.736   0.959   2.731 -0.7757 -2.2036 -1.3446
 8892SOL     OW38134   0.187   4.034   1.087  0.5826  0.4263  0.1471
 8892SOL    HW138135   0.224   4.121   1.099 -0.5236  1.0708 -1.2381
 8892SOL    HW238136   0.176   4.003   1.177 -2.7281  0.9402 -0.1048
 8893SOL     OW38137   2.871   0.245   3.316  0.2518  0.4993 -0.2534
 8893SOL    HW138138   2.779   0.267   3.307  0.6147  1.8680 -0.5237
 8893SOL    HW238139   2.892   0.255   3.409 -1.7541 -0.2964  0.2843
 8894SOL     OW38140   3.091   3.666   2.959 -0.4347  0.2291  0.0304
 8894SOL    HW138141   3.025   3.702   3.017 -0.7684  1.6358 -1.2262
 8894SOL    HW238142   3.147   3.744   2.950 -2.5806  1.5673 -1.6259
 8895SOL     OW38143   1.189   2.293   5.041 -0.3090 -0.1581 -0.4223
 8895SOL    HW138144   1.258   2.333   5.095 -3.2977  1.1862  2.3680
 8895SOL    HW238145   1.234   2.218   5.002  1.7698  0.4434  0.7846
 8896SOL     OW38146   2.147   4.027  14.715 -0.5305  0.0823  0.3751
 8896SOL    HW138147   2.204   4.070  14.652 -1.4650  0.1206 -0.4442
 8896SOL    HW238148   2.168   4.076  14.794 -0.5204  2.1123 -0.9012
 8897SOL     OW38149   4.165   1.535   1.074 -0.7890  0.8696  0.5930
 8897SOL    HW138150   4.171   1.461   1.013  1.1840 -0.2889  2.2008
 8897SOL    HW238151   4.256   1.564   1.071 -0.7021  0.6043  0.6587
 8898SOL     OW38152   3.892   4.202   3.769 -0.3525 -0.6892  0.7785
 8898SOL    HW138153   3.942   4.282   3.786 -1.5786  0.4909 -1.0084
 8898SOL    HW238154   3.808   4.218   3.812 -1.0269  0.0675 -0.8201
 8899SOL     OW38155   3.827   3.553   3.057 -0.8476  0.8691  0.5175
 8899SOL    HW138156   3.909   3.581   3.097  0.2245 -0.3279 -0.8368
 8899SOL    HW238157   3.796   3.624   3.000  1.9071  1.6905  0.0428
 8900SOL     OW38158   1.921   2.586   5.013  0.1518 -0.8351 -0.4414
 8900SOL    HW138159   1.928   2.679   4.995 -0.8989 -0.2244  2.1911
 8900SOL    HW238160   1.831   2.577   5.045  0.1954 -1.6510 -0.5500
 8901SOL     OW38161   4.172   0.507   2.499 -0.4283 -0.3702  0.3722
 8901SOL    HW138162   4.267   0.506   2.511 -0.0343  2.0786 -2.5395
 8901SOL    HW238163   4.145   0.594   2.527 -2.3670 -0.8667  0.0699
 8902SOL     OW38164   0.618   3.311   4.176 -0.3372  0.0479  0.1207
 8902SOL    HW138165   0.661   3.279   4.097 -0.4673  0.3637 -0.0790
 8902SOL    HW238166   0.548   3.359   4.130 -1.6466 -1.0276  0.9738
 8903SOL     OW38167   4.179   0.248  14.613 -0.4641  0.3457 -0.5090
 8903SOL    HW138168   4.196   0.184  14.544  3.1753  1.6851 -0.8735
 8903SOL    HW238169   4.102   0.299  14.587 -0.7182 -1.4680 -3.2468
 8904SOL     OW38170   2.565   2.781   5.469 -0.6395  0.4672 -0.2984
 8904SOL    HW138171   2.504   2.710   5.484  1.8967 -1.6353  0.0111
 8904SOL    HW238172   2.596   2.806   5.556 -0.3202  0.5872 -0.4470
 8905SOL     OW38173   2.535   0.124   5.125 -0.4873 -0.1962 -0.0861
 8905SOL    HW138174   2.563   0.159   5.040  0.1001 -0.7418 -0.1191
 8905SOL    HW238175   2.483   0.052   5.092  0.6860 -0.7058 -0.8371
 8906SOL     OW38176   0.120   2.994  14.034 -0.3194 -0.2582 -0.4728
 8906SOL    HW138177   0.038   2.956  14.065  0.5488 -1.2593  0.5658
 8906SOL    HW238178   0.144   2.936  13.961 -1.3089  1.1203 -1.9004
 8907SOL     OW38179   4.284   1.320   0.345 -0.0372 -0.3917  0.4245
 8907SOL    HW138180   4.233   1.298   0.423 -0.3855  0.6354  0.4808
 8907SOL    HW238181   4.232   1.286   0.273 -2.7774  0.8659  1.8234
 8908SOL     OW38182   2.592   3.515   5.197  0.1547 -0.7458  0.2773
 8908SOL    HW138183   2.618   3.562   5.277  1.4743  1.2074 -1.2738
 8908SOL    HW238184   2.497   3.526   5.202  0.0629 -1.5455  0.1727
 8909SOL     OW38185   4.291   0.806   8.319 -0.5501 -0.0159  0.2134
 8909SOL    HW138186   4.339   0.738   8.271 -2.3855 -0.5826 -0.8550
 8909SOL    HW238187   4.227   0.763   8.376 -0.8885  1.8714  1.2538
 8910SOL     OW38188   0.929   3.851   5.568  0.2338 -0.1111 -0.0527
 8910SOL    HW138189   0.930   3.864   5.663 -0.5795 -0.5728  0.0203
 8910SOL    HW238190   0.919   3.756   5.573 -0.5221 -0.0429 -0.2897
 8911SOL     OW38191   3.233   2.907   9.975  0.2022 -0.4176 -0.2243
 8911SOL    HW138192   3.318   2.949   9.963  0.0317 -0.1448 -0.4751
 8911SOL    HW238193   3.181   2.951   9.908 -0.4454 -1.2865 -0.2802
 8912SOL     OW38194   1.162   0.287  10.980  0.4196  0.1816  0.3586
 8912SOL    HW138195   1.138   0.321  10.894  0.1738  1.0344  0.7724
 8912SOL    HW238196   1.171   0.361  11.039  0.2367 -0.0116  0.6274
 8913SOL     OW38197   2.538   4.587   7.659 -0.7025 -0.3523 -0.7651
 8913SOL    HW138198   2.503   4.508   7.617 -0.8284 -1.6760  1.8169
 8913SOL    HW238199   2.619   4.544   7.688 -1.0680  0.4163  1.3820
 8914SOL     OW38200   4.161   1.000  10.637  0.4727 -0.0358 -0.2927
 8914SOL    HW138201   4.082   0.960  10.674  0.4877 -0.1075 -0.3385
 8914SOL    HW238202   4.124   1.024  10.552  1.8728 -0.2165 -0.9619
 8915SOL     OW38203   0.676   4.679   2.198 -0.6793 -0.1280  0.0062
 8915SOL    HW138204   0.602   0.005   2.165 -0.1125  2.0565  2.1755
 8915SOL    HW238205   0.630   4.622   2.259  1.4288 -1.0230  0.7372
 8916SOL     OW38206   2.011   2.405   5.548  0.2822  0.3208 -0.1171
 8916SOL    HW138207   1.948   2.345   5.588  0.8357 -2.6574 -3.6832
 8916SOL    HW238208   2.080   2.405   5.614 -1.2644  0.6817  1.5134
 8917SOL     OW38209   0.044   3.425   5.150  0.6512 -0.3266  0.3955
 8917SOL    HW138210   4.681   3.453   5.127  0.3832 -1.3160  0.2074
 8917SOL    HW238211   0.093   3.419   5.068  0.6393 -2.7567  0.5615
 8918SOL     OW38212   0.668   1.613   6.432 -0.4102  0.0460  0.0473
 8918SOL    HW138213   0.636   1.653   6.351 -0.9024 -0.8603 -0.2127
 8918SOL    HW238214   0.739   1.676   6.444  0.5435 -1.0694  0.2968
 8919SOL     OW38215   2.401   0.259   8.289 -0.0762 -0.7676 -0.2025
 8919SOL    HW138216   2.428   0.186   8.233 -1.0766  0.9592 -2.9272
 8919SOL    HW238217   2.400   0.220   8.377  2.3712 -1.5888 -0.5500
 8920SOL     OW38218   3.074   0.201   8.740 -0.3055 -0.1109 -0.3236
 8920SOL    HW138219   3.141   0.187   8.673 -0.8073 -2.5125 -0.3321
 8920SOL    HW238220   3.047   0.110   8.750 -0.2314 -0.0691  0.2756
 8921SOL     OW38221   2.121   2.135   6.345 -0.2942  0.3662  0.3827
 8921SOL    HW138222   2.138   2.041   6.338 -2.0108 -0.0507  1.8101
 8921SOL    HW238223   2.090   2.141   6.435  0.4624  3.1625  0.4673
 8922SOL     OW38224   0.811   1.639   0.737  0.0885 -0.4889  0.1879
 8922SOL    HW138225   0.754   1.575   0.695  1.0207 -2.5708  2.0727
 8922SOL    HW238226   0.869   1.586   0.791  0.8689 -0.1456 -0.3084
 8923SOL     OW38227   1.187   1.779   2.946 -0.1431 -0.7025 -0.1848
 8923SOL    HW138228   1.125   1.722   2.901 -0.8778  0.7696 -1.0378
 8923SOL    HW238229   1.266   1.767   2.892 -0.5218  0.8563 -1.0891
 8924SOL     OW38230   2.813   3.654   5.625  0.1523  0.2988 -0.4709
 8924SOL    HW138231   2.871   3.731   5.625 -2.3288  2.1815 -1.4493
 8924SOL    HW238232   2.865   3.581   5.592 -2.9108 -1.4970 -1.2939
 8925SOL     OW38233   3.496   2.206   7.385  0.0346 -0.0040 -0.3411
 8925SOL    HW138234   3.526   2.205   7.476  0.2954  0.5583 -0.4193
 8925SOL    HW238235   3.417   2.152   7.383 -1.3766  2.0191  0.7575
 8926SOL     OW38236   2.244   2.610   6.031  0.2299  0.5347  0.0427
 8926SOL    HW138237   2.162   2.613   6.081  1.4535 -0.1825  2.1223
 8926SOL    HW238238   2.270   2.700   6.013  1.4642  0.1763  0.0232
 8927SOL     OW38239   2.003   3.675  12.819  0.2419 -0.0774 -0.2247
 8927SOL    HW138240   1.999   3.764  12.852  0.6575 -0.5675  1.1629
 8927SOL    HW238241   1.968   3.636  12.900  2.6815  2.5422  2.0763
 8928SOL     OW38242   2.250   0.987  13.018 -0.2533  0.0029 -0.3790
 8928SOL    HW138243   2.256   1.034  12.935  1.1878  0.8803  0.2240
 8928SOL    HW238244   2.239   0.898  12.984  2.0593 -0.9902  1.4070
 8929SOL     OW38245   4.237   0.050   9.698  0.5723  0.6349  0.4023
 8929SOL    HW138246   4.320   0.014   9.729  0.5336 -0.0402 -0.2748
 8929SOL    HW238247   4.192   0.044   9.782 -1.1998 -1.2182 -0.6861
 8930SOL     OW38248   2.350   0.487   1.721 -0.0269 -0.4143 -0.0300
 8930SOL    HW138249   2.343   0.509   1.628  1.0015  2.0648  0.4919
 8930SOL    HW238250   2.429   0.535   1.746  1.2282 -2.4484 -0.0132
 8931SOL     OW38251   0.677   1.672   5.842  0.1248 -0.9632  0.3154
 8931SOL    HW138252   0.691   1.604   5.907  0.3790 -0.4619  0.7819
 8931SOL    HW238253   0.766   1.704   5.833 -0.6794  0.9764 -0.8549
 8932SOL     OW38254   1.722   4.602   9.073 -0.4247  0.0082  0.0450
 8932SOL    HW138255   1.660   4.650   9.017  1.0528  1.6868 -0.1461
 8932SOL    HW238256   1.648   4.550   9.106 -0.5210 -0.6004 -1.1361
 8933SOL     OW38257   0.694   2.522   5.871 -0.0281  0.7817  0.3574
 8933SOL    HW138258   0.617   2.511   5.926  0.0772  1.2156  0.5890
 8933SOL    HW238259   0.740   2.449   5.914 -0.4090  1.1159  1.3235
 8934SOL     OW38260   4.038   2.420   3.080 -0.1878  0.2493 -1.4257
 8934SOL    HW138261   4.045   2.454   2.991 -2.0669  1.6003 -1.0482
 8934SOL    HW238262   4.069   2.332   3.061  0.9395 -0.2936  2.7578
 8935SOL     OW38263   4.176   4.235   5.304  0.0921 -0.2820 -0.2434
 8935SOL    HW138264   4.187   4.294   5.379  0.5120 -2.6281  1.5544
 8935SOL    HW238265   4.116   4.289   5.254  0.5326  0.2035 -0.2484
 8936SOL     OW38266   2.544   0.071   7.861  0.0355  0.2782  0.2245
 8936SOL    HW138267   2.635   0.078   7.834 -0.2229  0.4000 -0.6130
 8936SOL    HW238268   2.508   0.009   7.798  1.4889 -0.1543 -0.1680
 8937SOL     OW38269   0.269   3.902   2.506 -0.1622  0.0362 -0.0955
 8937SOL    HW138270   0.176   3.892   2.489 -0.0853 -0.9597  0.0803
 8937SOL    HW238271   0.270   3.928   2.598 -2.9178  0.1832 -0.1067
 8938SOL     OW38272   1.701   2.109   4.838  0.2892 -0.2827 -0.3850
 8938SOL    HW138273   1.777   2.143   4.886  0.1652 -0.5060 -0.0335
 8938SOL    HW238274   1.632   2.157   4.885  2.9599  1.7398  1.5029
 8939SOL     OW38275   1.439   4.356   1.980 -0.0871 -0.2063  0.2634
 8939SOL    HW138276   1.524   4.312   1.980  0.5918  1.0884  1.8435
 8939SOL    HW238277   1.471   4.427   1.925  0.9929  0.3259  1.5674
 8940SOL     OW38278   3.436   2.989   8.746  0.4349 -0.0683 -0.2143
 8940SOL    HW138279   3.417   3.074   8.706 -1.4381 -0.7899 -0.8712
 8940SOL    HW238280   3.466   2.942   8.669  1.4222  0.3829 -0.0952
 8941SOL     OW38281   3.041   0.023   3.555 -0.3195 -0.2389 -0.1154
 8941SOL    HW138282   2.971   4.701   3.510 -1.1947  3.1634 -2.4044
 8941SOL    HW238283   2.998   0.101   3.591 -0.8287 -0.1096 -1.0111
 8942SOL     OW38284   1.220   2.244   7.442 -0.6047 -0.4689 -0.2886
 8942SOL    HW138285   1.205   2.239   7.348 -0.0349  1.9968 -0.5061
 8942SOL    HW238286   1.316   2.237   7.439 -0.4117  1.0709  2.0463
 8943SOL     OW38287   4.599   1.107  15.015  0.3012 -0.3394 -0.1760
 8943SOL    HW138288   4.597   1.053  15.094  1.4796 -0.2288 -0.0715
 8943SOL    HW238289   4.603   1.197  15.047 -0.7331 -0.5201  0.4671
 8944SOL     OW38290   1.067   4.701   4.832 -0.0643 -0.1148 -0.6292
 8944SOL    HW138291   1.071   0.029   4.753  0.4830 -1.0422 -1.2335
 8944SOL    HW238292   1.021   4.626   4.794  1.3013 -0.2172 -2.0558
 8945SOL     OW38293   3.234   4.081   6.169  0.3519  0.4276 -0.3026
 8945SOL    HW138294   3.321   4.120   6.168 -0.2212  1.7526  0.3671
 8945SOL    HW238295   3.237   4.019   6.242  0.1184  0.9861  0.1932
 8946SOL     OW38296   4.411   4.395   7.340  0.1279  0.1020 -0.0029
 8946SOL    HW138297   4.420   4.403   7.245 -0.7774  0.7611 -0.0343
 8946SOL    HW238298   4.318   4.370   7.335  0.1385 -0.3985  2.7540
 8947SOL     OW38299   1.478   1.701   6.708 -0.3575  0.2163  0.6828
 8947SOL    HW138300   1.531   1.646   6.765  0.6925 -0.0635 -0.5471
 8947SOL    HW238301   1.419   1.743   6.770 -1.3211 -0.7205  0.4002
 8948SOL     OW38302   3.912   1.158  17.172  0.3502  0.6712  0.2988
 8948SOL    HW138303   3.926   1.065  17.158 -0.1312  0.9557 -2.2259
 8948SOL    HW238304   3.918   1.196  17.084  1.1934 -0.4906 -0.1502
 8949SOL     OW38305   0.988   1.562   5.518  0.2264  0.2031  0.0650
 8949SOL    HW138306   0.983   1.512   5.436 -1.8400 -0.1753  0.4205
 8949SOL    HW238307   0.911   1.531   5.567 -0.9666  3.4588  0.2371
 8950SOL     OW38308   1.216   1.734  17.541  0.0707  0.3202  0.2934
 8950SOL    HW138309   1.171   1.696  17.617 -0.2794  0.7095  0.2781
 8950SOL    HW238310   1.280   1.787  17.589 -0.4092  0.2328  1.0453
 8951SOL     OW38311   3.122   1.526  11.663  0.0080  0.1359  0.5309
 8951SOL    HW138312   3.106   1.536  11.757 -0.1422 -0.2231  0.5433
 8951SOL    HW238313   3.104   1.616  11.636  0.7074 -0.2699 -1.3014
 8952SOL     OW38314   0.423   3.675   2.527 -0.4592 -0.2275 -0.4471
 8952SOL    HW138315   0.363   3.750   2.522  1.6922  1.6899  2.3549
 8952SOL    HW238316   0.379   3.614   2.468  0.5096 -1.4842  0.1366
 8953SOL     OW38317   4.696   0.823  10.945 -1.1170 -0.4539 -0.1454
 8953SOL    HW138318   4.697   0.728  10.949 -0.3276 -0.4398  0.1044
 8953SOL    HW238319   4.702   0.846  10.852 -0.7791 -0.3075 -0.0890
 8954SOL     OW38320   1.432   3.685   1.685 -0.4032  0.1483 -0.0666
 8954SOL    HW138321   1.472   3.743   1.751  0.4339  0.0992 -0.5258
 8954SOL    HW238322   1.338   3.678   1.700 -0.3869  1.4301  0.6568
 8955SOL     OW38323   3.642   2.165   5.656 -0.0258  0.2644 -0.7093
 8955SOL    HW138324   3.561   2.182   5.607 -0.9793  0.2699  0.8721
 8955SOL    HW238325   3.610   2.168   5.746  1.4733 -2.3206 -0.1117
 8956SOL     OW38326   2.131   2.745   0.249 -0.2964 -0.3598  0.4422
 8956SOL    HW138327   2.173   2.661   0.231  0.1088 -0.0677  0.0272
 8956SOL    HW238328   2.189   2.785   0.314  0.8119 -0.2122 -0.6244
 8957SOL     OW38329   0.966   3.303   3.251  0.1159  0.6645 -0.4698
 8957SOL    HW138330   1.024   3.367   3.210  2.7620 -0.7234  1.1098
 8957SOL    HW238331   0.882   3.344   3.227 -1.1451 -0.3761  2.1851
 8958SOL     OW38332   3.477   3.141  16.719 -0.7582  0.1058  0.6585
 8958SOL    HW138333   3.417   3.215  16.712  0.4180  0.8726 -1.4917
 8958SOL    HW238334   3.444   3.073  16.660  1.2090 -0.9837  0.8144
 8959SOL     OW38335   1.116   2.862   6.271  0.1556 -0.0465  0.1439
 8959SOL    HW138336   1.206   2.892   6.274 -0.6365  2.2794  0.3849
 8959SOL    HW238337   1.096   2.859   6.177 -1.1007  3.6685  0.2770
 8960SOL     OW38338   1.985   0.518  12.818 -0.2820 -0.0401  0.4870
 8960SOL    HW138339   1.988   0.565  12.902  2.2559 -3.3177  2.2203
 8960SOL    HW238340   1.893   0.535  12.800  0.0738 -0.2232 -1.4791
 8961SOL     OW38341   3.656   4.298   3.932 -0.3211 -0.2792  0.4588
 8961SOL    HW138342   3.698   4.316   4.017  0.2883 -3.0391  0.7415
 8961SOL    HW238343   3.584   4.362   3.929  0.4696  0.6246  0.4818
 8962SOL     OW38344   1.405   0.390   7.300  0.2391 -0.0311 -0.4188
 8962SOL    HW138345   1.352   0.374   7.222  0.9831 -1.7588 -0.5809
 8962SOL    HW238346   1.349   0.378   7.376 -1.4524  2.1024 -1.3438
 8963SOL     OW38347   3.193   3.017   1.765 -0.1055 -0.0316 -0.2228
 8963SOL    HW138348   3.182   3.036   1.672  0.3528  0.5804 -0.1528
 8963SOL    HW238349   3.156   3.096   1.806 -1.6071 -1.5442  1.3241
 8964SOL     OW38350   3.675   4.529  10.044 -0.2094 -0.0988 -0.1806
 8964SOL    HW138351   3.593   4.575  10.059 -0.1699 -0.1731  0.2535
 8964SOL    HW238352   3.657   4.487   9.960  1.6293 -0.7151 -0.2577
 8965SOL     OW38353   0.403   0.863  14.181 -0.7053 -0.2202  0.0380
 8965SOL    HW138354   0.356   0.861  14.264  2.0353  0.3402  1.6082
 8965SOL    HW238355   0.325   0.877  14.127 -1.2589 -0.7069  0.7076
 8966SOL     OW38356   4.675   1.693  13.323  0.1392 -0.4560 -0.9288
 8966SOL    HW138357   4.700   1.602  13.308  3.0388  0.3562 -0.8555
 8966SOL    HW238358   4.580   1.681  13.333 -0.0470  1.6083 -0.1198
 8967SOL     OW38359   1.105   3.282  10.747  0.7966  0.3003 -0.3200
 8967SOL    HW138360   1.198   3.304  10.740  0.8298  0.1773 -0.2738
 8967SOL    HW238361   1.115   3.230  10.827 -2.8315 -0.7344 -0.5458
 8968SOL     OW38362   1.511   3.569   2.359 -0.3207 -0.0180 -0.4537
 8968SOL    HW138363   1.542   3.537   2.444  0.7317  1.6963 -0.1699
 8968SOL    HW238364   1.559   3.519   2.294  2.2394  1.1397  0.5276
 8969SOL     OW38365   0.088   3.833   7.195 -0.2237  0.5973 -0.3849
 8969SOL    HW138366   0.174   3.866   7.172 -0.3555  1.1195 -0.1259
 8969SOL    HW238367   0.036   3.900   7.151 -1.7163 -1.2825 -1.4957
 8970SOL     OW38368   1.787   1.118   8.968 -0.2238  0.2866  0.1536
 8970SOL    HW138369   1.808   1.033   8.930  3.0378  0.5264  1.3881
 8970SOL    HW238370   1.820   1.172   8.896  0.3828 -2.5805 -1.6915
 8971SOL     OW38371   1.631   2.138   5.692  0.3377 -0.3099  0.0219
 8971SOL    HW138372   1.554   2.179   5.731  1.0640  2.3492 -1.3658
 8971SOL    HW238373   1.587   2.071   5.640  0.4333 -3.1021  3.5412
 8972SOL     OW38374   0.105   2.443   2.761 -0.1622  0.7907  0.4280
 8972SOL    HW138375   0.147   2.527   2.741  0.5899 -0.2592 -2.3542
 8972SOL    HW238376   0.111   2.452   2.856 -2.4113  2.2600  0.4162
 8973SOL     OW38377   1.123   0.908  17.378 -0.3846 -0.2861  0.1364
 8973SOL    HW138378   1.082   0.825  17.403  1.2229 -0.7865  1.1857
 8973SOL    HW238379   1.109   0.968  17.452  0.2073  1.3308 -1.0598
 8974SOL     OW38380   3.245   3.843   3.211 -0.2776 -0.2626 -0.3879
 8974SOL    HW138381   3.150   3.857   3.211 -0.4346 -1.3357 -0.1927
 8974SOL    HW238382   3.249   3.831   3.306  1.5061 -2.3403 -0.7100
 8975SOL     OW38383   1.847   2.088   0.131  0.2123  0.5483  0.4276
 8975SOL    HW138384   1.847   2.165   0.188 -1.0493 -0.2226  1.4710
 8975SOL    HW238385   1.856   2.119   0.041  1.7495  0.7967  0.6814
 8976SOL     OW38386   3.462   4.339   6.853  0.0787  0.1967  0.0351
 8976SOL    HW138387   3.384   4.345   6.798 -1.0277  0.4262  1.6320
 8976SOL    HW238388   3.481   4.432   6.866 -0.6998  0.2349  0.8807
 8977SOL     OW38389   2.988   1.610   3.478 -0.0282  0.3196 -0.0339
 8977SOL    HW138390   2.909   1.565   3.448 -0.7348  0.2005  2.0173
 8977SOL    HW238391   2.976   1.589   3.571 -3.5460 -0.8251 -0.7363
 8978SOL     OW38392   0.977   3.643   2.189  0.1994  0.2597  0.3859
 8978SOL    HW138393   0.904   3.615   2.133  0.0422  1.4639 -0.0206
 8978SOL    HW238394   1.050   3.656   2.128  0.2959 -0.1541  0.4125
 8979SOL     OW38395   1.530   3.810   6.726 -0.0215  0.0045  0.3010
 8979SOL    HW138396   1.440   3.818   6.756 -0.3709  1.4580 -1.1307
 8979SOL    HW238397   1.517   3.820   6.632 -1.8192  0.5527  0.6228
 8980SOL     OW38398   1.195   2.559   6.010 -0.6884 -0.3093  0.0506
 8980SOL    HW138399   1.137   2.545   6.085 -1.9037 -1.2015 -1.0495
 8980SOL    HW238400   1.142   2.547   5.932 -1.9013  0.7330  0.7244
 8981SOL     OW38401   2.839   3.397   9.851 -0.3253  0.2855  0.3965
 8981SOL    HW138402   2.790   3.384   9.932  0.3780  2.2395  1.1500
 8981SOL    HW238403   2.802   3.482   9.827 -0.0561  0.1569 -0.4760
 8982SOL     OW38404   2.941   2.326   6.410  0.5239 -0.4833 -0.3388
 8982SOL    HW138405   2.906   2.254   6.357 -1.3552 -0.1971  0.5211
 8982SOL    HW238406   3.032   2.296   6.415  0.8792  1.2457  2.8775
 8983SOL     OW38407   0.962   2.402   9.009  0.3157  0.3870 -0.0515
 8983SOL    HW138408   0.972   2.446   8.925  1.3165  0.8833  0.3247
 8983SOL    HW238409   0.881   2.444   9.037  0.5224  1.2232 -0.7115
 8984SOL     OW38410   1.855   2.774   5.354 -0.2261 -0.0768 -0.8805
 8984SOL    HW138411   1.859   2.829   5.276 -0.3328  1.6559  0.3251
 8984SOL    HW238412   1.863   2.685   5.320  1.7943 -0.0520 -0.4784
 8985SOL     OW38413   2.843   1.421   5.861 -0.0056 -0.2944 -0.2745
 8985SOL    HW138414   2.918   1.368   5.836  0.4524  0.0376  0.3792
 8985SOL    HW238415   2.852   1.500   5.807  1.7693 -0.4574 -0.2107
 8986SOL     OW38416   2.861   0.342  14.562  0.4356 -0.4741 -0.1167
 8986SOL    HW138417   2.889   0.351  14.653 -0.4086  1.8033 -0.0972
 8986SOL    HW238418   2.951   0.332  14.533 -0.1203  0.1505 -2.0682
 8987SOL     OW38419   3.375   1.582  14.593 -0.6606  0.1659 -0.5214
 8987SOL    HW138420   3.383   1.676  14.610  2.3150 -0.3217  0.7972
 8987SOL    HW238421   3.425   1.555  14.516 -1.0837  0.8168 -1.0219
 8988SOL     OW38422   0.562   2.866  16.731 -0.4992  0.0477  0.7714
 8988SOL    HW138423   0.504   2.836  16.660 -2.5432  0.0765  2.4291
 8988SOL    HW238424   0.522   2.843  16.814  0.0625 -1.8649  0.5172
 8989SOL     OW38425   1.663   2.047  10.694  0.1854 -0.0850  0.0100
 8989SOL    HW138426   1.568   2.046  10.695  0.1624 -1.2071 -2.2331
 8989SOL    HW238427   1.676   2.131  10.648  0.1200  0.8343  1.6938
 8990SOL     OW38428   3.195   0.175   8.243  0.3127  0.2928 -0.2463
 8990SOL    HW138429   3.151   0.139   8.166  0.3968 -0.9302  0.2741
 8990SOL    HW238430   3.217   0.091   8.283  1.3250  0.4568 -0.4315
 8991SOL     OW38431   4.580   0.048   8.045 -0.2149 -0.1574  0.4481
 8991SOL    HW138432   4.621   4.689   8.060 -0.0864 -0.1273  0.2566
 8991SOL    HW238433   4.589   0.061   7.951  0.4330 -0.2446  0.5020
 8992SOL     OW38434   2.412   1.401   4.359 -0.2344 -0.1978 -0.6078
 8992SOL    HW138435   2.458   1.395   4.442  0.9175  0.9919 -1.1828
 8992SOL    HW238436   2.383   1.309   4.356 -0.4779 -0.1994  1.8532
 8993SOL     OW38437   3.944   2.313  10.275  0.1352 -0.2819  0.3721
 8993SOL    HW138438   3.947   2.403  10.308  0.6584  0.4890 -1.7967
 8993SOL    HW238439   3.987   2.261  10.343 -2.2599  0.3449  2.3760
 8994SOL     OW38440   3.467   0.387   2.992 -0.3659  0.3999 -0.3343
 8994SOL    HW138441   3.452   0.460   2.932  0.9113  1.1733  0.2879
 8994SOL    HW238442   3.382   0.369   3.032  0.2904  1.1204  1.3713
 8995SOL     OW38443   0.787   0.945   0.687  0.0408  0.6710 -0.0117
 8995SOL    HW138444   0.767   0.909   0.773 -0.0822 -0.0392 -0.3405
 8995SOL    HW238445   0.733   0.890   0.631 -0.8436  0.4708  1.0433
 8996SOL     OW38446   2.090   1.928   6.926  0.0973  0.2176 -0.3159
 8996SOL    HW138447   2.127   1.880   6.852  1.1989 -0.7632  0.8661
 8996SOL    HW238448   1.996   1.911   6.919  0.3705 -0.7235 -1.7494
 8997SOL     OW38449   1.736   3.331   5.639 -0.1312 -0.1048 -0.5307
 8997SOL    HW138450   1.712   3.423   5.648 -3.9629 -0.9183 -2.4583
 8997SOL    HW238451   1.742   3.321   5.544  3.1859  0.9754 -0.4317
 8998SOL     OW38452   0.288   1.096   2.011 -0.0995 -0.0278 -0.1208
 8998SOL    HW138453   0.225   1.025   2.002 -1.2029  0.7332  1.6480
 8998SOL    HW238454   0.245   1.149   1.944 -2.2285 -1.7478 -0.0914
 8999SOL     OW38455   1.644   3.648   4.148 -0.5281  0.8733 -0.4172
 8999SOL    HW138456   1.589   3.617   4.221 -3.3107  2.0980 -1.9824
 8999SOL    HW238457   1.730   3.666   4.185 -1.1546  0.8068  1.0697
 9000SOL     OW38458   0.337   3.420   6.081  0.1458  0.0350 -0.4464
 9000SOL    HW138459   0.280   3.490   6.115  1.3403  0.6766  0.2174
 9000SOL    HW238460   0.308   3.347   6.136  0.7367 -0.2989 -0.5790
 9001SOL     OW38461   3.724   2.961   4.987  0.2201 -0.6992 -0.0811
 9001SOL    HW138462   3.792   2.966   5.053 -2.2073 -2.2238  2.5651
 9001SOL    HW238463   3.772   3.003   4.916  0.6815  0.8353  1.1473
 9002SOL     OW38464   1.544   4.533   7.402 -0.0644 -0.3872 -0.1743
 9002SOL    HW138465   1.619   4.549   7.344 -0.3989 -0.3453 -0.5896
 9002SOL    HW238466   1.591   4.490   7.474 -2.6823 -1.5249  0.8268
 9003SOL     OW38467   0.526   4.255   3.286 -0.0090  0.4089 -0.0273
 9003SOL    HW138468   0.537   4.345   3.256  2.0486  0.4340  0.7845
 9003SOL    HW238469   0.555   4.206   3.209 -0.7103 -0.6326  0.3770
 9004SOL     OW38470   0.106   2.043   2.598 -1.4046 -0.5710 -1.0150
 9004SOL    HW138471   0.035   2.087   2.645  1.0678  0.2001  2.0078
 9004SOL    HW238472   0.175   2.052   2.664 -1.4688 -1.1348 -0.8729
 9005SOL     OW38473   1.282   1.224   2.722 -0.1962 -0.0937  0.4148
 9005SOL    HW138474   1.309   1.138   2.754  0.4028 -0.2554 -0.5268
 9005SOL    HW238475   1.326   1.224   2.638 -0.8872  2.9563  0.0469
 9006SOL     OW38476   4.003   3.809  11.524  0.5463  0.1126  0.5279
 9006SOL    HW138477   4.014   3.842  11.614 -1.3071 -1.2816  1.2601
 9006SOL    HW238478   3.989   3.886  11.469 -0.6856 -0.9301 -0.5871
 9007SOL     OW38479   2.623   0.331   3.209  0.0912  0.1483  0.4798
 9007SOL    HW138480   2.655   0.367   3.126 -1.4017 -0.8341 -0.5247
 9007SOL    HW238481   2.567   0.394   3.254 -1.2501 -0.9058  0.2485
 9008SOL     OW38482   4.295   0.820   4.726 -0.0549 -0.1459 -0.3404
 9008SOL    HW138483   4.356   0.863   4.666  0.4889  0.2733  0.5036
 9008SOL    HW238484   4.233   0.769   4.674 -1.3594 -0.0215  1.1052
 9009SOL     OW38485   2.276   2.286   6.915  0.4790  0.7661  0.2953
 9009SOL    HW138486   2.263   2.198   6.880 -1.9795  0.7007  1.3362
 9009SOL    HW238487   2.367   2.266   6.935 -0.0626 -1.3687  0.6203
 9010SOL     OW38488   0.704   0.432   3.667  0.8659  0.6899  0.0937
 9010SOL    HW138489   0.752   0.411   3.747  3.7553  2.0679 -1.2729
 9010SOL    HW238490   0.647   0.504   3.692  1.1532  0.6606  0.8128
 9011SOL     OW38491   2.499   2.358   7.578 -0.5129 -0.2727 -0.7209
 9011SOL    HW138492   2.579   2.410   7.579 -0.5921 -0.1720 -0.1038
 9011SOL    HW238493   2.507   2.321   7.666 -0.4085 -2.1917 -1.5150
 9012SOL     OW38494   2.073   2.757   3.146  0.1460  0.6799 -0.3949
 9012SOL    HW138495   1.978   2.763   3.148  0.2530  2.0348  1.1296
 9012SOL    HW238496   2.088   2.826   3.081  1.4241  0.5589 -0.2345
 9013SOL     OW38497   2.161   4.596  17.580  0.1806  0.2774  0.3839
 9013SOL    HW138498   2.164   4.520  17.639 -1.2765  1.3678  1.8369
 9013SOL    HW238499   2.073   4.585  17.546  0.9030 -3.3544 -0.3329
 9014SOL     OW38500   2.798   0.933   8.074  0.2135 -0.8027 -0.4371
 9014SOL    HW138501   2.743   0.961   8.148 -0.4064  0.9003 -1.5517
 9014SOL    HW238502   2.854   0.865   8.112 -0.4225 -1.3264 -0.4344
 9015SOL     OW38503   3.363   4.455   8.760 -0.0628  0.9645 -0.1761
 9015SOL    HW138504   3.363   4.466   8.855  1.2390 -3.6872  0.3689
 9015SOL    HW238505   3.278   4.417   8.736  0.3012 -0.4420  0.7357
 9016SOL     OW38506   2.521   1.399   4.589  0.0312  0.0248  0.3891
 9016SOL    HW138507   2.497   1.441   4.672 -3.4209  2.1774 -1.6762
 9016SOL    HW238508   2.559   1.318   4.621  1.6416 -0.0754 -1.7332
 9017SOL     OW38509   0.158   0.107  17.194  0.5254  0.4098  0.1272
 9017SOL    HW138510   0.131   0.146  17.111 -2.2928 -0.7488  0.5100
 9017SOL    HW238511   0.250   0.104  17.168  0.1165 -1.6915 -1.1092
 9018SOL     OW38512   2.686   4.322   3.382  0.4015  0.1356 -0.2191
 9018SOL    HW138513   2.683   4.401   3.436  0.2328 -0.3568  0.5049
 9018SOL    HW238514   2.671   4.348   3.292  1.4718 -0.1982 -0.4925
 9019SOL     OW38515   0.541   3.444  13.758  0.3382  0.7314  0.2113
 9019SOL    HW138516   0.608   3.510  13.776  1.8970 -0.6493 -0.5324
 9019SOL    HW238517   0.467   3.471  13.812 -0.2581  2.3930 -1.4350
 9020SOL     OW38518   0.644   3.618   2.667 -0.0054 -0.1664 -0.3207
 9020SOL    HW138519   0.559   3.649   2.635  0.4055  0.0253 -1.2310
 9020SOL    HW238520   0.609   3.571   2.743 -0.0683 -0.9487 -0.8307
 9021SOL     OW38521   1.893   3.667   4.274 -0.4876 -0.8214 -0.0530
 9021SOL    HW138522   1.878   3.644   4.366 -0.3972  0.1658  0.2094
 9021SOL    HW238523   1.916   3.582   4.236  0.3744 -0.6802  0.1503
 9022SOL     OW38524   4.066   1.226   3.852  0.2166  0.1938 -0.2850
 9022SOL    HW138525   4.120   1.197   3.926 -3.1641 -0.5748  1.8844
 9022SOL    HW238526   3.976   1.201   3.873 -0.0524 -0.6676 -2.5034
 9023SOL     OW38527   2.920   1.633   5.672 -0.4071 -0.7520  0.1588
 9023SOL    HW138528   3.005   1.661   5.637 -0.5159 -1.3011 -0.5424
 9023SOL    HW238529   2.867   1.660   5.597  2.3703 -0.1516 -1.6148
 9024SOL     OW38530   2.039   2.607   6.191  1.0608 -0.2139 -0.3209
 9024SOL    HW138531   1.997   2.525   6.217  1.3020 -0.9512 -2.2441
 9024SOL    HW238532   2.087   2.637   6.269 -0.3266  0.6804  0.1980
 9025SOL     OW38533   1.348   0.110   7.283  0.1618  0.2708 -0.8673
 9025SOL    HW138534   1.416   0.131   7.347 -2.9632  1.2239  2.1591
 9025SOL    HW238535   1.350   0.191   7.232 -0.2061  0.8114 -0.0415
 9026SOL     OW38536   3.190   2.158   8.088 -0.3377 -0.6843 -0.0656
 9026SOL    HW138537   3.205   2.066   8.067  1.2682 -0.1908 -1.0740
 9026SOL    HW238538   3.168   2.151   8.181 -1.0494  0.2642 -0.1549
 9027SOL     OW38539   2.094   0.620  14.541 -0.3881  0.0662 -0.4551
 9027SOL    HW138540   2.015   0.672  14.549 -0.1127 -0.0506  3.2149
 9027SOL    HW238541   2.114   0.614  14.635  3.4084  0.2415 -1.2275
 9028SOL     OW38542   2.311   1.183  17.331 -0.5421  0.0083  0.6904
 9028SOL    HW138543   2.253   1.209  17.403 -2.4049 -2.8158  0.2128
 9028SOL    HW238544   2.271   1.108  17.287 -0.4523 -0.4566  1.3931
 9029SOL     OW38545   2.203   1.206   4.309  0.3538 -0.1349 -0.0558
 9029SOL    HW138546   2.195   1.113   4.289 -1.3774 -0.3002  1.4077
 9029SOL    HW238547   2.125   1.235   4.263  0.5437 -1.6538 -1.3181
 9030SOL     OW38548   4.066   1.461   4.750  0.4515 -0.0219  0.3534
 9030SOL    HW138549   4.012   1.501   4.817 -0.4464 -0.4301 -0.1330
 9030SOL    HW238550   4.105   1.538   4.710  0.1837 -0.0253  0.0874
 9031SOL     OW38551   2.942   2.641   7.743  0.2625  0.0111 -0.0876
 9031SOL    HW138552   2.961   2.548   7.740  0.0329 -0.0855  1.6590
 9031SOL    HW238553   3.010   2.684   7.794 -0.3587  1.2245 -0.2853
 9032SOL     OW38554   2.205   2.742  13.347 -0.0164 -0.0925 -0.2172
 9032SOL    HW138555   2.136   2.783  13.399  2.1043  0.6476  2.0157
 9032SOL    HW238556   2.258   2.816  13.316 -1.5993  0.4483 -1.5945
 9033SOL     OW38557   0.825   0.572   1.630 -0.5782 -0.5610  0.2735
 9033SOL    HW138558   0.789   0.495   1.586  0.5215 -0.6050 -0.5569
 9033SOL    HW238559   0.894   0.528   1.679  0.0446  1.7983  1.5206
 9034SOL     OW38560   2.465   1.006   3.620  0.0499 -0.3677  0.2668
 9034SOL    HW138561   2.540   0.946   3.625  0.2985 -0.0905 -0.1056
 9034SOL    HW238562   2.488   1.070   3.553  0.6462 -0.0371  0.7856
 9035SOL     OW38563   3.303   0.070   4.063  0.6738 -0.0741  0.1512
 9035SOL    HW138564   3.267   0.040   3.980 -0.4385  2.3336 -0.2177
 9035SOL    HW238565   3.230   0.047   4.121  1.1946  2.7403  1.8984
 9036SOL     OW38566   0.623   3.051   0.174 -0.2253  0.0876  0.0650
 9036SOL    HW138567   0.528   3.051   0.187 -0.1359  1.4633  0.7297
 9036SOL    HW238568   0.650   3.110   0.245 -0.8364 -0.4657  0.7521
 9037SOL     OW38569   2.388   3.889   0.341  0.3403 -0.3947 -0.4955
 9037SOL    HW138570   2.433   3.821   0.392  1.0378 -1.8390 -3.0634
 9037SOL    HW238571   2.450   3.959   0.356  0.3168 -0.4705 -0.0283
 9038SOL     OW38572   3.939   3.944  12.897 -0.3745  0.2597  0.1863
 9038SOL    HW138573   3.957   3.873  12.835 -0.5892 -0.1800  0.6228
 9038SOL    HW238574   4.025   3.987  12.894  0.2582 -1.0385 -0.4989
 9039SOL     OW38575   0.287   3.505   6.913 -0.3922 -0.0482 -0.0928
 9039SOL    HW138576   0.270   3.438   6.847  1.3960  1.2075 -1.8264
 9039SOL    HW238577   0.211   3.561   6.895 -0.9111 -1.0339 -0.9343
 9040SOL     OW38578   2.115   4.087   7.590  0.2661  0.8876  0.1201
 9040SOL    HW138579   2.137   4.180   7.594  0.7338  0.8416 -1.3696
 9040SOL    HW238580   2.024   4.092   7.560 -0.3823  1.6146  2.1902
 9041SOL     OW38581   3.559   3.707  13.207  0.4033 -0.4241  0.2326
 9041SOL    HW138582   3.645   3.699  13.166 -1.1389  0.7633 -3.1714
 9041SOL    HW238583   3.589   3.725  13.297 -1.1714 -1.6868  1.0069
 9042SOL     OW38584   4.158   2.255  16.164  0.1039 -0.9486 -0.4653
 9042SOL    HW138585   4.182   2.269  16.255  2.5166 -0.4225 -1.1687
 9042SOL    HW238586   4.212   2.176  16.152  2.6617  0.7205 -0.0449
 9043SOL     OW38587   1.395   3.318   8.301 -0.1586 -0.1915  0.1032
 9043SOL    HW138588   1.397   3.409   8.272  1.2110 -0.2975 -0.1375
 9043SOL    HW238589   1.488   3.302   8.316  0.2202  1.1452 -0.7753
 9044SOL     OW38590   3.334   2.606   3.539 -0.0459 -0.6459 -0.7630
 9044SOL    HW138591   3.246   2.578   3.566  0.7453  0.3244  2.7838
 9044SOL    HW238592   3.366   2.523   3.505  1.1674 -0.7980  0.7697
 9045SOL     OW38593   2.343   1.009  16.502  0.2037  0.2048  0.1858
 9045SOL    HW138594   2.328   0.931  16.555 -1.0540  1.3937  1.5742
 9045SOL    HW238595   2.259   1.053  16.516 -0.8570 -1.2580 -1.4556
 9046SOL     OW38596   3.943   3.860  12.152  0.7347 -0.1756  0.3307
 9046SOL    HW138597   3.850   3.883  12.164  1.0344 -0.3660  2.9054
 9046SOL    HW238598   3.983   3.911  12.222 -0.9969  0.9548  0.4973
 9047SOL     OW38599   4.451   2.404   5.218 -0.1694  0.1418  0.2077
 9047SOL    HW138600   4.474   2.493   5.191  1.5351  0.2957  2.2253
 9047SOL    HW238601   4.357   2.413   5.234 -0.1424  0.9750 -0.1027
 9048SOL     OW38602   1.706   0.868   5.080 -0.3362  0.5944 -0.1104
 9048SOL    HW138603   1.761   0.849   5.156 -1.6772 -0.2027  0.6535
 9048SOL    HW238604   1.656   0.944   5.112  2.4367  2.2980  0.2454
 9049SOL     OW38605   0.820   3.677   1.335  0.0356  0.0096  0.0305
 9049SOL    HW138606   0.828   3.651   1.427  0.9548 -0.0563 -0.0737
 9049SOL    HW238607   0.881   3.749   1.325  0.4968 -0.5129 -0.8482
 9050SOL     OW38608   2.417   4.504   2.067  0.0279 -0.6545  0.0824
 9050SOL    HW138609   2.446   4.595   2.066 -1.1839 -0.2740  0.6274
 9050SOL    HW238610   2.480   4.469   2.130  2.0534  1.2590 -0.8429
 9051SOL     OW38611   1.698   1.160   2.290 -0.3386 -0.1448  0.2693
 9051SOL    HW138612   1.745   1.191   2.368  1.7572  0.7830 -1.3748
 9051SOL    HW238613   1.752   1.190   2.217  1.9859 -1.0532  1.6194
 9052SOL     OW38614   2.559   0.686  15.573 -0.2323 -0.2607 -0.5097
 9052SOL    HW138615   2.536   0.747  15.642 -0.3123  1.1341 -1.7787
 9052SOL    HW238616   2.553   0.599  15.613 -0.5067  1.2496  2.7507
 9053SOL     OW38617   0.127   2.569   5.238 -0.5693 -0.4349 -0.6401
 9053SOL    HW138618   0.052   2.518   5.268 -0.4005  0.3284  1.0957
 9053SOL    HW238619   0.200   2.510   5.256 -0.3334 -0.2585 -1.0208
 9054SOL     OW38620   4.415   2.924   4.845 -0.8653 -0.2607  0.2641
 9054SOL    HW138621   4.338   2.868   4.834 -0.1688 -1.0255 -0.7657
 9054SOL    HW238622   4.408   2.944   4.938 -0.0362  0.9019  0.0787
 9055SOL     OW38623   1.988   1.049  10.723  0.0374  0.1816 -0.2232
 9055SOL    HW138624   2.063   1.064  10.666  0.6482  0.6389  0.6846
 9055SOL    HW238625   2.022   1.031  10.811  1.8422  1.2490 -0.7066
 9056SOL     OW38626   0.347   0.043   8.612  0.0236 -0.2951  0.0848
 9056SOL    HW138627   0.368   0.010   8.525 -0.1328  0.5624 -0.2803
 9056SOL    HW238628   0.270   0.097   8.595 -0.3700 -1.2743 -1.2132
 9057SOL     OW38629   3.751   2.606   3.476  0.4114 -0.1527  0.3562
 9057SOL    HW138630   3.724   2.603   3.385 -1.4310 -0.0317  0.8942
 9057SOL    HW238631   3.698   2.675   3.517  0.6203 -0.3963  1.0407
 9058SOL     OW38632   3.111   1.030   8.580  0.3841 -0.3656  0.2676
 9058SOL    HW138633   3.174   0.984   8.636 -0.8595 -0.5607  1.5159
 9058SOL    HW238634   3.031   0.980   8.597 -0.3522  0.7203  0.0041
 9059SOL     OW38635   3.065   3.481   7.022 -0.5033  0.5344 -0.6073
 9059SOL    HW138636   3.095   3.390   7.026 -0.8532  0.4243 -0.4357
 9059SOL    HW238637   3.010   3.501   7.097  0.5098 -3.1774  1.1322
 9060SOL     OW38638   0.719   4.478  11.669  0.0573  0.3499 -0.5385
 9060SOL    HW138639   0.670   4.418  11.724  1.4539  0.3271  0.6998
 9060SOL    HW238640   0.779   4.421  11.622  1.7149  1.1959  0.5191
 9061SOL     OW38641   3.623   4.065   6.354  0.1952  0.2449 -0.2581
 9061SOL    HW138642   3.707   4.023   6.335 -0.7848 -0.6502 -2.5162
 9061SOL    HW238643   3.583   4.043   6.270  0.3422 -0.6852 -0.0843
 9062SOL     OW38644   3.095   2.940   4.567 -0.6333 -0.6170  0.0164
 9062SOL    HW138645   3.087   3.034   4.550  0.9344 -0.4518  0.1515
 9062SOL    HW238646   3.122   2.922   4.477 -2.9758  0.2377 -0.8628
 9063SOL     OW38647   2.199   4.220   8.514 -0.1086  0.7387 -0.2346
 9063SOL    HW138648   2.145   4.217   8.593 -0.8830  1.2781 -0.7496
 9063SOL    HW238649   2.219   4.313   8.509  1.3738  0.4508  0.1837
 9064SOL     OW38650   1.778   0.045  13.741 -0.4210  0.1149 -0.2037
 9064SOL    HW138651   1.768   0.134  13.774  2.8271  0.2551  0.4713
 9064SOL    HW238652   1.856   0.017  13.790  0.1319  1.1036 -0.5041
 9065SOL     OW38653   2.507   2.859   6.115 -0.7627 -0.4906  0.2454
 9065SOL    HW138654   2.495   2.874   6.021  1.3944 -2.3586 -0.3193
 9065SOL    HW238655   2.448   2.927   6.147  1.0906  1.1189  0.2091
 9066SOL     OW38656   1.578   3.325   9.966  0.6180  0.2413  0.0705
 9066SOL    HW138657   1.555   3.297  10.055 -0.5817 -0.7745 -0.5570
 9066SOL    HW238658   1.663   3.283   9.949  1.6047  2.1304  0.3551
 9067SOL     OW38659   3.595   3.615   6.132  0.0542  0.7985 -0.4986
 9067SOL    HW138660   3.681   3.574   6.145 -1.2881 -2.0657 -0.7128
 9067SOL    HW238661   3.543   3.580   6.204 -0.1602  1.2238 -0.4485
 9068SOL     OW38662   2.052   3.304  16.474  0.0752  0.0480 -0.2852
 9068SOL    HW138663   1.975   3.275  16.523  1.4890  1.7518  2.9000
 9068SOL    HW238664   2.039   3.252  16.394 -1.4216 -0.6949  0.4437
 9069SOL     OW38665   4.387   3.200   4.979  0.2634  0.3824  0.7645
 9069SOL    HW138666   4.417   3.159   5.060  1.6858  0.9537  0.5301
 9069SOL    HW238667   4.373   3.291   5.007 -1.6951 -0.0206  1.0950
 9070SOL     OW38668   3.780   4.436   1.236  0.2284 -0.1984  0.2582
 9070SOL    HW138669   3.817   4.397   1.315 -0.1854  3.3280  2.2160
 9070SOL    HW238670   3.689   4.405   1.237  0.8262 -1.9404  0.5018
 9071SOL     OW38671   2.926   0.900   0.172 -0.2762 -0.6466  0.3626
 9071SOL    HW138672   2.996   0.840   0.145  0.6598  1.3792 -1.7328
 9071SOL    HW238673   2.904   0.956   0.098  0.3138 -0.6866  0.1580
 9072SOL     OW38674   3.634   4.003  15.067 -0.0415 -0.0040  0.1431
 9072SOL    HW138675   3.718   4.027  15.104 -0.5081  0.8768  0.6396
 9072SOL    HW238676   3.648   4.013  14.972  0.5486  1.4674  0.3864
 9073SOL     OW38677   0.212   1.128  10.899 -0.4163  0.4641  0.3118
 9073SOL    HW138678   0.276   1.065  10.865 -0.7816 -0.4729  1.3791
 9073SOL    HW238679   0.187   1.168  10.816  1.8986  0.0348 -0.5927
 9074SOL     OW38680   1.012   4.195   8.693 -0.0913 -0.1492  0.4470
 9074SOL    HW138681   1.082   4.236   8.744  0.4897  0.6427 -0.9861
 9074SOL    HW238682   0.943   4.177   8.756  1.2236  0.4360  2.0579
 9075SOL     OW38683   2.406   1.464   8.889  1.1517 -0.1118  0.3201
 9075SOL    HW138684   2.497   1.492   8.891  0.4265  2.0538  2.1042
 9075SOL    HW238685   2.414   1.369   8.877 -2.0409 -0.5282  1.4686
 9076SOL     OW38686   3.595   0.477   5.085 -0.0239 -0.6370  0.8673
 9076SOL    HW138687   3.505   0.467   5.055  0.1059 -1.7760  0.8332
 9076SOL    HW238688   3.589   0.549   5.148  0.7399  0.0862  0.1161
 9077SOL     OW38689   0.591   4.003  11.919 -0.0645  0.2646 -0.0342
 9077SOL    HW138690   0.643   3.924  11.905 -0.4364 -0.0942  0.6295
 9077SOL    HW238691   0.583   4.006  12.014 -1.0470 -1.8031 -0.0541
 9078SOL     OW38692   1.581   2.386  10.876  0.2096 -0.1655  0.1577
 9078SOL    HW138693   1.519   2.415  10.810  1.4699 -2.4397 -2.0328
 9078SOL    HW238694   1.661   2.424  10.838  1.2294 -0.9322  1.5043
 9079SOL     OW38695   2.124   3.989   0.328  0.1369 -0.6193 -0.7470
 9079SOL    HW138696   2.091   3.953   0.246  1.5026  1.7182 -2.3299
 9079SOL    HW238697   2.210   3.947   0.332  0.4116  0.1047  1.0062
 9080SOL     OW38698   0.273   2.867  15.640  0.0561 -0.4684  0.1943
 9080SOL    HW138699   0.250   2.851  15.731  2.6461 -0.4360  0.8501
 9080SOL    HW238700   0.284   2.784  15.594 -1.4375 -0.6231  0.1047
 9081SOL     OW38701   0.987   0.632   5.040  0.3130 -0.2734  0.3444
 9081SOL    HW138702   1.079   0.660   5.036 -0.6786  2.7503 -1.6667
 9081SOL    HW238703   0.936   0.713   5.048  0.4023 -0.1286 -0.5002
 9082SOL     OW38704   3.740   4.053   9.528  0.2220 -0.7092  0.4660
 9082SOL    HW138705   3.833   4.037   9.544  1.0169  1.0913 -2.3368
 9082SOL    HW238706   3.699   3.973   9.495 -0.7248 -0.2576  0.5184
 9083SOL     OW38707   4.488   3.746   3.193 -0.1391  0.3914  0.1510
 9083SOL    HW138708   4.459   3.674   3.138 -0.1115 -0.2236  0.9398
 9083SOL    HW238709   4.468   3.824   3.141 -0.2906 -0.0017 -0.3833
 9084SOL     OW38710   2.625   0.630   0.529  0.0557 -0.5413 -0.4149
 9084SOL    HW138711   2.597   0.604   0.617 -2.2361 -0.6558 -1.1712
 9084SOL    HW238712   2.546   0.605   0.481 -0.0019 -3.4671  1.1881
 9085SOL     OW38713   4.025   2.390   7.849  0.0180 -0.1685 -0.6623
 9085SOL    HW138714   4.090   2.363   7.783  0.2829 -2.2561  0.4566
 9085SOL    HW238715   3.992   2.473   7.815  0.6072  0.3679  0.0679
 9086SOL     OW38716   3.711   4.233  13.028 -0.7602 -0.0318  0.0788
 9086SOL    HW138717   3.751   4.252  12.943 -1.1676  1.4196  0.2163
 9086SOL    HW238718   3.766   4.286  13.086  0.9070 -1.4685 -0.1889
 9087SOL     OW38719   0.675   3.881   0.074 -0.5245  0.3917  0.0401
 9087SOL    HW138720   0.631   3.959   0.110  0.3457  0.6330  0.5816
 9087SOL    HW238721   0.682   3.822   0.149 -2.1645 -1.5907 -1.3715
 9088SOL     OW38722   1.831   1.388   7.741 -0.3845 -0.4144  0.7303
 9088SOL    HW138723   1.911   1.336   7.747 -0.9807 -1.3804  0.3585
 9088SOL    HW238724   1.773   1.346   7.805 -0.8298  0.6109  0.9971
 9089SOL     OW38725   4.546   2.287  10.929 -0.2687  0.8596 -0.7740
 9089SOL    HW138726   4.454   2.305  10.950 -0.6007 -1.2039 -0.4621
 9089SOL    HW238727   4.581   2.368  10.965  1.5550 -1.5241  2.8246
 9090SOL     OW38728   2.453   4.136   8.480 -0.1065 -0.0464 -0.0593
 9090SOL    HW138729   2.426   4.050   8.447 -0.4827  0.3041 -0.6613
 9090SOL    HW238730   2.367   4.177   8.485  0.4443  1.0056  0.8021
 9091SOL     OW38731   4.331   1.722   9.044 -0.5649  0.2557 -0.0247
 9091SOL    HW138732   4.426   1.718   9.033 -0.3962 -2.4408  2.5348
 9091SOL    HW238733   4.324   1.716   9.139 -2.1637  0.4353 -0.1213
 9092SOL     OW38734   1.025   2.359   4.566 -0.1398  0.1945  0.3699
 9092SOL    HW138735   1.008   2.381   4.474  1.1907  1.3158  0.3839
 9092SOL    HW238736   1.093   2.296   4.541 -1.4722 -0.7176 -0.9395
 9093SOL     OW38737   4.398   2.807  16.612  0.3490  0.2662 -0.1762
 9093SOL    HW138738   4.428   2.892  16.644  2.5821 -0.5602 -0.0845
 9093SOL    HW238739   4.385   2.822  16.518 -0.8644  0.3684  0.0068
 9094SOL     OW38740   0.940   4.005  16.528 -0.9784  0.2024 -0.0127
 9094SOL    HW138741   0.865   3.949  16.512 -0.0144 -1.7718  2.3432
 9094SOL    HW238742   0.938   4.047  16.442 -0.8035  1.7367  0.7341
 9095SOL     OW38743   3.403   3.919   8.829 -0.1695 -0.1026  0.2359
 9095SOL    HW138744   3.486   3.901   8.873  0.4175  1.8704 -0.0734
 9095SOL    HW238745   3.350   3.888   8.903 -0.8262 -0.3926 -0.3564
 9096SOL     OW38746   0.866   2.597   6.117 -0.5299  0.4612  0.0138
 9096SOL    HW138747   0.919   2.640   6.050  0.4905  1.5872  1.5460
 9096SOL    HW238748   0.928   2.588   6.189  1.2756  0.9746 -1.4764
 9097SOL     OW38749   1.000   2.812   2.268 -0.4906 -0.3436  0.0785
 9097SOL    HW138750   0.930   2.858   2.220  0.3733 -1.8123 -2.5772
 9097SOL    HW238751   1.061   2.883   2.287 -0.5549 -0.5871  1.2292
 9098SOL     OW38752   3.245   1.621   4.470  0.0815 -0.0478  0.0589
 9098SOL    HW138753   3.223   1.699   4.521 -2.8540 -0.3931 -0.6841
 9098SOL    HW238754   3.234   1.643   4.378 -2.3221 -2.3777 -0.2251
 9099SOL     OW38755   4.197   1.812   2.380 -0.0791  0.2980 -0.3748
 9099SOL    HW138756   4.264   1.852   2.325  1.2236  0.0139  1.0275
 9099SOL    HW238757   4.140   1.764   2.320 -1.2295  0.1855  0.8171
 9100SOL     OW38758   3.159   0.829   1.545  0.0890  0.1176  0.0207
 9100SOL    HW138759   3.136   0.881   1.468 -0.1949 -0.8027 -0.5085
 9100SOL    HW238760   3.076   0.796   1.578 -0.9083  2.3752 -0.1934
 9101SOL     OW38761   0.501   4.512   4.764  0.8270 -0.2149 -0.5029
 9101SOL    HW138762   0.521   4.599   4.728 -0.3271 -0.6016 -2.1081
 9101SOL    HW238763   0.499   4.526   4.859  2.2198 -1.4824 -0.2913
 9102SOL     OW38764   0.305   2.779   5.891 -0.4333  0.0053 -0.1907
 9102SOL    HW138765   0.388   2.788   5.843 -0.8262  0.8074 -0.7135
 9102SOL    HW238766   0.326   2.692   5.925  0.5128  0.8181  1.3113
 9103SOL     OW38767   4.032   0.083   4.250 -0.0875  0.2754 -0.1666
 9103SOL    HW138768   4.000   0.099   4.339 -0.9330  0.7496 -0.5538
 9103SOL    HW238769   4.017   4.715   4.243  0.9939  0.1641 -0.8526
 9104SOL     OW38770   4.440   0.813  17.617  0.5728 -0.1537 -0.3138
 9104SOL    HW138771   4.480   0.841  17.699  0.4256 -0.6831 -0.0586
 9104SOL    HW238772   4.422   0.724  17.649 -1.4022  0.3610 -0.0114
 9105SOL     OW38773   2.170   3.521   2.480  0.3398  0.1915 -0.6121
 9105SOL    HW138774   2.235   3.590   2.468  0.7692  0.0122  0.7146
 9105SOL    HW238775   2.149   3.513   2.387 -2.1183 -2.2308  0.1423
 9106SOL     OW38776   2.120   1.428  14.682  0.0650  0.4157  0.2318
 9106SOL    HW138777   2.048   1.367  14.667  0.6821  0.2697 -2.0282
 9106SOL    HW238778   2.117   1.445  14.777 -1.8172 -1.8768  0.5656
 9107SOL     OW38779   1.028   0.100   3.270  0.3891  0.1489 -0.2738
 9107SOL    HW138780   0.992   0.187   3.251 -2.8933 -0.7413  1.7782
 9107SOL    HW238781   1.112   0.102   3.224  1.6172 -1.3361  1.9055
 9108SOL     OW38782   4.460   0.640   6.213 -0.0232 -0.3551  0.2788
 9108SOL    HW138783   4.555   0.641   6.202 -0.0678 -0.2733 -0.0861
 9108SOL    HW238784   4.438   0.655   6.121  1.4757 -2.6918 -0.4653
 9109SOL     OW38785   0.560   4.724  17.417 -0.8739  0.3069  0.3499
 9109SOL    HW138786   0.533   4.632  17.413 -2.3125  0.6371  2.5739
 9109SOL    HW238787   0.573   0.006  17.322  0.9695  2.4517  0.8050
 9110SOL     OW38788   4.076   1.058   6.961  0.4626  0.0138 -0.1650
 9110SOL    HW138789   4.121   0.983   6.921 -0.2069  1.1096 -2.9600
 9110SOL    HW238790   4.115   1.060   7.048 -0.6763 -0.7403  0.3609
 9111SOL     OW38791   4.293   3.814  11.154 -1.2528 -0.6566 -0.1984
 9111SOL    HW138792   4.288   3.892  11.208 -4.7882 -0.1976 -1.1680
 9111SOL    HW238793   4.248   3.751  11.211 -2.3253  1.5789  1.4288
 9112SOL     OW38794   2.948   3.188  16.892  0.0933 -0.4208  0.0916
 9112SOL    HW138795   2.935   3.276  16.927  0.6610  0.1154 -1.0319
 9112SOL    HW238796   2.862   3.147  16.905 -0.3028  0.7733  1.1676
 9113SOL     OW38797   2.521   3.886   9.623  0.4087 -0.3129  0.3171
 9113SOL    HW138798   2.545   3.870   9.532 -1.2310 -1.1414  0.0355
 9113SOL    HW238799   2.426   3.902   9.624  0.6093  0.9194 -0.4742
 9114SOL     OW38800   4.028   1.064  14.436  0.1789 -0.2062 -0.2056
 9114SOL    HW138801   4.111   1.066  14.484  0.4988  0.4961 -0.7797
 9114SOL    HW238802   4.070   1.077  14.350  2.4249  1.2329  1.1079
 9115SOL     OW38803   2.632   0.117   7.536  0.1548  0.0497  0.0902
 9115SOL    HW138804   2.550   0.164   7.524  0.3740  1.1029  2.7646
 9115SOL    HW238805   2.592   0.044   7.582  0.2067 -1.3516 -2.0855
 9116SOL     OW38806   2.366   1.316   7.911 -0.4813 -0.4290  0.6339
 9116SOL    HW138807   2.309   1.245   7.882  1.2950 -1.6446  0.0848
 9116SOL    HW238808   2.335   1.383   7.851  2.3616 -0.0580 -0.4138
 9117SOL     OW38809   4.538   3.072  12.436 -0.2509  0.1682 -0.0272
 9117SOL    HW138810   4.552   2.979  12.448 -2.3985  0.0599  1.6240
 9117SOL    HW238811   4.503   3.063  12.347  0.4026  0.7013 -0.3441
 9118SOL     OW38812   1.997   4.474   9.388 -0.6661 -0.0137  0.0376
 9118SOL    HW138813   2.088   4.447   9.401 -0.4110  0.7294 -0.1724
 9118SOL    HW238814   2.002   4.566   9.363 -2.0566 -0.5133 -1.9709
 9119SOL     OW38815   2.167   2.854  12.120  0.3066 -0.3193 -0.3779
 9119SOL    HW138816   2.122   2.915  12.178  0.9104  0.0114 -0.2546
 9119SOL    HW238817   2.243   2.824  12.171  0.3278 -0.2702 -0.3805
 9120SOL     OW38818   3.495   3.400   4.883  1.0501 -0.1593 -0.4588
 9120SOL    HW138819   3.479   3.311   4.913 -2.3177  1.0352  1.3224
 9120SOL    HW238820   3.580   3.387   4.841  0.4268 -0.7912 -1.5289
 9121SOL     OW38821   3.444   2.275  13.688  0.4596  0.2196  0.3348
 9121SOL    HW138822   3.425   2.288  13.595  1.2404  2.2903  0.4637
 9121SOL    HW238823   3.512   2.208  13.684  1.1079  0.9148 -0.5796
 9122SOL     OW38824   3.253   0.119  15.122 -0.0679 -0.4893 -0.2960
 9122SOL    HW138825   3.276   0.030  15.149  1.0601 -0.1458 -0.1127
 9122SOL    HW238826   3.172   0.127  15.171  0.0814  0.6405 -0.2215
 9123SOL     OW38827   1.590   4.311   3.215 -0.2966  0.6160 -0.3874
 9123SOL    HW138828   1.540   4.302   3.296  0.9621 -0.1577  0.3022
 9123SOL    HW238829   1.547   4.244   3.163  1.1747 -0.4298 -0.2435
 9124SOL     OW38830   0.752   0.076   6.059  0.1655 -0.0888  0.2327
 9124SOL    HW138831   0.708   0.041   5.982 -1.5999 -0.4099  1.3694
 9124SOL    HW238832   0.784   4.721   6.101 -2.9188 -0.8541  1.1382
 9125SOL     OW38833   2.639   1.193   6.915 -0.2195 -0.7267 -0.0099
 9125SOL    HW138834   2.680   1.198   6.829 -0.0467  0.6859  0.1639
 9125SOL    HW238835   2.553   1.228   6.893  1.2044  1.6487 -1.7089
 9126SOL     OW38836   2.983   2.483  11.586  0.0453 -0.2375  0.5335
 9126SOL    HW138837   2.889   2.501  11.580 -0.0523 -0.6939  0.7117
 9126SOL    HW238838   3.000   2.493  11.679 -0.6629 -0.5379  0.6955
 9127SOL     OW38839   3.692   2.923   6.551 -0.0734 -0.5398  0.5422
 9127SOL    HW138840   3.719   2.854   6.490  0.5922  0.9421 -0.8102
 9127SOL    HW238841   3.753   2.986   6.513 -0.1077 -0.8255  0.0094
 9128SOL     OW38842   2.623   0.174   5.370  0.7835  0.6409 -0.2073
 9128SOL    HW138843   2.585   0.158   5.284 -0.7323  1.9526  0.1991
 9128SOL    HW238844   2.711   0.142   5.350  0.9879 -0.0470  1.7088
 9129SOL     OW38845   1.858   1.892  13.260  0.0121  0.0717 -0.3861
 9129SOL    HW138846   1.875   1.798  13.259 -0.1810  0.0018  3.0687
 9129SOL    HW238847   1.882   1.914  13.350  0.1626 -0.3390 -0.3277
 9130SOL     OW38848   1.815   0.185   3.394  0.1140 -0.2684  0.5440
 9130SOL    HW138849   1.778   0.163   3.479 -0.3408  0.9766  0.6710
 9130SOL    HW238850   1.762   0.128   3.338 -0.6253 -0.1385  1.1061
 9131SOL     OW38851   1.952   0.201  12.005  0.4705 -0.4454 -0.3624
 9131SOL    HW138852   1.871   0.199  11.954 -0.6740 -1.9576  1.5103
 9131SOL    HW238853   2.016   0.178  11.938 -1.1115 -0.0975 -1.9819
 9132SOL     OW38854   0.408   3.684   8.967 -0.0489 -0.1338  0.1353
 9132SOL    HW138855   0.478   3.654   8.910  0.2691  1.1799 -0.1763
 9132SOL    HW238856   0.356   3.604   8.966 -0.8479  0.3721  0.3429
 9133SOL     OW38857   0.900   2.620   5.564 -0.0568  0.3969  0.0428
 9133SOL    HW138858   0.813   2.620   5.525  0.2935 -0.4271 -0.7502
 9133SOL    HW238859   0.915   2.714   5.566  0.0635  0.3771  0.0892
 9134SOL     OW38860   3.462   0.281  11.508  0.2014  0.2719 -0.3254
 9134SOL    HW138861   3.412   0.363  11.511  0.1869  0.2838 -1.0451
 9134SOL    HW238862   3.389   0.219  11.506  1.3995 -1.1743  0.5153
 9135SOL     OW38863   2.550   2.477   8.620  0.5907 -0.2655 -0.0974
 9135SOL    HW138864   2.596   2.553   8.654  0.2998  0.6518 -1.7367
 9135SOL    HW238865   2.466   2.482   8.666 -0.7489 -0.9268 -2.4334
 9136SOL     OW38866   2.937   2.210   2.587 -0.2821 -0.7285 -0.3352
 9136SOL    HW138867   3.002   2.246   2.648 -0.1118 -0.4771 -0.6706
 9136SOL    HW238868   2.856   2.224   2.635 -0.5896 -1.1976 -0.7204
 9137SOL     OW38869   2.718   3.916   6.354  0.2763 -0.0429 -0.5029
 9137SOL    HW138870   2.801   3.894   6.395  0.7335  0.5857 -1.1057
 9137SOL    HW238871   2.652   3.849   6.372  1.2488 -0.9249 -0.2265
 9138SOL     OW38872   0.857   4.237   7.720  0.2457  0.0967  0.0320
 9138SOL    HW138873   0.944   4.262   7.751 -0.3388  2.2430 -0.0305
 9138SOL    HW238874   0.845   4.315   7.666 -0.4639  0.8188  1.2371
 9139SOL     OW38875   1.058   2.385   5.499 -0.4154  0.2788 -0.2823
 9139SOL    HW138876   1.005   2.462   5.521 -2.0854 -1.9262  3.2901
 9139SOL    HW238877   1.142   2.429   5.511 -0.2527  0.3732 -1.7226
 9140SOL     OW38878   1.084   1.262   4.965 -0.3229  0.6893 -0.7555
 9140SOL    HW138879   1.143   1.313   5.020  1.7151 -0.1099 -2.2344
 9140SOL    HW238880   1.115   1.172   4.976 -1.1016  0.5063 -0.0820
 9141SOL     OW38881   3.662   2.810   3.614  0.0738 -0.5450 -0.9171
 9141SOL    HW138882   3.689   2.900   3.594 -2.6046  0.2400 -1.0124
 9141SOL    HW238883   3.567   2.814   3.626  0.3204 -0.0390  0.8703
 9142SOL     OW38884   4.611   0.781  14.315  0.6414  0.5230 -0.4806
 9142SOL    HW138885   4.585   0.764  14.406 -0.6310 -0.1354 -0.9664
 9142SOL    HW238886   4.641   0.692  14.295 -2.9744 -0.9273  0.5116
 9143SOL     OW38887   2.782   0.102   3.902  0.2516 -0.6461 -0.7318
 9143SOL    HW138888   2.865   0.144   3.924  0.9313 -0.9724 -2.6259
 9143SOL    HW238889   2.818   0.014   3.913  1.5498  0.6550  5.0115
 9144SOL     OW38890   3.575   3.953   5.026 -0.1538  0.2980  0.7272
 9144SOL    HW138891   3.609   3.937   4.938 -3.1708 -0.2050 -0.3459
 9144SOL    HW238892   3.660   3.958   5.070  1.3694  0.0073 -2.2195
 9145SOL     OW38893   4.113   4.559  12.877 -0.3844  0.1106  1.3312
 9145SOL    HW138894   4.199   4.586  12.909 -0.4319  2.0626 -0.2355
 9145SOL    HW238895   4.058   4.637  12.883  0.3027  0.8914 -2.3519
 9146SOL     OW38896   2.851   0.933   7.449 -0.0700 -0.0212 -0.2949
 9146SOL    HW138897   2.941   0.900   7.446 -0.1746 -0.3725  0.6643
 9146SOL    HW238898   2.834   0.935   7.355  3.4378  2.3797 -0.9160
 9147SOL     OW38899   4.299   0.729   6.640 -0.6178  0.3860  0.5600
 9147SOL    HW138900   4.251   0.650   6.614  0.5582  0.5871 -2.1642
 9147SOL    HW238901   4.324   0.765   6.555  4.3287 -0.1416  1.8127
 9148SOL     OW38902   3.945   0.276   5.683 -0.5555  0.0081 -0.0403
 9148SOL    HW138903   3.858   0.316   5.693 -1.3940 -1.9590  0.6030
 9148SOL    HW238904   3.935   0.253   5.591  0.2410 -1.1289  0.1619
 9149SOL     OW38905   2.010   4.355   7.293 -0.1543 -0.5733 -1.2858
 9149SOL    HW138906   2.050   4.269   7.281 -0.3623 -1.2116  2.6570
 9149SOL    HW238907   1.918   4.332   7.280 -1.1534  0.5363  3.8876
 9150SOL     OW38908   1.438   0.108   4.901  0.0964  0.5835 -0.3435
 9150SOL    HW138909   1.416   0.202   4.900 -1.5464  0.2488  2.4706
 9150SOL    HW238910   1.418   0.092   4.809  1.2286  0.0949 -0.5002
 9151SOL     OW38911   1.875   4.193   2.960  0.2723  0.2823  0.6538
 9151SOL    HW138912   1.890   4.282   2.927 -3.5206  1.2554  1.6022
 9151SOL    HW238913   1.930   4.140   2.902 -0.7869 -0.4763  0.3504
 9152SOL     OW38914   4.373   2.689   8.121  0.4774 -0.5799  0.6728
 9152SOL    HW138915   4.456   2.721   8.156 -0.3540  0.5772  1.6021
 9152SOL    HW238916   4.349   2.623   8.186 -1.2164  0.9115  1.5651
 9153SOL     OW38917   0.595   2.392   7.957 -0.1544  0.1466 -0.0849
 9153SOL    HW138918   0.563   2.381   7.868 -0.6054 -0.5350  0.1638
 9153SOL    HW238919   0.682   2.429   7.940  0.7953 -0.8657  2.5686
 9154SOL     OW38920   2.937   4.404   6.410  0.2906  0.1582 -0.2658
 9154SOL    HW138921   2.986   4.367   6.483  0.1732 -1.8835 -1.2067
 9154SOL    HW238922   2.869   4.339   6.393 -0.5016  1.0748 -0.6012
 9155SOL     OW38923   2.816   0.584  15.272 -0.2242 -0.7150 -0.4492
 9155SOL    HW138924   2.841   0.596  15.364 -2.4413 -1.2010  0.2100
 9155SOL    HW238925   2.792   0.673  15.248  2.4628  0.2994  0.6229
 9156SOL     OW38926   3.938   3.315   6.381  0.1823 -0.6931 -0.1620
 9156SOL    HW138927   3.919   3.366   6.302 -0.5199 -1.7580 -0.6801
 9156SOL    HW238928   3.872   3.346   6.443 -1.4785 -2.1505 -1.2046
 9157SOL     OW38929   0.068   2.080  11.618 -0.1548  0.0588 -0.2515
 9157SOL    HW138930   0.056   2.158  11.672 -3.4847 -1.6583  1.5082
 9157SOL    HW238931   4.704   2.051  11.601 -0.7714  2.1913 -0.7033
 9158SOL     OW38932   4.095   2.740   2.020  0.0856  0.9765  0.0714
 9158SOL    HW138933   4.079   2.645   2.015  2.2344  0.7921 -3.4831
 9158SOL    HW238934   4.046   2.773   1.944 -0.0507 -0.8358 -0.6368
 9159SOL     OW38935   1.732   4.470   2.692  0.0077 -0.9521  0.1525
 9159SOL    HW138936   1.640   4.490   2.710 -0.4571 -2.2346 -0.8304
 9159SOL    HW238937   1.774   4.518   2.764  0.2766  0.4269 -0.9167
 9160SOL     OW38938   3.427   3.850   4.544 -0.2108  0.4327 -0.6555
 9160SOL    HW138939   3.355   3.800   4.583 -1.2844  1.1123 -1.7572
 9160SOL    HW238940   3.485   3.782   4.509  0.5628  0.1247  1.2183
 9161SOL     OW38941   4.706   0.195   8.235  0.0772  0.0161 -0.6541
 9161SOL    HW138942   4.626   0.201   8.288 -0.0373 -3.8874 -0.3834
 9161SOL    HW238943   4.676   0.147   8.158 -2.2522  0.4519 -0.0183
 9162SOL     OW38944   3.770   0.556   7.661  0.1673  0.0779 -0.4127
 9162SOL    HW138945   3.796   0.645   7.687 -1.8341  1.1006 -1.9227
 9162SOL    HW238946   3.748   0.517   7.746 -2.1619  0.0479 -1.0179
 9163SOL     OW38947   2.126   3.021   8.748  0.1787  0.0337 -0.3044
 9163SOL    HW138948   2.177   3.055   8.821 -0.1883 -0.1216  0.0210
 9163SOL    HW238949   2.093   3.103   8.710 -0.9532 -1.0451 -1.6501
 9164SOL     OW38950   1.552   2.543  11.935  0.3324  0.1980  0.4830
 9164SOL    HW138951   1.648   2.536  11.932  0.3715  1.2043 -0.5389
 9164SOL    HW238952   1.526   2.608  11.870  0.3667 -0.3049 -0.0349
 9165SOL     OW38953   2.466   3.200   3.756  0.0620  0.5717 -0.2930
 9165SOL    HW138954   2.430   3.123   3.800 -0.2059  0.1394 -1.2867
 9165SOL    HW238955   2.386   3.244   3.727 -0.3496 -0.8134 -1.2044
 9166SOL     OW38956   0.799   1.486   3.379 -0.0839  0.0954 -0.0289
 9166SOL    HW138957   0.762   1.548   3.315  1.4320  0.5481 -0.4604
 9166SOL    HW238958   0.879   1.535   3.397 -0.6766  1.1290 -0.2236
 9167SOL     OW38959   2.953   3.650  11.005 -0.0854 -0.0994 -0.1062
 9167SOL    HW138960   2.904   3.638  11.087 -0.1752  1.5923  0.0863
 9167SOL    HW238961   2.923   3.572  10.957 -0.9753  0.1537  0.0273
 9168SOL     OW38962   0.684   0.445   3.118  0.0388  0.3704 -0.1907
 9168SOL    HW138963   0.737   0.443   3.039 -0.0109 -0.8080 -0.1889
 9168SOL    HW238964   0.602   0.406   3.088 -1.2555  3.6140 -0.8713
 9169SOL     OW38965   2.638   1.196   7.717  0.5136  0.0382  0.4578
 9169SOL    HW138966   2.569   1.137   7.688  0.3439  1.0748 -1.2822
 9169SOL    HW238967   2.612   1.275   7.669  0.2040 -0.5852 -0.3985
 9170SOL     OW38968   0.588   2.950   6.392 -0.4724  0.2874  0.3498
 9170SOL    HW138969   0.589   2.968   6.486 -1.4080 -0.9870  0.6130
 9170SOL    HW238970   0.677   2.929   6.363 -1.2013  0.2748 -1.8388
 9171SOL     OW38971   4.404   2.579   5.860  0.5871 -0.0208 -0.1409
 9171SOL    HW138972   4.405   2.660   5.912 -1.2464 -0.5894  0.7769
 9171SOL    HW238973   4.435   2.600   5.772  2.2206  1.0194  0.6611
 9172SOL     OW38974   0.780   3.857   2.643 -0.2228 -0.0420  0.0576
 9172SOL    HW138975   0.717   3.784   2.641  0.7955 -0.9857  2.6046
 9172SOL    HW238976   0.751   3.900   2.563  0.5961  1.7402  0.7322
 9173SOL     OW38977   3.799   1.990   5.505 -0.0680 -0.3747 -0.1388
 9173SOL    HW138978   3.735   2.046   5.550 -1.4201 -1.7088 -0.4203
 9173SOL    HW238979   3.779   1.907   5.548 -2.9163  1.4337  2.0275
 9174SOL     OW38980   1.698   0.143   2.747 -0.2153 -0.9612 -0.0168
 9174SOL    HW138981   1.729   0.185   2.827  1.0929  0.7254 -1.4334
 9174SOL    HW238982   1.651   0.071   2.789  0.5053 -0.7762  1.0826
 9175SOL     OW38983   3.063   1.430  12.688  0.4757 -0.2217  0.1427
 9175SOL    HW138984   2.982   1.413  12.736 -0.0338  2.7532  0.3295
 9175SOL    HW238985   3.115   1.416  12.767 -3.8168  2.4127  3.4540
 9176SOL     OW38986   2.463   2.328   9.005  0.2969  0.0583  0.0152
 9176SOL    HW138987   2.550   2.364   9.025 -0.3956  1.1876  0.9432
 9176SOL    HW238988   2.412   2.407   9.017  0.0750 -0.1782  0.6428
 9177SOL     OW38989   1.075   0.008   4.551  0.0534  0.0650 -0.2876
 9177SOL    HW138990   1.118   4.701   4.472 -1.1979  0.8277 -1.2746
 9177SOL    HW238991   0.990   4.690   4.556 -0.6110  1.3675 -0.1761
 9178SOL     OW38992   2.103   0.865   5.792 -0.5322  0.1150 -0.2090
 9178SOL    HW138993   2.109   0.873   5.697  0.1222  0.1516 -0.1644
 9178SOL    HW238994   2.188   0.823   5.803 -2.1420 -2.7743  1.2996
 9179SOL     OW38995   1.808   2.826   4.890  0.1990  0.2104  0.2093
 9179SOL    HW138996   1.762   2.756   4.844 -0.0672 -0.4566  1.4996
 9179SOL    HW238997   1.836   2.864   4.807 -0.5274  2.2115  0.8712
 9180SOL     OW38998   0.218   1.238   9.190 -0.1490 -0.5669 -0.2397
 9180SOL    HW138999   0.235   1.319   9.238  1.2813 -1.8729  1.4396
 9180SOL    HW239000   0.200   1.180   9.264 -1.6486  1.9258  1.3440
 9181SOL     OW39001   0.417   4.372  10.321 -1.0677  0.2249  0.3311
 9181SOL    HW139002   0.484   4.364  10.390  0.1260 -0.1251 -0.8735
 9181SOL    HW239003   0.409   4.467  10.328 -2.8660  0.0560  0.4857
 9182SOL     OW39004   4.331   0.745   1.103  0.3468  0.0307  0.0371
 9182SOL    HW139005   4.418   0.775   1.079  0.7268 -0.6318  0.5997
 9182SOL    HW239006   4.297   0.811   1.163 -2.5037 -0.8262 -0.6295
 9183SOL     OW39007   2.039   3.898   7.866  0.3571 -0.2572  0.2346
 9183SOL    HW139008   2.134   3.897   7.852  0.3369 -0.7032  0.1278
 9183SOL    HW239009   2.010   3.852   7.788  0.0317  0.2039  0.0834
 9184SOL     OW39010   1.949   1.240  14.687 -0.4015 -0.6431  0.0507
 9184SOL    HW139011   1.896   1.166  14.659 -1.9093  1.4444 -2.6461
 9184SOL    HW239012   1.874   1.282  14.730 -0.9510 -1.6710  0.0994
 9185SOL     OW39013   2.018   0.090   8.856 -0.3509  0.1818  0.2672
 9185SOL    HW139014   1.977   0.097   8.943 -2.3509 -0.6398 -0.6197
 9185SOL    HW239015   1.967   0.018   8.821 -2.4227  2.0999 -0.6517
 9186SOL     OW39016   1.476   0.118  14.854 -0.1317  0.0091  0.3935
 9186SOL    HW139017   1.441   0.044  14.902  0.3533 -1.6185 -1.7559
 9186SOL    HW239018   1.472   0.088  14.763 -0.2559 -0.6202  0.6117
 9187SOL     OW39019   3.485   2.991   4.501  0.1772 -0.3343 -0.2654
 9187SOL    HW139020   3.421   2.932   4.541 -0.5316 -1.0521 -2.4820
 9187SOL    HW239021   3.422   3.057   4.471 -0.0207 -0.3403  0.1336
 9188SOL     OW39022   3.809   1.824   8.139  0.3118  0.3681  0.4715
 9188SOL    HW139023   3.875   1.863   8.082  1.3080  1.7394  2.5597
 9188SOL    HW239024   3.765   1.904   8.169 -0.9970 -0.6647  1.2703
 9189SOL     OW39025   0.233   1.012   7.783  0.5894 -0.1846  0.2327
 9189SOL    HW139026   0.327   0.997   7.780  0.5567 -0.1435 -1.1989
 9189SOL    HW239027   0.212   1.036   7.873 -0.4235 -0.7126  0.1362
 9190SOL     OW39028   3.314   0.699  15.137  0.3237 -0.2494  0.1550
 9190SOL    HW139029   3.267   0.616  15.138  3.2097 -1.9250 -1.8949
 9190SOL    HW239030   3.389   0.679  15.080  1.0339 -0.4441  1.1591
 9191SOL     OW39031   1.241   2.879  14.959 -0.6426  0.0752  0.4825
 9191SOL    HW139032   1.251   2.802  14.902  0.7687  1.3797 -1.0172
 9191SOL    HW239033   1.274   2.839  15.040 -0.2876  0.9359  0.7629
 9192SOL     OW39034   0.161   0.854   5.636 -0.3508 -0.0461 -0.2561
 9192SOL    HW139035   0.227   0.913   5.599 -2.3414  1.3998 -1.5282
 9192SOL    HW239036   0.077   0.897   5.622  0.0033  1.0947  1.1751
 9193SOL     OW39037   2.716   3.280   3.861 -0.4474  0.8681 -0.5179
 9193SOL    HW139038   2.659   3.256   3.788 -0.4914 -0.6542  0.0240
 9193SOL    HW239039   2.802   3.268   3.820  0.4919  2.0748  1.1165
 9194SOL     OW39040   4.408   4.363  17.504  0.1615 -0.1944 -0.6546
 9194SOL    HW139041   4.316   4.347  17.528  0.8042 -0.9455  1.3301
 9194SOL    HW239042   4.449   4.345  17.589  0.5598 -0.3157 -0.8782
 9195SOL     OW39043   2.273   0.201   6.765  0.5095 -0.1515 -0.3071
 9195SOL    HW139044   2.254   0.110   6.788  0.4258 -0.3149 -0.9994
 9195SOL    HW239045   2.333   0.221   6.836 -0.9855 -1.1141  1.2182
 9196SOL     OW39046   1.049   4.054  17.102 -0.1924  0.5084 -0.5953
 9196SOL    HW139047   1.021   4.021  17.016  0.0047 -0.7671 -0.1724
 9196SOL    HW239048   1.124   3.997  17.121 -0.0898  0.6603 -0.5473
 9197SOL     OW39049   1.463   2.486   9.731 -0.5023 -0.2686  0.5346
 9197SOL    HW139050   1.534   2.422   9.735  0.7915  1.1689  0.4195
 9197SOL    HW239051   1.427   2.475   9.819 -0.1707 -2.5946  0.3715
 9198SOL     OW39052   2.810   2.122   4.929  0.0321  0.1320 -0.1305
 9198SOL    HW139053   2.770   2.110   4.844 -1.6419  2.5935  0.2982
 9198SOL    HW239054   2.838   2.214   4.926  0.3447  0.0639  0.5950
 9199SOL     OW39055   1.425   4.359   4.278  0.2226  0.6643  0.1734
 9199SOL    HW139056   1.385   4.377   4.363  1.1345  1.1004  0.5111
 9199SOL    HW239057   1.395   4.271   4.255 -1.1732  1.2992 -0.3835
 9200SOL     OW39058   4.674   0.656  13.167  0.1810  0.2454  0.4335
 9200SOL    HW139059   4.619   0.678  13.243  1.0151 -0.9316  1.3921
 9200SOL    HW239060   4.641   0.571  13.139 -0.4112  0.8246 -0.6157
 9201SOL     OW39061   0.122   1.076   8.995 -0.0939 -0.5265 -0.0175
 9201SOL    HW139062   0.140   1.137   9.066 -0.5054 -1.8785  1.2673
 9201SOL    HW239063   0.031   1.050   9.014 -0.2014  0.7144  1.1535
 9202SOL     OW39064   0.877   3.221   0.362 -0.9627  0.0525  0.8704
 9202SOL    HW139065   0.954   3.217   0.418 -0.0168 -0.6336 -0.4914
 9202SOL    HW239066   0.917   3.196   0.278 -0.7723  3.1027  0.0266
 9203SOL     OW39067   3.073   1.070  11.638 -0.1119  0.3640  0.1727
 9203SOL    HW139068   3.021   1.150  11.630 -0.9426 -0.2329 -0.3255
 9203SOL    HW239069   3.159   1.112  11.650  0.2190 -0.3246  0.1926
 9204SOL     OW39070   0.672   2.353   8.907 -0.1409  0.0037 -0.3540
 9204SOL    HW139071   0.734   2.281   8.893 -0.1720 -0.2423  0.8093
 9204SOL    HW239072   0.679   2.361   9.002 -2.0775 -0.4392 -0.1722
 9205SOL     OW39073   2.750   2.293  15.190 -0.3121  0.0720  0.1375
 9205SOL    HW139074   2.834   2.248  15.187 -0.0903  0.4252  1.2405
 9205SOL    HW239075   2.750   2.318  15.282 -2.1086  0.7997 -0.0455
 9206SOL     OW39076   3.025   0.085   3.174 -0.9281 -0.4380  0.8238
 9206SOL    HW139077   2.979   0.002   3.184 -0.3630 -0.8541 -0.0517
 9206SOL    HW239078   2.975   0.139   3.236 -0.9547  0.9953 -0.4572
 9207SOL     OW39079   1.414   1.494   3.584  0.2684 -0.4993  0.3543
 9207SOL    HW139080   1.383   1.554   3.516  1.0849 -0.1879  0.2485
 9207SOL    HW239081   1.431   1.563   3.648  1.9589 -2.0253  1.5458
 9208SOL     OW39082   3.994   2.759  14.902 -0.0639 -0.3257  1.2926
 9208SOL    HW139083   3.937   2.689  14.870  0.9037 -0.2796 -0.5742
 9208SOL    HW239084   3.940   2.787  14.976  2.6724  1.1848  2.7316
 9209SOL     OW39085   1.057   3.943   8.904  0.0639 -0.0404 -0.5450
 9209SOL    HW139086   1.003   3.980   8.973 -1.7485 -0.5573 -1.6696
 9209SOL    HW239087   0.991   3.942   8.834 -2.2950  1.1462  1.6872
 9210SOL     OW39088   1.933   1.271   8.801  0.5295  0.0526 -0.1588
 9210SOL    HW139089   1.964   1.248   8.713 -0.4252 -0.7277 -0.2855
 9210SOL    HW239090   1.946   1.366   8.798 -0.0840  0.1030 -1.3320
 9211SOL     OW39091   2.530   0.255   0.554  0.1471 -0.6580  0.2649
 9211SOL    HW139092   2.499   0.340   0.524 -0.6194 -1.0606 -0.0711
 9211SOL    HW239093   2.467   0.231   0.622 -0.8915 -0.9250 -0.7858
 9212SOL     OW39094   4.658   2.247   6.279 -0.4172  0.1780 -0.2265
 9212SOL    HW139095   4.563   2.256   6.287 -0.5003  1.7018 -2.9178
 9212SOL    HW239096   4.679   2.252   6.186 -2.1718  0.2608 -0.6205
 9213SOL     OW39097   0.315   1.371  14.827 -0.2328  0.2662  0.2384
 9213SOL    HW139098   0.329   1.281  14.796  1.7770  0.7268 -0.2200
 9213SOL    HW239099   0.292   1.359  14.919  0.5325 -1.1026  0.2583
 9214SOL     OW39100   2.528   0.768   1.677  0.0401  0.2039 -0.5224
 9214SOL    HW139101   2.592   0.745   1.610  0.4906 -1.4454  0.4648
 9214SOL    HW239102   2.570   0.752   1.762  0.5623  2.9717 -0.2854
 9215SOL     OW39103   3.882   4.313  11.498  0.1055 -0.3349 -0.0880
 9215SOL    HW139104   3.848   4.401  11.516 -0.7850 -0.2680 -2.1599
 9215SOL    HW239105   3.830   4.281  11.424 -1.0525 -0.0851  0.6071
 9216SOL     OW39106   2.206   3.917   7.207  0.0715  0.8468 -0.6721
 9216SOL    HW139107   2.207   3.845   7.270 -2.1077  0.8369 -0.6492
 9216SOL    HW239108   2.215   3.857   7.133  0.6129 -0.0071  0.0874
 9217SOL     OW39109   4.331   3.772   6.227  0.2025 -0.1227 -0.4470
 9217SOL    HW139110   4.318   3.682   6.196 -2.3574 -0.1687  0.7955
 9217SOL    HW239111   4.243   3.799   6.252 -0.7174 -0.2607 -3.4282
 9218SOL     OW39112   3.175   0.522  12.692  0.2343 -0.4136  0.0716
 9218SOL    HW139113   3.179   0.442  12.743 -3.5493 -1.1453 -0.7504
 9218SOL    HW239114   3.202   0.485  12.608 -0.7596  1.3339 -1.0123
 9219SOL     OW39115   4.601   0.472  17.056  0.2862  0.8933 -0.3364
 9219SOL    HW139116   4.667   0.541  17.054  0.8477  0.3183 -2.1095
 9219SOL    HW239117   4.564   0.484  16.969 -0.5976 -0.7547 -0.1838
 9220SOL     OW39118   3.267   1.236   7.286 -0.6608  0.2475 -0.1643
 9220SOL    HW139119   3.335   1.300   7.309  0.7465 -2.3167  2.7155
 9220SOL    HW239120   3.288   1.232   7.193  1.0959  2.4091  0.1356
 9221SOL     OW39121   0.257   1.031   7.501  0.0050  0.0932  0.1604
 9221SOL    HW139122   0.238   1.007   7.592 -0.3323  2.5328  0.7306
 9221SOL    HW239123   0.353   1.037   7.499  0.0071  0.1113  0.2996
 9222SOL     OW39124   3.203   4.092   5.266  0.3858  0.1476  0.1031
 9222SOL    HW139125   3.197   4.162   5.331 -1.0667  0.9932 -0.9560
 9222SOL    HW239126   3.117   4.050   5.262  1.5331 -2.2603  0.3908
 9223SOL     OW39127   4.221   3.654   1.011 -0.4647 -0.2689  0.7817
 9223SOL    HW139128   4.134   3.644   1.049 -1.2124 -3.9167 -1.8681
 9223SOL    HW239129   4.214   3.581   0.950 -1.7364 -0.4634  1.1693
 9224SOL     OW39130   0.164   1.743   6.580  0.1591  0.2788  0.1479
 9224SOL    HW139131   0.150   1.748   6.486 -0.7832 -1.5347  0.1935
 9224SOL    HW239132   0.260   1.749   6.583  0.1579  0.2999  0.1363
 9225SOL     OW39133   2.527   0.909   8.680  0.1393 -0.4110 -0.3049
 9225SOL    HW139134   2.534   0.969   8.755 -1.0656  1.1791 -1.4549
 9225SOL    HW239135   2.615   0.873   8.680  1.2990  2.4525  0.0514
 9226SOL     OW39136   2.093   2.205   6.635  0.4374  0.2236 -0.0067
 9226SOL    HW139137   2.031   2.277   6.643  1.4288  1.0330  0.3962
 9226SOL    HW239138   2.169   2.263   6.632  0.4498  0.2817  1.4425
 9227SOL     OW39139   2.064   1.275   7.790  0.0760 -0.4776  0.0411
 9227SOL    HW139140   2.073   1.277   7.885 -1.2249 -0.5242  0.1697
 9227SOL    HW239141   2.110   1.351   7.756  0.3940 -1.3070 -1.3703
 9228SOL     OW39142   2.189   4.584  15.269  0.1703  0.7212  1.0222
 9228SOL    HW139143   2.121   4.579  15.336  0.4967  1.8381  1.4322
 9228SOL    HW239144   2.151   4.595  15.182  3.2717  1.1736 -0.2728
 9229SOL     OW39145   2.419   2.548   5.249 -0.1586  0.2147  0.0679
 9229SOL    HW139146   2.330   2.577   5.268 -0.4174  0.0760 -0.9235
 9229SOL    HW239147   2.399   2.458   5.224 -1.3962  0.5639 -0.2192
 9230SOL     OW39148   3.339   0.282  12.623  0.0955 -0.1863 -0.2293
 9230SOL    HW139149   3.264   0.234  12.587 -0.0813  1.0718 -1.5694
 9230SOL    HW239150   3.366   0.315  12.537 -0.0183  0.3460 -0.0600
 9231SOL     OW39151   2.849   0.041   5.290  0.1920  0.4814 -0.0397
 9231SOL    HW139152   2.884   0.007   5.207 -1.7849  1.5648 -1.3358
 9231SOL    HW239153   2.850   4.683   5.335 -1.1083  0.3711 -0.1967
 9232SOL     OW39154   2.278   0.781  16.652  0.2526 -0.0754  1.0355
 9232SOL    HW139155   2.237   0.696  16.635  1.5775 -0.8491  1.6975
 9232SOL    HW239156   2.196   0.819  16.684 -0.1993  1.0050 -1.4039
 9233SOL     OW39157   4.083   3.269   9.093 -0.3680 -0.1651 -0.8175
 9233SOL    HW139158   4.007   3.218   9.065 -2.0374  1.6405  0.4685
 9233SOL    HW239159   4.145   3.205   9.129  0.6312  0.1472 -1.9846
 9234SOL     OW39160   0.463   3.025   7.704  0.2146 -0.5047 -0.2543
 9234SOL    HW139161   0.397   3.068   7.759  1.4990 -0.6182  1.3546
 9234SOL    HW239162   0.405   2.967   7.655 -0.9999 -0.9866  1.7620
 9235SOL     OW39163   1.120   3.355   5.441 -0.1505 -0.5221  0.4427
 9235SOL    HW139164   1.072   3.365   5.359  0.2827  0.1052  0.2645
 9235SOL    HW239165   1.161   3.271   5.424  1.6180  0.4816 -0.2775
 9236SOL     OW39166   1.823   1.178   1.112  0.3445 -0.2632  0.2480
 9236SOL    HW139167   1.814   1.265   1.150  2.0200 -0.2026  0.4926
 9236SOL    HW239168   1.910   1.174   1.073  0.8494  0.7334  1.2896
 9237SOL     OW39169   1.923   4.210   3.863 -0.0807 -0.1135  0.1973
 9237SOL    HW139170   1.949   4.176   3.948  1.0719 -0.2525 -0.2083
 9237SOL    HW239171   2.003   4.192   3.815  0.3149 -1.1107  1.2390
 9238SOL     OW39172   2.969   0.524   0.753  0.4152 -0.7517  0.4091
 9238SOL    HW139173   2.928   0.493   0.673 -0.2703 -1.1159  0.8957
 9238SOL    HW239174   2.927   0.464   0.815  1.3573 -1.1919  0.6211
 9239SOL     OW39175   4.542   3.832   4.663  0.6478 -0.6068 -0.2380
 9239SOL    HW139176   4.549   3.912   4.716 -0.6096  0.1493 -1.1875
 9239SOL    HW239177   4.599   3.775   4.715  0.4384  0.7028  1.4561
 9240SOL     OW39178   2.368   3.143   1.577  0.2320  0.7368 -0.1527
 9240SOL    HW139179   2.379   3.169   1.486 -0.5758 -0.8768 -0.7175
 9240SOL    HW239180   2.460   3.152   1.601  0.4432 -0.0907 -0.6453
 9241SOL     OW39181   0.765   1.139  11.627  0.7827 -0.7210  0.0432
 9241SOL    HW139182   0.840   1.096  11.586  0.9923 -2.1811  1.9384
 9241SOL    HW239183   0.777   1.090  11.709  0.5679 -1.0960 -0.1481
 9242SOL     OW39184   0.169   3.574  12.665 -0.8937 -0.1333  0.3577
 9242SOL    HW139185   0.129   3.516  12.730 -0.8346  1.8677  2.2062
 9242SOL    HW239186   0.121   3.552  12.585 -0.5660  2.8822 -0.6595
 9243SOL     OW39187   2.210   3.160   4.073 -0.4688 -0.4961 -0.2034
 9243SOL    HW139188   2.269   3.184   4.001  0.4869  1.4776  1.2367
 9243SOL    HW239189   2.237   3.226   4.137 -0.5850 -1.7275  1.1173
 9244SOL     OW39190   1.998   0.009   1.634 -0.4841 -0.1918 -0.1293
 9244SOL    HW139191   2.015   0.052   1.550  1.4755 -0.7892 -0.0353
 9244SOL    HW239192   2.015   4.643   1.610  1.2666  0.9569 -3.3100
 9245SOL     OW39193   2.193   3.419   8.943 -0.0227 -0.1683 -0.9882
 9245SOL    HW139194   2.228   3.399   9.030 -0.1685 -0.0410 -0.8998
 9245SOL    HW239195   2.235   3.345   8.901  3.0657  1.8234 -1.4354
 9246SOL     OW39196   4.500   3.098   6.070  0.1575 -0.0576  0.0788
 9246SOL    HW139197   4.502   3.177   6.016  1.1563  0.0377  0.2632
 9246SOL    HW239198   4.589   3.068   6.089  1.2999  2.9067 -0.5614
 9247SOL     OW39199   0.715   0.522   8.887  0.1538 -0.4116  0.2767
 9247SOL    HW139200   0.659   0.588   8.927 -1.5600 -1.1862 -0.8507
 9247SOL    HW239201   0.800   0.566   8.896  0.6316 -1.4724  0.8916
 9248SOL     OW39202   0.949   1.307  14.054  0.0845  0.6295 -0.1478
 9248SOL    HW139203   0.965   1.386  14.003 -2.6254  0.5899 -1.0545
 9248SOL    HW239204   0.861   1.327  14.088 -1.2941 -1.3782 -2.5451
 9249SOL     OW39205   0.751   0.583  13.258  0.3715 -0.3552  0.4054
 9249SOL    HW139206   0.701   0.527  13.317 -0.5744  0.0150 -0.0404
 9249SOL    HW239207   0.680   0.624  13.208  0.4314  0.3859  0.9228
 9250SOL     OW39208   2.736   2.782   9.089  0.4463  0.8864  0.4766
 9250SOL    HW139209   2.664   2.735   9.131 -1.6006  3.3485 -0.3245
 9250SOL    HW239210   2.680   2.847   9.046  0.8267  0.3415 -0.8413
 9251SOL     OW39211   4.330   2.330   8.616 -0.6455 -0.0967 -0.0975
 9251SOL    HW139212   4.260   2.368   8.669 -1.4174 -0.7648 -0.6398
 9251SOL    HW239213   4.322   2.236   8.630 -1.0742 -0.2868 -1.6520
 9252SOL     OW39214   4.321   1.703   8.340  0.0020  0.3177 -0.0757
 9252SOL    HW139215   4.268   1.756   8.281  0.7710  0.0050 -1.0472
 9252SOL    HW239216   4.314   1.616   8.302 -0.4542  1.1264 -1.8249
 9253SOL     OW39217   2.968   0.753  12.357  0.0770  0.5965  0.5630
 9253SOL    HW139218   2.945   0.729  12.268 -0.6879  1.4351  0.5394
 9253SOL    HW239219   3.063   0.762  12.358  0.0821  0.3967  2.1074
 9254SOL     OW39220   4.383   2.953   6.562  0.3813 -0.6416 -0.1182
 9254SOL    HW139221   4.412   2.905   6.485  1.2984  0.7800 -0.6502
 9254SOL    HW239222   4.458   2.928   6.618  1.0593 -2.2735 -1.7505
 9255SOL     OW39223   4.456   0.840   4.458 -0.2883 -0.1398  0.2458
 9255SOL    HW139224   4.474   0.767   4.399 -1.2545 -0.8784  0.8749
 9255SOL    HW239225   4.375   0.872   4.419 -0.5814  1.4914  2.1634
 9256SOL     OW39226   4.225   0.821  11.093  0.0191 -0.0758  0.0635
 9256SOL    HW139227   4.151   0.847  11.038 -0.0560 -1.6484 -0.5883
 9256SOL    HW239228   4.291   0.878  11.054 -1.0948  0.7830 -0.5761
 9257SOL     OW39229   4.195   4.262   7.227  0.0512  0.2633  0.3168
 9257SOL    HW139230   4.208   4.319   7.151  1.0278  0.2711  0.4850
 9257SOL    HW239231   4.109   4.285   7.261 -0.3662 -0.7811 -0.0312
 9258SOL     OW39232   4.256   3.130   7.767  0.1479  0.0933 -0.2310
 9258SOL    HW139233   4.301   3.080   7.836 -0.5981 -1.7898 -1.0979
 9258SOL    HW239234   4.293   3.092   7.687 -0.0965 -0.4696 -0.0724
 9259SOL     OW39235   3.977   4.040  11.396 -0.4173 -0.4172 -0.0179
 9259SOL    HW139236   3.886   4.054  11.420 -0.8673 -1.9753 -0.8470
 9259SOL    HW239237   3.999   4.115  11.340 -1.8841 -1.3006 -1.7513
 9260SOL     OW39238   0.408   2.177   3.574  0.1852  0.5580 -0.1698
 9260SOL    HW139239   0.408   2.266   3.609 -0.2739 -0.8894  3.5076
 9260SOL    HW239240   0.474   2.182   3.504  0.3249 -1.3098 -0.1596
 9261SOL     OW39241   1.595   2.919   8.253 -0.5669 -0.3920 -0.0761
 9261SOL    HW139242   1.619   2.843   8.307 -1.8042 -0.4745  0.3475
 9261SOL    HW239243   1.579   2.991   8.313  0.0695  0.3717 -0.8094
 9262SOL     OW39244   4.620   1.800   0.757 -0.1963 -0.3302 -0.4855
 9262SOL    HW139245   4.618   1.855   0.679 -1.1799 -0.5965 -0.6577
 9262SOL    HW239246   4.531   1.811   0.790  0.4186 -3.5644  2.2872
 9263SOL     OW39247   3.061   2.220   1.383  0.0592  0.7376  0.1624
 9263SOL    HW139248   3.140   2.167   1.390 -1.3491 -1.2006  1.5453
 9263SOL    HW239249   3.092   2.301   1.422 -0.8207  1.6867 -1.1052
 9264SOL     OW39250   1.950   2.342   6.340  0.5416 -0.7625 -0.4756
 9264SOL    HW139251   2.023   2.281   6.329  2.1668  0.6092  2.6587
 9264SOL    HW239252   1.918   2.328   6.429 -1.1683 -0.4159 -1.0295
 9265SOL     OW39253   3.139   0.311   4.599 -0.0933  0.1527 -0.5110
 9265SOL    HW139254   3.148   0.220   4.573  0.4026 -0.4607  1.7734
 9265SOL    HW239255   3.118   0.342   4.511 -0.1501  2.9278  0.4610
 9266SOL     OW39256   2.705   0.055   3.155  0.3399 -0.0147 -0.8279
 9266SOL    HW139257   2.693   0.148   3.169 -0.5357 -0.1647 -0.5615
 9266SOL    HW239258   2.771   0.056   3.085  0.5006  0.2145 -0.6709
 9267SOL     OW39259   0.264   1.562   2.029  0.0052 -0.0095 -0.0817
 9267SOL    HW139260   0.226   1.530   1.947  1.2575 -2.1710  0.1817
 9267SOL    HW239261   0.338   1.611   1.994 -0.5138  0.2769 -0.7690
 9268SOL     OW39262   1.429   4.577  12.518 -0.4805 -0.3897 -0.3143
 9268SOL    HW139263   1.453   4.613  12.433 -2.2828 -0.7256 -0.9564
 9268SOL    HW239264   1.444   4.658  12.566  2.3449 -0.2114 -1.5124
 9269SOL     OW39265   0.354   2.539   3.091  0.2127 -0.4079  0.2636
 9269SOL    HW139266   0.376   2.509   3.003  1.3074  0.0780  0.3728
 9269SOL    HW239267   0.303   2.618   3.075  3.2135  0.8499 -2.8939
 9270SOL     OW39268   4.047   0.364   0.727 -0.3236  0.1039  0.0377
 9270SOL    HW139269   4.061   0.424   0.655 -0.2492  0.6760  0.5306
 9270SOL    HW239270   4.055   0.422   0.803 -1.5087  0.4376 -0.0996
 9271SOL     OW39271   1.086   4.154  10.099 -0.7717 -0.9409  0.2714
 9271SOL    HW139272   1.049   4.160  10.187  0.1865  2.1861  0.4657
 9271SOL    HW239273   1.021   4.195  10.043 -1.7655 -1.4356  1.0760
 9272SOL     OW39274   3.640   1.194   4.934 -0.4476 -0.0824  0.2533
 9272SOL    HW139275   3.638   1.160   5.023 -1.7533  0.2148  0.3501
 9272SOL    HW239276   3.680   1.129   4.877 -1.0079 -1.0569  0.9874
 9273SOL     OW39277   0.873   1.925   0.285 -0.1037 -0.0489  0.4885
 9273SOL    HW139278   0.784   1.920   0.319 -0.2697  2.9657  0.4841
 9273SOL    HW239279   0.897   2.013   0.313 -1.0152  0.2285  0.3895
 9274SOL     OW39280   1.160   2.104   0.239  0.4770 -0.6606 -0.0944
 9274SOL    HW139281   1.146   2.084   0.331  0.9239  0.9214  0.3160
 9274SOL    HW239282   1.100   2.036   0.208 -0.1451 -1.1458  2.2011
 9275SOL     OW39283   0.760   1.809  16.538 -0.3928 -0.3418  0.5674
 9275SOL    HW139284   0.737   1.901  16.552 -0.9871 -0.3696 -0.2342
 9275SOL    HW239285   0.854   1.824  16.552 -0.4375  1.4174 -1.0621
 9276SOL     OW39286   3.752   4.645   6.470  0.2942  0.1900  0.6953
 9276SOL    HW139287   3.722   4.707   6.537 -1.9800  0.4179 -0.5440
 9276SOL    HW239288   3.674   4.648   6.415  0.9583  1.5021 -0.1753
 9277SOL     OW39289   1.935   3.231   3.038  0.2741  0.2921  0.1988
 9277SOL    HW139290   1.843   3.228   3.010  0.8610  1.5539 -1.8761
 9277SOL    HW239291   1.969   3.141   3.034 -0.6785 -0.1406  2.0759
 9278SOL     OW39292   1.220   3.011   3.675 -0.3259  0.1009 -0.0324
 9278SOL    HW139293   1.165   3.087   3.692 -0.0079 -0.2943  2.8886
 9278SOL    HW239294   1.197   2.984   3.587 -1.7835  2.0914 -0.2384
 9279SOL     OW39295   1.052   3.282   8.795  0.0330 -0.5864 -0.1956
 9279SOL    HW139296   1.066   3.188   8.781  1.0608 -0.2891 -1.1840
 9279SOL    HW239297   1.071   3.320   8.710 -1.7121 -1.5392 -1.0302
 9280SOL     OW39298   2.804   0.149   9.409 -0.2721 -0.1935  0.5548
 9280SOL    HW139299   2.798   0.234   9.453 -3.4443 -1.3787  2.4192
 9280SOL    HW239300   2.885   0.158   9.358 -0.1021 -0.3493  0.8015
 9281SOL     OW39301   3.802   2.031   4.742 -0.4146  0.6099  0.0902
 9281SOL    HW139302   3.757   2.112   4.718  1.4882  1.7225  0.3076
 9281SOL    HW239303   3.821   1.992   4.657  0.4341  1.2411 -0.0071
 9282SOL     OW39304   2.417   2.237   5.946  0.2868  0.2957  0.4314
 9282SOL    HW139305   2.437   2.327   5.919  1.0506 -0.6049 -2.0196
 9282SOL    HW239306   2.327   2.249   5.974 -0.1132  0.4985 -0.9595
 9283SOL     OW39307   0.266   0.150   0.775  0.3066 -0.1246 -0.4020
 9283SOL    HW139308   0.342   0.094   0.787  0.7864  0.7759  0.7503
 9283SOL    HW239309   0.286   0.174   0.684 -1.0313  1.1186 -0.3704
 9284SOL     OW39310   4.295   2.424   8.919  0.0597  0.5024  0.1093
 9284SOL    HW139311   4.255   2.472   8.992 -1.1253 -0.2739 -0.0373
 9284SOL    HW239312   4.229   2.439   8.851  0.4649 -1.4050 -0.7104
 9285SOL     OW39313   0.639   3.391  10.498 -0.4163  0.1665  0.2442
 9285SOL    HW139314   0.670   3.307  10.463 -1.0170  0.1506 -0.2450
 9285SOL    HW239315   0.713   3.418  10.553 -0.7026 -2.5421  1.9588
 9286SOL     OW39316   1.516   3.966   4.422  0.3733  0.5783  0.0440
 9286SOL    HW139317   1.597   3.977   4.370  1.4395  0.9824  1.7886
 9286SOL    HW239318   1.520   4.033   4.490  0.1915  1.6473 -0.9765
 9287SOL     OW39319   4.558   1.857   9.968  0.0245  0.1628  0.6974
 9287SOL    HW139320   4.560   1.808  10.051 -2.2857 -1.5485 -0.2320
 9287SOL    HW239321   4.651   1.859   9.947 -0.0777 -0.6534  0.1594
 9288SOL     OW39322   1.306   4.449   4.504 -0.7346 -0.1125  0.5769
 9288SOL    HW139323   1.301   4.437   4.599 -0.2008  0.6355  0.6968
 9288SOL    HW239324   1.218   4.478   4.482 -0.6515  0.3365  0.8406
 9289SOL     OW39325   2.683   1.222   2.460 -0.6586 -0.1627  0.2726
 9289SOL    HW139326   2.666   1.150   2.400 -0.5974 -1.8917  2.3098
 9289SOL    HW239327   2.654   1.177   2.540  0.7907 -3.6305 -1.1570
 9290SOL     OW39328   2.876   3.403   5.467  0.6604 -0.3205 -0.5179
 9290SOL    HW139329   2.950   3.343   5.478  0.2738 -0.6866  0.1027
 9290SOL    HW239330   2.911   3.445   5.389 -0.9145  0.7527 -0.6345
 9291SOL     OW39331   3.797   1.872   7.609 -0.1500 -0.1017 -0.0539
 9291SOL    HW139332   3.882   1.839   7.638 -0.6331 -0.6874  0.6962
 9291SOL    HW239333   3.806   1.864   7.514 -0.0812  1.6013 -0.2013
 9292SOL     OW39334   0.191   3.219   4.932 -0.1758  0.3440  0.0974
 9292SOL    HW139335   0.097   3.226   4.912 -0.1080  1.4751  0.1616
 9292SOL    HW239336   0.183   3.186   5.021 -0.9970 -3.2472 -1.3271
 9293SOL     OW39337   1.925   3.935  13.249 -0.2757  0.3586 -0.0199
 9293SOL    HW139338   1.991   3.969  13.309  1.5716 -2.1804 -0.5825
 9293SOL    HW239339   1.934   4.008  13.188  1.5574  1.4178  1.5270
 9294SOL     OW39340   3.684   0.305  11.662  0.5188  0.0408 -0.0943
 9294SOL    HW139341   3.691   0.396  11.689 -2.7812  0.0984  0.5858
 9294SOL    HW239342   3.627   0.320  11.586  0.6818  1.6876  0.1101
 9295SOL     OW39343   4.421   4.003   3.045  0.7652  0.0037  0.2574
 9295SOL    HW139344   4.381   3.956   2.972 -0.9492  1.3845  0.3083
 9295SOL    HW239345   4.465   4.067   2.990 -2.7685  0.6142 -1.8460
 9296SOL     OW39346   2.145   2.199   4.327 -0.0121  0.3147 -0.1324
 9296SOL    HW139347   2.170   2.255   4.401  0.4916  0.0085 -0.0718
 9296SOL    HW239348   2.115   2.120   4.373 -1.7580  0.0561 -1.7573
 9297SOL     OW39349   4.707   1.521   1.061  0.0822 -0.7868  0.0633
 9297SOL    HW139350   4.715   1.460   1.134 -0.7705 -0.5136  0.3932
 9297SOL    HW239351   0.057   1.576   1.081 -0.6363  0.9882 -2.1050
 9298SOL     OW39352   2.921   4.593   3.054  0.2475 -0.4722 -0.0452
 9298SOL    HW139353   2.854   4.631   2.997  0.2651 -2.4043 -1.3909
 9298SOL    HW239354   3.001   4.620   3.008  0.5075  2.8569  2.4050
 9299SOL     OW39355   4.587   2.954   3.028  0.8960  0.6963 -0.1903
 9299SOL    HW139356   4.646   2.986   3.096  3.3993 -0.3158 -1.8548
 9299SOL    HW239357   4.630   2.977   2.945 -2.9184 -2.1073 -2.9508
 9300SOL     OW39358   4.614   2.173  16.803 -0.1721 -0.3065 -0.2959
 9300SOL    HW139359   4.623   2.089  16.848 -0.3773 -0.0168  0.2855
 9300SOL    HW239360   4.521   2.168  16.779 -0.2629  0.6380 -0.1426
 9301SOL     OW39361   4.451   0.443   0.697  0.0517 -0.8560  0.4708
 9301SOL    HW139362   4.482   0.370   0.751  0.2676 -0.9863  0.1716
 9301SOL    HW239363   4.392   0.394   0.641  0.2741  2.2192 -2.4165
 9302SOL     OW39364   3.022   2.425   9.152  0.4591 -0.2578  0.1962
 9302SOL    HW139365   3.084   2.444   9.223 -0.3828 -1.7598  1.3319
 9302SOL    HW239366   3.069   2.364   9.095 -1.2015 -0.9940 -0.3640
 9303SOL     OW39367   3.138   4.392   5.876 -0.4812  0.7558  0.3296
 9303SOL    HW139368   3.162   4.329   5.944  0.3828  0.0766 -0.5960
 9303SOL    HW239369   3.221   4.406   5.831 -0.6988 -0.6299 -0.5232
 9304SOL     OW39370   1.888   0.931   6.253 -0.0605  0.0306  0.1630
 9304SOL    HW139371   1.963   0.871   6.254 -0.3026 -0.2667  1.0508
 9304SOL    HW239372   1.879   0.937   6.348 -1.3620  0.8946 -0.0314
 9305SOL     OW39373   4.675   3.349  15.448 -0.3651 -0.2275 -0.2478
 9305SOL    HW139374   0.019   3.292  15.417 -1.7910 -1.4286 -1.2459
 9305SOL    HW239375   4.653   3.318  15.536  0.2017  1.4693  0.4987
 9306SOL     OW39376   0.698   1.015   6.942 -0.6932 -0.2733  0.3500
 9306SOL    HW139377   0.655   1.012   7.027 -0.8418  1.1761  0.3332
 9306SOL    HW239378   0.635   1.054   6.881 -1.1524  1.1438  1.7260
 9307SOL     OW39379   1.144   4.609   3.980 -0.1880  0.1713  0.0265
 9307SOL    HW139380   1.217   4.576   3.928 -0.9950 -2.1084  0.3138
 9307SOL    HW239381   1.129   4.527   4.027  0.2905 -0.0779 -0.2600
 9308SOL     OW39382   0.673   0.792   0.877 -0.1567 -0.0870  0.4257
 9308SOL    HW139383   0.675   0.797   0.973  0.9797  0.8940  0.3556
 9308SOL    HW239384   0.581   0.785   0.853  0.6288  1.3320 -2.9624
 9309SOL     OW39385   1.180   1.953   1.139 -0.2509  0.4084  0.3055
 9309SOL    HW139386   1.224   1.870   1.121 -1.4144 -0.6933  2.5155
 9309SOL    HW239387   1.176   1.947   1.234  0.0385  0.9962  0.3554
 9310SOL     OW39388   2.280   4.534   9.466  0.2857 -0.2335  0.4853
 9310SOL    HW139389   2.326   4.617   9.457  0.6944 -0.5057  0.0731
 9310SOL    HW239390   2.255   4.532   9.559 -1.0385  0.4358  0.1510
 9311SOL     OW39391   2.804   3.060   5.433 -0.3598  0.1819 -0.2044
 9311SOL    HW139392   2.884   3.087   5.388 -2.1399 -0.9516 -4.0201
 9311SOL    HW239393   2.830   2.970   5.451  1.1010  0.8405  0.9139
 9312SOL     OW39394   1.991   1.537  13.782  0.1255 -0.1285  0.4885
 9312SOL    HW139395   1.922   1.484  13.743  0.4984 -1.6734  1.9549
 9312SOL    HW239396   2.042   1.558  13.704  0.2558 -1.5016  0.2120
 9313SOL     OW39397   2.890   2.876   2.152  0.7044  0.1997  0.4232
 9313SOL    HW139398   2.898   2.871   2.056 -0.5696  1.2659  0.2601
 9313SOL    HW239399   2.969   2.926   2.171  1.3668  0.2510 -2.4180
 9314SOL     OW39400   2.845   2.540  17.188  1.2166 -0.0615 -0.0047
 9314SOL    HW139401   2.802   2.487  17.255  2.6340 -0.0108  0.9428
 9314SOL    HW239402   2.812   2.627  17.207  0.5018 -1.1294  3.6250
 9315SOL     OW39403   1.460   0.486   8.434  0.5983 -0.3501  0.0533
 9315SOL    HW139404   1.524   0.540   8.481  0.5144  1.6104 -2.1310
 9315SOL    HW239405   1.506   0.446   8.361  1.7890 -0.0071  0.6024
 9316SOL     OW39406   2.449   1.636  12.359 -0.0803  0.3903 -0.0418
 9316SOL    HW139407   2.454   1.549  12.320 -0.2784 -0.9248  2.8983
 9316SOL    HW239408   2.397   1.671  12.287  1.0435  0.4923 -0.8101
 9317SOL     OW39409   1.168   3.844   5.711  0.0375 -0.2908 -0.1704
 9317SOL    HW139410   1.143   3.796   5.632 -2.3289 -1.6601  1.4290
 9317SOL    HW239411   1.142   3.774   5.771 -2.9361  2.5072  1.8354
 9318SOL     OW39412   2.235   0.722   7.983 -0.0062 -0.4401 -0.7395
 9318SOL    HW139413   2.228   0.627   7.980 -0.8130 -0.4181  0.3335
 9318SOL    HW239414   2.155   0.741   8.033  1.0483  0.7295  0.4986
 9319SOL     OW39415   3.777   2.019   3.384 -0.3960 -0.5843 -0.0504
 9319SOL    HW139416   3.764   1.933   3.424 -1.3511 -0.1852  0.4835
 9319SOL    HW239417   3.846   2.002   3.320  0.4860  2.1345  0.1593
 9320SOL     OW39418   2.321   4.086  14.174 -0.0521  0.0917  0.7641
 9320SOL    HW139419   2.266   4.012  14.201  0.7389 -1.5265 -2.0093
 9320SOL    HW239420   2.359   4.097  14.261  1.0902  0.0579  0.2782
 9321SOL     OW39421   3.972   4.423   5.242 -0.2444  0.4080  0.1680
 9321SOL    HW139422   3.966   4.487   5.171  3.0596  0.7824  0.2049
 9321SOL    HW239423   3.879   4.400   5.241  0.0023 -0.7147  2.1796
 9322SOL     OW39424   0.302   3.031   6.480  0.5260 -0.0871  0.2599
 9322SOL    HW139425   0.385   3.003   6.517  0.8292 -0.3496 -0.6110
 9322SOL    HW239426   0.332   3.071   6.398  1.9442 -1.8233 -0.0553
 9323SOL     OW39427   1.721   1.553  12.623 -0.1254  0.4812  0.2352
 9323SOL    HW139428   1.660   1.526  12.690 -0.6254 -0.7667 -0.7266
 9323SOL    HW239429   1.682   1.635  12.593 -0.6009  0.8477  1.8733
 9324SOL     OW39430   0.785   1.107   1.781  0.6254 -0.3959 -0.3988
 9324SOL    HW139431   0.775   1.013   1.767  0.6034 -0.7532  2.0525
 9324SOL    HW239432   0.862   1.118   1.725 -0.1457 -0.0632 -1.3997
 9325SOL     OW39433   1.077   3.980   6.080  0.0874  0.3414 -0.0005
 9325SOL    HW139434   1.120   3.996   5.996 -1.1557 -1.7246 -1.0275
 9325SOL    HW239435   1.141   3.913   6.106 -1.2932 -0.6788  0.7721
 9326SOL     OW39436   0.776   2.455   5.276  0.3384 -0.5954  0.1045
 9326SOL    HW139437   0.843   2.434   5.210 -0.6644  2.8059 -2.0306
 9326SOL    HW239438   0.764   2.549   5.261  1.3306 -0.5268 -0.2563
 9327SOL     OW39439   0.150   0.141  17.674  0.6413 -0.2024  0.3292
 9327SOL    HW139440   0.099   0.063  17.649  1.4763 -0.0527 -1.7947
 9327SOL    HW239441   0.226   0.129  17.618  0.6432 -0.1538  0.3216
 9328SOL     OW39442   2.805   1.678   5.424 -0.3339 -0.7423 -0.0912
 9328SOL    HW139443   2.728   1.636   5.387 -0.5244 -0.8109  0.3742
 9328SOL    HW239444   2.797   1.770   5.398  1.2819 -0.9185 -1.2328
 9329SOL     OW39445   0.870   2.327   0.568  0.1998  0.2117  0.5074
 9329SOL    HW139446   0.778   2.301   0.576 -0.0228  1.1161  0.8060
 9329SOL    HW239447   0.908   2.301   0.652  0.0056 -1.2212  0.1528
 9330SOL     OW39448   4.237   2.356   4.081 -0.3832  0.6987 -0.7255
 9330SOL    HW139449   4.277   2.433   4.041  0.9951  0.3650  0.0301
 9330SOL    HW239450   4.180   2.402   4.143 -0.2942  0.1246 -0.2285
 9331SOL     OW39451   4.059   4.048  16.782  0.2995 -0.8279 -0.0683
 9331SOL    HW139452   4.025   3.995  16.855 -0.8052 -0.5729 -0.4059
 9331SOL    HW239453   4.028   4.135  16.809  1.9594 -0.4338  0.5946
 9332SOL     OW39454   2.226   4.129  14.465  0.0975  0.2142  0.1801
 9332SOL    HW139455   2.138   4.104  14.438 -0.5525  0.3891  2.1112
 9332SOL    HW239456   2.236   4.214  14.422  0.7494 -0.6537 -1.3678
 9333SOL     OW39457   4.479   0.568   4.370 -0.1853 -0.3144 -0.2561
 9333SOL    HW139458   4.536   0.572   4.293  2.1957 -4.1787  1.2709
 9333SOL    HW239459   4.396   0.539   4.332 -0.4516  1.0700 -0.7242
 9334SOL     OW39460   2.158   0.149   9.443 -0.5684  0.5729 -0.1852
 9334SOL    HW139461   2.113   0.086   9.386  0.7465 -1.1103  0.6291
 9334SOL    HW239462   2.097   0.135   9.516  1.0870 -0.1069  1.0687
 9335SOL     OW39463   3.335   3.357   5.336 -0.2583  0.0613 -0.0455
 9335SOL    HW139464   3.370   3.319   5.255  0.0397  0.2335  0.0002
 9335SOL    HW239465   3.417   3.403   5.356 -1.2543  1.9259 -0.3621
 9336SOL     OW39466   2.900   4.142   5.884  0.2041  0.6841  0.0633
 9336SOL    HW139467   2.884   4.200   5.958 -1.7592  1.2143 -0.7739
 9336SOL    HW239468   2.956   4.079   5.929 -0.6041  1.2826  1.9141
 9337SOL     OW39469   1.075   0.135   3.875  0.6830  0.4138 -0.8569
 9337SOL    HW139470   1.099   0.053   3.919  2.7672  1.4034 -0.1904
 9337SOL    HW239471   0.981   0.134   3.895  1.1651  0.3244  1.4569
 9338SOL     OW39472   1.696   2.015   2.499  0.4793  0.2456  0.8738
 9338SOL    HW139473   1.640   2.019   2.576  1.6522  0.0390  1.7445
 9338SOL    HW239474   1.631   1.994   2.432  0.5373  2.4115  0.1668
 9339SOL     OW39475   0.891   4.545  10.949  0.1582 -0.0909 -0.1985
 9339SOL    HW139476   0.802   4.556  10.983  0.0245 -4.0370  0.6878
 9339SOL    HW239477   0.883   4.606  10.876  4.4121  1.5805  0.7227
 9340SOL     OW39478   3.702   1.956   5.189  0.2285  0.5055 -0.6146
 9340SOL    HW139479   3.745   1.961   5.275 -2.0214  0.5287  0.5056
 9340SOL    HW239480   3.781   1.946   5.137 -0.0327 -1.2505 -0.6835
 9341SOL     OW39481   1.428   0.189   3.754 -0.2469 -0.2910  0.8053
 9341SOL    HW139482   1.381   0.248   3.696  0.7994  0.0644  0.3183
 9341SOL    HW239483   1.417   0.099   3.721  0.7405 -0.4751  0.9837
 9342SOL     OW39484   0.208   0.718   2.470  0.4411  0.4841  0.2738
 9342SOL    HW139485   0.278   0.671   2.426 -0.5372 -2.5867  1.9984
 9342SOL    HW239486   0.219   0.810   2.447  2.2617  0.5419  1.4444
 9343SOL     OW39487   3.561   1.687   9.233 -0.1121 -0.0642  0.1544
 9343SOL    HW139488   3.614   1.670   9.156  0.1698  2.0155 -0.1063
 9343SOL    HW239489   3.518   1.602   9.243 -1.7057  0.4506 -2.3478
 9344SOL     OW39490   4.036   3.287   8.035 -0.0009  0.0061 -0.0884
 9344SOL    HW139491   4.008   3.352   8.100 -0.1867  0.3864 -0.5541
 9344SOL    HW239492   4.130   3.301   8.045 -0.1283  0.1633  0.8883
 9345SOL     OW39493   2.278   4.542   2.896 -0.4787  0.1896  0.6247
 9345SOL    HW139494   2.219   4.603   2.941  1.9897  2.5826  0.6629
 9345SOL    HW239495   2.215   4.476   2.866 -0.5800  0.7564 -0.4159
 9346SOL     OW39496   4.511   0.467  17.448  0.3799 -0.2398 -0.2177
 9346SOL    HW139497   4.566   0.389  17.442  0.4919 -0.1100 -0.8967
 9346SOL    HW239498   4.483   0.475  17.539 -0.2204  0.6370 -0.4790
 9347SOL     OW39499   4.708   1.933   2.268  0.5703  0.1396  0.9513
 9347SOL    HW139500   4.715   1.866   2.200 -2.8637 -2.8172  3.4751
 9347SOL    HW239501   0.068   1.958   2.301  0.4158  1.6551  0.2140
 9348SOL     OW39502   0.693   0.939   0.298 -0.0723  0.8579  0.0515
 9348SOL    HW139503   0.767   0.879   0.311  1.3255  2.5587 -0.1088
 9348SOL    HW239504   0.633   0.879   0.253  0.4190  0.8237 -0.5607
 9349SOL     OW39505   4.637   0.904  15.259 -0.2774  0.0704  0.3839
 9349SOL    HW139506   4.556   0.865  15.228  0.7352 -1.4764 -0.2888
 9349SOL    HW239507   4.602   0.970  15.320 -2.2056 -0.1077 -0.5250
 9350SOL     OW39508   0.679   2.866   1.808  0.0305 -0.4821 -0.1224
 9350SOL    HW139509   0.603   2.900   1.854 -0.7128 -0.1813 -1.5757
 9350SOL    HW239510   0.639   2.841   1.725 -1.6192  1.7450  0.0035
 9351SOL     OW39511   0.116   2.626   1.210 -0.0654  0.2427 -0.3237
 9351SOL    HW139512   0.038   2.610   1.157 -0.2757  0.3017 -0.0286
 9351SOL    HW239513   0.095   2.580   1.291  3.5150 -0.1155  0.4218
 9352SOL     OW39514   4.495   1.818   9.575 -0.5140  0.3960 -1.4526
 9352SOL    HW139515   4.554   1.816   9.500  2.2294  2.8004  0.6432
 9352SOL    HW239516   4.487   1.726   9.600  0.5430  1.1483  1.7260
 9353SOL     OW39517   3.631   3.879   3.125  0.4792 -0.0495 -0.3151
 9353SOL    HW139518   3.566   3.811   3.105 -0.1230 -0.0202  1.5310
 9353SOL    HW239519   3.663   3.901   3.037 -2.9977  1.2850 -1.2542
 9354SOL     OW39520   2.831   2.771   0.160 -0.0645 -0.2366  0.4569
 9354SOL    HW139521   2.816   2.859   0.195  0.8778 -0.1887  0.7350
 9354SOL    HW239522   2.787   2.720   0.227  0.9104 -0.0467  1.2327
 9355SOL     OW39523   1.016   0.638   1.388  0.0742  0.2488 -0.5910
 9355SOL    HW139524   0.965   0.563   1.358 -0.4472  0.6501 -0.7110
 9355SOL    HW239525   0.954   0.687   1.442 -1.2526  0.9407 -2.7426
 9356SOL     OW39526   1.772   2.680   3.701  0.1733  0.1322  0.1399
 9356SOL    HW139527   1.752   2.763   3.657  1.3801 -0.3634 -1.3623
 9356SOL    HW239528   1.744   2.613   3.640  3.1450 -2.3574  1.4700
 9357SOL     OW39529   0.973   2.802   8.670 -0.3594  0.1374 -0.1902
 9357SOL    HW139530   1.068   2.810   8.666 -0.4732  0.6320 -1.6793
 9357SOL    HW239531   0.953   2.889   8.705  1.5292 -0.0771  1.3754
 9358SOL     OW39532   3.687   4.371   5.306 -0.5576  0.3465 -0.3751
 9358SOL    HW139533   3.597   4.376   5.272 -0.6310 -0.2936 -0.2854
 9358SOL    HW239534   3.694   4.275   5.301 -0.0469  0.3140  0.9190
 9359SOL     OW39535   1.786   3.510  16.102 -0.7097  0.2059  0.3449
 9359SOL    HW139536   1.814   3.435  16.155  1.5657 -1.1750 -2.7878
 9359SOL    HW239537   1.792   3.585  16.161 -0.4669 -0.0809  0.6866
 9360SOL     OW39538   1.396   4.586   6.243 -0.1675  0.0675  0.3253
 9360SOL    HW139539   1.329   4.615   6.305 -1.9040  0.4177 -1.7007
 9360SOL    HW239540   1.479   4.593   6.291  0.4113  3.0924 -1.1124
 9361SOL     OW39541   0.946   4.063   9.104  0.7333 -0.0779 -0.6061
 9361SOL    HW139542   0.930   4.142   9.155 -0.2149  0.7045 -2.1284
 9361SOL    HW239543   0.867   4.014   9.128  0.8421  0.2489  0.4408
 9362SOL     OW39544   2.311   4.407   1.818 -0.2179  0.0591  0.5299
 9362SOL    HW139545   2.391   4.449   1.786 -1.5320  2.1387 -0.0700
 9362SOL    HW239546   2.320   4.431   1.911  2.1281  1.9550 -0.1864
 9363SOL     OW39547   0.514   4.011   7.437 -0.0713  0.1861 -0.7389
 9363SOL    HW139548   0.553   4.008   7.524 -1.5679  1.7728 -0.0189
 9363SOL    HW239549   0.542   3.926   7.401  0.1568  0.0589 -0.2540
 9364SOL     OW39550   1.790   0.642  16.271 -0.0079  0.0069 -0.2922
 9364SOL    HW139551   1.707   0.641  16.319 -0.6036 -0.9576 -1.3740
 9364SOL    HW239552   1.754   0.628  16.184  0.6177 -0.1783 -0.5195
 9365SOL     OW39553   4.573   0.980   6.143  0.0619 -0.7635 -0.4350
 9365SOL    HW139554   4.477   0.983   6.134  0.1397  0.2580 -1.0294
 9365SOL    HW239555   4.590   0.915   6.074  0.4792  0.5734 -1.6067
 9366SOL     OW39556   2.196   1.210   3.287 -0.0825  0.1039 -0.2011
 9366SOL    HW139557   2.139   1.198   3.362 -0.0323  1.5183  0.0680
 9366SOL    HW239558   2.223   1.302   3.292  1.1678 -0.3115  0.6720
 9367SOL     OW39559   3.450   3.969   2.693 -0.0872  0.1971  0.2319
 9367SOL    HW139560   3.443   3.992   2.600  0.3122  1.6503  0.5664
 9367SOL    HW239561   3.542   3.944   2.700 -0.0716 -0.0359 -0.7949
 9368SOL     OW39562   0.540   4.264   8.137 -0.0196 -0.0539  0.4349
 9368SOL    HW139563   0.466   4.291   8.192  1.4903  2.5645  1.2130
 9368SOL    HW239564   0.551   4.170   8.148 -0.2725 -0.0253  0.9365
 9369SOL     OW39565   2.416   1.949   7.430  0.0100  0.5194 -0.2364
 9369SOL    HW139566   2.465   1.947   7.512  3.5687 -0.3187 -2.3801
 9369SOL    HW239567   2.467   1.886   7.380  1.0366  1.2686 -0.1399
 9370SOL     OW39568   2.399   0.709   8.951 -0.6676  0.0715  0.6073
 9370SOL    HW139569   2.404   0.804   8.938  1.6128 -0.2731 -1.1585
 9370SOL    HW239570   2.427   0.669   8.868 -2.2203  0.1745  0.0396
 9371SOL     OW39571   2.318   4.452  13.353 -0.1007  0.0603  0.2248
 9371SOL    HW139572   2.305   4.470  13.260  1.4000  1.2294  0.2512
 9371SOL    HW239573   2.318   4.357  13.366  0.9722 -0.0373 -0.5162
 9372SOL     OW39574   0.291   0.257  10.102 -0.2604 -0.2255  0.6596
 9372SOL    HW139575   0.291   0.291  10.012 -0.2545 -1.4484  0.1888
 9372SOL    HW239576   0.301   0.162  10.087 -1.4176 -0.2960  0.3259
 9373SOL     OW39577   0.510   3.333   3.472 -0.3771  0.1628 -0.0417
 9373SOL    HW139578   0.550   3.324   3.386 -1.5990  0.7634 -0.6625
 9373SOL    HW239579   0.485   3.425   3.468 -0.4473 -0.0482 -4.0901
 9374SOL     OW39580   2.407   4.465   4.572  0.0777  0.3819 -0.3519
 9374SOL    HW139581   2.329   4.478   4.519 -0.5291  0.2234  0.5142
 9374SOL    HW239582   2.383   4.376   4.597  1.2224  0.4937  1.1367
 9375SOL     OW39583   4.636   0.373   8.541  0.1338 -0.4763  0.5910
 9375SOL    HW139584   4.695   0.435   8.498  0.1834 -1.0604 -0.1908
 9375SOL    HW239585   4.611   0.423   8.618  0.9869  1.9454 -0.7223
 9376SOL     OW39586   0.566   3.073   4.398  0.0996  0.5175  0.6872
 9376SOL    HW139587   0.634   3.046   4.336  0.3406 -1.7032  1.8880
 9376SOL    HW239588   0.550   3.163   4.370  1.6831  1.0960  1.5944
 9377SOL     OW39589   1.618   3.010   1.043  0.0484 -0.0780  0.5899
 9377SOL    HW139590   1.653   3.074   1.105  1.0659 -1.0405  1.0048
 9377SOL    HW239591   1.592   2.940   1.103  2.6014 -0.8328  0.8151
 9378SOL     OW39592   4.462   1.564   4.203 -0.4093 -0.2636  0.3639
 9378SOL    HW139593   4.554   1.574   4.180  0.0724 -2.0655  1.5228
 9378SOL    HW239594   4.420   1.572   4.117  0.2277  1.3139  0.2019
 9379SOL     OW39595   0.192   4.048   0.809  0.8997 -0.4256 -0.1557
 9379SOL    HW139596   0.163   4.138   0.800  1.0634 -0.4331 -0.7835
 9379SOL    HW239597   0.196   4.040   0.904  1.6537 -0.3416 -0.1822
 9380SOL     OW39598   2.855   3.892   1.144  0.6038  0.5676 -0.0470
 9380SOL    HW139599   2.765   3.917   1.162  1.8724  3.8572  1.7770
 9380SOL    HW239600   2.898   3.978   1.137  0.7208  0.5936  1.1129
 9381SOL     OW39601   3.090   1.199   5.606  0.1734  0.2609  0.3636
 9381SOL    HW139602   3.000   1.232   5.598 -0.1345 -1.3398 -2.6609
 9381SOL    HW239603   3.093   1.131   5.673 -1.0695 -0.3867 -0.2472
 9382SOL     OW39604   3.852   2.750   5.928  0.0186 -0.1931 -0.2031
 9382SOL    HW139605   3.793   2.824   5.913 -0.7146 -0.8813 -0.7145
 9382SOL    HW239606   3.930   2.800   5.903 -0.0406  0.2147  0.4271
 9383SOL     OW39607   1.785   2.531  15.026 -0.1729 -0.3462 -0.0871
 9383SOL    HW139608   1.824   2.574  14.950 -0.7994  0.0518 -0.1724
 9383SOL    HW239609   1.711   2.491  14.980 -2.4008  0.9081  2.4681
 9384SOL     OW39610   2.096   1.223  11.830 -0.2149 -0.6828 -0.0082
 9384SOL    HW139611   2.111   1.129  11.825  1.8354 -0.2737 -1.2654
 9384SOL    HW239612   2.182   1.255  11.858 -0.0840 -0.7391 -0.3477
 9385SOL     OW39613   1.834   0.786   4.535 -0.0471 -0.3443  0.6817
 9385SOL    HW139614   1.793   0.778   4.621  1.4580  1.3996  1.5382
 9385SOL    HW239615   1.781   0.724   4.483  2.0503  0.2846 -2.1966
 9386SOL     OW39616   4.565   1.357   3.530 -0.2516 -0.0278 -0.0262
 9386SOL    HW139617   4.583   1.428   3.468 -0.4575  1.4152  1.5895
 9386SOL    HW239618   4.603   1.280   3.487  2.3274  0.6146  1.1453
 9387SOL     OW39619   0.180   2.834   5.189  0.1083  0.4955 -0.2914
 9387SOL    HW139620   0.182   2.804   5.098  1.1660 -0.0601 -0.0766
 9387SOL    HW239621   0.168   2.748   5.229 -1.9882  0.8543 -0.1139
 9388SOL     OW39622   2.944   3.717  16.291  0.6008 -0.0908 -0.0448
 9388SOL    HW139623   2.938   3.786  16.357 -1.6065 -0.6544  0.3361
 9388SOL    HW239624   3.039   3.701  16.289  0.7044  0.5490 -0.1418
 9389SOL     OW39625   0.221   4.611   9.019  0.1515  0.3477  0.1002
 9389SOL    HW139626   0.206   4.550   8.947  0.6179  1.6770 -1.1328
 9389SOL    HW239627   0.213   4.560   9.099  4.8463 -0.7642 -0.1952
 9390SOL     OW39628   1.002   0.169  16.995 -0.2432  0.3390 -0.3269
 9390SOL    HW139629   0.923   0.178  16.941 -0.0553  1.6936 -0.3691
 9390SOL    HW239630   1.053   0.103  16.947  0.3470  0.3338  0.3227
 9391SOL     OW39631   0.838   3.907   8.735  0.1318 -0.1599  0.8332
 9391SOL    HW139632   0.771   3.882   8.798  1.3299  1.7454  2.8881
 9391SOL    HW239633   0.802   3.993   8.713  1.8056  0.6439  1.2440
 9392SOL     OW39634   1.010   4.352   9.492  0.2466  0.7689 -0.1832
 9392SOL    HW139635   0.916   4.336   9.507  0.1713  1.2558 -0.1387
 9392SOL    HW239636   1.044   4.335   9.579 -1.2720 -0.3741  0.2052
 9393SOL     OW39637   1.610   1.390  11.856 -0.1304  0.2913 -0.1436
 9393SOL    HW139638   1.691   1.367  11.901 -0.0695 -0.5283 -0.6711
 9393SOL    HW239639   1.595   1.303  11.819 -0.1013 -0.8132  2.4916
 9394SOL     OW39640   0.175   3.634   3.577 -0.0325  0.3836  0.5803
 9394SOL    HW139641   0.098   3.620   3.632 -0.3839 -0.9021 -0.2421
 9394SOL    HW239642   0.133   3.668   3.498  2.0232 -1.9802 -1.5582
 9395SOL     OW39643   4.080   2.803   4.558 -0.4498  0.7625 -0.5269
 9395SOL    HW139644   4.048   2.886   4.524 -0.7799  1.7093  2.0634
 9395SOL    HW239645   4.016   2.740   4.526 -1.5364  1.0617  1.0351
 9396SOL     OW39646   2.828   2.199  12.500 -0.2079  0.0972  0.3068
 9396SOL    HW139647   2.815   2.235  12.412 -0.8431  1.8948  1.1237
 9396SOL    HW239648   2.778   2.264  12.550 -0.5022  1.9777 -2.4084
 9397SOL     OW39649   0.337   0.378  12.078 -0.2379 -0.3911 -0.1063
 9397SOL    HW139650   0.252   0.382  12.036  0.0425 -1.2577 -0.7705
 9397SOL    HW239651   0.346   0.457  12.132  1.1790  0.3439 -1.4036
 9398SOL     OW39652   2.504   0.774   7.962  0.0983  0.1353 -0.4339
 9398SOL    HW139653   2.408   0.769   7.964  0.0895  0.8460  0.6242
 9398SOL    HW239654   2.523   0.779   8.055  2.4132 -3.0083 -0.7444
 9399SOL     OW39655   2.882   0.814   2.314 -0.0874 -0.5394 -0.1344
 9399SOL    HW139656   2.901   0.886   2.374 -2.3552  0.5576 -0.7219
 9399SOL    HW239657   2.838   0.869   2.249  0.0090  0.2411  0.4741
 9400SOL     OW39658   4.557   4.571   4.640 -0.4317  1.3742 -0.0489
 9400SOL    HW139659   4.598   4.556   4.725 -0.3731  1.5931 -0.0385
 9400SOL    HW239660   4.620   4.526   4.583 -0.1501 -0.1589  1.4720
 9401SOL     OW39661   1.180   2.844   3.877  0.0160  0.1558  0.2059
 9401SOL    HW139662   1.164   2.906   3.949  0.5220  1.3087 -0.6697
 9401SOL    HW239663   1.202   2.900   3.802 -2.0095  1.1732  0.3700
 9402SOL     OW39664   1.812   1.842   6.907 -0.2326  0.7354  0.8701
 9402SOL    HW139665   1.768   1.926   6.926 -0.3325  1.1348 -1.1620
 9402SOL    HW239666   1.776   1.787   6.977 -0.1133  0.0655  0.3966
 9403SOL     OW39667   0.887   2.368  12.437 -0.4801  0.1998 -0.4547
 9403SOL    HW139668   0.968   2.419  12.435 -0.2198 -0.1893  0.3360
 9403SOL    HW239669   0.838   2.420  12.501 -1.8434  0.1781 -1.4873
 9404SOL     OW39670   2.227   0.016   7.146  0.5114  0.0685  0.2472
 9404SOL    HW139671   2.292   0.087   7.140 -0.8359  1.1165 -1.7928
 9404SOL    HW239672   2.273   4.671   7.101  4.1459  1.3046  1.9537
 9405SOL     OW39673   3.688   1.642   7.710 -0.1177 -0.4747  0.3531
 9405SOL    HW139674   3.677   1.670   7.801 -0.9521 -0.8207  0.3561
 9405SOL    HW239675   3.710   1.725   7.668 -4.7969  0.4717 -0.2491
 9406SOL     OW39676   1.077   0.368   3.426  0.1078 -0.0527 -0.2820
 9406SOL    HW139677   1.019   0.348   3.499  2.3197 -0.1384  1.4278
 9406SOL    HW239678   1.024   0.359   3.346  0.1835  2.7144 -0.6714
 9407SOL     OW39679   1.801   1.136   7.513  0.4254  0.7162 -0.1430
 9407SOL    HW139680   1.844   1.122   7.598 -1.1286  2.6939  0.9596
 9407SOL    HW239681   1.826   1.060   7.461 -0.0960  0.3476  0.1396
 9408SOL     OW39682   3.414   4.420   5.773 -0.0534  0.0078  0.3070
 9408SOL    HW139683   3.434   4.354   5.706 -1.5479 -1.1963  1.0408
 9408SOL    HW239684   3.439   4.500   5.726  1.4852  0.6414  2.2282
 9409SOL     OW39685   2.941   3.680   1.305 -0.2867  0.1098 -0.2180
 9409SOL    HW139686   2.924   3.719   1.391  1.3374  0.5135 -0.0733
 9409SOL    HW239687   2.904   3.750   1.252 -1.5976 -1.9414 -1.9876
 9410SOL     OW39688   3.829   3.940  13.145 -0.3632 -0.1640  0.4699
 9410SOL    HW139689   3.880   3.955  13.066  0.9828  0.2748  1.4304
 9410SOL    HW239690   3.773   4.017  13.153 -0.7245 -0.1119 -2.9390
 9411SOL     OW39691   2.177   2.654   7.023  0.4551  0.7065 -0.8253
 9411SOL    HW139692   2.130   2.736   7.006 -1.2103  0.0719  0.7545
 9411SOL    HW239693   2.147   2.601   6.949 -0.2846  0.2183 -0.1708
 9412SOL     OW39694   3.991   0.609   5.932 -0.0966  0.5772 -0.3211
 9412SOL    HW139695   3.924   0.541   5.944  1.7018 -0.8569  1.6559
 9412SOL    HW239696   3.969   0.672   6.000  0.2828  2.0896 -1.6061
 9413SOL     OW39697   1.150   2.797   5.071 -0.2041  0.2014 -0.0063
 9413SOL    HW139698   1.235   2.837   5.052  0.4367 -0.5190  1.3427
 9413SOL    HW239699   1.114   2.862   5.131 -1.8099 -0.1808 -0.5569
 9414SOL     OW39700   2.658   2.418   6.384 -0.2656 -0.1226 -0.2137
 9414SOL    HW139701   2.660   2.458   6.297 -1.0875 -0.0505 -0.1946
 9414SOL    HW239702   2.751   2.402   6.401 -0.2813 -1.8016 -1.7056
 9415SOL     OW39703   2.722   1.477   4.808 -0.1246 -0.1234 -0.0815
 9415SOL    HW139704   2.701   1.389   4.838  1.2635 -0.7586 -0.9750
 9415SOL    HW239705   2.786   1.506   4.873 -1.8621  0.9907  1.1143
 9416SOL     OW39706   3.496   1.925   3.755  0.4239 -0.4367 -1.0861
 9416SOL    HW139707   3.573   1.869   3.763 -1.1310 -2.0547  2.2660
 9416SOL    HW239708   3.534   2.000   3.709  3.5414 -1.0667  0.4117
 9417SOL     OW39709   1.126   0.533   3.631  0.1280  0.1241  0.1320
 9417SOL    HW139710   1.126   0.474   3.556 -4.6662 -1.1145  1.0876
 9417SOL    HW239711   1.034   0.559   3.631 -0.0531 -0.5470  2.1264
 9418SOL     OW39712   0.670   3.844  13.222  0.1832 -0.2640  0.2835
 9418SOL    HW139713   0.660   3.928  13.266  0.8674  0.2656 -0.5809
 9418SOL    HW239714   0.655   3.876  13.133  0.9607  0.9072  0.5741
 9419SOL     OW39715   1.900   4.078   1.093 -0.4635 -0.1182 -0.2286
 9419SOL    HW139716   1.971   4.045   1.148  1.2018 -0.1224 -2.3819
 9419SOL    HW239717   1.901   4.171   1.115  1.2628  0.2074 -1.6691
 9420SOL     OW39718   2.373   4.178  13.492  0.5028 -0.6151  0.2248
 9420SOL    HW139719   2.465   4.153  13.482 -0.5029 -3.7851 -1.1902
 9420SOL    HW239720   2.370   4.242  13.564 -0.5814 -1.7388  1.1947
 9421SOL     OW39721   1.281   1.206   4.050 -0.8185  0.1892  0.1962
 9421SOL    HW139722   1.279   1.119   4.011  1.6979  0.0077  0.4518
 9421SOL    HW239723   1.375   1.220   4.064 -0.7180  0.0372 -0.3176
 9422SOL     OW39724   2.571   3.753  10.276 -0.4548  0.0271  0.1598
 9422SOL    HW139725   2.482   3.735  10.308 -1.9815  3.0086 -2.3935
 9422SOL    HW239726   2.625   3.691  10.325  2.0882  1.8637 -0.3049
 9423SOL     OW39727   1.273   0.330   3.187  0.3791 -0.1090 -0.0457
 9423SOL    HW139728   1.194   0.382   3.179 -0.3899 -1.3492 -0.6037
 9423SOL    HW239729   1.285   0.339   3.281 -0.1208 -0.9462  0.0950
 9424SOL     OW39730   1.441   1.987   3.255 -0.1138  0.4757  0.5821
 9424SOL    HW139731   1.380   1.958   3.188 -1.1066  0.8132  1.3540
 9424SOL    HW239732   1.437   2.081   3.241 -1.0942  0.2101 -0.8369
 9425SOL     OW39733   4.166   3.572  13.654 -0.2646  0.1985  0.1710
 9425SOL    HW139734   4.141   3.572  13.561  1.8983  0.0342 -0.4086
 9425SOL    HW239735   4.159   3.479  13.677 -2.1259  0.8500  2.1586
 9426SOL     OW39736   0.888   1.079   8.076 -0.3733  0.3293 -0.4715
 9426SOL    HW139737   0.942   1.128   8.138 -0.2862  0.3195 -0.5412
 9426SOL    HW239738   0.804   1.123   8.088 -0.6988  0.1718 -2.2638
 9427SOL     OW39739   3.240   3.603   8.019  0.4327 -0.1014  0.5102
 9427SOL    HW139740   3.224   3.544   7.945  2.6755  1.8740 -1.5480
 9427SOL    HW239741   3.272   3.548   8.090 -1.1016 -1.7529 -0.0683
 9428SOL     OW39742   1.957   0.411   0.518  0.1201  0.6199  0.5853
 9428SOL    HW139743   1.989   0.497   0.492 -0.8649  1.4419  2.0515
 9428SOL    HW239744   2.008   0.404   0.599 -1.7202  0.7047  1.7634
 9429SOL     OW39745   1.641   0.510   7.216 -0.4139 -0.1509 -0.2118
 9429SOL    HW139746   1.591   0.436   7.251  1.2212 -1.0137  0.3464
 9429SOL    HW239747   1.641   0.492   7.122  2.3466  2.5937 -0.7431
 9430SOL     OW39748   0.714   4.584   3.931 -0.4376  0.7225 -0.3025
 9430SOL    HW139749   0.646   4.521   3.906  0.8738 -0.0200 -2.0005
 9430SOL    HW239750   0.717   4.563   4.025  0.8942 -2.7006 -1.1024
 9431SOL     OW39751   4.004   3.532  14.826  0.7543  0.4438  0.1872
 9431SOL    HW139752   3.965   3.463  14.772  2.6265 -1.2513  0.9831
 9431SOL    HW239753   3.947   3.510  14.900  1.5067 -3.9332 -0.5250
 9432SOL     OW39754   0.073   4.513   1.805  0.0640  0.4499 -0.0483
 9432SOL    HW139755   0.097   4.457   1.731  1.3555  1.6891 -0.5695
 9432SOL    HW239756   0.034   4.462   1.876  1.0630 -0.8958 -0.4697
 9433SOL     OW39757   1.470   2.594  16.986  0.1491 -0.1314 -0.4464
 9433SOL    HW139758   1.526   2.628  16.915 -0.4365  0.9397 -0.3956
 9433SOL    HW239759   1.404   2.557  16.929 -0.5530 -1.3116  1.1331
 9434SOL     OW39760   0.753   3.076   9.901  0.0931 -0.0421  0.6319
 9434SOL    HW139761   0.726   3.122   9.980  0.8818 -1.1648  1.5454
 9434SOL    HW239762   0.791   2.994   9.932 -2.8700 -1.1865  1.2969
 9435SOL     OW39763   1.752   3.949   8.528  0.0511 -0.2432  0.3526
 9435SOL    HW139764   1.729   3.860   8.502 -1.6769  0.6735 -1.2972
 9435SOL    HW239765   1.777   3.981   8.442  0.2216  0.4317  0.6560
 9436SOL     OW39766   3.294   1.409   8.037  0.0670 -0.1383  0.4282
 9436SOL    HW139767   3.334   1.363   8.111 -0.9445 -0.4987  0.7509
 9436SOL    HW239768   3.255   1.333   7.994  1.6383 -0.7874  0.1722
 9437SOL     OW39769   2.342   0.585   1.477 -0.2951 -0.2309 -0.0306
 9437SOL    HW139770   2.373   0.590   1.386  1.1651  2.3344  0.6139
 9437SOL    HW239771   2.318   0.676   1.494 -2.8310 -0.6091 -1.6350
 9438SOL     OW39772   2.838   2.445   2.839 -0.0264  0.4451 -0.1358
 9438SOL    HW139773   2.774   2.495   2.890 -0.0988 -0.5052  0.7063
 9438SOL    HW239774   2.861   2.520   2.784  2.8999 -1.6592 -1.7837
 9439SOL     OW39775   3.830   4.112   1.027  0.1575  0.3023 -0.2610
 9439SOL    HW139776   3.856   4.204   1.027  2.2160 -0.2705 -0.4217
 9439SOL    HW239777   3.738   4.127   1.051 -0.0736 -1.4470 -0.0596
 9440SOL     OW39778   4.024   4.667   4.758  0.2205 -0.0151 -0.1959
 9440SOL    HW139779   4.079   0.000   4.706  0.6968  0.9242  1.3807
 9440SOL    HW239780   3.943   4.718   4.747 -0.8284 -1.8027 -0.7463
 9441SOL     OW39781   4.493   0.999   7.768  0.0642  0.1956  0.0743
 9441SOL    HW139782   4.569   0.965   7.815  1.5679  2.3054 -0.8079
 9441SOL    HW239783   4.516   1.092   7.766  1.3644 -0.1135  0.3040
 9442SOL     OW39784   4.289   1.201   5.862 -0.2174  0.2744  0.3699
 9442SOL    HW139785   4.231   1.268   5.899 -1.3170 -0.3364 -0.2388
 9442SOL    HW239786   4.224   1.149   5.815 -0.3087 -0.4317  1.2893
 9443SOL     OW39787   2.765   2.476   5.921 -0.1034  0.1510 -0.2819
 9443SOL    HW139788   2.702   2.521   5.978  0.1307  1.2802 -0.9123
 9443SOL    HW239789   2.780   2.399   5.976  0.9372  0.6621  0.1605
 9444SOL     OW39790   4.033   0.732  16.065  0.1049  0.5416 -0.1110
 9444SOL    HW139791   4.117   0.744  16.110 -0.1341 -0.4920  0.6036
 9444SOL    HW239792   4.023   0.826  16.056 -0.5260  0.3911 -1.0386
 9445SOL     OW39793   0.200   3.011   7.596  0.3901  0.4198 -0.0640
 9445SOL    HW139794   0.130   2.946   7.592 -0.5094  1.3733  0.1998
 9445SOL    HW239795   0.150   3.084   7.633  0.8406  0.7162 -0.0346
 9446SOL     OW39796   4.159   0.971  13.721  0.0320  0.3108 -0.1402
 9446SOL    HW139797   4.239   0.938  13.764  0.3530 -0.0559 -1.0246
 9446SOL    HW239798   4.128   1.007  13.804 -2.0738  0.1855 -0.8942
 9447SOL     OW39799   0.713   2.205   8.315 -0.3144  0.1453  0.3905
 9447SOL    HW139800   0.674   2.213   8.402  2.1431  1.7872  1.3331
 9447SOL    HW239801   0.656   2.265   8.268  0.7864  0.7985 -0.1020
 9448SOL     OW39802   0.515   3.197   5.217 -0.6214 -0.1491  0.0742
 9448SOL    HW139803   0.433   3.146   5.217 -1.3561  1.0355 -0.7548
 9448SOL    HW239804   0.539   3.197   5.124 -1.4722  2.1008 -0.1344
 9449SOL     OW39805   0.220   4.293  11.603 -0.1697  0.1443 -0.3511
 9449SOL    HW139806   0.248   4.293  11.512 -0.3856  1.0457 -0.4214
 9449SOL    HW239807   0.284   4.354  11.642 -1.1288  1.0303 -0.1655
 9450SOL     OW39808   0.267   4.547   0.910 -0.4735 -0.3935  0.4418
 9450SOL    HW139809   0.245   4.639   0.921 -1.0040 -0.7964  2.7591
 9450SOL    HW239810   0.353   4.544   0.868 -1.6876 -1.4428 -1.9796
 9451SOL     OW39811   1.865   1.018  12.238  0.1840 -0.1024  0.0756
 9451SOL    HW139812   1.809   1.054  12.169  2.5364 -2.0978 -2.8860
 9451SOL    HW239813   1.934   1.084  12.237 -0.8262  0.9682  1.5077
 9452SOL     OW39814   4.229   1.065   5.071  0.1900 -0.1236  0.2080
 9452SOL    HW139815   4.240   1.148   5.024  0.5800 -1.3605 -1.8660
 9452SOL    HW239816   4.212   1.093   5.161 -1.5121 -0.8161  0.1083
 9453SOL     OW39817   3.311   4.205  11.306 -0.2467  0.3478 -0.4245
 9453SOL    HW139818   3.378   4.152  11.264 -2.2456 -1.6634 -1.0761
 9453SOL    HW239819   3.232   4.151  11.316  0.5772 -0.8507 -0.4277
 9454SOL     OW39820   2.255   4.679  11.545  0.2539 -0.3876 -0.8883
 9454SOL    HW139821   2.327   4.625  11.513  0.3763 -1.4627  1.1833
 9454SOL    HW239822   2.280   0.030  11.495  0.7773  0.1700  0.2308
 9455SOL     OW39823   3.862   1.256  17.454 -0.8238  0.1950  0.4463
 9455SOL    HW139824   3.863   1.210  17.370  1.9224 -0.2770  0.7121
 9455SOL    HW239825   3.773   1.288  17.468 -0.3953  1.0373  1.2602
 9456SOL     OW39826   1.728   1.707   3.734  0.3705  0.0975 -0.2235
 9456SOL    HW139827   1.632   1.700   3.730  0.4459  0.3926 -2.4310
 9456SOL    HW239828   1.754   1.683   3.646 -0.0016  0.4770 -0.4428
 9457SOL     OW39829   3.085   3.673   5.438  0.7221  0.3226 -0.7837
 9457SOL    HW139830   3.161   3.672   5.496 -0.9890 -4.2689  1.3795
 9457SOL    HW239831   3.104   3.597   5.384 -0.8396 -0.0083 -0.8840
 9458SOL     OW39832   1.280   2.148   9.753  0.2057 -0.3416  0.2138
 9458SOL    HW139833   1.283   2.179   9.844  0.2057  0.4545 -0.0512
 9458SOL    HW239834   1.266   2.056   9.772  2.8746 -0.9940 -1.0636
 9459SOL     OW39835   0.873   3.440  12.037  0.1394  0.0657 -0.1908
 9459SOL    HW139836   0.917   3.389  11.970 -1.3779 -0.2649 -0.9355
 9459SOL    HW239837   0.930   3.516  12.025  0.2149 -0.1032 -0.8952
 9460SOL     OW39838   3.616   3.680   2.331  0.2955 -0.2358 -0.3146
 9460SOL    HW139839   3.520   3.684   2.328  0.2659 -1.6203 -1.5097
 9460SOL    HW239840   3.630   3.626   2.253  1.9875 -0.2987  0.0292
 9461SOL     OW39841   3.769   2.479  16.186 -0.3241 -0.3860  0.9656
 9461SOL    HW139842   3.789   2.411  16.121  0.6740  0.4994  0.3584
 9461SOL    HW239843   3.826   2.553  16.164  0.2187 -1.3610 -0.9393
 9462SOL     OW39844   1.705   0.217  11.908 -0.5400 -0.0714  0.2733
 9462SOL    HW139845   1.684   0.270  11.985 -0.4990  1.2578 -0.6445
 9462SOL    HW239846   1.620   0.175  11.893 -0.1494 -0.0882 -1.9409
 9463SOL     OW39847   2.297   1.805  14.539  0.3105 -0.5803 -0.4013
 9463SOL    HW139848   2.364   1.847  14.486 -0.3678  0.3390 -0.5232
 9463SOL    HW239849   2.353   1.752  14.596  1.9607 -0.1879 -1.6664
 9464SOL     OW39850   0.811   4.528   6.059  0.0741  0.0780 -0.0841
 9464SOL    HW139851   0.848   4.518   5.972  4.4223  0.1290  1.7651
 9464SOL    HW239852   0.726   4.484   6.063 -1.7167  3.6759  1.3992
 9465SOL     OW39853   4.246   3.727   7.425 -0.6765 -0.4358  0.2231
 9465SOL    HW139854   4.250   3.779   7.506  0.8871 -0.0227 -0.1160
 9465SOL    HW239855   4.296   3.649   7.447 -0.0230 -0.3789 -1.0519
 9466SOL     OW39856   3.584   3.289  14.690  0.0860 -0.0964 -0.0553
 9466SOL    HW139857   3.671   3.259  14.715 -0.2634 -2.1419 -1.2056
 9466SOL    HW239858   3.578   3.366  14.746 -0.8219 -0.2981  0.1236
 9467SOL     OW39859   4.196   4.180   2.775  0.2293 -1.0468 -0.1938
 9467SOL    HW139860   4.157   4.209   2.693  1.3772  1.3772  0.1220
 9467SOL    HW239861   4.142   4.106   2.802 -0.2305 -1.0937 -1.2257
 9468SOL     OW39862   1.158   3.032   5.747  0.2736  0.2021 -0.6898
 9468SOL    HW139863   1.243   3.071   5.767 -0.2541  1.3540 -0.6962
 9468SOL    HW239864   1.178   2.939   5.741  0.8706  0.5294 -3.5730
 9469SOL     OW39865   4.445   1.471   8.543  0.0391  0.1344  0.5240
 9469SOL    HW139866   4.359   1.509   8.524  0.8500  2.5108  1.5929
 9469SOL    HW239867   4.508   1.542   8.532  2.0268 -1.5891  0.6727
 9470SOL     OW39868   4.458   2.898   6.297  0.1889  0.1674 -0.0943
 9470SOL    HW139869   4.509   2.817   6.294 -1.4201 -0.8108 -1.1079
 9470SOL    HW239870   4.472   2.922   6.205 -2.8320 -2.3966 -1.2139
 9471SOL     OW39871   3.264   0.288   7.152  0.4232  0.3492 -0.7424
 9471SOL    HW139872   3.176   0.276   7.187 -0.4418  1.7397 -2.4909
 9471SOL    HW239873   3.309   0.326   7.228  1.5177  1.1008 -1.7715
 9472SOL     OW39874   0.214   0.029   8.266 -0.1599 -0.0803 -0.2214
 9472SOL    HW139875   0.141   0.090   8.256  0.6473  1.3152  2.3441
 9472SOL    HW239876   0.291   0.076   8.232  0.0942 -0.0928  0.3349
 9473SOL     OW39877   1.788   2.271  10.564 -0.1364  0.0976 -0.1347
 9473SOL    HW139878   1.861   2.333  10.575 -0.8185  0.5845  1.6182
 9473SOL    HW239879   1.801   2.256  10.471 -2.8183  0.5056 -0.5612
 9474SOL     OW39880   0.607   1.696  13.295 -0.5065 -0.4971  0.0539
 9474SOL    HW139881   0.692   1.652  13.298 -1.4491 -2.3849 -0.5492
 9474SOL    HW239882   0.556   1.644  13.232 -0.3169  0.1659 -0.6388
 9475SOL     OW39883   3.427   1.386   5.014  0.1231  0.3427 -0.0670
 9475SOL    HW139884   3.395   1.413   4.927  2.3768  0.0176 -0.9989
 9475SOL    HW239885   3.507   1.340   4.987 -1.7335 -2.6383 -0.5259
 9476SOL     OW39886   2.446   3.713   2.722 -0.0218  0.1646  0.2930
 9476SOL    HW139887   2.435   3.717   2.627  0.8990  0.4551  0.1972
 9476SOL    HW239888   2.395   3.786   2.757  0.4758 -0.0431  1.4541
 9477SOL     OW39889   0.778   4.358   9.614  0.0191  0.3897 -0.2301
 9477SOL    HW139890   0.739   4.359   9.702  2.7968 -0.9485  0.9901
 9477SOL    HW239891   0.777   4.453   9.600 -1.0860  0.1438 -1.8312
 9478SOL     OW39892   4.324   3.411   8.742  0.0280  0.9005  0.3377
 9478SOL    HW139893   4.402   3.463   8.762  0.8325  0.6615 -2.2021
 9478SOL    HW239894   4.267   3.435   8.815  1.1753  0.1817  1.4772
 9479SOL     OW39895   1.010   0.379   2.374 -0.1167  0.3785  0.2305
 9479SOL    HW139896   1.031   0.445   2.440 -0.4770 -0.6916  1.4283
 9479SOL    HW239897   1.009   0.303   2.433  0.5126  0.0177 -0.2250
 9480SOL     OW39898   0.314   2.018   6.065 -0.7808 -0.2787 -0.8588
 9480SOL    HW139899   0.344   1.941   6.112 -1.6412  0.2115  0.4986
 9480SOL    HW239900   0.304   1.981   5.977  2.1128 -1.1602 -0.8070
 9481SOL     OW39901   3.187   1.280  16.809 -0.4280 -0.6665  0.5328
 9481SOL    HW139902   3.168   1.366  16.770 -2.1122 -1.4137 -0.2777
 9481SOL    HW239903   3.210   1.302  16.900  0.9351  0.1673 -0.0057
 9482SOL     OW39904   4.387   2.397   3.495 -0.2011 -0.6017  0.0738
 9482SOL    HW139905   4.328   2.327   3.467 -1.0061  0.1842 -0.2003
 9482SOL    HW239906   4.406   2.432   3.408 -2.8415 -0.9238 -0.6474
 9483SOL     OW39907   2.766   0.696  14.369 -0.7292 -0.4049 -0.2364
 9483SOL    HW139908   2.728   0.696  14.281 -1.7113 -2.3491  0.1890
 9483SOL    HW239909   2.840   0.757  14.375  0.3953 -1.4830 -2.8934
 9484SOL     OW39910   3.928   4.132   2.397  0.4857 -0.2012  0.4689
 9484SOL    HW139911   3.927   4.052   2.344 -1.7737  0.3972 -0.4158
 9484SOL    HW239912   3.910   4.210   2.344 -0.3366 -1.5143 -1.1901
 9485SOL     OW39913   4.016   3.688   6.006  0.2987 -0.1046  0.1645
 9485SOL    HW139914   4.063   3.613   5.970  0.6014 -0.3887  1.1511
 9485SOL    HW239915   3.969   3.720   5.930 -0.1853 -0.3886  0.3469
 9486SOL     OW39916   0.272   2.156   2.061  0.4253  0.5279 -0.5673
 9486SOL    HW139917   0.329   2.220   2.104 -0.6250  0.4104  1.0001
 9486SOL    HW239918   0.221   2.219   2.010 -1.4476 -0.6862 -0.1975
 9487SOL     OW39919   2.993   2.186   4.668 -0.3712 -0.5288  0.2434
 9487SOL    HW139920   2.924   2.227   4.719  0.6692  2.2620 -0.6040
 9487SOL    HW239921   3.066   2.237   4.703 -1.2795  2.1413 -1.7148
 9488SOL     OW39922   0.317   3.713   5.930  0.7216  0.5143 -0.2906
 9488SOL    HW139923   0.306   3.805   5.906 -0.6504 -0.0275 -1.7988
 9488SOL    HW239924   0.323   3.721   6.026 -2.4100 -0.1407 -0.0412
 9489SOL     OW39925   0.104   2.913  12.235 -0.3087  0.4802  0.3030
 9489SOL    HW139926   0.011   2.925  12.219  0.2024  1.2833 -2.1448
 9489SOL    HW239927   0.112   2.825  12.272 -1.8447  0.6642  1.0606
 9490SOL     OW39928   2.804   3.893   9.000  0.1051  0.6101  0.3639
 9490SOL    HW139929   2.742   3.870   9.069 -1.2912  1.4357 -0.6337
 9490SOL    HW239930   2.888   3.899   9.047  0.6327  0.9211 -0.6273
 9491SOL     OW39931   2.988   2.520   5.544  0.2797  0.2028 -0.1196
 9491SOL    HW139932   3.030   2.567   5.616  0.2661  1.3609 -0.8670
 9491SOL    HW239933   3.056   2.526   5.476 -1.6101  2.2185 -1.8057
 9492SOL     OW39934   0.165   3.693  17.257 -0.1047 -0.1791 -0.3296
 9492SOL    HW139935   0.204   3.705  17.343 -1.2926  0.4881  0.1140
 9492SOL    HW239936   0.081   3.662  17.292 -0.7113  1.6218 -0.2014
 9493SOL     OW39937   1.682   1.148  11.743 -0.0901 -0.2138 -0.2520
 9493SOL    HW139938   1.775   1.138  11.726 -0.3860 -0.1480 -1.8402
 9493SOL    HW239939   1.648   1.122  11.658 -0.7522  0.4971 -0.2086
 9494SOL     OW39940   4.452   3.527  13.642 -0.1244 -0.3193  0.1833
 9494SOL    HW139941   4.450   3.486  13.555 -0.0413 -0.6765  0.3502
 9494SOL    HW239942   4.363   3.549  13.666 -1.0906 -1.3549 -2.4354
 9495SOL     OW39943   0.526   3.985   5.708 -0.1548  0.4116 -0.2220
 9495SOL    HW139944   0.499   4.076   5.703 -1.0351  0.2863  1.9398
 9495SOL    HW239945   0.458   3.936   5.661  0.0645  1.0561 -1.1953
 9496SOL     OW39946   3.232   4.180   4.315  0.3568  0.2117  0.6245
 9496SOL    HW139947   3.258   4.124   4.388  0.0506 -0.2277  0.3962
 9496SOL    HW239948   3.229   4.263   4.363 -3.3160  0.5375 -0.1877
 9497SOL     OW39949   0.873   1.556   7.483  0.3200 -0.5482 -0.3756
 9497SOL    HW139950   0.909   1.644   7.481  0.9706 -0.8673 -2.8959
 9497SOL    HW239951   0.821   1.560   7.563  0.3870  0.2803 -0.3784
 9498SOL     OW39952   2.132   3.412   6.959  0.4398  0.1309  0.9398
 9498SOL    HW139953   2.145   3.350   6.887  0.7296 -0.1419  1.2250
 9498SOL    HW239954   2.065   3.472   6.928  1.5462  0.3236 -1.1022
 9499SOL     OW39955   1.331   1.729  12.446  0.0686 -0.1294  0.1852
 9499SOL    HW139956   1.348   1.781  12.368 -0.8760  0.5225  0.4127
 9499SOL    HW239957   1.385   1.771  12.513  2.6079 -0.5800 -1.5765
 9500SOL     OW39958   2.850   0.634   1.073 -0.2404 -0.2250  0.1334
 9500SOL    HW139959   2.911   0.643   1.145 -2.1174 -0.6948  1.7808
 9500SOL    HW239960   2.887   0.691   1.005 -1.0784 -0.0055 -0.1364
 9501SOL     OW39961   0.262   4.394   3.321  0.3060  0.2967 -0.3353
 9501SOL    HW139962   0.184   4.416   3.269 -0.0781  2.2598  1.0640
 9501SOL    HW239963   0.333   4.422   3.263  0.7529 -0.6003 -0.2130
 9502SOL     OW39964   3.768   1.297   0.897 -0.1276 -0.3849  0.1329
 9502SOL    HW139965   3.759   1.347   0.978 -0.9531 -0.4550  0.0817
 9502SOL    HW239966   3.804   1.213   0.926  2.2511 -0.4993 -3.1886
 9503SOL     OW39967   1.216   3.706  10.157  0.2514  0.3018 -0.2789
 9503SOL    HW139968   1.237   3.792  10.120 -0.6123  0.2255 -0.9545
 9503SOL    HW239969   1.237   3.732  10.246 -0.0119  0.2961 -0.2166
 9504SOL     OW39970   1.066   2.008  14.385 -0.1050  0.0515 -0.0239
 9504SOL    HW139971   1.039   1.917  14.392 -1.2250  0.4677  1.0498
 9504SOL    HW239972   1.137   2.012  14.320  1.5540  0.2385  1.8009
 9505SOL     OW39973   2.459   0.222   7.002 -0.5724 -0.2309 -0.2345
 9505SOL    HW139974   2.545   0.237   7.041 -0.1642 -0.6656 -0.9613
 9505SOL    HW239975   2.412   0.257   7.077 -0.0032  0.6530 -0.2960
 9506SOL     OW39976   0.451   2.071   8.054 -0.6365  0.6706 -0.2240
 9506SOL    HW139977   0.527   2.012   8.049 -1.2703 -0.1920  0.2476
 9506SOL    HW239978   0.433   2.080   7.961  0.1130 -3.2386 -0.7556
 9507SOL     OW39979   0.366   0.075   5.833 -0.3189  0.1084 -0.4600
 9507SOL    HW139980   0.290   0.029   5.796 -0.8042 -0.5198  1.3200
 9507SOL    HW239981   0.326   0.154   5.868  0.7457  1.0126 -1.2878
 9508SOL     OW39982   3.535   2.215  13.406  0.8342 -0.0046  0.3487
 9508SOL    HW139983   3.597   2.284  13.429 -1.4237  1.3787  2.2195
 9508SOL    HW239984   3.586   2.142  13.440 -0.3110  0.2309  2.5567
 9509SOL     OW39985   2.799   2.665   3.716  0.0698  0.0237  0.4110
 9509SOL    HW139986   2.772   2.576   3.738  0.1145  0.4845  2.3659
 9509SOL    HW239987   2.854   2.692   3.789 -0.0657 -1.2835  1.0025
 9510SOL     OW39988   3.784   3.793   7.164 -0.3334  1.0560  0.0794
 9510SOL    HW139989   3.711   3.752   7.212  2.2219 -2.6300  0.8170
 9510SOL    HW239990   3.859   3.734   7.172  1.0400  2.6955 -0.8823
 9511SOL     OW39991   0.725   2.984   4.199  0.0499 -0.6500  0.4884
 9511SOL    HW139992   0.685   2.903   4.168 -0.9515 -0.0508  0.2103
 9511SOL    HW239993   0.756   3.014   4.114  0.2922  2.7332  1.7596
 9512SOL     OW39994   0.802   4.621   4.526 -0.4076  0.0694 -0.2133
 9512SOL    HW139995   0.728   4.591   4.578 -0.7159 -2.2738 -1.9919
 9512SOL    HW239996   0.778   4.597   4.436  3.0538 -1.3635 -0.7655
 9513SOL     OW39997   3.783   2.976   4.698 -0.3309 -0.2615 -0.5269
 9513SOL    HW139998   3.765   2.953   4.607  1.3797 -0.9771 -0.6762
 9513SOL    HW239999   3.729   2.905   4.735 -2.5561  0.1833 -2.8966
 9514SOL     OW40000   1.691   3.353  13.143  0.2745 -0.3364 -0.2586
 9514SOL    HW140001   1.717   3.387  13.229  0.4039 -0.3415 -0.2967
 9514SOL    HW240002   1.597   3.368  13.136  0.4288  0.9607  0.4051
 9515SOL     OW40003   3.352   1.128   6.022 -0.2585  0.3458  0.2695
 9515SOL    HW140004   3.388   1.085   5.944  0.0614  0.9498  0.0804
 9515SOL    HW240005   3.260   1.111   6.003  0.3406  0.4290 -2.7545
 9516SOL     OW40006   3.674   3.774  13.444 -0.1779  0.3581  0.1292
 9516SOL    HW140007   3.640   3.859  13.471  1.3410  0.0635  2.9970
 9516SOL    HW240008   3.770   3.782  13.446 -0.0463 -1.2810  0.6105
 9517SOL     OW40009   0.832   1.479   4.043 -0.3797 -0.7646 -0.7041
 9517SOL    HW140010   0.785   1.428   4.108 -1.0188 -0.2684 -0.7788
 9517SOL    HW240011   0.888   1.412   4.003  0.2825 -1.5217  1.5216
 9518SOL     OW40012   3.996   3.751   4.037  0.1998  0.1990 -0.3259
 9518SOL    HW140013   4.053   3.702   3.979  0.6849 -0.6874  0.8917
 9518SOL    HW240014   3.994   3.838   3.996 -2.1222  0.1757 -0.2767
 9519SOL     OW40015   3.953   4.489   9.050  0.0207  0.5906  0.1420
 9519SOL    HW140016   3.896   4.559   9.081 -0.2549  1.5848 -2.6138
 9519SOL    HW240017   4.013   4.478   9.124  1.3178  0.7503 -0.8832
 9520SOL     OW40018   0.221   4.094  13.579 -0.0765 -0.8084 -0.2669
 9520SOL    HW140019   0.139   4.084  13.531 -0.4933 -0.8934  0.4598
 9520SOL    HW240020   0.238   4.186  13.558 -0.4994 -0.3462  1.3881
 9521SOL     OW40021   4.320   2.328   4.823  0.1461  0.1486  0.0863
 9521SOL    HW140022   4.273   2.379   4.757 -0.0658 -1.8386 -1.3268
 9521SOL    HW240023   4.396   2.310   4.767 -0.4188 -0.5192 -0.4680
 9522SOL     OW40024   2.752   0.639   5.504  0.4788  0.2444  0.3045
 9522SOL    HW140025   2.821   0.596   5.454  3.0265  2.3320  2.0334
 9522SOL    HW240026   2.800   0.721   5.518  1.6121 -0.2212 -0.8114
 9523SOL     OW40027   3.592   1.080  16.646  0.2009  0.5224 -0.2810
 9523SOL    HW140028   3.496   1.082  16.648  0.2796  2.1465  2.1155
 9523SOL    HW240029   3.605   1.079  16.552 -1.3012  0.2401 -0.4881
 9524SOL     OW40030   1.082   3.762  12.378 -0.0803  0.5577  0.1782
 9524SOL    HW140031   1.002   3.729  12.419  0.6540 -0.5467  0.7065
 9524SOL    HW240032   1.139   3.746  12.453 -0.3370  0.7377  0.4094
 9525SOL     OW40033   1.251   4.352   8.736 -0.3271  0.0609  0.2496
 9525SOL    HW140034   1.318   4.421   8.734  2.0634 -2.2685 -0.3054
 9525SOL    HW240035   1.292   4.287   8.678 -1.2559 -1.3599  1.1841
 9526SOL     OW40036   0.079   3.648  15.876  0.1344  0.2470 -0.5790
 9526SOL    HW140037   0.056   3.741  15.872 -0.7460  0.0703  0.3855
 9526SOL    HW240038   0.173   3.661  15.886  0.0423 -1.7523  3.0459
 9527SOL     OW40039   0.175   2.873   6.136 -0.0570  0.0416 -0.0387
 9527SOL    HW140040   0.100   2.926   6.108 -0.3079 -0.5008 -0.3913
 9527SOL    HW240041   0.200   2.824   6.058 -0.6408 -1.9673  1.0402
 9528SOL     OW40042   4.554   0.214   2.834 -0.0982 -0.5132 -0.3806
 9528SOL    HW140043   4.620   0.196   2.900  0.4702 -0.0294 -0.8176
 9528SOL    HW240044   4.582   0.293   2.788 -0.9905 -0.1738 -0.3340
 9529SOL     OW40045   2.192   4.605  17.279 -0.1181 -0.1746 -0.8142
 9529SOL    HW140046   2.269   4.638  17.325  0.7585 -1.1992 -1.5419
 9529SOL    HW240047   2.120   4.599  17.342  1.6050  0.7777  1.2286
 9530SOL     OW40048   1.300   4.435   2.406 -0.4066 -0.1905 -0.1460
 9530SOL    HW140049   1.319   4.496   2.334 -0.9772  0.5996  0.3794
 9530SOL    HW240050   1.375   4.454   2.463  0.4623 -0.7425 -1.0990
 9531SOL     OW40051   2.316   4.019   1.112 -0.0809 -0.6022  0.4115
 9531SOL    HW140052   2.309   4.109   1.143  0.4200  0.0802 -1.4136
 9531SOL    HW240053   2.246   3.977   1.162  0.2010 -0.7576  0.6751
 9532SOL     OW40054   1.056   2.375  16.990 -0.3176  0.5003  0.1699
 9532SOL    HW140055   1.102   2.389  16.907  0.3407  0.4220  0.5210
 9532SOL    HW240056   1.014   2.291  16.972  0.7529 -0.2848  1.3599
 9533SOL     OW40057   2.226   1.698   8.746 -0.2272  0.0515  0.4414
 9533SOL    HW140058   2.299   1.651   8.785  1.0947  0.5443 -1.4071
 9533SOL    HW240059   2.252   1.784   8.777 -2.5596  0.4631  1.1901
 9534SOL     OW40060   4.660   3.935   2.789  0.0905 -0.1395  0.4248
 9534SOL    HW140061   4.593   4.003   2.788 -1.0970 -1.3548 -1.4289
 9534SOL    HW240062   4.708   3.958   2.709  0.1732  1.3966  0.9193
 9535SOL     OW40063   0.227   3.156   8.189  0.7913 -0.4335  0.6360
 9535SOL    HW140064   0.135   3.177   8.209  0.7041  0.0698 -0.2901
 9535SOL    HW240065   0.236   3.067   8.222  1.2161 -0.9537 -0.8616
 9536SOL     OW40066   2.220   1.304   8.657 -0.2736  0.3510  0.0088
 9536SOL    HW140067   2.192   1.393   8.635  0.4688  0.9274  1.3568
 9536SOL    HW240068   2.293   1.303   8.595 -0.7810 -1.4733 -0.5707
 9537SOL     OW40069   2.083   4.138   6.912  0.1389 -0.0112 -0.6101
 9537SOL    HW140070   2.064   4.122   6.819  0.1635 -0.1078 -0.5980
 9537SOL    HW240071   1.997   4.174   6.932  0.1707 -0.3190  0.0537
 9538SOL     OW40072   4.475   0.630   7.668  0.4398 -0.5036 -0.0451
 9538SOL    HW140073   4.379   0.632   7.664  0.4228 -0.2869  0.3878
 9538SOL    HW240074   4.493   0.695   7.600 -0.1015  0.6818  0.9479
 9539SOL     OW40075   1.625   1.517   7.580  0.5016 -0.0662  0.6773
 9539SOL    HW140076   1.562   1.461   7.626  0.7926  0.5969  1.8776
 9539SOL    HW240077   1.692   1.498   7.646 -0.7409  1.6876  2.4630
 9540SOL     OW40078   0.318   1.379  14.157 -0.2266 -0.5435 -0.4273
 9540SOL    HW140079   0.262   1.435  14.104 -0.0652 -0.2388 -0.2732
 9540SOL    HW240080   0.311   1.302  14.100 -2.7025 -1.2458  0.8695
 9541SOL     OW40081   4.608   3.135   5.146 -0.1327 -0.1415 -0.1073
 9541SOL    HW140082   4.645   3.205   5.092 -0.5145  0.7434  0.7760
 9541SOL    HW240083   4.620   3.065   5.082 -0.5970  0.4636 -0.8505
 9542SOL     OW40084   1.464   4.269   9.038 -0.1136  0.0853  0.1307
 9542SOL    HW140085   1.503   4.274   8.951  1.9541  1.3355  1.1457
 9542SOL    HW240086   1.451   4.174   9.041 -0.8505  0.0896 -2.5046
 9543SOL     OW40087   3.516   0.445   4.557 -0.3503 -0.6177  0.8521
 9543SOL    HW140088   3.506   0.356   4.524  2.7943 -0.5659 -0.3046
 9543SOL    HW240089   3.577   0.479   4.491 -0.2357 -1.3330  0.5973
 9544SOL     OW40090   1.557   0.861   3.795 -0.4745  0.3581 -0.0194
 9544SOL    HW140091   1.557   0.795   3.864 -1.3339 -0.9485 -1.2579
 9544SOL    HW240092   1.480   0.841   3.741 -1.4445  2.3960  0.6069
 9545SOL     OW40093   2.510   2.480   0.128 -0.4771 -0.2359 -0.3519
 9545SOL    HW140094   2.553   2.504   0.046  0.9087  0.2777  0.5257
 9545SOL    HW240095   2.529   2.386   0.122 -1.5307 -0.5156  0.6226
 9546SOL     OW40096   2.041   2.850   9.354  0.3138 -0.1287  0.1374
 9546SOL    HW140097   2.030   2.756   9.369 -0.1059  0.3696  3.0314
 9546SOL    HW240098   2.131   2.872   9.378  0.2864 -1.6616  1.6519
 9547SOL     OW40099   1.846   0.899   8.812  0.1740 -0.1311 -0.0236
 9547SOL    HW140100   1.900   0.951   8.752 -1.9681  0.9341 -1.0261
 9547SOL    HW240101   1.915   0.834   8.826  0.1100 -0.0468  0.6452
 9548SOL     OW40102   1.688   3.109   4.479 -0.0611 -0.0171  0.7143
 9548SOL    HW140103   1.725   3.150   4.557  2.7745 -1.0720 -0.0668
 9548SOL    HW240104   1.766   3.063   4.446 -0.9478 -0.3040 -0.9680
 9549SOL     OW40105   0.338   2.711   2.274 -0.0514 -0.4467  0.1396
 9549SOL    HW140106   0.249   2.717   2.308  0.3742  1.1173  1.0169
 9549SOL    HW240107   0.376   2.673   2.353  0.8227  0.7324  0.2977
 9550SOL     OW40108   2.228   1.546   4.198  0.5371 -0.0214  0.4137
 9550SOL    HW140109   2.225   1.497   4.116 -1.5608  0.8932 -0.0799
 9550SOL    HW240110   2.279   1.497   4.261 -0.3800 -3.6784 -1.7087
 9551SOL     OW40111   1.328   1.511  11.898  0.5206  0.0236  0.1765
 9551SOL    HW140112   1.305   1.475  11.983 -0.9206 -1.0990 -0.6829
 9551SOL    HW240113   1.409   1.465  11.878  0.4680 -0.0726  0.1871
 9552SOL     OW40114   1.899   0.437   3.424  0.3575 -0.6702  0.0277
 9552SOL    HW140115   1.869   0.348   3.405  1.5050 -1.0442 -0.0120
 9552SOL    HW240116   1.994   0.432   3.412  0.5694 -0.4776  1.6566
 9553SOL     OW40117   0.226   0.968   2.288 -0.3625  0.3929 -0.0661
 9553SOL    HW140118   0.145   1.005   2.255  0.7461  3.1451  0.3132
 9553SOL    HW240119   0.279   1.047   2.300 -1.3178  1.2372 -1.4724
 9554SOL     OW40120   4.277   0.190   1.640  0.2004 -0.0094 -0.0845
 9554SOL    HW140121   4.265   0.282   1.617  1.9063 -0.0606 -1.1846
 9554SOL    HW240122   4.242   0.191   1.729 -3.2928  0.7004 -1.4805
 9555SOL     OW40123   2.301   3.958   3.408 -0.3980  0.4547  0.2843
 9555SOL    HW140124   2.331   3.889   3.349  1.1114  1.4788 -0.1455
 9555SOL    HW240125   2.370   4.020   3.387 -0.3542  0.5312  0.6567
 9556SOL     OW40126   0.282   0.623   4.637  0.2335  0.4234  0.4792
 9556SOL    HW140127   0.201   0.657   4.598  0.1465 -0.3361  0.0075
 9556SOL    HW240128   0.302   0.692   4.700 -0.6457  2.0460 -1.0225
 9557SOL     OW40129   1.143   4.410   2.835 -0.2807 -0.2390 -0.5619
 9557SOL    HW140130   1.236   4.432   2.825 -0.0967 -0.5885  0.3570
 9557SOL    HW240131   1.124   4.452   2.919 -0.2013 -1.6334  0.1521
 9558SOL     OW40132   4.463   1.272   8.733  0.0875 -0.7353  0.2019
 9558SOL    HW140133   4.492   1.207   8.669 -2.0870 -2.0954  0.5750
 9558SOL    HW240134   4.441   1.345   8.674  2.3802  2.4807  3.3311
 9559SOL     OW40135   0.210   0.146  14.712 -0.3351  0.4984  0.2204
 9559SOL    HW140136   0.150   0.074  14.730  0.7099 -0.4105  0.0891
 9559SOL    HW240137   0.181   0.213  14.774  0.9627  3.3073 -2.1991
 9560SOL     OW40138   4.626   0.853   0.754  0.0436 -0.0754 -0.1615
 9560SOL    HW140139   4.659   0.941   0.738  0.7312 -0.3120 -0.0351
 9560SOL    HW240140   4.708   0.809   0.773  0.3714  0.7593  0.3744
 9561SOL     OW40141   1.521   4.596   3.121  0.0272  0.0149 -0.1751
 9561SOL    HW140142   1.541   4.597   3.027 -0.3987 -1.6577 -0.2926
 9561SOL    HW240143   1.483   4.508   3.125 -0.4138  0.2709  1.3430
 9562SOL     OW40144   0.094   1.461  17.628 -0.2441  0.8306  0.2260
 9562SOL    HW140145   0.055   1.378  17.603 -1.0856  1.2266  0.2080
 9562SOL    HW240146   0.174   1.429  17.669 -0.7034 -0.0838  0.3957
 9563SOL     OW40147   3.259   3.321   1.391  0.2049 -0.3864  0.0328
 9563SOL    HW140148   3.199   3.393   1.408  0.1440 -0.4060 -0.0945
 9563SOL    HW240149   3.252   3.308   1.296  1.9410  0.7969 -0.2524
 9564SOL     OW40150   3.244   0.113   8.998  0.2843  0.5715  0.3634
 9564SOL    HW140151   3.239   0.134   9.091 -0.8292 -1.1503  0.6963
 9564SOL    HW240152   3.155   0.129   8.967 -0.0228 -0.1462  0.8687
 9565SOL     OW40153   0.015   3.529   6.255 -0.5656  0.4325  0.4688
 9565SOL    HW140154   0.096   3.522   6.305 -0.1514  2.6558  0.1447
 9565SOL    HW240155   4.712   3.438   6.248 -0.8277  0.6060 -0.7788
   4.72578   4.72578  17.70435
